 Entering Gaussian System, Link 0=/share/apps/g09/g09
 Input=C6H14_4_2_opt_B3L.gjf
 Output=C6H14_4_2_opt_B3L.log
 Initial command:
 /share/apps/g09/l1.exe /state/partition1/Gau-15944.inp -scrdir=/state/partition1/
 Entering Link 1 = /share/apps/g09/l1.exe PID=     15953.
  
 Copyright (c) 1988,1990,1992,1993,1995,1998,2003,2009, Gaussian, Inc.
                  All Rights Reserved.
  
 This is part of the Gaussian(R) 09 program.  It is based on
 the Gaussian(R) 03 system (copyright 2003, Gaussian, Inc.),
 the Gaussian(R) 98 system (copyright 1998, Gaussian, Inc.),
 the Gaussian(R) 94 system (copyright 1995, Gaussian, Inc.),
 the Gaussian 92(TM) system (copyright 1992, Gaussian, Inc.),
 the Gaussian 90(TM) system (copyright 1990, Gaussian, Inc.),
 the Gaussian 88(TM) system (copyright 1988, Gaussian, Inc.),
 the Gaussian 86(TM) system (copyright 1986, Carnegie Mellon
 University), and the Gaussian 82(TM) system (copyright 1983,
 Carnegie Mellon University). Gaussian is a federally registered
 trademark of Gaussian, Inc.
  
 This software contains proprietary and confidential information,
 including trade secrets, belonging to Gaussian, Inc.
  
 This software is provided under written license and may be
 used, copied, transmitted, or stored only in accord with that
 written license.
  
 The following legend is applicable only to US Government
 contracts under FAR:
  
                    RESTRICTED RIGHTS LEGEND
  
 Use, reproduction and disclosure by the US Government is
 subject to restrictions as set forth in subparagraphs (a)
 and (c) of the Commercial Computer Software - Restricted
 Rights clause in FAR 52.227-19.
  
 Gaussian, Inc.
 340 Quinnipiac St., Bldg. 40, Wallingford CT 06492
  
  
 ---------------------------------------------------------------
 Warning -- This program may not be used in any manner that
 competes with the business of Gaussian, Inc. or will provide
 assistance to any competitor of Gaussian, Inc.  The licensee
 of this program is prohibited from giving any competitor of
 Gaussian, Inc. access to this program.  By using this program,
 the user acknowledges that Gaussian, Inc. is engaged in the
 business of creating and licensing software in the field of
 computational chemistry and represents and warrants to the
 licensee that it is not a competitor of Gaussian, Inc. and that
 it will not use this program in any manner prohibited above.
 ---------------------------------------------------------------
  

 Cite this work as:
 Gaussian 09, Revision A.01,
 M. J. Frisch, G. W. Trucks, H. B. Schlegel, G. E. Scuseria, 
 M. A. Robb, J. R. Cheeseman, G. Scalmani, V. Barone, B. Mennucci, 
 G. A. Petersson, H. Nakatsuji, M. Caricato, X. Li, H. P. Hratchian, 
 A. F. Izmaylov, J. Bloino, G. Zheng, J. L. Sonnenberg, M. Hada, 
 M. Ehara, K. Toyota, R. Fukuda, J. Hasegawa, M. Ishida, T. Nakajima, 
 Y. Honda, O. Kitao, H. Nakai, T. Vreven, J. A. Montgomery, Jr., 
 J. E. Peralta, F. Ogliaro, M. Bearpark, J. J. Heyd, E. Brothers, 
 K. N. Kudin, V. N. Staroverov, R. Kobayashi, J. Normand, 
 K. Raghavachari, A. Rendell, J. C. Burant, S. S. Iyengar, J. Tomasi, 
 M. Cossi, N. Rega, J. M. Millam, M. Klene, J. E. Knox, J. B. Cross, 
 V. Bakken, C. Adamo, J. Jaramillo, R. Gomperts, R. E. Stratmann, 
 O. Yazyev, A. J. Austin, R. Cammi, C. Pomelli, J. W. Ochterski, 
 R. L. Martin, K. Morokuma, V. G. Zakrzewski, G. A. Voth, 
 P. Salvador, J. J. Dannenberg, S. Dapprich, A. D. Daniels, 
 O. Farkas, J. B. Foresman, J. V. Ortiz, J. Cioslowski, 
 and D. J. Fox, Gaussian, Inc., Wallingford CT, 2009.
 
 ******************************************
 Gaussian 09:  EM64L-G09RevA.01  8-May-2009
                 4-Oct-2015 
 ******************************************
 %mem=6GB
 %nprocshared=4
 Will use up to    4 processors via shared memory.
 ----------------------------------------------
 #p B3LYP/6-31G(d) opt=tight int=ultrafine freq
 ----------------------------------------------
 1/7=10,14=-1,18=20,19=15,26=3,38=1/1,3;
 2/9=110,12=2,17=6,18=5,40=1/2;
 3/5=1,6=6,7=1,11=2,16=1,25=1,30=1,71=1,74=-5,75=-5/1,2,3;
 4//1;
 5/5=2,38=5/2;
 6/7=2,8=2,9=2,10=2,28=1/1;
 7//1,2,3,16;
 1/7=10,14=-1,18=20,19=15/3(2);
 2/9=110/2;
 99//99;
 2/9=110/2;
 3/5=1,6=6,7=1,11=2,16=1,25=1,30=1,71=1,74=-5,75=-5/1,2,3;
 4/5=5,16=3/1;
 5/5=2,38=5/2;
 7//1,2,3,16;
 1/7=10,14=-1,18=20,19=15/3(-5);
 2/9=110/2;
 6/7=2,8=2,9=2,10=2,19=2,28=1/1;
 99/9=1/99;
 Leave Link    1 at Sun Oct  4 11:28:17 2015, MaxMem=  805306368 cpu:       0.1
 (Enter /share/apps/g09/l101.exe)
 ---------------------------------------------
 using B3LYP/6-31G(d) to do opt and freq calc.
 ---------------------------------------------
 Symbolic Z-matrix:
 Charge =  0 Multiplicity = 1
 C                     0.        1.51847  -1.25474 
 H                    -0.3492    1.04222  -2.17588 
 H                     1.08502   1.66469  -1.34294 
 H                    -0.46222   2.51133  -1.20412 
 C                    -0.34297   0.69663  0. 
 H                    -1.43142   0.52251  -0.00001 
 C                     0.34297  -0.69663  0. 
 H                     1.43142  -0.52251  -0.00001 
 C                     0.       -1.51846   1.25474 
 H                    -1.08502  -1.66469   1.34295 
 H                     0.46224  -2.51132   1.20413 
 H                     0.34921  -1.0422    2.17588 
 C                    0.         1.51846   1.25474 
 H                    -0.34921   1.0422    2.17588 
 H                     1.08502   1.66469   1.34295 
 H                    -0.46224   2.51132   1.20413 
 C                    0.        -1.51847  -1.25474 
 H                    -1.08502  -1.66469  -1.34294 
 H                     0.3492   -1.04222  -2.17588 
 H                     0.46222  -2.51133  -1.20412 
 
 NAtoms=     20 NQM=     20 NQMF=      0 NMic=      0 NMicF=      0 NTot=     20.
                    Isotopes and Nuclear Properties:
 (Nuclear quadrupole moments (NQMom) in fm**2, nuclear magnetic moments (NMagM)
  in nuclear magnetons)

  Atom         1           2           3           4           5           6           7           8           9          10
 IAtWgt=          12           1           1           1          12           1          12           1          12           1
 AtmWgt=  12.0000000   1.0078250   1.0078250   1.0078250  12.0000000   1.0078250  12.0000000   1.0078250  12.0000000   1.0078250
 NucSpn=           0           1           1           1           0           1           0           1           0           1
 AtZEff=   0.0000000   0.0000000   0.0000000   0.0000000   0.0000000   0.0000000   0.0000000   0.0000000   0.0000000   0.0000000
 NQMom=    0.0000000   0.0000000   0.0000000   0.0000000   0.0000000   0.0000000   0.0000000   0.0000000   0.0000000   0.0000000
 NMagM=    0.0000000   2.7928460   2.7928460   2.7928460   0.0000000   2.7928460   0.0000000   2.7928460   0.0000000   2.7928460

  Atom        11          12          13          14          15          16          17          18          19          20
 IAtWgt=           1           1          12           1           1           1          12           1           1           1
 AtmWgt=   1.0078250   1.0078250  12.0000000   1.0078250   1.0078250   1.0078250  12.0000000   1.0078250   1.0078250   1.0078250
 NucSpn=           1           1           0           1           1           1           0           1           1           1
 AtZEff=   0.0000000   0.0000000   0.0000000   0.0000000   0.0000000   0.0000000   0.0000000   0.0000000   0.0000000   0.0000000
 NQMom=    0.0000000   0.0000000   0.0000000   0.0000000   0.0000000   0.0000000   0.0000000   0.0000000   0.0000000   0.0000000
 NMagM=    2.7928460   2.7928460   0.0000000   2.7928460   2.7928460   2.7928460   0.0000000   2.7928460   2.7928460   2.7928460
 Leave Link  101 at Sun Oct  4 11:28:18 2015, MaxMem=  805306368 cpu:       0.3
 (Enter /share/apps/g09/l103.exe)

 GradGradGradGradGradGradGradGradGradGradGradGradGradGradGradGradGradGrad
 Berny optimization.
 Initialization pass.
                           ----------------------------
                           !    Initial Parameters    !
                           ! (Angstroms and Degrees)  !
 --------------------------                            --------------------------
 ! Name  Definition              Value          Derivative Info.                !
 --------------------------------------------------------------------------------
 ! R1    R(1,2)                  1.0942         estimate D2E/DX2                !
 ! R2    R(1,3)                  1.0984         estimate D2E/DX2                !
 ! R3    R(1,4)                  1.0964         estimate D2E/DX2                !
 ! R4    R(1,5)                  1.5386         estimate D2E/DX2                !
 ! R5    R(5,6)                  1.1023         estimate D2E/DX2                !
 ! R6    R(5,7)                  1.553          estimate D2E/DX2                !
 ! R7    R(5,13)                 1.5386         estimate D2E/DX2                !
 ! R8    R(7,8)                  1.1023         estimate D2E/DX2                !
 ! R9    R(7,9)                  1.5386         estimate D2E/DX2                !
 ! R10   R(7,17)                 1.5386         estimate D2E/DX2                !
 ! R11   R(9,10)                 1.0984         estimate D2E/DX2                !
 ! R12   R(9,11)                 1.0964         estimate D2E/DX2                !
 ! R13   R(9,12)                 1.0942         estimate D2E/DX2                !
 ! R14   R(13,14)                1.0942         estimate D2E/DX2                !
 ! R15   R(13,15)                1.0984         estimate D2E/DX2                !
 ! R16   R(13,16)                1.0964         estimate D2E/DX2                !
 ! R17   R(17,18)                1.0984         estimate D2E/DX2                !
 ! R18   R(17,19)                1.0942         estimate D2E/DX2                !
 ! R19   R(17,20)                1.0964         estimate D2E/DX2                !
 ! A1    A(2,1,3)              107.7948         estimate D2E/DX2                !
 ! A2    A(2,1,4)              107.3664         estimate D2E/DX2                !
 ! A3    A(2,1,5)              112.5127         estimate D2E/DX2                !
 ! A4    A(3,1,4)              107.4352         estimate D2E/DX2                !
 ! A5    A(3,1,5)              110.903          estimate D2E/DX2                !
 ! A6    A(4,1,5)              110.6147         estimate D2E/DX2                !
 ! A7    A(1,5,6)              107.7267         estimate D2E/DX2                !
 ! A8    A(1,5,7)              112.3799         estimate D2E/DX2                !
 ! A9    A(1,5,13)             109.2712         estimate D2E/DX2                !
 ! A10   A(6,5,7)              107.1236         estimate D2E/DX2                !
 ! A11   A(6,5,13)             107.7267         estimate D2E/DX2                !
 ! A12   A(7,5,13)             112.3798         estimate D2E/DX2                !
 ! A13   A(5,7,8)              107.1236         estimate D2E/DX2                !
 ! A14   A(5,7,9)              112.3798         estimate D2E/DX2                !
 ! A15   A(5,7,17)             112.3799         estimate D2E/DX2                !
 ! A16   A(8,7,9)              107.7267         estimate D2E/DX2                !
 ! A17   A(8,7,17)             107.7267         estimate D2E/DX2                !
 ! A18   A(9,7,17)             109.2712         estimate D2E/DX2                !
 ! A19   A(7,9,10)             110.9029         estimate D2E/DX2                !
 ! A20   A(7,9,11)             110.6147         estimate D2E/DX2                !
 ! A21   A(7,9,12)             112.5127         estimate D2E/DX2                !
 ! A22   A(10,9,11)            107.4351         estimate D2E/DX2                !
 ! A23   A(10,9,12)            107.7949         estimate D2E/DX2                !
 ! A24   A(11,9,12)            107.3665         estimate D2E/DX2                !
 ! A25   A(5,13,14)            112.5127         estimate D2E/DX2                !
 ! A26   A(5,13,15)            110.9029         estimate D2E/DX2                !
 ! A27   A(5,13,16)            110.6147         estimate D2E/DX2                !
 ! A28   A(14,13,15)           107.7949         estimate D2E/DX2                !
 ! A29   A(14,13,16)           107.3665         estimate D2E/DX2                !
 ! A30   A(15,13,16)           107.4351         estimate D2E/DX2                !
 ! A31   A(7,17,18)            110.903          estimate D2E/DX2                !
 ! A32   A(7,17,19)            112.5127         estimate D2E/DX2                !
 ! A33   A(7,17,20)            110.6147         estimate D2E/DX2                !
 ! A34   A(18,17,19)           107.7948         estimate D2E/DX2                !
 ! A35   A(18,17,20)           107.4352         estimate D2E/DX2                !
 ! A36   A(19,17,20)           107.3664         estimate D2E/DX2                !
 ! D1    D(2,1,5,6)            -55.3357         estimate D2E/DX2                !
 ! D2    D(2,1,5,7)             62.4335         estimate D2E/DX2                !
 ! D3    D(2,1,5,13)          -172.1045         estimate D2E/DX2                !
 ! D4    D(3,1,5,6)           -176.1611         estimate D2E/DX2                !
 ! D5    D(3,1,5,7)            -58.3918         estimate D2E/DX2                !
 ! D6    D(3,1,5,13)            67.0702         estimate D2E/DX2                !
 ! D7    D(4,1,5,6)             64.7384         estimate D2E/DX2                !
 ! D8    D(4,1,5,7)           -177.4924         estimate D2E/DX2                !
 ! D9    D(4,1,5,13)           -52.0304         estimate D2E/DX2                !
 ! D10   D(1,5,7,8)             61.8736         estimate D2E/DX2                !
 ! D11   D(1,5,7,9)            179.9995         estimate D2E/DX2                !
 ! D12   D(1,5,7,17)           -56.2525         estimate D2E/DX2                !
 ! D13   D(6,5,7,8)            179.9996         estimate D2E/DX2                !
 ! D14   D(6,5,7,9)            -61.8745         estimate D2E/DX2                !
 ! D15   D(6,5,7,17)            61.8736         estimate D2E/DX2                !
 ! D16   D(13,5,7,8)           -61.8745         estimate D2E/DX2                !
 ! D17   D(13,5,7,9)            56.2515         estimate D2E/DX2                !
 ! D18   D(13,5,7,17)          179.9995         estimate D2E/DX2                !
 ! D19   D(1,5,13,14)          172.1048         estimate D2E/DX2                !
 ! D20   D(1,5,13,15)          -67.0699         estimate D2E/DX2                !
 ! D21   D(1,5,13,16)           52.0306         estimate D2E/DX2                !
 ! D22   D(6,5,13,14)           55.336          estimate D2E/DX2                !
 ! D23   D(6,5,13,15)          176.1614         estimate D2E/DX2                !
 ! D24   D(6,5,13,16)          -64.7381         estimate D2E/DX2                !
 ! D25   D(7,5,13,14)          -62.4331         estimate D2E/DX2                !
 ! D26   D(7,5,13,15)           58.3922         estimate D2E/DX2                !
 ! D27   D(7,5,13,16)          177.4928         estimate D2E/DX2                !
 ! D28   D(5,7,9,10)            58.3922         estimate D2E/DX2                !
 ! D29   D(5,7,9,11)           177.4928         estimate D2E/DX2                !
 ! D30   D(5,7,9,12)           -62.4331         estimate D2E/DX2                !
 ! D31   D(8,7,9,10)           176.1614         estimate D2E/DX2                !
 ! D32   D(8,7,9,11)           -64.7381         estimate D2E/DX2                !
 ! D33   D(8,7,9,12)            55.336          estimate D2E/DX2                !
 ! D34   D(17,7,9,10)          -67.0699         estimate D2E/DX2                !
 ! D35   D(17,7,9,11)           52.0306         estimate D2E/DX2                !
 ! D36   D(17,7,9,12)          172.1048         estimate D2E/DX2                !
 ! D37   D(5,7,17,18)          -58.3918         estimate D2E/DX2                !
 ! D38   D(5,7,17,19)           62.4335         estimate D2E/DX2                !
 ! D39   D(5,7,17,20)         -177.4924         estimate D2E/DX2                !
 ! D40   D(8,7,17,18)         -176.1611         estimate D2E/DX2                !
 ! D41   D(8,7,17,19)          -55.3357         estimate D2E/DX2                !
 ! D42   D(8,7,17,20)           64.7384         estimate D2E/DX2                !
 ! D43   D(9,7,17,18)           67.0702         estimate D2E/DX2                !
 ! D44   D(9,7,17,19)         -172.1045         estimate D2E/DX2                !
 ! D45   D(9,7,17,20)          -52.0304         estimate D2E/DX2                !
 --------------------------------------------------------------------------------
 Trust Radius=3.00D-01 FncErr=1.00D-07 GrdErr=1.00D-06
 Number of steps in this run= 110 maximum allowed number of steps= 120.
 GradGradGradGradGradGradGradGradGradGradGradGradGradGradGradGradGradGrad

 Leave Link  103 at Sun Oct  4 11:28:18 2015, MaxMem=  805306368 cpu:       0.0
 (Enter /share/apps/g09/l202.exe)
                          Input orientation:                          
 ---------------------------------------------------------------------
 Center     Atomic      Atomic             Coordinates (Angstroms)
 Number     Number       Type             X           Y           Z
 ---------------------------------------------------------------------
      1          6           0        0.000004    1.518469   -1.254742
      2          1           0       -0.349202    1.042219   -2.175878
      3          1           0        1.085023    1.664691   -1.342941
      4          1           0       -0.462224    2.511330   -1.204123
      5          6           0       -0.342970    0.696632   -0.000002
      6          1           0       -1.431421    0.522513   -0.000006
      7          6           0        0.342970   -0.696632   -0.000002
      8          1           0        1.431421   -0.522513   -0.000006
      9          6           0        0.000004   -1.518461    1.254744
     10          1           0       -1.085015   -1.664687    1.342947
     11          1           0        0.462235   -2.511321    1.204131
     12          1           0        0.349211   -1.042203    2.175875
     13          6           0       -0.000004    1.518461    1.254744
     14          1           0       -0.349211    1.042203    2.175875
     15          1           0        1.085015    1.664687    1.342947
     16          1           0       -0.462235    2.511321    1.204131
     17          6           0       -0.000004   -1.518469   -1.254742
     18          1           0       -1.085023   -1.664691   -1.342941
     19          1           0        0.349202   -1.042219   -2.175878
     20          1           0        0.462224   -2.511330   -1.204123
 ---------------------------------------------------------------------
                    Distance matrix (angstroms):
                    1          2          3          4          5
     1  C    0.000000
     2  H    1.094189   0.000000
     3  H    1.098374   1.771513   0.000000
     4  H    1.096353   1.765041   1.769192   0.000000
     5  C    1.538642   2.203158   2.186272   2.181114   0.000000
     6  H    2.148318   2.485098   3.072545   2.518856   1.102290
     7  C    2.568788   2.870042   2.816021   3.519839   1.552964
     8  H    2.790864   3.217674   2.589851   3.773591   2.152853
     9  C    3.939602   4.295136   4.249434   4.743300   2.568785
    10  H    4.249440   4.500099   4.796646   4.930979   2.816020
    11  H    4.743303   4.970969   4.930975   5.646356   3.519837
    12  H    4.295127   4.875485   4.500084   4.970957   2.870035
    13  C    2.509486   3.481079   2.818978   2.691740   1.538641
    14  H    3.481079   4.351753   3.850530   3.687207   2.203157
    15  H    2.818974   3.850529   2.685888   3.098115   2.186272
    16  H    2.691742   3.687207   3.098123   2.408254   2.181114
    17  C    3.036938   2.743639   3.364160   4.056537   2.568788
    18  H    3.364160   2.926188   3.974152   4.224488   2.816021
    19  H    2.743639   2.198329   2.926188   3.772324   2.870042
    20  H    4.056537   3.772324   4.224488   5.107026   3.519839
                    6          7          8          9         10
     6  H    0.000000
     7  C    2.152853   0.000000
     8  H    3.047613   1.102290   0.000000
     9  C    2.790869   1.538641   2.148317   0.000000
    10  H    2.589858   2.186272   3.072545   1.098375   0.000000
    11  H    3.773596   2.181114   2.518854   1.096353   1.769192
    12  H    3.217677   2.203157   2.485098   1.094189   1.771513
    13  C    2.148317   2.568785   2.790869   3.036922   3.364143
    14  H    2.485098   2.870035   3.217677   2.743617   2.926163
    15  H    3.072545   2.816020   2.589858   3.364143   3.974137
    16  H    2.518854   3.519837   3.773596   4.056522   4.224472
    17  C    2.790864   1.538642   2.148318   2.509486   2.818974
    18  H    2.589851   2.186272   3.072545   2.818978   2.685888
    19  H    3.217674   2.203158   2.485098   3.481079   3.850529
    20  H    3.773591   2.181114   2.518856   2.691740   3.098115
                   11         12         13         14         15
    11  H    0.000000
    12  H    1.765041   0.000000
    13  C    4.056522   2.743617   0.000000
    14  H    3.772302   2.198304   1.094189   0.000000
    15  H    4.224472   2.926163   1.098375   1.771513   0.000000
    16  H    5.107013   3.772302   1.096353   1.765041   1.769192
    17  C    2.691742   3.481079   3.939602   4.295127   4.249440
    18  H    3.098123   3.850530   4.249434   4.500084   4.796646
    19  H    3.687207   4.351753   4.295136   4.875485   4.500099
    20  H    2.408254   3.687207   4.743300   4.970957   4.930979
                   16         17         18         19         20
    16  H    0.000000
    17  C    4.743303   0.000000
    18  H    4.930975   1.098374   0.000000
    19  H    4.970969   1.094189   1.771513   0.000000
    20  H    5.646356   1.096353   1.769192   1.765041   0.000000
 Stoichiometry    C6H14
 Framework group  C2[X(C6H14)]
 Deg. of freedom    28
 Full point group                 C2      NOp   2
 Largest Abelian subgroup         C2      NOp   2
 Largest concise Abelian subgroup C2      NOp   2
                         Standard orientation:                         
 ---------------------------------------------------------------------
 Center     Atomic      Atomic             Coordinates (Angstroms)
 Number     Number       Type             X           Y           Z
 ---------------------------------------------------------------------
      1          6           0        0.000004    1.518469   -1.254742
      2          1           0       -0.349202    1.042219   -2.175878
      3          1           0        1.085023    1.664691   -1.342941
      4          1           0       -0.462224    2.511330   -1.204123
      5          6           0       -0.342970    0.696632   -0.000002
      6          1           0       -1.431421    0.522513   -0.000006
      7          6           0        0.342970   -0.696632   -0.000002
      8          1           0        1.431421   -0.522513   -0.000006
      9          6           0        0.000004   -1.518461    1.254744
     10          1           0       -1.085015   -1.664687    1.342947
     11          1           0        0.462235   -2.511321    1.204131
     12          1           0        0.349211   -1.042203    2.175875
     13          6           0       -0.000004    1.518461    1.254744
     14          1           0       -0.349211    1.042203    2.175875
     15          1           0        1.085015    1.664687    1.342947
     16          1           0       -0.462235    2.511321    1.204131
     17          6           0       -0.000004   -1.518469   -1.254742
     18          1           0       -1.085023   -1.664691   -1.342941
     19          1           0        0.349202   -1.042219   -2.175878
     20          1           0        0.462224   -2.511330   -1.204123
 ---------------------------------------------------------------------
 Rotational constants (GHZ):      4.1913497      2.8568726      1.8589261
 Leave Link  202 at Sun Oct  4 11:28:19 2015, MaxMem=  805306368 cpu:       0.0
 (Enter /share/apps/g09/l301.exe)
 Standard basis: 6-31G(d) (6D, 7F)
 Ernie: Thresh=  0.10000D-02 Tol=  0.10000D-05 Strict=F.
 There are    59 symmetry adapted basis functions of A   symmetry.
 There are    59 symmetry adapted basis functions of B   symmetry.
 Integral buffers will be    131072 words long.
 Raffenetti 2 integral format.
 Two-electron integral symmetry is turned on.
   118 basis functions,   224 primitive gaussians,   118 cartesian basis functions
    25 alpha electrons       25 beta electrons
       nuclear repulsion energy       261.5090182672 Hartrees.
 IExCor=  402 DFT=T Ex+Corr=B3LYP ExCW=0 ScaHFX=  0.200000
 ScaDFX=  0.800000  0.720000  1.000000  0.810000 ScalE2=  1.000000  1.000000
 IRadAn=      5 IRanWt=     -1 IRanGd=            0 ICorTp=0
 NAtoms=   20 NActive=   20 NUniq=   10 SFac= 3.00D+00 NAtFMM=   80 NAOKFM=F Big=F
 Leave Link  301 at Sun Oct  4 11:28:20 2015, MaxMem=  805306368 cpu:       0.2
 (Enter /share/apps/g09/l302.exe)
 NPDir=0 NMtPBC=     1 NCelOv=     1 NCel=       1 NClECP=     1 NCelD=      1
         NCelK=      1 NCelE2=     1 NClLst=     1 CellRange=     0.0.
 One-electron integrals computed using PRISM.
 One-electron integral symmetry used in STVInt
 NBasis=   118 RedAO= T  NBF=    59    59
 NBsUse=   118 1.00D-06 NBFU=    59    59
 Precomputing XC quadrature grid using
 IXCGrd= 2 IRadAn=           5 IRanWt=          -1 IRanGd=           0 AccXCQ= 1.00D-10.
 NRdTot=    1644 NPtTot=      439424 NUsed=      451205 NTot=      451237
 NSgBfM=   118   118   118   118   118 NAtAll=    20    20.
 Leave Link  302 at Sun Oct  4 11:28:22 2015, MaxMem=  805306368 cpu:       3.3
 (Enter /share/apps/g09/l303.exe)
 DipDrv:  MaxL=1.
 Leave Link  303 at Sun Oct  4 11:28:23 2015, MaxMem=  805306368 cpu:       0.1
 (Enter /share/apps/g09/l401.exe)
 Harris functional with IExCor=  402 diagonalized for initial guess.
 ExpMin= 1.61D-01 ExpMax= 3.05D+03 ExpMxC= 4.57D+02 IAcc=3 IRadAn=         5 AccDes= 0.00D+00
 HarFok:  IExCor=  402 AccDes= 0.00D+00 IRadAn=         5 IDoV= 1
 ScaDFX=  1.000000  1.000000  1.000000  1.000000
 FoFCou: FMM=F IPFlag=           0 FMFlag=      100000 FMFlg1=           0
         NFxFlg=           0 DoJE=T BraDBF=F KetDBF=T FulRan=T
         Omega=  0.000000  0.000000  1.000000  0.000000  0.000000 ICntrl=     500 IOpCl=  0
         NMat0=    1 NMatS0=    1 NMatT0=    0 NMatD0=    1 NMtDS0=    0 NMtDT0=    0
         I1Cent=           4 NGrid=           0.
 Petite list used in FoFCou.
 Harris En= -237.177687128835    
 Initial guess orbital symmetries:
       Occupied  (A) (B) (B) (A) (A) (B) (A) (B) (A) (B) (A) (B)
                 (B) (A) (A) (A) (B) (B) (A) (B) (A) (B) (B) (A)
                 (A)
       Virtual   (A) (B) (A) (A) (B) (A) (B) (A) (B) (A) (B) (A)
                 (B) (B) (A) (B) (A) (B) (B) (A) (A) (B) (B) (A)
                 (B) (A) (B) (A) (B) (B) (A) (A) (B) (B) (A) (A)
                 (A) (B) (A) (B) (B) (B) (A) (A) (A) (B) (B) (A)
                 (A) (B) (B) (A) (B) (A) (B) (B) (B) (A) (A) (A)
                 (B) (B) (A) (A) (B) (A) (B) (B) (A) (A) (A) (B)
                 (B) (A) (B) (A) (A) (B) (A) (B) (B) (A) (B) (A)
                 (A) (B) (B) (A) (B) (B) (A) (A) (B)
 The electronic state of the initial guess is 1-A.
 Leave Link  401 at Sun Oct  4 11:28:25 2015, MaxMem=  805306368 cpu:       6.9
 (Enter /share/apps/g09/l502.exe)
 Closed shell SCF:
 Requested convergence on RMS density matrix=1.00D-08 within 128 cycles.
 Requested convergence on MAX density matrix=1.00D-06.
 Requested convergence on             energy=1.00D-06.
 No special actions if energy rises.
 Using DIIS extrapolation, IDIIS=  1040.
 Integral symmetry usage will be decided dynamically.
       451012 words used for storage of precomputed grid.
 Keep R1 ints in memory in canonical form, NReq=26105237.
 IEnd=      512726 IEndB=      512726 NGot=   805306368 MDV=   780173566
 LenX=   780173566 LenY=   780159201
 Symmetry not used in FoFDir.
 MinBra= 0 MaxBra= 2 Meth= 1.
 IRaf=       0 NMat=   1 IRICut=       1 DoRegI=T DoRafI=F ISym2E= 0 JSym2E=0.
 Integral accuracy reduced to 1.0D-05 until final iterations.

 Cycle   1  Pass 0  IDiag  1:
 E= -236.791978478809    
 DIIS: error= 5.82D-02 at cycle   1 NSaved=   1.
 NSaved= 1 IEnMin= 1 EnMin= -236.791978478809     IErMin= 1 ErrMin= 5.82D-02
 ErrMax= 5.82D-02 EMaxC= 1.00D-01 BMatC= 2.59D-01 BMatP= 2.59D-01
 IDIUse=3 WtCom= 4.18D-01 WtEn= 5.82D-01
 Coeff-Com:  0.100D+01
 Coeff-En:   0.100D+01
 Coeff:      0.100D+01
 Gap=     0.301 Goal=   None    Shift=    0.000
 GapD=    0.301 DampG=1.000 DampE=0.500 DampFc=0.5000 IDamp=-1.
 Damping current iteration by 5.00D-01
 RMSDP=1.02D-02 MaxDP=1.39D-01              OVMax= 1.90D-01

 Cycle   2  Pass 0  IDiag  1:
 E= -236.920209674843     Delta-E=       -0.128231196034 Rises=F Damp=T
 DIIS: error= 9.30D-03 at cycle   2 NSaved=   2.
 NSaved= 2 IEnMin= 2 EnMin= -236.920209674843     IErMin= 2 ErrMin= 9.30D-03
 ErrMax= 9.30D-03 EMaxC= 1.00D-01 BMatC= 9.71D-03 BMatP= 2.59D-01
 IDIUse=3 WtCom= 9.07D-01 WtEn= 9.30D-02
 Coeff-Com:  0.828D-01 0.917D+00
 Coeff-En:   0.138D+00 0.862D+00
 Coeff:      0.879D-01 0.912D+00
 Gap=     0.398 Goal=   None    Shift=    0.000
 RMSDP=1.74D-03 MaxDP=2.26D-02 DE=-1.28D-01 OVMax= 1.05D-01

 Cycle   3  Pass 0  IDiag  1:
 E= -237.081194998441     Delta-E=       -0.160985323598 Rises=F Damp=F
 DIIS: error= 3.50D-03 at cycle   3 NSaved=   3.
 NSaved= 3 IEnMin= 3 EnMin= -237.081194998441     IErMin= 3 ErrMin= 3.50D-03
 ErrMax= 3.50D-03 EMaxC= 1.00D-01 BMatC= 1.27D-03 BMatP= 9.71D-03
 IDIUse=3 WtCom= 9.65D-01 WtEn= 3.50D-02
 Coeff-Com:  0.103D-01 0.207D+00 0.783D+00
 Coeff-En:   0.000D+00 0.000D+00 0.100D+01
 Coeff:      0.997D-02 0.200D+00 0.791D+00
 Gap=     0.382 Goal=   None    Shift=    0.000
 RMSDP=5.85D-04 MaxDP=1.05D-02 DE=-1.61D-01 OVMax= 1.08D-02

 Cycle   4  Pass 0  IDiag  1:
 E= -237.081809901520     Delta-E=       -0.000614903079 Rises=F Damp=F
 DIIS: error= 2.75D-03 at cycle   4 NSaved=   4.
 NSaved= 4 IEnMin= 4 EnMin= -237.081809901520     IErMin= 4 ErrMin= 2.75D-03
 ErrMax= 2.75D-03 EMaxC= 1.00D-01 BMatC= 6.82D-04 BMatP= 1.27D-03
 IDIUse=3 WtCom= 9.73D-01 WtEn= 2.75D-02
 Coeff-Com:  0.953D-04 0.311D-01 0.424D+00 0.545D+00
 Coeff-En:   0.000D+00 0.000D+00 0.343D+00 0.657D+00
 Coeff:      0.926D-04 0.302D-01 0.422D+00 0.548D+00
 Gap=     0.386 Goal=   None    Shift=    0.000
 RMSDP=2.30D-04 MaxDP=4.71D-03 DE=-6.15D-04 OVMax= 5.25D-03

 Cycle   5  Pass 0  IDiag  1:
 E= -237.082460293603     Delta-E=       -0.000650392083 Rises=F Damp=F
 DIIS: error= 2.32D-04 at cycle   5 NSaved=   5.
 NSaved= 5 IEnMin= 5 EnMin= -237.082460293603     IErMin= 5 ErrMin= 2.32D-04
 ErrMax= 2.32D-04 EMaxC= 1.00D-01 BMatC= 9.36D-06 BMatP= 6.82D-04
 IDIUse=3 WtCom= 9.98D-01 WtEn= 2.32D-03
 Coeff-Com:  0.271D-03-0.219D-02 0.905D-01 0.175D+00 0.737D+00
 Coeff-En:   0.000D+00 0.000D+00 0.000D+00 0.000D+00 0.100D+01
 Coeff:      0.271D-03-0.219D-02 0.903D-01 0.174D+00 0.737D+00
 Gap=     0.386 Goal=   None    Shift=    0.000
 RMSDP=2.45D-05 MaxDP=4.92D-04 DE=-6.50D-04 OVMax= 6.08D-04

 Cycle   6  Pass 0  IDiag  1:
 E= -237.082468946278     Delta-E=       -0.000008652675 Rises=F Damp=F
 DIIS: error= 1.64D-05 at cycle   6 NSaved=   6.
 NSaved= 6 IEnMin= 6 EnMin= -237.082468946278     IErMin= 6 ErrMin= 1.64D-05
 ErrMax= 1.64D-05 EMaxC= 1.00D-01 BMatC= 2.90D-08 BMatP= 9.36D-06
 IDIUse=1 WtCom= 1.00D+00 WtEn= 0.00D+00
 Coeff-Com:  0.150D-03-0.708D-03 0.102D-01 0.211D-01 0.111D+00 0.858D+00
 Coeff:      0.150D-03-0.708D-03 0.102D-01 0.211D-01 0.111D+00 0.858D+00
 Gap=     0.386 Goal=   None    Shift=    0.000
 RMSDP=2.45D-06 MaxDP=2.55D-05 DE=-8.65D-06 OVMax= 4.42D-05

 Initial convergence to 1.0D-05 achieved.  Increase integral accuracy.
 Cycle   7  Pass 1  IDiag  1:
 E= -237.082512811092     Delta-E=       -0.000043864814 Rises=F Damp=F
 DIIS: error= 2.14D-05 at cycle   1 NSaved=   1.
 NSaved= 1 IEnMin= 1 EnMin= -237.082512811092     IErMin= 1 ErrMin= 2.14D-05
 ErrMax= 2.14D-05 EMaxC= 1.00D-01 BMatC= 1.95D-08 BMatP= 1.95D-08
 IDIUse=1 WtCom= 1.00D+00 WtEn= 0.00D+00
 Coeff-Com:  0.100D+01
 Coeff:      0.100D+01
 Gap=     0.386 Goal=   None    Shift=    0.000
 RMSDP=2.45D-06 MaxDP=2.55D-05 DE=-4.39D-05 OVMax= 7.20D-05

 Cycle   8  Pass 1  IDiag  1:
 E= -237.082512840572     Delta-E=       -0.000000029480 Rises=F Damp=F
 DIIS: error= 2.17D-06 at cycle   2 NSaved=   2.
 NSaved= 2 IEnMin= 2 EnMin= -237.082512840572     IErMin= 2 ErrMin= 2.17D-06
 ErrMax= 2.17D-06 EMaxC= 1.00D-01 BMatC= 4.59D-10 BMatP= 1.95D-08
 IDIUse=1 WtCom= 1.00D+00 WtEn= 0.00D+00
 Coeff-Com:  0.126D-01 0.987D+00
 Coeff:      0.126D-01 0.987D+00
 Gap=     0.386 Goal=   None    Shift=    0.000
 RMSDP=4.58D-07 MaxDP=5.02D-06 DE=-2.95D-08 OVMax= 8.24D-06

 Cycle   9  Pass 1  IDiag  1:
 E= -237.082512841016     Delta-E=       -0.000000000444 Rises=F Damp=F
 DIIS: error= 1.16D-06 at cycle   3 NSaved=   3.
 NSaved= 3 IEnMin= 3 EnMin= -237.082512841016     IErMin= 3 ErrMin= 1.16D-06
 ErrMax= 1.16D-06 EMaxC= 1.00D-01 BMatC= 1.13D-10 BMatP= 4.59D-10
 IDIUse=1 WtCom= 1.00D+00 WtEn= 0.00D+00
 Coeff-Com: -0.171D-01 0.324D+00 0.693D+00
 Coeff:     -0.171D-01 0.324D+00 0.693D+00
 Gap=     0.386 Goal=   None    Shift=    0.000
 RMSDP=1.25D-07 MaxDP=1.12D-06 DE=-4.44D-10 OVMax= 2.33D-06

 Cycle  10  Pass 1  IDiag  1:
 E= -237.082512841138     Delta-E=       -0.000000000122 Rises=F Damp=F
 DIIS: error= 1.11D-07 at cycle   4 NSaved=   4.
 NSaved= 4 IEnMin= 4 EnMin= -237.082512841138     IErMin= 4 ErrMin= 1.11D-07
 ErrMax= 1.11D-07 EMaxC= 1.00D-01 BMatC= 1.95D-12 BMatP= 1.13D-10
 IDIUse=1 WtCom= 1.00D+00 WtEn= 0.00D+00
 Coeff-Com: -0.529D-02 0.817D-01 0.197D+00 0.727D+00
 Coeff:     -0.529D-02 0.817D-01 0.197D+00 0.727D+00
 Gap=     0.386 Goal=   None    Shift=    0.000
 RMSDP=1.52D-08 MaxDP=2.86D-07 DE=-1.22D-10 OVMax= 4.60D-07

 Cycle  11  Pass 1  IDiag  1:
 E= -237.082512841138     Delta-E=        0.000000000000 Rises=F Damp=F
 DIIS: error= 6.25D-08 at cycle   5 NSaved=   5.
 NSaved= 5 IEnMin= 5 EnMin= -237.082512841138     IErMin= 5 ErrMin= 6.25D-08
 ErrMax= 6.25D-08 EMaxC= 1.00D-01 BMatC= 5.93D-13 BMatP= 1.95D-12
 IDIUse=1 WtCom= 1.00D+00 WtEn= 0.00D+00
 Coeff-Com: -0.697D-03 0.490D-02 0.185D-01 0.364D+00 0.614D+00
 Coeff:     -0.697D-03 0.490D-02 0.185D-01 0.364D+00 0.614D+00
 Gap=     0.386 Goal=   None    Shift=    0.000
 RMSDP=5.79D-09 MaxDP=1.04D-07 DE=-1.71D-13 OVMax= 1.35D-07

 SCF Done:  E(RB3LYP) =  -237.082512841     A.U. after   11 cycles
             Convg  =    0.5792D-08             -V/T =  2.0104
 KE= 2.346307423230D+02 PE=-1.069938324872D+03 EE= 3.367160514406D+02
 Leave Link  502 at Sun Oct  4 11:28:47 2015, MaxMem=  805306368 cpu:      66.2
 (Enter /share/apps/g09/l601.exe)
 Copying SCF densities to generalized density rwf, IOpCl= 0 IROHF=0.

 **********************************************************************

            Population analysis using the SCF density.

 **********************************************************************

 Orbital symmetries:
       Occupied  (A) (B) (B) (A) (B) (A) (A) (B) (A) (B) (A) (B)
                 (B) (A) (A) (A) (B) (B) (A) (B) (A) (B) (A) (B)
                 (A)
       Virtual   (A) (B) (B) (A) (A) (B) (A) (A) (B) (A) (A) (B)
                 (B) (B) (B) (A) (A) (B) (B) (A) (A) (B) (B) (A)
                 (B) (B) (A) (A) (B) (A) (A) (B) (B) (B) (A) (A)
                 (A) (B) (A) (B) (B) (B) (A) (A) (A) (B) (B) (A)
                 (A) (B) (B) (A) (B) (B) (B) (A) (A) (A) (B) (A)
                 (B) (B) (A) (A) (B) (A) (B) (A) (B) (A) (A) (B)
                 (B) (A) (B) (A) (A) (B) (A) (B) (B) (A) (B) (A)
                 (A) (B) (B) (A) (B) (B) (A) (A) (B)
 The electronic state is 1-A.
 Alpha  occ. eigenvalues --  -10.18292 -10.18273 -10.16768 -10.16768 -10.16767
 Alpha  occ. eigenvalues --  -10.16767  -0.81124  -0.74151  -0.68615  -0.66279
 Alpha  occ. eigenvalues --   -0.60292  -0.54324  -0.45147  -0.44959  -0.42539
 Alpha  occ. eigenvalues --   -0.41624  -0.38760  -0.38358  -0.37339  -0.35833
 Alpha  occ. eigenvalues --   -0.35052  -0.33586  -0.31391  -0.30731  -0.30210
 Alpha virt. eigenvalues --    0.08375   0.11728   0.12948   0.13407   0.14207
 Alpha virt. eigenvalues --    0.16116   0.16416   0.17885   0.17995   0.18740
 Alpha virt. eigenvalues --    0.18869   0.20584   0.20628   0.23733   0.23786
 Alpha virt. eigenvalues --    0.25390   0.26828   0.27882   0.28062   0.49482
 Alpha virt. eigenvalues --    0.50431   0.51463   0.51673   0.54991   0.56500
 Alpha virt. eigenvalues --    0.62309   0.63134   0.63450   0.67424   0.73754
 Alpha virt. eigenvalues --    0.73804   0.74257   0.77893   0.80935   0.83959
 Alpha virt. eigenvalues --    0.85244   0.88776   0.88806   0.89802   0.91569
 Alpha virt. eigenvalues --    0.91721   0.91801   0.92668   0.93659   0.94282
 Alpha virt. eigenvalues --    0.95591   0.96320   0.98834   0.98955   1.01597
 Alpha virt. eigenvalues --    1.05558   1.06258   1.33077   1.38408   1.41104
 Alpha virt. eigenvalues --    1.41780   1.56950   1.57580   1.57906   1.69339
 Alpha virt. eigenvalues --    1.75376   1.79395   1.81620   1.84687   1.91747
 Alpha virt. eigenvalues --    1.92039   1.96212   2.01205   2.01303   2.02798
 Alpha virt. eigenvalues --    2.07506   2.12110   2.13077   2.18073   2.24879
 Alpha virt. eigenvalues --    2.25795   2.26149   2.28308   2.35801   2.41305
 Alpha virt. eigenvalues --    2.45996   2.48292   2.52164   2.59522   2.75755
 Alpha virt. eigenvalues --    2.76999   2.77612   4.13633   4.25464   4.29096
 Alpha virt. eigenvalues --    4.29280   4.47133   4.62548
          Condensed to atoms (all electrons):
              1          2          3          4          5          6
     1  C    5.118846   0.370583   0.371261   0.368664   0.378428  -0.047007
     2  H    0.370583   0.573691  -0.032066  -0.030495  -0.027416  -0.003736
     3  H    0.371261  -0.032066   0.585548  -0.032085  -0.035194   0.005945
     4  H    0.368664  -0.030495  -0.032085   0.583744  -0.029183  -0.002848
     5  C    0.378428  -0.027416  -0.035194  -0.029183   4.858093   0.370569
     6  H   -0.047007  -0.003736   0.005945  -0.002848   0.370569   0.650124
     7  C   -0.044148  -0.005102  -0.006047   0.004611   0.400525  -0.046177
     8  H   -0.006372  -0.000094   0.005970  -0.000078  -0.046177   0.007282
     9  C    0.004645  -0.000005   0.000035  -0.000141  -0.044149  -0.006372
    10  H    0.000035  -0.000004   0.000011   0.000000  -0.006047   0.005970
    11  H   -0.000141  -0.000001   0.000000   0.000002   0.004611  -0.000078
    12  H   -0.000005  -0.000002  -0.000004  -0.000001  -0.005103  -0.000094
    13  C   -0.055924   0.005165  -0.004545  -0.005452   0.378428  -0.047007
    14  H    0.005165  -0.000186  -0.000056   0.000014  -0.027416  -0.003736
    15  H   -0.004545  -0.000056   0.004287  -0.000205  -0.035194   0.005945
    16  H   -0.005452   0.000014  -0.000205   0.005169  -0.029183  -0.002849
    17  C   -0.005240   0.001985  -0.000756   0.000180  -0.044148  -0.006372
    18  H   -0.000756   0.000633   0.000128  -0.000041  -0.006047   0.005970
    19  H    0.001985   0.002209   0.000633  -0.000061  -0.005102  -0.000094
    20  H    0.000180  -0.000061  -0.000041  -0.000001   0.004611  -0.000078
              7          8          9         10         11         12
     1  C   -0.044148  -0.006372   0.004645   0.000035  -0.000141  -0.000005
     2  H   -0.005102  -0.000094  -0.000005  -0.000004  -0.000001  -0.000002
     3  H   -0.006047   0.005970   0.000035   0.000011   0.000000  -0.000004
     4  H    0.004611  -0.000078  -0.000141   0.000000   0.000002  -0.000001
     5  C    0.400525  -0.046177  -0.044149  -0.006047   0.004611  -0.005103
     6  H   -0.046177   0.007282  -0.006372   0.005970  -0.000078  -0.000094
     7  C    4.858093   0.370569   0.378428  -0.035194  -0.029183  -0.027416
     8  H    0.370569   0.650124  -0.047007   0.005945  -0.002849  -0.003736
     9  C    0.378428  -0.047007   5.118847   0.371261   0.368664   0.370584
    10  H   -0.035194   0.005945   0.371261   0.585548  -0.032085  -0.032066
    11  H   -0.029183  -0.002849   0.368664  -0.032085   0.583744  -0.030495
    12  H   -0.027416  -0.003736   0.370584  -0.032066  -0.030495   0.573691
    13  C   -0.044149  -0.006372  -0.005240  -0.000756   0.000180   0.001985
    14  H   -0.005103  -0.000094   0.001985   0.000633  -0.000061   0.002209
    15  H   -0.006047   0.005970  -0.000756   0.000128  -0.000041   0.000633
    16  H    0.004611  -0.000078   0.000180  -0.000041  -0.000001  -0.000061
    17  C    0.378428  -0.047007  -0.055924  -0.004545  -0.005452   0.005165
    18  H   -0.035194   0.005945  -0.004545   0.004287  -0.000205  -0.000056
    19  H   -0.027416  -0.003736   0.005165  -0.000056   0.000014  -0.000186
    20  H   -0.029183  -0.002848  -0.005452  -0.000205   0.005169   0.000014
             13         14         15         16         17         18
     1  C   -0.055924   0.005165  -0.004545  -0.005452  -0.005240  -0.000756
     2  H    0.005165  -0.000186  -0.000056   0.000014   0.001985   0.000633
     3  H   -0.004545  -0.000056   0.004287  -0.000205  -0.000756   0.000128
     4  H   -0.005452   0.000014  -0.000205   0.005169   0.000180  -0.000041
     5  C    0.378428  -0.027416  -0.035194  -0.029183  -0.044148  -0.006047
     6  H   -0.047007  -0.003736   0.005945  -0.002849  -0.006372   0.005970
     7  C   -0.044149  -0.005103  -0.006047   0.004611   0.378428  -0.035194
     8  H   -0.006372  -0.000094   0.005970  -0.000078  -0.047007   0.005945
     9  C   -0.005240   0.001985  -0.000756   0.000180  -0.055924  -0.004545
    10  H   -0.000756   0.000633   0.000128  -0.000041  -0.004545   0.004287
    11  H    0.000180  -0.000061  -0.000041  -0.000001  -0.005452  -0.000205
    12  H    0.001985   0.002209   0.000633  -0.000061   0.005165  -0.000056
    13  C    5.118847   0.370584   0.371261   0.368664   0.004645   0.000035
    14  H    0.370584   0.573691  -0.032066  -0.030495  -0.000005  -0.000004
    15  H    0.371261  -0.032066   0.585548  -0.032085   0.000035   0.000011
    16  H    0.368664  -0.030495  -0.032085   0.583744  -0.000141   0.000000
    17  C    0.004645  -0.000005   0.000035  -0.000141   5.118846   0.371261
    18  H    0.000035  -0.000004   0.000011   0.000000   0.371261   0.585548
    19  H   -0.000005  -0.000002  -0.000004  -0.000001   0.370583  -0.032066
    20  H   -0.000141  -0.000001   0.000000   0.000002   0.368664  -0.032085
             19         20
     1  C    0.001985   0.000180
     2  H    0.002209  -0.000061
     3  H    0.000633  -0.000041
     4  H   -0.000061  -0.000001
     5  C   -0.005102   0.004611
     6  H   -0.000094  -0.000078
     7  C   -0.027416  -0.029183
     8  H   -0.003736  -0.002848
     9  C    0.005165  -0.005452
    10  H   -0.000056  -0.000205
    11  H    0.000014   0.005169
    12  H   -0.000186   0.000014
    13  C   -0.000005  -0.000141
    14  H   -0.000002  -0.000001
    15  H   -0.000004   0.000000
    16  H   -0.000001   0.000002
    17  C    0.370583   0.368664
    18  H   -0.032066  -0.032085
    19  H    0.573691  -0.030495
    20  H   -0.030495   0.583744
 Mulliken atomic charges:
              1
     1  C   -0.450202
     2  H    0.144946
     3  H    0.137181
     4  H    0.138206
     5  C   -0.054905
     6  H    0.114643
     7  C   -0.054905
     8  H    0.114643
     9  C   -0.450202
    10  H    0.137181
    11  H    0.138206
    12  H    0.144946
    13  C   -0.450202
    14  H    0.144946
    15  H    0.137181
    16  H    0.138206
    17  C   -0.450202
    18  H    0.137181
    19  H    0.144946
    20  H    0.138206
 Sum of Mulliken atomic charges =   0.00000
 Mulliken charges with hydrogens summed into heavy atoms:
              1
     1  C   -0.029869
     5  C    0.059738
     7  C    0.059738
     9  C   -0.029869
    13  C   -0.029869
    17  C   -0.029869
 Sum of Mulliken charges with hydrogens summed into heavy atoms =   0.00000
 Electronic spatial extent (au):  <R**2>=            748.8295
 Charge=              0.0000 electrons
 Dipole moment (field-independent basis, Debye):
    X=              0.0000    Y=              0.0000    Z=              0.0000  Tot=              0.0000
 Quadrupole moment (field-independent basis, Debye-Ang):
   XX=            -41.1500   YY=            -41.8649   ZZ=            -42.0234
   XY=             -0.2363   XZ=              0.0000   YZ=              0.0000
 Traceless Quadrupole moment (field-independent basis, Debye-Ang):
   XX=              0.5295   YY=             -0.1855   ZZ=             -0.3440
   XY=             -0.2363   XZ=              0.0000   YZ=              0.0000
 Octapole moment (field-independent basis, Debye-Ang**2):
  XXX=              0.0000  YYY=              0.0000  ZZZ=              0.0000  XYY=              0.0000
  XXY=              0.0000  XXZ=              0.0000  XZZ=              0.0000  YZZ=              0.0000
  YYZ=              0.0000  XYZ=              0.0000
 Hexadecapole moment (field-independent basis, Debye-Ang**3):
 XXXX=            -94.7892 YYYY=           -546.1882 ZZZZ=           -387.7005 XXXY=             10.7002
 XXXZ=              0.0000 YYYX=              0.1252 YYYZ=              0.0000 ZZZX=              0.0000
 ZZZY=              0.0000 XXYY=           -106.7933 XXZZ=            -81.3079 YYZZ=           -164.6339
 XXYZ=              0.0000 YYXZ=              0.0000 ZZXY=              2.0512
 N-N= 2.615090182672D+02 E-N=-1.069938323220D+03  KE= 2.346307423230D+02
 Symmetry A    KE= 1.181790383258D+02
 Symmetry B    KE= 1.164517039972D+02
 No NMR shielding tensors so no spin-rotation constants.
 Leave Link  601 at Sun Oct  4 11:28:47 2015, MaxMem=  805306368 cpu:       0.8
 (Enter /share/apps/g09/l701.exe)
 Compute integral first derivatives.
 ... and contract with generalized density number  0.
 Leave Link  701 at Sun Oct  4 11:28:47 2015, MaxMem=  805306368 cpu:       0.8
 (Enter /share/apps/g09/l702.exe)
 L702 exits ... SP integral derivatives will be done elsewhere.
 Leave Link  702 at Sun Oct  4 11:28:47 2015, MaxMem=  805306368 cpu:       0.1
 (Enter /share/apps/g09/l703.exe)
 Compute integral first derivatives, UseDBF=F ICtDFT=           0.
 Integral derivatives from FoFDir, PRISM(SPDF).
 Calling FoFJK, ICntrl=      2127 FMM=F ISym2X=1 I1Cent= 0 IOpClX= 0 NMat=1 NMatS=1 NMatT=0.
 FoFCou: FMM=F IPFlag=           0 FMFlag=      100000 FMFlg1=         800
         NFxFlg=           0 DoJE=F BraDBF=F KetDBF=F FulRan=T
         Omega=  0.000000  0.000000  1.000000  0.000000  0.000000 ICntrl=    2127 IOpCl=  0
         NMat0=    1 NMatS0=    1 NMatT0=    0 NMatD0=    1 NMtDS0=    0 NMtDT0=    0
         I1Cent=           0 NGrid=           0.
 Petite list used in FoFCou.
 Leave Link  703 at Sun Oct  4 11:28:52 2015, MaxMem=  805306368 cpu:      17.5
 (Enter /share/apps/g09/l716.exe)
 Dipole        =-3.33066907D-16 8.88178420D-16-1.43347663D-08
 ***** Axes restored to original set *****
 -------------------------------------------------------------------
 Center     Atomic                   Forces (Hartrees/Bohr)
 Number     Number              X              Y              Z
 -------------------------------------------------------------------
      1        6          -0.000002157   -0.000005740    0.000002239
      2        1           0.000000169   -0.000005335   -0.000000598
      3        1          -0.000000699    0.000002114   -0.000001315
      4        1          -0.000002029    0.000000818    0.000000754
      5        6          -0.000007166    0.000023779   -0.000000347
      6        1           0.000003980   -0.000005088    0.000000011
      7        6           0.000007166   -0.000023779   -0.000000347
      8        1          -0.000003980    0.000005088    0.000000011
      9        6           0.000001497    0.000004941   -0.000002106
     10        1           0.000001187   -0.000001992    0.000001400
     11        1           0.000002046   -0.000000776   -0.000000809
     12        1          -0.000000108    0.000005222    0.000000770
     13        6          -0.000001497   -0.000004941   -0.000002106
     14        1           0.000000108   -0.000005222    0.000000770
     15        1          -0.000001187    0.000001992    0.000001400
     16        1          -0.000002046    0.000000776   -0.000000809
     17        6           0.000002157    0.000005740    0.000002239
     18        1           0.000000699   -0.000002114   -0.000001315
     19        1          -0.000000169    0.000005335   -0.000000598
     20        1           0.000002029   -0.000000818    0.000000754
 -------------------------------------------------------------------
 Cartesian Forces:  Max     0.000023779 RMS     0.000005209
 Leave Link  716 at Sun Oct  4 11:28:52 2015, MaxMem=  805306368 cpu:       0.1
 (Enter /share/apps/g09/l103.exe)

 GradGradGradGradGradGradGradGradGradGradGradGradGradGradGradGradGradGrad
 Berny optimization.
 Internal  Forces:  Max     0.000009492 RMS     0.000002890
 Search for a local minimum.
 Step number   1 out of a maximum of  110
 All quantities printed in internal units (Hartrees-Bohrs-Radians)
 RMS Force = .28903D-05 SwitMx=.10000D-02 MixMth= 2
 Mixed Optimization -- En-DIIS/RFO-DIIS
 Second derivative matrix not updated -- first step.
     Eigenvalues ---    0.00230   0.00255   0.00255   0.00255   0.00255
     Eigenvalues ---    0.03324   0.03324   0.04612   0.04612   0.04914
     Eigenvalues ---    0.04914   0.05276   0.05276   0.05276   0.05276
     Eigenvalues ---    0.05491   0.05491   0.05491   0.05491   0.16000
     Eigenvalues ---    0.16000   0.16000   0.16000   0.16000   0.16000
     Eigenvalues ---    0.16000   0.16000   0.16000   0.16000   0.16000
     Eigenvalues ---    0.16000   0.16647   0.16647   0.17238   0.17238
     Eigenvalues ---    0.27401   0.28640   0.28640   0.28640   0.28640
     Eigenvalues ---    0.33430   0.33430   0.33862   0.33862   0.33863
     Eigenvalues ---    0.33863   0.34089   0.34089   0.34089   0.34089
     Eigenvalues ---    0.34333   0.34333   0.34333   0.343331000.00000
     Eigenvalues --- 1000.000001000.000001000.000001000.000001000.00000
     Eigenvalues --- 1000.000001000.000001000.000001000.000001000.00000
     Eigenvalues --- 1000.000001000.000001000.000001000.000001000.00000
     Eigenvalues --- 1000.000001000.000001000.000001000.000001000.00000
     Eigenvalues --- 1000.000001000.000001000.000001000.000001000.00000
     Eigenvalues --- 1000.000001000.000001000.000001000.000001000.00000
     Eigenvalues --- 1000.000001000.000001000.000001000.000001000.00000
     Eigenvalues --- 1000.000001000.000001000.000001000.000001000.00000
     Eigenvalues --- 1000.000001000.000001000.000001000.000001000.00000
 RFO step:  Lambda=-1.08114047D-08 EMin= 2.30000000D-03
 Linear search not attempted -- first point.
 Iteration  1 RMS(Cart)=  0.00015397 RMS(Int)=  0.00000001
 Iteration  2 RMS(Cart)=  0.00000001 RMS(Int)=  0.00000000
 ClnCor:  largest displacement from symmetrization is 9.04D-12 for atom    16.
 Variable       Old X    -DE/DX   Delta X   Delta X   Delta X     New X
                                 (Linear)    (Quad)   (Total)
    R1        2.06772   0.00000   0.00000   0.00001   0.00001   2.06773
    R2        2.07563   0.00000   0.00000   0.00000   0.00000   2.07563
    R3        2.07181   0.00000   0.00000   0.00000   0.00000   2.07181
    R4        2.90761  -0.00001   0.00000  -0.00002  -0.00002   2.90759
    R5        2.08303   0.00000   0.00000  -0.00001  -0.00001   2.08301
    R6        2.93468   0.00000   0.00000   0.00001   0.00001   2.93469
    R7        2.90761   0.00000   0.00000  -0.00002  -0.00002   2.90759
    R8        2.08303   0.00000   0.00000  -0.00001  -0.00001   2.08301
    R9        2.90761   0.00000   0.00000  -0.00002  -0.00002   2.90759
   R10        2.90761  -0.00001   0.00000  -0.00002  -0.00002   2.90759
   R11        2.07563   0.00000   0.00000   0.00000   0.00000   2.07563
   R12        2.07181   0.00000   0.00000   0.00000   0.00000   2.07181
   R13        2.06772   0.00000   0.00000   0.00001   0.00001   2.06772
   R14        2.06772   0.00000   0.00000   0.00001   0.00001   2.06772
   R15        2.07563   0.00000   0.00000   0.00000   0.00000   2.07563
   R16        2.07181   0.00000   0.00000   0.00000   0.00000   2.07181
   R17        2.07563   0.00000   0.00000   0.00000   0.00000   2.07563
   R18        2.06772   0.00000   0.00000   0.00001   0.00001   2.06773
   R19        2.07181   0.00000   0.00000   0.00000   0.00000   2.07181
    A1        1.88137   0.00000   0.00000  -0.00001  -0.00001   1.88136
    A2        1.87390   0.00000   0.00000   0.00003   0.00003   1.87392
    A3        1.96372   0.00000   0.00000  -0.00003  -0.00003   1.96368
    A4        1.87510   0.00000   0.00000   0.00000   0.00000   1.87510
    A5        1.93562   0.00000   0.00000   0.00001   0.00001   1.93563
    A6        1.93059   0.00000   0.00000   0.00001   0.00001   1.93060
    A7        1.88019   0.00000   0.00000   0.00002   0.00002   1.88021
    A8        1.96140  -0.00001   0.00000  -0.00004  -0.00004   1.96136
    A9        1.90714   0.00001   0.00000   0.00007   0.00007   1.90721
   A10        1.86966   0.00000   0.00000  -0.00005  -0.00005   1.86961
   A11        1.88019   0.00000   0.00000   0.00002   0.00002   1.88021
   A12        1.96140   0.00000   0.00000  -0.00003  -0.00003   1.96137
   A13        1.86966   0.00000   0.00000  -0.00005  -0.00005   1.86961
   A14        1.96140   0.00000   0.00000  -0.00003  -0.00003   1.96137
   A15        1.96140  -0.00001   0.00000  -0.00004  -0.00004   1.96136
   A16        1.88019   0.00000   0.00000   0.00002   0.00002   1.88021
   A17        1.88019   0.00000   0.00000   0.00002   0.00002   1.88021
   A18        1.90714   0.00001   0.00000   0.00007   0.00007   1.90721
   A19        1.93562   0.00000   0.00000   0.00001   0.00001   1.93563
   A20        1.93059   0.00000   0.00000   0.00001   0.00001   1.93060
   A21        1.96372   0.00000   0.00000  -0.00003  -0.00003   1.96369
   A22        1.87510   0.00000   0.00000   0.00000   0.00000   1.87509
   A23        1.88138   0.00000   0.00000  -0.00001  -0.00001   1.88136
   A24        1.87390   0.00000   0.00000   0.00003   0.00003   1.87392
   A25        1.96372   0.00000   0.00000  -0.00003  -0.00003   1.96369
   A26        1.93562   0.00000   0.00000   0.00001   0.00001   1.93563
   A27        1.93059   0.00000   0.00000   0.00001   0.00001   1.93060
   A28        1.88138   0.00000   0.00000  -0.00001  -0.00001   1.88136
   A29        1.87390   0.00000   0.00000   0.00003   0.00003   1.87392
   A30        1.87510   0.00000   0.00000   0.00000   0.00000   1.87509
   A31        1.93562   0.00000   0.00000   0.00001   0.00001   1.93563
   A32        1.96372   0.00000   0.00000  -0.00003  -0.00003   1.96368
   A33        1.93059   0.00000   0.00000   0.00001   0.00001   1.93060
   A34        1.88137   0.00000   0.00000  -0.00001  -0.00001   1.88136
   A35        1.87510   0.00000   0.00000   0.00000   0.00000   1.87510
   A36        1.87390   0.00000   0.00000   0.00003   0.00003   1.87392
    D1       -0.96579   0.00000   0.00000  -0.00019  -0.00019  -0.96598
    D2        1.08967   0.00000   0.00000  -0.00026  -0.00026   1.08941
    D3       -3.00379   0.00000   0.00000  -0.00026  -0.00026  -3.00405
    D4       -3.07459   0.00000   0.00000  -0.00016  -0.00016  -3.07475
    D5       -1.01913   0.00000   0.00000  -0.00023  -0.00023  -1.01936
    D6        1.17060   0.00000   0.00000  -0.00023  -0.00023   1.17036
    D7        1.12990   0.00000   0.00000  -0.00017  -0.00017   1.12973
    D8       -3.09783   0.00000   0.00000  -0.00024  -0.00024  -3.09806
    D9       -0.90810   0.00000   0.00000  -0.00025  -0.00025  -0.90835
   D10        1.07990   0.00000   0.00000   0.00005   0.00005   1.07994
   D11        3.14158   0.00000   0.00000   0.00003   0.00003  -3.14158
   D12       -0.98179   0.00001   0.00000   0.00007   0.00007  -0.98172
   D13        3.14159   0.00000   0.00000   0.00002   0.00002  -3.14158
   D14       -1.07991   0.00000   0.00000   0.00000   0.00000  -1.07991
   D15        1.07990   0.00000   0.00000   0.00005   0.00005   1.07994
   D16       -1.07991   0.00000   0.00000   0.00000   0.00000  -1.07991
   D17        0.98177  -0.00001   0.00000  -0.00002  -0.00002   0.98175
   D18        3.14158   0.00000   0.00000   0.00003   0.00003  -3.14158
   D19        3.00380   0.00000   0.00000   0.00025   0.00025   3.00404
   D20       -1.17059   0.00000   0.00000   0.00022   0.00022  -1.17037
   D21        0.90811   0.00000   0.00000   0.00023   0.00023   0.90834
   D22        0.96580   0.00000   0.00000   0.00017   0.00017   0.96597
   D23        3.07460   0.00000   0.00000   0.00014   0.00014   3.07474
   D24       -1.12989   0.00000   0.00000   0.00015   0.00015  -1.12974
   D25       -1.08966   0.00000   0.00000   0.00023   0.00023  -1.08943
   D26        1.01914   0.00000   0.00000   0.00021   0.00021   1.01934
   D27        3.09783   0.00000   0.00000   0.00022   0.00022   3.09805
   D28        1.01914   0.00000   0.00000   0.00021   0.00021   1.01934
   D29        3.09783   0.00000   0.00000   0.00022   0.00022   3.09805
   D30       -1.08966   0.00000   0.00000   0.00023   0.00023  -1.08943
   D31        3.07460   0.00000   0.00000   0.00014   0.00014   3.07474
   D32       -1.12989   0.00000   0.00000   0.00015   0.00015  -1.12974
   D33        0.96580   0.00000   0.00000   0.00017   0.00017   0.96597
   D34       -1.17059   0.00000   0.00000   0.00022   0.00022  -1.17037
   D35        0.90811   0.00000   0.00000   0.00023   0.00023   0.90834
   D36        3.00380   0.00000   0.00000   0.00025   0.00025   3.00404
   D37       -1.01913   0.00000   0.00000  -0.00023  -0.00023  -1.01936
   D38        1.08967   0.00000   0.00000  -0.00026  -0.00026   1.08941
   D39       -3.09783   0.00000   0.00000  -0.00024  -0.00024  -3.09806
   D40       -3.07459   0.00000   0.00000  -0.00016  -0.00016  -3.07475
   D41       -0.96579   0.00000   0.00000  -0.00019  -0.00019  -0.96598
   D42        1.12990   0.00000   0.00000  -0.00017  -0.00017   1.12973
   D43        1.17060   0.00000   0.00000  -0.00023  -0.00023   1.17036
   D44       -3.00379   0.00000   0.00000  -0.00026  -0.00026  -3.00405
   D45       -0.90810   0.00000   0.00000  -0.00025  -0.00025  -0.90835
         Item               Value     Threshold  Converged?
 Maximum Force            0.000009     0.000015     YES
 RMS     Force            0.000003     0.000010     YES
 Maximum Displacement     0.000450     0.000060     NO 
 RMS     Displacement     0.000154     0.000040     NO 
 Predicted change in Energy=-5.405795D-09
 GradGradGradGradGradGradGradGradGradGradGradGradGradGradGradGradGradGrad

 Leave Link  103 at Sun Oct  4 11:28:52 2015, MaxMem=  805306368 cpu:       0.1
 (Enter /share/apps/g09/l202.exe)
                          Input orientation:                          
 ---------------------------------------------------------------------
 Center     Atomic      Atomic             Coordinates (Angstroms)
 Number     Number       Type             X           Y           Z
 ---------------------------------------------------------------------
      1          6           0        0.000047    1.518406   -1.254768
      2          1           0       -0.348991    1.041981   -2.175882
      3          1           0        1.085056    1.664769   -1.342882
      4          1           0       -0.462322    2.511211   -1.204305
      5          6           0       -0.342946    0.696648    0.000007
      6          1           0       -1.431388    0.522516    0.000013
      7          6           0        0.342946   -0.696648    0.000007
      8          1           0        1.431388   -0.522516    0.000013
      9          6           0       -0.000063   -1.518421    1.254768
     10          1           0       -1.085073   -1.664776    1.342872
     11          1           0        0.462297   -2.511230    1.204292
     12          1           0        0.348974   -1.042013    2.175890
     13          6           0        0.000063    1.518421    1.254768
     14          1           0       -0.348974    1.042013    2.175890
     15          1           0        1.085073    1.664776    1.342872
     16          1           0       -0.462297    2.511230    1.204292
     17          6           0       -0.000047   -1.518406   -1.254768
     18          1           0       -1.085056   -1.664769   -1.342882
     19          1           0        0.348991   -1.041981   -2.175882
     20          1           0        0.462322   -2.511211   -1.204305
 ---------------------------------------------------------------------
                    Distance matrix (angstroms):
                    1          2          3          4          5
     1  C    0.000000
     2  H    1.094193   0.000000
     3  H    1.098376   1.771509   0.000000
     4  H    1.096355   1.765062   1.769193   0.000000
     5  C    1.538633   2.203130   2.186275   2.181114   0.000000
     6  H    2.148321   2.485145   3.072556   2.518805   1.102284
     7  C    2.568755   2.869860   2.816091   3.519827   1.552971
     8  H    2.790802   3.217440   2.589890   3.773595   2.152817
     9  C    3.939555   4.294969   4.249466   4.743275   2.568759
    10  H    4.249455   4.499997   4.796729   4.931004   2.816090
    11  H    4.743271   4.970822   4.931013   5.646342   3.519829
    12  H    4.294987   4.875254   4.500027   4.970847   2.869872
    13  C    2.509536   3.481119   2.818938   2.691926   1.538633
    14  H    3.481118   4.351772   3.850457   3.687426   2.203130
    15  H    2.818943   3.850460   2.685754   3.098224   2.186275
    16  H    2.691921   3.687425   3.098208   2.408597   2.181114
    17  C    3.036812   2.743318   3.364196   4.056360   2.568755
    18  H    3.364196   2.926120   3.974319   4.224431   2.816091
    19  H    2.743318   2.197743   2.926120   3.771918   2.869860
    20  H    4.056360   3.771918   4.224431   5.106828   3.519827
                    6          7          8          9         10
     6  H    0.000000
     7  C    2.152817   0.000000
     8  H    3.047554   1.102284   0.000000
     9  C    2.790793   1.538633   2.148322   0.000000
    10  H    2.589875   2.186275   3.072557   1.098376   0.000000
    11  H    3.773586   2.181114   2.518811   1.096355   1.769193
    12  H    3.217434   2.203130   2.485144   1.094193   1.771509
    13  C    2.148322   2.568759   2.790793   3.036842   3.364228
    14  H    2.485144   2.869872   3.217434   2.743361   2.926170
    15  H    3.072557   2.816090   2.589875   3.364228   3.974350
    16  H    2.518811   3.519829   3.773586   4.056389   4.224462
    17  C    2.790802   1.538633   2.148321   2.509536   2.818943
    18  H    2.589890   2.186275   3.072556   2.818938   2.685754
    19  H    3.217440   2.203130   2.485145   3.481119   3.850460
    20  H    3.773595   2.181114   2.518805   2.691926   3.098224
                   11         12         13         14         15
    11  H    0.000000
    12  H    1.765061   0.000000
    13  C    4.056389   2.743361   0.000000
    14  H    3.771962   2.197794   1.094193   0.000000
    15  H    4.224462   2.926170   1.098376   1.771509   0.000000
    16  H    5.106856   3.771962   1.096355   1.765061   1.769193
    17  C    2.691921   3.481118   3.939555   4.294987   4.249455
    18  H    3.098208   3.850457   4.249466   4.500027   4.796729
    19  H    3.687425   4.351772   4.294969   4.875254   4.499997
    20  H    2.408597   3.687426   4.743275   4.970847   4.931004
                   16         17         18         19         20
    16  H    0.000000
    17  C    4.743271   0.000000
    18  H    4.931013   1.098376   0.000000
    19  H    4.970822   1.094193   1.771509   0.000000
    20  H    5.646342   1.096355   1.769193   1.765062   0.000000
 Stoichiometry    C6H14
 Framework group  C2[X(C6H14)]
 Deg. of freedom    28
 Full point group                 C2      NOp   2
 Largest Abelian subgroup         C2      NOp   2
 Largest concise Abelian subgroup C2      NOp   2
                         Standard orientation:                         
 ---------------------------------------------------------------------
 Center     Atomic      Atomic             Coordinates (Angstroms)
 Number     Number       Type             X           Y           Z
 ---------------------------------------------------------------------
      1          6           0        0.000008    1.518406    1.254770
      2          1           0        0.349029    1.041968    2.175883
      3          1           0       -1.084996    1.664808    1.342883
      4          1           0        0.462413    2.511194    1.204306
      5          6           0        0.342971    0.696635   -0.000005
      6          1           0        1.431407    0.522464   -0.000012
      7          6           0       -0.342971   -0.696635   -0.000005
      8          1           0       -1.431407   -0.522464   -0.000012
      9          6           0        0.000008   -1.518421   -1.254766
     10          1           0        1.085013   -1.664816   -1.342870
     11          1           0       -0.462388   -2.511213   -1.204291
     12          1           0       -0.349011   -1.042001   -2.175889
     13          6           0       -0.000008    1.518421   -1.254766
     14          1           0        0.349011    1.042001   -2.175889
     15          1           0       -1.085013    1.664816   -1.342870
     16          1           0        0.462388    2.511213   -1.204291
     17          6           0       -0.000008   -1.518406    1.254770
     18          1           0        1.084996   -1.664808    1.342883
     19          1           0       -0.349029   -1.041968    2.175883
     20          1           0       -0.462413   -2.511194    1.204306
 ---------------------------------------------------------------------
 Rotational constants (GHZ):      4.1912101      2.8570386      1.8589678
 Leave Link  202 at Sun Oct  4 11:28:52 2015, MaxMem=  805306368 cpu:       0.1
 (Enter /share/apps/g09/l301.exe)
 Standard basis: 6-31G(d) (6D, 7F)
 Ernie: Thresh=  0.10000D-02 Tol=  0.10000D-05 Strict=F.
 There are    59 symmetry adapted basis functions of A   symmetry.
 There are    59 symmetry adapted basis functions of B   symmetry.
 Integral buffers will be    131072 words long.
 Raffenetti 2 integral format.
 Two-electron integral symmetry is turned on.
   118 basis functions,   224 primitive gaussians,   118 cartesian basis functions
    25 alpha electrons       25 beta electrons
       nuclear repulsion energy       261.5106457574 Hartrees.
 IExCor=  402 DFT=T Ex+Corr=B3LYP ExCW=0 ScaHFX=  0.200000
 ScaDFX=  0.800000  0.720000  1.000000  0.810000 ScalE2=  1.000000  1.000000
 IRadAn=      5 IRanWt=     -1 IRanGd=            0 ICorTp=0
 NAtoms=   20 NActive=   20 NUniq=   10 SFac= 3.00D+00 NAtFMM=   80 NAOKFM=F Big=F
 Leave Link  301 at Sun Oct  4 11:28:52 2015, MaxMem=  805306368 cpu:       0.4
 (Enter /share/apps/g09/l302.exe)
 NPDir=0 NMtPBC=     1 NCelOv=     1 NCel=       1 NClECP=     1 NCelD=      1
         NCelK=      1 NCelE2=     1 NClLst=     1 CellRange=     0.0.
 One-electron integrals computed using PRISM.
 One-electron integral symmetry used in STVInt
 NBasis=   118 RedAO= T  NBF=    59    59
 NBsUse=   118 1.00D-06 NBFU=    59    59
 Precomputing XC quadrature grid using
 IXCGrd= 2 IRadAn=           5 IRanWt=          -1 IRanGd=           0 AccXCQ= 1.00D-10.
 NRdTot=    1644 NPtTot=      439424 NUsed=      451205 NTot=      451237
 NSgBfM=   118   118   118   118   118 NAtAll=    20    20.
 Leave Link  302 at Sun Oct  4 11:28:53 2015, MaxMem=  805306368 cpu:       2.4
 (Enter /share/apps/g09/l303.exe)
 DipDrv:  MaxL=1.
 Leave Link  303 at Sun Oct  4 11:28:53 2015, MaxMem=  805306368 cpu:       0.2
 (Enter /share/apps/g09/l401.exe)
 Initial guess read from the read-write file.
 B after Tr=     0.000000    0.000000    0.000000
         Rot=    1.000000    0.000000    0.000000    0.000000 Ang=   0.00 deg.
 Guess basis will be translated and rotated to current coordinates.
 Initial guess orbital symmetries:
       Occupied  (A) (B) (B) (A) (B) (A) (A) (B) (A) (B) (A) (B)
                 (B) (A) (A) (A) (B) (B) (A) (B) (A) (B) (A) (B)
                 (A)
       Virtual   (A) (B) (B) (A) (A) (B) (A) (A) (B) (A) (A) (B)
                 (B) (B) (B) (A) (A) (B) (B) (A) (A) (B) (B) (A)
                 (B) (B) (A) (A) (B) (A) (A) (B) (B) (B) (A) (A)
                 (A) (B) (A) (B) (B) (B) (A) (A) (A) (B) (B) (A)
                 (A) (B) (B) (A) (B) (B) (B) (A) (A) (A) (B) (A)
                 (B) (B) (A) (A) (B) (A) (B) (A) (B) (A) (A) (B)
                 (B) (A) (B) (A) (A) (B) (A) (B) (B) (A) (B) (A)
                 (A) (B) (B) (A) (B) (B) (A) (A) (B)
 The electronic state of the initial guess is 1-A.
 Leave Link  401 at Sun Oct  4 11:28:53 2015, MaxMem=  805306368 cpu:       0.9
 (Enter /share/apps/g09/l502.exe)
 Closed shell SCF:
 Requested convergence on RMS density matrix=1.00D-08 within 128 cycles.
 Requested convergence on MAX density matrix=1.00D-06.
 Requested convergence on             energy=1.00D-06.
 No special actions if energy rises.
 Using DIIS extrapolation, IDIIS=  1040.
 Integral symmetry usage will be decided dynamically.
       451012 words used for storage of precomputed grid.
 Keep R1 ints in memory in canonical form, NReq=26105237.
 IEnd=      512726 IEndB=      512726 NGot=   805306368 MDV=   780173566
 LenX=   780173566 LenY=   780159201
 Symmetry not used in FoFDir.
 MinBra= 0 MaxBra= 2 Meth= 1.
 IRaf=       0 NMat=   1 IRICut=       1 DoRegI=T DoRafI=F ISym2E= 0 JSym2E=0.

 Cycle   1  Pass 1  IDiag  1:
 E= -224.567458031368    
 DIIS: error= 1.08D-01 at cycle   1 NSaved=   1.
 NSaved= 1 IEnMin= 1 EnMin= -224.567458031368     IErMin= 1 ErrMin= 1.08D-01
 ErrMax= 1.08D-01 EMaxC= 1.00D-01 BMatC= 2.48D+00 BMatP= 2.48D+00
 IDIUse=3 WtCom= 0.00D+00 WtEn= 1.00D+00
 Coeff-Com:  0.100D+01
 Coeff-En:   0.100D+01
 Coeff:      0.100D+01
 Gap=     0.193 Goal=   None    Shift=    0.000
 GapD=    0.193 DampG=1.000 DampE=0.250 DampFc=0.2500 IDamp=-1.
 Damping current iteration by 2.50D-01
 RMSDP=4.54D-02 MaxDP=6.61D-01              OVMax= 9.19D-01

 Cycle   2  Pass 1  IDiag  1:
 E= -227.607223074425     Delta-E=       -3.039765043057 Rises=F Damp=T
 DIIS: error= 7.61D-02 at cycle   2 NSaved=   2.
 NSaved= 2 IEnMin= 2 EnMin= -227.607223074425     IErMin= 2 ErrMin= 7.61D-02
 ErrMax= 7.61D-02 EMaxC= 1.00D-01 BMatC= 1.15D+00 BMatP= 2.48D+00
 IDIUse=3 WtCom= 2.39D-01 WtEn= 7.61D-01
 Coeff-Com: -0.135D+01 0.235D+01
 Coeff-En:   0.000D+00 0.100D+01
 Coeff:     -0.323D+00 0.132D+01
 Gap=     0.328 Goal=   None    Shift=    0.000
 RMSDP=3.39D-02 MaxDP=4.59D-01 DE=-3.04D+00 OVMax= 1.82D-01

 Cycle   3  Pass 1  IDiag  1:
 E= -236.980531981856     Delta-E=       -9.373308907431 Rises=F Damp=F
 DIIS: error= 2.86D-02 at cycle   3 NSaved=   3.
 NSaved= 3 IEnMin= 3 EnMin= -236.980531981856     IErMin= 3 ErrMin= 2.86D-02
 ErrMax= 2.86D-02 EMaxC= 1.00D-01 BMatC= 1.07D-01 BMatP= 1.15D+00
 IDIUse=3 WtCom= 7.14D-01 WtEn= 2.86D-01
 Coeff-Com:  0.105D+00-0.742D-01 0.969D+00
 Coeff-En:   0.000D+00 0.000D+00 0.100D+01
 Coeff:      0.752D-01-0.530D-01 0.978D+00
 Gap=     0.420 Goal=   None    Shift=    0.000
 RMSDP=4.46D-03 MaxDP=7.00D-02 DE=-9.37D+00 OVMax= 1.02D-01

 Cycle   4  Pass 1  IDiag  1:
 E= -237.015407808389     Delta-E=       -0.034875826533 Rises=F Damp=F
 DIIS: error= 2.60D-02 at cycle   4 NSaved=   4.
 NSaved= 4 IEnMin= 4 EnMin= -237.015407808389     IErMin= 4 ErrMin= 2.60D-02
 ErrMax= 2.60D-02 EMaxC= 1.00D-01 BMatC= 6.51D-02 BMatP= 1.07D-01
 IDIUse=3 WtCom= 7.40D-01 WtEn= 2.60D-01
 Coeff-Com:  0.686D-02-0.228D-01 0.444D+00 0.572D+00
 Coeff-En:   0.000D+00 0.000D+00 0.389D+00 0.611D+00
 Coeff:      0.508D-02-0.169D-01 0.430D+00 0.582D+00
 Gap=     0.385 Goal=   None    Shift=    0.000
 RMSDP=2.41D-03 MaxDP=3.75D-02 DE=-3.49D-02 OVMax= 5.04D-02

 Cycle   5  Pass 1  IDiag  1:
 E= -237.080914090034     Delta-E=       -0.065506281645 Rises=F Damp=F
 DIIS: error= 4.33D-03 at cycle   5 NSaved=   5.
 NSaved= 5 IEnMin= 5 EnMin= -237.080914090034     IErMin= 5 ErrMin= 4.33D-03
 ErrMax= 4.33D-03 EMaxC= 1.00D-01 BMatC= 1.48D-03 BMatP= 6.51D-02
 IDIUse=3 WtCom= 9.57D-01 WtEn= 4.33D-02
 Coeff-Com:  0.834D-02-0.153D-01 0.712D-01 0.181D+00 0.754D+00
 Coeff-En:   0.000D+00 0.000D+00 0.000D+00 0.000D+00 0.100D+01
 Coeff:      0.798D-02-0.147D-01 0.681D-01 0.173D+00 0.765D+00
 Gap=     0.386 Goal=   None    Shift=    0.000
 RMSDP=4.22D-04 MaxDP=5.58D-03 DE=-6.55D-02 OVMax= 9.14D-03

 Cycle   6  Pass 1  IDiag  1:
 E= -237.082483234350     Delta-E=       -0.001569144316 Rises=F Damp=F
 DIIS: error= 5.19D-04 at cycle   6 NSaved=   6.
 NSaved= 6 IEnMin= 6 EnMin= -237.082483234350     IErMin= 6 ErrMin= 5.19D-04
 ErrMax= 5.19D-04 EMaxC= 1.00D-01 BMatC= 2.71D-05 BMatP= 1.48D-03
 IDIUse=3 WtCom= 9.95D-01 WtEn= 5.19D-03
 Coeff-Com: -0.206D-05-0.547D-03 0.544D-02 0.316D-01 0.209D+00 0.755D+00
 Coeff-En:   0.000D+00 0.000D+00 0.000D+00 0.000D+00 0.000D+00 0.100D+01
 Coeff:     -0.205D-05-0.544D-03 0.541D-02 0.314D-01 0.208D+00 0.756D+00
 Gap=     0.386 Goal=   None    Shift=    0.000
 RMSDP=7.30D-05 MaxDP=6.68D-04 DE=-1.57D-03 OVMax= 1.46D-03

 Cycle   7  Pass 1  IDiag  1:
 E= -237.082511862395     Delta-E=       -0.000028628045 Rises=F Damp=F
 DIIS: error= 8.81D-05 at cycle   7 NSaved=   7.
 NSaved= 7 IEnMin= 7 EnMin= -237.082511862395     IErMin= 7 ErrMin= 8.81D-05
 ErrMax= 8.81D-05 EMaxC= 1.00D-01 BMatC= 9.83D-07 BMatP= 2.71D-05
 IDIUse=1 WtCom= 1.00D+00 WtEn= 0.00D+00
 Coeff-Com: -0.463D-04-0.134D-05-0.731D-03 0.785D-03 0.250D-01 0.187D+00
 Coeff-Com:  0.788D+00
 Coeff:     -0.463D-04-0.134D-05-0.731D-03 0.785D-03 0.250D-01 0.187D+00
 Coeff:      0.788D+00
 Gap=     0.386 Goal=   None    Shift=    0.000
 RMSDP=1.11D-05 MaxDP=1.63D-04 DE=-2.86D-05 OVMax= 2.52D-04

 Cycle   8  Pass 1  IDiag  1:
 E= -237.082512647566     Delta-E=       -0.000000785171 Rises=F Damp=F
 DIIS: error= 5.16D-05 at cycle   8 NSaved=   8.
 NSaved= 8 IEnMin= 8 EnMin= -237.082512647566     IErMin= 8 ErrMin= 5.16D-05
 ErrMax= 5.16D-05 EMaxC= 1.00D-01 BMatC= 2.03D-07 BMatP= 9.83D-07
 IDIUse=1 WtCom= 1.00D+00 WtEn= 0.00D+00
 Coeff-Com: -0.657D-04 0.838D-04-0.417D-03-0.945D-03 0.352D-02 0.594D-01
 Coeff-Com:  0.396D+00 0.543D+00
 Coeff:     -0.657D-04 0.838D-04-0.417D-03-0.945D-03 0.352D-02 0.594D-01
 Coeff:      0.396D+00 0.543D+00
 Gap=     0.386 Goal=   None    Shift=    0.000
 RMSDP=4.13D-06 MaxDP=8.71D-05 DE=-7.85D-07 OVMax= 9.51D-05

 Cycle   9  Pass 1  IDiag  1:
 E= -237.082512841130     Delta-E=       -0.000000193563 Rises=F Damp=F
 DIIS: error= 5.51D-06 at cycle   9 NSaved=   9.
 NSaved= 9 IEnMin= 9 EnMin= -237.082512841130     IErMin= 9 ErrMin= 5.51D-06
 ErrMax= 5.51D-06 EMaxC= 1.00D-01 BMatC= 5.00D-09 BMatP= 2.03D-07
 IDIUse=1 WtCom= 1.00D+00 WtEn= 0.00D+00
 Coeff-Com:  0.538D-06 0.197D-06-0.430D-04-0.396D-03-0.720D-03 0.304D-02
 Coeff-Com:  0.533D-01 0.164D+00 0.781D+00
 Coeff:      0.538D-06 0.197D-06-0.430D-04-0.396D-03-0.720D-03 0.304D-02
 Coeff:      0.533D-01 0.164D+00 0.781D+00
 Gap=     0.386 Goal=   None    Shift=    0.000
 RMSDP=6.77D-07 MaxDP=8.36D-06 DE=-1.94D-07 OVMax= 1.45D-05

 Cycle  10  Pass 1  IDiag  1:
 E= -237.082512846224     Delta-E=       -0.000000005095 Rises=F Damp=F
 DIIS: error= 4.90D-07 at cycle  10 NSaved=  10.
 NSaved=10 IEnMin=10 EnMin= -237.082512846224     IErMin=10 ErrMin= 4.90D-07
 ErrMax= 4.90D-07 EMaxC= 1.00D-01 BMatC= 2.56D-11 BMatP= 5.00D-09
 IDIUse=1 WtCom= 1.00D+00 WtEn= 0.00D+00
 Coeff-Com:  0.539D-06-0.583D-06-0.433D-05-0.618D-04-0.205D-03-0.370D-03
 Coeff-Com:  0.338D-02 0.220D-01 0.142D+00 0.834D+00
 Coeff:      0.539D-06-0.583D-06-0.433D-05-0.618D-04-0.205D-03-0.370D-03
 Coeff:      0.338D-02 0.220D-01 0.142D+00 0.834D+00
 Gap=     0.386 Goal=   None    Shift=    0.000
 RMSDP=7.10D-08 MaxDP=6.92D-07 DE=-5.09D-09 OVMax= 1.34D-06

 Cycle  11  Pass 1  IDiag  1:
 E= -237.082512846251     Delta-E=       -0.000000000027 Rises=F Damp=F
 DIIS: error= 9.53D-08 at cycle  11 NSaved=  11.
 NSaved=11 IEnMin=11 EnMin= -237.082512846251     IErMin=11 ErrMin= 9.53D-08
 ErrMax= 9.53D-08 EMaxC= 1.00D-01 BMatC= 8.18D-13 BMatP= 2.56D-11
 IDIUse=1 WtCom= 1.00D+00 WtEn= 0.00D+00
 Coeff-Com:  0.400D-07-0.711D-07 0.936D-06 0.536D-05-0.326D-05-0.159D-03
 Coeff-Com: -0.148D-02-0.219D-02-0.445D-02 0.140D+00 0.868D+00
 Coeff:      0.400D-07-0.711D-07 0.936D-06 0.536D-05-0.326D-05-0.159D-03
 Coeff:     -0.148D-02-0.219D-02-0.445D-02 0.140D+00 0.868D+00
 Gap=     0.386 Goal=   None    Shift=    0.000
 RMSDP=1.39D-08 MaxDP=1.12D-07 DE=-2.71D-11 OVMax= 2.94D-07

 Cycle  12  Pass 1  IDiag  1:
 E= -237.082512846254     Delta-E=       -0.000000000003 Rises=F Damp=F
 DIIS: error= 1.17D-08 at cycle  12 NSaved=  12.
 NSaved=12 IEnMin=12 EnMin= -237.082512846254     IErMin=12 ErrMin= 1.17D-08
 ErrMax= 1.17D-08 EMaxC= 1.00D-01 BMatC= 1.76D-14 BMatP= 8.18D-13
 IDIUse=1 WtCom= 1.00D+00 WtEn= 0.00D+00
 Coeff-Com:  0.115D-08-0.110D-07 0.296D-06 0.217D-05 0.336D-05-0.246D-04
 Coeff-Com: -0.372D-03-0.790D-03-0.329D-02 0.176D-01 0.185D+00 0.802D+00
 Coeff:      0.115D-08-0.110D-07 0.296D-06 0.217D-05 0.336D-05-0.246D-04
 Coeff:     -0.372D-03-0.790D-03-0.329D-02 0.176D-01 0.185D+00 0.802D+00
 Gap=     0.386 Goal=   None    Shift=    0.000
 RMSDP=1.72D-09 MaxDP=1.65D-08 DE=-3.01D-12 OVMax= 3.28D-08

 SCF Done:  E(RB3LYP) =  -237.082512846     A.U. after   12 cycles
             Convg  =    0.1715D-08             -V/T =  2.0104
 KE= 2.346307796946D+02 PE=-1.069941596346D+03 EE= 3.367176580478D+02
 Leave Link  502 at Sun Oct  4 11:29:25 2015, MaxMem=  805306368 cpu:     114.8
 (Enter /share/apps/g09/l701.exe)
 Compute integral first derivatives.
 ... and contract with generalized density number  0.
 Leave Link  701 at Sun Oct  4 11:29:25 2015, MaxMem=  805306368 cpu:       1.0
 (Enter /share/apps/g09/l702.exe)
 L702 exits ... SP integral derivatives will be done elsewhere.
 Leave Link  702 at Sun Oct  4 11:29:25 2015, MaxMem=  805306368 cpu:       0.1
 (Enter /share/apps/g09/l703.exe)
 Compute integral first derivatives, UseDBF=F ICtDFT=           0.
 Integral derivatives from FoFDir, PRISM(SPDF).
 Calling FoFJK, ICntrl=      2127 FMM=F ISym2X=1 I1Cent= 0 IOpClX= 0 NMat=1 NMatS=1 NMatT=0.
 FoFCou: FMM=F IPFlag=           0 FMFlag=      100000 FMFlg1=         800
         NFxFlg=           0 DoJE=F BraDBF=F KetDBF=F FulRan=T
         Omega=  0.000000  0.000000  1.000000  0.000000  0.000000 ICntrl=    2127 IOpCl=  0
         NMat0=    1 NMatS0=    1 NMatT0=    0 NMatD0=    1 NMtDS0=    0 NMtDT0=    0
         I1Cent=           0 NGrid=           0.
 Petite list used in FoFCou.
 Leave Link  703 at Sun Oct  4 11:29:30 2015, MaxMem=  805306368 cpu:      17.9
 (Enter /share/apps/g09/l716.exe)
 Dipole        = 1.66533454D-15-4.44089210D-15-5.39017777D-07
 ***** Axes restored to original set *****
 -------------------------------------------------------------------
 Center     Atomic                   Forces (Hartrees/Bohr)
 Number     Number              X              Y              Z
 -------------------------------------------------------------------
      1        6          -0.000004315    0.000000625    0.000002804
      2        1          -0.000001485    0.000002644    0.000001949
      3        1          -0.000001278    0.000000925    0.000000062
      4        1          -0.000001608    0.000000470    0.000000227
      5        6          -0.000002904    0.000009062   -0.000000193
      6        1          -0.000000994   -0.000000162    0.000000055
      7        6           0.000002904   -0.000009062   -0.000000193
      8        1           0.000000994    0.000000162    0.000000055
[...]
 0110,-0.00000022,0.47167030,0.00031222,-0.00099589,0.00057008,0.000087
 53,0.00000129,0.00004592,0.00068485,0.00074802,-0.00076001,0.00049512,
 0.00014861,0.00002040,-0.01896509,-0.00091773,-0.00000006,-0.00060732,
 0.00333959,-0.00000003,-0.28458959,-0.03781742,-0.00000188,0.31219044,
 0.00079121,0.00156581,-0.00086886,0.00000605,-0.00009398,0.00007822,-0
 .00076113,-0.00008567,0.00021773,-0.00030870,0.00017900,-0.00023385,0.
 03066086,0.00121600,0.00000015,0.00333959,-0.00497139,0.00000002,-0.03
 707132,-0.05529902,-0.00000021,0.04065287,0.06395751,-0.00106006,-0.00
 029199,0.00010654,-0.00005183,0.00002651,0.00004537,0.00018791,0.00018
 863,0.00006502,0.00017051,-0.00003552,-0.00002758,0.00000007,-0.000000
 06,-0.00040401,0.00000003,-0.00000002,0.00028685,-0.00000192,-0.000000
 20,-0.04784646,0.00000207,0.00000038,0.05753532,-0.00206948,0.00272144
 ,0.00083753,0.00007025,-0.00023105,0.00005001,0.00047379,0.00014687,-0
 .00005659,0.00055341,0.00080651,-0.00084420,0.00384831,0.00731742,-0.0
 1299166,0.00031225,0.00079130,-0.00106009,-0.08776257,-0.01376396,0.02
 010732,-0.00771668,-0.01842380,0.02902191,0.56414031,0.00272137,-0.004
 75530,-0.00155209,0.00022269,0.00008142,0.00011302,-0.00005462,-0.0000
 1066,-0.00011372,-0.00031715,-0.00087981,0.00161544,-0.00623839,-0.020
 17297,0.02550388,-0.00099599,0.00156586,-0.00029196,-0.01345704,-0.107
 12777,0.04480743,-0.00141825,-0.00350603,0.00562381,-0.01566448,0.5461
 9240,0.00083752,-0.00155210,0.00007053,0.00011592,-0.00004781,0.000159
 91,-0.00007014,0.00011831,-0.00013442,0.00013002,-0.00056694,0.0006206
 7,-0.00259983,0.00616442,0.00043119,0.00057008,-0.00086884,0.00010655,
 0.02074730,0.04120744,-0.14560759,0.00071359,0.00139620,-0.00256433,0.
 02331636,0.05393510,0.51621081,0.00047381,-0.00005460,-0.00007014,-0.0
 0001493,0.00000772,0.00000770,-0.00000856,0.00019486,-0.00016591,0.000
 01248,-0.00008094,0.00007151,0.00037764,0.00095895,-0.00028440,0.00068
 489,-0.00076114,0.00018790,-0.00846360,-0.00177354,0.00093085,0.001151
 42,-0.00079159,0.00170524,-0.30013094,-0.03145849,0.01673697,0.3275246
 3,0.00014688,-0.00001064,0.00011832,-0.00000039,0.00000469,-0.00003042
 ,0.00019485,0.00008968,-0.00011397,0.00008016,-0.00001091,-0.00001425,
 -0.00187131,0.00108388,-0.00053518,0.00074805,-0.00008568,0.00018863,-
 0.01932146,-0.00360688,0.00120890,-0.00082539,-0.00153452,0.00359296,-
 0.03154069,-0.05338051,0.00122180,0.03609907,0.05387341,-0.00005659,-0
 .00011373,-0.00013442,-0.00000697,0.00001552,-0.00003071,-0.00016590,-
 0.00011397,0.00010706,-0.00009463,-0.00000418,0.00000933,0.00075931,-0
 .00124737,0.00112949,-0.00076001,0.00021773,0.00006503,0.02841615,0.00
 333810,-0.00202462,0.00130011,0.00322674,-0.00443409,0.01703167,0.0013
 2534,-0.05107414,-0.02034748,-0.00479068,0.05277257,0.00055344,-0.0003
 1718,0.00013001,-0.00002062,0.00000193,-0.00002112,0.00001248,0.000080
 16,-0.00009463,-0.00003527,-0.00009154,0.00011372,-0.00012232,-0.00037
 883,0.00101842,0.00049514,-0.00030869,0.00017050,0.00310041,-0.0082926
 7,-0.00038163,0.00045935,0.00001791,-0.00068176,-0.09754772,0.10099296
 ,0.00591301,-0.01322539,0.03068243,0.00240921,0.10102769,0.00080650,-0
 .00087984,-0.00056697,0.00002307,0.00003917,0.00016407,-0.00008094,-0.
 00001091,-0.00000418,-0.00009153,-0.00023672,0.00044817,-0.00259854,-0
 .00019845,0.00318687,0.00014859,0.00017903,-0.00003553,0.00823126,-0.0
 1668456,-0.00142348,-0.00049962,0.00026828,-0.00032395,0.10101676,-0.2
 6155278,-0.01396261,-0.00193194,0.00537792,0.00020644,-0.11100021,0.28
 445653,-0.00084417,0.00161544,0.00062065,-0.00006206,-0.00007024,0.000
 01438,0.00007151,-0.00001425,0.00000932,0.00011371,0.00044816,-0.00051
 921,0.00232377,0.00139882,-0.00525177,0.00002042,-0.00023386,-0.000027
 59,-0.01335411,0.02494063,0.00042617,0.00011452,-0.00076059,0.00092572
 ,0.00652267,-0.01513511,-0.04895970,0.00033692,-0.00176513,-0.00107917
 ,-0.00821235,0.01405550,0.05382248,0.00007023,0.00022268,0.00011591,-0
 .00002747,-0.00000825,0.00005588,-0.00001493,-0.00000039,-0.00000697,-
 0.00002062,0.00002307,-0.00006206,-0.00017202,-0.00021510,-0.00065925,
 0.00008753,0.00000604,-0.00005183,0.00171702,0.00492639,0.00760236,0.0
 0051170,0.00067883,-0.00016343,-0.07803786,-0.03843044,-0.07236504,-0.
 00955289,-0.01549208,-0.02827715,0.00502075,0.00618062,0.01331691,0.07
 925204,-0.00023104,0.00008143,-0.00004781,-0.00000826,0.00004044,-0.00
 011306,0.00000772,0.00000469,0.00001552,0.00000193,0.00003916,-0.00007
 024,0.00047631,0.00077114,-0.00026107,0.00000130,-0.00009398,0.0000265
 1,0.00739531,0.00957386,0.01504657,0.00021255,0.00075548,-0.00089669,-
 0.03923373,-0.10175892,-0.09947189,-0.00042657,-0.00229105,-0.00208633
 ,-0.01114988,-0.01290116,-0.02471931,0.04281393,0.11125610,0.00005001,
 0.00011303,0.00015990,0.00005589,-0.00011306,0.00022005,0.00000770,-0.
 00003042,-0.00003072,-0.00002112,0.00016407,0.00001438,0.00006352,-0.0
 0116817,-0.00027650,0.00004591,0.00007822,0.00004536,-0.00925038,-0.01
 354350,-0.02043124,0.00049043,-0.00023337,0.00109782,-0.07220846,-0.09
 802499,-0.23406065,0.00061825,0.00182829,0.00318577,0.00004313,-0.0008
 9137,-0.00090452,0.07806874,0.10876152,0.25451495,0.00311017,0.0045905
 4,0.00664424,0.00003486,-0.00061140,0.00246214,0.00035805,0.00043748,0
 .00107392,0.00002051,0.00025633,-0.00079702,-0.08776257,-0.01376396,-0
 .02010732,-0.00771668,-0.01842380,-0.02902191,0.00384831,0.00731742,0.
 01299166,0.00031225,0.00079130,0.00106009,-0.00071869,0.00045554,-0.00
 049356,0.00011105,0.00000150,-0.00014284,0.00018364,0.00032599,0.00042
 669,0.00076733,0.00060143,0.00055289,0.56414031,0.00459061,0.00939907,
 0.01238953,-0.00080190,-0.00216617,0.00473647,0.00008823,0.00011774,0.
 00006303,0.00015911,0.00044394,0.00172836,-0.01345704,-0.10712777,-0.0
 4480743,-0.00141825,-0.00350603,-0.00562381,-0.00623839,-0.02017297,-0
 .02550388,-0.00099599,0.00156586,0.00029196,0.00045554,-0.00091652,-0.
 00002418,-0.00033443,-0.00013225,0.00005973,-0.00013615,0.00029893,-0.
 00056450,0.00007681,-0.00173968,-0.00058228,-0.01566448,0.54619240,-0.
 00664481,-0.01239033,-0.03466218,0.00142474,0.00231761,-0.00394543,-0.
 00058076,-0.00086505,0.00174159,-0.00012580,-0.00177472,0.00103349,-0.
 02074730,-0.04120744,-0.14560759,-0.00071359,-0.00139620,-0.00256433,0
 .00259983,-0.00616442,0.00043119,-0.00057008,0.00086884,0.00010655,0.0
 0049356,0.00002418,0.00181828,0.00014256,0.00005467,0.00012417,0.00009
 122,0.00017693,-0.00077792,-0.00075494,0.00002979,-0.00053082,-0.02331
 636,-0.05393510,0.51621081,0.00003479,-0.00080202,-0.00142482,0.000574
 79,0.00002436,-0.00057607,0.00036713,0.00007823,-0.00043657,-0.0000607
 8,-0.00037277,0.00012897,0.00171702,0.00492639,-0.00760236,0.00051170,
 0.00067883,0.00016343,-0.00017202,-0.00021510,0.00065925,0.00008753,0.
 00000604,0.00005183,0.00076733,0.00007681,0.00075494,-0.00019931,-0.00
 012979,-0.00007445,-0.00016614,-0.00016038,-0.00030371,-0.00015129,0.0
 0058027,-0.00049422,-0.07803786,-0.03843044,0.07236504,0.07925204,-0.0
 0061149,-0.00216626,-0.00231760,0.00002435,0.00083827,-0.00096200,0.00
 005124,-0.00013723,0.00000518,-0.00030557,0.00036153,-0.00015957,0.007
 39531,0.00957386,-0.01504657,0.00021255,0.00075548,0.00089669,0.000476
 31,0.00077114,0.00026107,0.00000130,-0.00009398,-0.00002651,0.00060143
 ,-0.00173968,-0.00002979,-0.00011177,-0.00005488,0.00008606,-0.0000880
 5,0.00002982,-0.00007342,0.00058027,-0.00260878,-0.00036514,-0.0392337
 3,-0.10175892,0.09947189,0.04281393,0.11125610,-0.00246214,-0.00473650
 ,-0.00394526,0.00057603,0.00096196,-0.00164056,0.00016011,-0.00008936,
 0.00023673,-0.00010953,-0.00016007,0.00042073,0.00925038,0.01354350,-0
 .02043124,-0.00049043,0.00023337,0.00109782,-0.00006352,0.00116817,-0.
 00027650,-0.00004591,-0.00007822,0.00004536,-0.00055289,0.00058228,-0.
 00053082,-0.00012711,-0.00021619,-0.00006796,-0.00001503,0.00023301,0.
 00065660,0.00049422,0.00036514,0.00133593,0.07220846,0.09802499,-0.234
 06065,-0.07806874,-0.10876152,0.25451495,0.00035802,0.00008823,0.00058
 076,0.00036713,0.00005123,-0.00016011,0.00043529,0.00027262,-0.0007139
 7,-0.00005298,-0.00005426,-0.00001655,-0.00846360,-0.00177354,-0.00093
 085,0.00115142,-0.00079159,-0.00170524,0.00037764,0.00095895,0.0002844
 0,0.00068489,-0.00076114,-0.00018790,0.00011105,-0.00033443,-0.0001425
 6,0.00011477,0.00018503,0.00004515,0.00003747,-0.00007845,0.00000759,-
 0.00019931,-0.00011177,0.00012711,-0.30013094,-0.03145849,-0.01673697,
 -0.00955289,-0.00042657,-0.00061825,0.32752463,0.00043749,0.00011773,0
 .00086505,0.00007823,-0.00013721,0.00008936,0.00027262,0.00044032,-0.0
 0012523,0.00016137,0.00005533,-0.00010835,-0.01932146,-0.00360688,-0.0
 0120890,-0.00082539,-0.00153452,-0.00359296,-0.00187131,0.00108388,0.0
 0053518,0.00074805,-0.00008568,-0.00018863,0.00000150,-0.00013225,-0.0
 0005467,0.00018503,0.00021960,-0.00002951,0.00009343,-0.00001802,0.000
 05643,-0.00012979,-0.00005488,0.00021619,-0.03154069,-0.05338051,-0.00
 122180,-0.01549208,-0.00229105,-0.00182829,0.03609907,0.05387341,-0.00
 107392,-0.00006302,0.00174155,0.00043658,-0.00000517,0.00023671,0.0007
 1396,0.00012523,-0.00033874,0.00000416,0.00004345,-0.00010120,-0.02841
 615,-0.00333810,-0.00202462,-0.00130011,-0.00322674,-0.00443409,-0.000
 75931,0.00124737,0.00112949,0.00076001,-0.00021773,0.00006503,0.000142
 84,-0.00005973,0.00012417,-0.00004515,0.00002951,-0.00014687,-0.000045
 19,-0.00001060,0.00006024,0.00007445,-0.00008606,-0.00006796,-0.017031
 67,-0.00132534,-0.05107414,0.02827715,0.00208633,0.00318577,0.02034748
 ,0.00479068,0.05277257,0.00002056,0.00015907,0.00012581,-0.00006079,-0
 .00030556,0.00010955,-0.00005299,0.00016139,-0.00000416,0.00032296,-0.
 00010000,0.00027129,0.00310041,-0.00829267,0.00038163,0.00045935,0.000
 01791,0.00068176,-0.00012232,-0.00037883,-0.00101842,0.00049514,-0.000
 30869,-0.00017050,0.00018364,-0.00013615,-0.00009122,0.00003747,0.0000
 9343,0.00004519,-0.00000264,-0.00002052,-0.00006498,-0.00016614,-0.000
 08805,0.00001503,-0.09754772,0.10099296,-0.00591301,0.00502075,-0.0111
 4988,-0.00004313,-0.01322539,0.03068243,-0.00240921,0.10102769,0.00025
 640,0.00044396,0.00177476,-0.00037277,0.00036153,0.00016009,-0.0000542
 5,0.00005533,-0.00004347,-0.00010002,0.00108728,-0.00055669,0.00823126
 ,-0.01668456,0.00142348,-0.00049962,0.00026828,0.00032395,-0.00259854,
 -0.00019845,-0.00318687,0.00014859,0.00017903,0.00003553,0.00032599,0.
 00029893,-0.00017693,-0.00007845,-0.00001802,0.00001060,-0.00002052,-0
 .00011535,-0.00008236,-0.00016038,0.00002982,-0.00023301,0.10101676,-0
 .26155278,0.01396261,0.00618062,-0.01290116,0.00089137,-0.00193194,0.0
 0537792,-0.00020644,-0.11100021,0.28445653,0.00079703,-0.00172835,0.00
 103347,-0.00012895,0.00015956,0.00042073,0.00001656,0.00010835,-0.0001
 0120,-0.00027132,0.00055665,-0.00069281,0.01335411,-0.02494063,0.00042
 617,-0.00011452,0.00076059,0.00092572,-0.00232377,-0.00139882,-0.00525
 177,-0.00002042,0.00023386,-0.00002759,-0.00042669,0.00056450,-0.00077
 792,-0.00000759,-0.00005643,0.00006024,0.00006498,0.00008236,0.0003241
 4,0.00030371,0.00007342,0.00065660,-0.00652267,0.01513511,-0.04895970,
 -0.01331691,0.02471931,-0.00090452,-0.00033692,0.00176513,-0.00107917,
 0.00821235,-0.01405550,0.05382248,-0.00071877,0.00045570,-0.00049363,0
 .00076741,0.00060161,0.00055297,0.00011107,0.00000148,-0.00014286,0.00
 018366,0.00032604,0.00042676,0.00384821,0.00731745,0.01299182,0.000312
 22,0.00079121,0.00106006,-0.08776207,-0.01376298,-0.02010662,-0.007716
 27,-0.01842346,-0.02902228,0.00311017,0.00459061,0.00664481,0.00035802
 ,0.00043749,0.00107392,0.00002056,0.00025640,-0.00079703,0.00003479,-0
 .00061149,0.00246214,-0.00206948,0.00272137,-0.00083752,0.00007023,-0.
 00023104,-0.00005001,0.00047381,0.00014688,0.00005659,0.00055344,0.000
 80650,0.00084417,0.56414104,0.00045570,-0.00091694,-0.00002414,0.00007
 687,-0.00174001,-0.00058239,-0.00033446,-0.00013224,0.00005973,-0.0001
 3619,0.00029891,-0.00056457,-0.00623807,-0.02017297,-0.02550409,-0.000
 99589,0.00156581,0.00029199,-0.01345619,-0.10712655,-0.04480721,-0.001
 41818,-0.00350602,-0.00562392,0.00459054,0.00939907,0.01239033,0.00008
 823,0.00011773,0.00006302,0.00015907,0.00044396,0.00172835,-0.00080202
 ,-0.00216626,0.00473650,0.00272144,-0.00475530,0.00155210,0.00022268,0
 .00008143,-0.00011303,-0.00005460,-0.00001064,0.00011373,-0.00031718,-
 0.00087984,-0.00161544,-0.01566364,0.54619547,0.00049363,0.00002414,0.
 00181823,-0.00075500,0.00002983,-0.00053080,0.00014258,0.00005469,0.00
 012419,0.00009124,0.00017692,-0.00077797,0.00259979,-0.00616470,0.0004
 3107,-0.00057008,0.00086886,0.00010654,-0.02074669,-0.04120737,-0.1456
 0951,-0.00071372,-0.00139651,-0.00256484,-0.00664424,-0.01238953,-0.03
 466218,-0.00058076,-0.00086505,0.00174155,-0.00012581,-0.00177476,0.00
 103347,0.00142482,0.00231760,-0.00394526,-0.00083753,0.00155209,0.0000
 7053,-0.00011591,0.00004781,0.00015990,0.00007014,-0.00011832,-0.00013
 442,-0.00013001,0.00056697,0.00062065,-0.02331544,-0.05393468,0.516208
 11,0.00011107,-0.00033446,-0.00014258,-0.00019932,-0.00011177,0.000127
 13,0.00011477,0.00018504,0.00004517,0.00003747,-0.00007845,0.00000759,
 0.00037765,0.00095891,0.00028434,0.00068485,-0.00076113,-0.00018791,-0
 .00846317,-0.00177352,-0.00093095,0.00115147,-0.00079153,-0.00170517,0
 .00035805,0.00008823,0.00058076,0.00043529,0.00027262,-0.00071396,-0.0
 0005299,-0.00005425,-0.00001656,0.00036713,0.00005124,-0.00016011,0.00
 047379,-0.00005462,0.00007014,-0.00001493,0.00000772,-0.00000770,-0.00
 000856,0.00019485,0.00016590,0.00001248,-0.00008094,-0.00007151,-0.300
 12999,-0.03146074,-0.01673951,0.32752356,0.00000148,-0.00013224,-0.000
 05469,-0.00012980,-0.00005488,0.00021622,0.00018504,0.00021960,-0.0000
 2951,0.00009344,-0.00001802,0.00005644,-0.00187124,0.00108385,0.000535
 16,0.00074802,-0.00008567,-0.00018863,-0.01932103,-0.00360691,-0.00120
 907,-0.00082532,-0.00153441,-0.00359291,0.00043748,0.00011774,0.000865
 05,0.00027262,0.00044032,-0.00012523,0.00016139,0.00005533,-0.00010835
 ,0.00007823,-0.00013723,0.00008936,0.00014687,-0.00001066,-0.00011831,
 -0.00000039,0.00000469,0.00003042,0.00019486,0.00008968,0.00011397,0.0
 0008016,-0.00001091,0.00001425,-0.03154296,-0.05338121,-0.00122230,0.0
 3610156,0.05387396,0.00014286,-0.00005973,0.00012419,0.00007445,-0.000
 08609,-0.00006797,-0.00004517,0.00002951,-0.00014687,-0.00004520,-0.00
 001060,0.00006025,-0.00075930,0.00124736,0.00112950,0.00076001,-0.0002
 1773,0.00006502,-0.02841659,-0.00333839,-0.00202495,-0.00130005,-0.003
 22675,-0.00443425,-0.00107392,-0.00006303,0.00174159,0.00071397,0.0001
 2523,-0.00033874,0.00000416,0.00004347,-0.00010120,0.00043657,-0.00000
 518,0.00023673,0.00005659,0.00011372,-0.00013442,0.00000697,-0.0000155
 2,-0.00003072,0.00016591,0.00011397,0.00010706,0.00009463,0.00000418,0
 .00000932,-0.01703421,-0.00132579,-0.05107440,0.02035033,0.00479118,0.
 05277307,0.00076741,0.00007687,0.00075500,-0.00015134,0.00058042,-0.00
 049426,-0.00019932,-0.00012980,-0.00007445,-0.00016615,-0.00016041,-0.
 00030374,-0.00017204,-0.00021514,0.00065927,0.00008753,0.00000605,0.00
 005183,0.00171691,0.00492634,-0.00760190,0.00051167,0.00067882,0.00016
 343,0.00003486,-0.00080190,-0.00142474,0.00036713,0.00007823,-0.000436
 58,-0.00006079,-0.00037277,0.00012895,0.00057479,0.00002435,-0.0005760
 3,0.00007025,0.00022269,-0.00011592,-0.00002747,-0.00000826,-0.0000558
 9,-0.00001493,-0.00000039,0.00000697,-0.00002062,0.00002307,0.00006206
 ,-0.07803824,-0.03843215,0.07236419,-0.00955296,-0.01549265,0.02827673
 ,0.07925241,0.00060161,-0.00174001,-0.00002983,0.00058042,-0.00260934,
 -0.00036524,-0.00011177,-0.00005488,0.00008609,-0.00008807,0.00002979,
 -0.00007347,0.00047634,0.00077114,0.00026110,0.00000129,-0.00009398,-0
 .00002651,0.00739518,0.00957397,-0.01504596,0.00021254,0.00075546,0.00
 089667,-0.00061140,-0.00216617,-0.00231761,0.00005123,-0.00013721,0.00
 000517,-0.00030556,0.00036153,-0.00015956,0.00002436,0.00083827,-0.000
 96196,-0.00023105,0.00008142,0.00004781,-0.00000825,0.00004044,0.00011
 306,0.00000772,0.00000469,-0.00001552,0.00000193,0.00003917,0.00007024
 ,-0.03923567,-0.10176333,0.09947481,-0.00042663,-0.00229124,0.00208656
 ,0.04281560,0.11126192,-0.00055297,0.00058239,-0.00053080,0.00049426,0
 .00036524,0.00133599,-0.00012713,-0.00021622,-0.00006797,-0.00001504,0
 .00023305,0.00065665,-0.00006355,0.00116824,-0.00027653,-0.00004592,-0
 .00007822,0.00004537,0.00925064,0.01354408,-0.02043129,-0.00049044,0.0
 0023337,0.00109781,-0.00246214,-0.00473647,-0.00394543,0.00016011,-0.0
 0008936,0.00023671,-0.00010955,-0.00016009,0.00042073,0.00057607,0.000
 96200,-0.00164056,-0.00005001,-0.00011302,0.00015991,-0.00005588,0.000
 11306,0.00022005,-0.00000770,0.00003042,-0.00003071,0.00002112,-0.0001
 6407,0.00001438,0.07220769,0.09802756,-0.23405549,-0.00061835,-0.00182
 852,0.00318598,-0.07806790,-0.10876460,0.25450931,0.00018366,-0.000136
 19,-0.00009124,-0.00016615,-0.00008807,0.00001504,0.00003747,0.0000934
 4,0.00004520,-0.00000264,-0.00002053,-0.00006499,-0.00012220,-0.000378
 85,-0.00101836,0.00049512,-0.00030870,-0.00017051,0.00310028,-0.008292
 30,0.00038147,0.00045937,0.00001788,0.00068176,0.00002051,0.00015911,0
 .00012580,-0.00005298,0.00016137,-0.00000416,0.00032296,-0.00010002,0.
 00027132,-0.00006078,-0.00030557,0.00010953,0.00055341,-0.00031715,-0.
 00013002,-0.00002062,0.00000193,0.00002112,0.00001248,0.00008016,0.000
 09463,-0.00003527,-0.00009153,-0.00011371,-0.09754981,0.10099478,-0.00
 591169,-0.01322566,0.03068225,-0.00240874,0.00502090,-0.01114982,-0.00
 004332,0.10102994,0.00032604,0.00029891,-0.00017692,-0.00016041,0.0000
 2979,-0.00023305,-0.00007845,-0.00001802,0.00001060,-0.00002053,-0.000
 11536,-0.00008238,-0.00259845,-0.00019845,-0.00318678,0.00014861,0.000
 17900,0.00003552,0.00823118,-0.01668416,0.00142333,-0.00049963,0.00026
 828,0.00032395,0.00025633,0.00044394,0.00177472,-0.00005426,0.00005533
 ,-0.00004345,-0.00010000,0.00108728,-0.00055665,-0.00037277,0.00036153
 ,0.00016007,0.00080651,-0.00087981,0.00056694,0.00002307,0.00003916,-0
 .00016407,-0.00008094,-0.00001091,0.00000418,-0.00009154,-0.00023672,-
 0.00044816,0.10101851,-0.26155108,0.01395948,-0.00193213,0.00537820,-0
 .00020637,0.00618104,-0.01290164,0.00089118,-0.11100218,0.28445472,-0.
 00042676,0.00056457,-0.00077797,0.00030374,0.00007347,0.00065665,-0.00
 000759,-0.00005644,0.00006025,0.00006499,0.00008238,0.00032416,-0.0023
 2376,-0.00139878,-0.00525190,-0.00002040,0.00023385,-0.00002758,0.0133
 5452,-0.02494085,0.00042587,-0.00011453,0.00076059,0.00092577,0.000797
 02,-0.00172836,0.00103349,0.00001655,0.00010835,-0.00010120,-0.0002712
 9,0.00055669,-0.00069281,-0.00012897,0.00015957,0.00042073,0.00084420,
 -0.00161544,0.00062067,0.00006206,0.00007024,0.00001438,-0.00007151,0.
 00001425,0.00000933,-0.00011372,-0.00044817,-0.00051921,-0.00652133,0.
 01513194,-0.04895936,-0.00033707,0.00176549,-0.00107917,-0.01331702,0.
 02471877,-0.00090411,0.00821087,-0.01405213,0.05382203\\0.00000140,0.,
 -0.00000007,0.00000100,0.00000001,-0.00000013,0.00000150,-0.00000102,0
 .00000003,0.00000227,0.00000029,0.00000010,0.00000059,-0.00000017,0.00
 000015,0.00000043,0.00000145,-0.00000003,-0.00000059,0.00000017,0.0000
 0015,-0.00000043,-0.00000145,-0.00000003,-0.00000126,-0.00000059,0.000
 00027,-0.00000156,0.00000100,0.00000004,-0.00000235,-0.00000034,-0.000
 00018,-0.00000094,-0.00000062,-0.00000018,0.00000126,0.00000059,0.0000
 0027,0.00000094,0.00000062,-0.00000018,0.00000156,-0.00000100,0.000000
 04,0.00000235,0.00000034,-0.00000018,-0.00000140,0.,-0.00000007,-0.000
 00150,0.00000102,0.00000003,-0.00000100,-0.00000001,-0.00000013,-0.000
 00227,-0.00000029,0.00000010\\\@


 ACCORDING TO HEN3RY, LIFE IS MUCH LIKE A SEWER........
 YOU GET OUT OF IT JUST WHAT YOU PUT INTO IT...........
                         TOM LEHRER - (THE 3 IS SILENT)
 Job cpu time:  0 days  0 hours 15 minutes 33.3 seconds.
 File lengths (MBytes):  RWF=     26 Int=      0 D2E=      0 Chk=      2 Scr=      1
 Normal termination of Gaussian 09 at Sun Oct  4 11:34:48 2015.
