 Entering Gaussian System, Link 0=/home/hetanjin/apps/g09D01/g09/g09
 Input=C6H14_4_r005_C5_2_opt_B3L.gjf
 Output=C6H14_4_r005_C5_2_opt_B3L.log
 Initial command:
 /home/hetanjin/apps/g09D01/g09/l1.exe "/state/partition1/Gau-24220.inp" -scrdir="/state/partition1/"
 Entering Link 1 = /home/hetanjin/apps/g09D01/g09/l1.exe PID=     24221.
  
 Copyright (c) 1988,1990,1992,1993,1995,1998,2003,2009,2013,
            Gaussian, Inc.  All Rights Reserved.
  
 This is part of the Gaussian(R) 09 program.  It is based on
 the Gaussian(R) 03 system (copyright 2003, Gaussian, Inc.),
 the Gaussian(R) 98 system (copyright 1998, Gaussian, Inc.),
 the Gaussian(R) 94 system (copyright 1995, Gaussian, Inc.),
 the Gaussian 92(TM) system (copyright 1992, Gaussian, Inc.),
 the Gaussian 90(TM) system (copyright 1990, Gaussian, Inc.),
 the Gaussian 88(TM) system (copyright 1988, Gaussian, Inc.),
 the Gaussian 86(TM) system (copyright 1986, Carnegie Mellon
 University), and the Gaussian 82(TM) system (copyright 1983,
 Carnegie Mellon University). Gaussian is a federally registered
 trademark of Gaussian, Inc.
  
 This software contains proprietary and confidential information,
 including trade secrets, belonging to Gaussian, Inc.
  
 This software is provided under written license and may be
 used, copied, transmitted, or stored only in accord with that
 written license.
  
 The following legend is applicable only to US Government
 contracts under FAR:
  
                    RESTRICTED RIGHTS LEGEND
  
 Use, reproduction and disclosure by the US Government is
 subject to restrictions as set forth in subparagraphs (a)
 and (c) of the Commercial Computer Software - Restricted
 Rights clause in FAR 52.227-19.
  
 Gaussian, Inc.
 340 Quinnipiac St., Bldg. 40, Wallingford CT 06492
  
  
 ---------------------------------------------------------------
 Warning -- This program may not be used in any manner that
 competes with the business of Gaussian, Inc. or will provide
 assistance to any competitor of Gaussian, Inc.  The licensee
 of this program is prohibited from giving any competitor of
 Gaussian, Inc. access to this program.  By using this program,
 the user acknowledges that Gaussian, Inc. is engaged in the
 business of creating and licensing software in the field of
 computational chemistry and represents and warrants to the
 licensee that it is not a competitor of Gaussian, Inc. and that
 it will not use this program in any manner prohibited above.
 ---------------------------------------------------------------
  

 Cite this work as:
 Gaussian 09, Revision D.01,
 M. J. Frisch, G. W. Trucks, H. B. Schlegel, G. E. Scuseria, 
 M. A. Robb, J. R. Cheeseman, G. Scalmani, V. Barone, B. Mennucci, 
 G. A. Petersson, H. Nakatsuji, M. Caricato, X. Li, H. P. Hratchian, 
 A. F. Izmaylov, J. Bloino, G. Zheng, J. L. Sonnenberg, M. Hada, 
 M. Ehara, K. Toyota, R. Fukuda, J. Hasegawa, M. Ishida, T. Nakajima, 
 Y. Honda, O. Kitao, H. Nakai, T. Vreven, J. A. Montgomery, Jr., 
 J. E. Peralta, F. Ogliaro, M. Bearpark, J. J. Heyd, E. Brothers, 
 K. N. Kudin, V. N. Staroverov, T. Keith, R. Kobayashi, J. Normand, 
 K. Raghavachari, A. Rendell, J. C. Burant, S. S. Iyengar, J. Tomasi, 
 M. Cossi, N. Rega, J. M. Millam, M. Klene, J. E. Knox, J. B. Cross, 
 V. Bakken, C. Adamo, J. Jaramillo, R. Gomperts, R. E. Stratmann, 
 O. Yazyev, A. J. Austin, R. Cammi, C. Pomelli, J. W. Ochterski, 
 R. L. Martin, K. Morokuma, V. G. Zakrzewski, G. A. Voth, 
 P. Salvador, J. J. Dannenberg, S. Dapprich, A. D. Daniels, 
 O. Farkas, J. B. Foresman, J. V. Ortiz, J. Cioslowski, 
 and D. J. Fox, Gaussian, Inc., Wallingford CT, 2013.
 
 ******************************************
 Gaussian 09:  ES64L-G09RevD.01 24-Apr-2013
                 7-Nov-2015 
 ******************************************
 %mem=6GB
 %nprocshared=4
 Will use up to    4 processors via shared memory.
 ----------------------------------------------
 #p B3LYP/6-31G(d) opt=tight int=ultrafine freq
 ----------------------------------------------
 1/7=10,14=-1,18=20,19=15,26=4,38=1/1,3;
 2/9=110,12=2,17=6,18=5,40=1/2;
 3/5=1,6=6,7=1,11=2,16=1,25=1,30=1,71=1,74=-5,75=-5/1,2,3;
 4//1;
 5/5=2,38=5/2;
 6/7=2,8=2,9=2,10=2,28=1/1;
 7//1,2,3,16;
 1/7=10,14=-1,18=20,19=15,26=4/3(2);
 2/9=110/2;
 99//99;
 2/9=110/2;
 3/5=1,6=6,7=1,11=2,16=1,25=1,30=1,71=1,74=-5,75=-5/1,2,3;
 4/5=5,16=3,69=1/1;
 5/5=2,38=5/2;
 7//1,2,3,16;
 1/7=10,14=-1,18=20,19=15,26=4/3(-5);
 2/9=110/2;
 6/7=2,8=2,9=2,10=2,19=2,28=1/1;
 99/9=1/99;
 Leave Link    1 at Sat Nov  7 02:09:17 2015, MaxMem=   805306368 cpu:         0.2
 (Enter /home/hetanjin/apps/g09D01/g09/l101.exe)
 ---------------------------------------------
 using B3LYP/6-31G(d) to do opt and freq calc.
 ---------------------------------------------
 Symbolic Z-matrix:
 Charge =  0 Multiplicity = 2
 C                     0.00001   1.51843   1.25476 
 H                     0.34915   1.04207   2.17587 
 H                    -1.085     1.66472   1.34294 
 H                     0.4623    2.51127   1.20422 
 C                     0.34297   0.69665  -0.00001 
 C                    -0.34297  -0.69665  -0.00001 
 H                    -1.43141  -0.52249  -0.00002 
 C                     0.00001  -1.51845  -1.25475 
 H                     1.08502  -1.66473  -1.34293 
 H                    -0.46227  -2.51129  -1.2042 
 H                    -0.34913  -1.04211  -2.17587 
 C                    -0.00001   1.51845  -1.25475 
 H                     0.34913   1.04211  -2.17587 
 H                    -1.08502   1.66473  -1.34293 
 H                     0.46227   2.51129  -1.2042 
 C                    -0.00001  -1.51843   1.25476 
 H                     1.085    -1.66472   1.34294 
 H                    -0.34915  -1.04207   2.17587 
 H                    -0.4623   -2.51127   1.20422 
 
 NAtoms=     19 NQM=       19 NQMF=       0 NMMI=      0 NMMIF=      0
                NMic=       0 NMicF=      0.
                    Isotopes and Nuclear Properties:
 (Nuclear quadrupole moments (NQMom) in fm**2, nuclear magnetic moments (NMagM)
  in nuclear magnetons)

  Atom         1           2           3           4           5           6           7           8           9          10
 IAtWgt=          12           1           1           1          12          12           1          12           1           1
 AtmWgt=  12.0000000   1.0078250   1.0078250   1.0078250  12.0000000  12.0000000   1.0078250  12.0000000   1.0078250   1.0078250
 NucSpn=           0           1           1           1           0           0           1           0           1           1
 AtZEff=   0.0000000   0.0000000   0.0000000   0.0000000   0.0000000   0.0000000   0.0000000   0.0000000   0.0000000   0.0000000
 NQMom=    0.0000000   0.0000000   0.0000000   0.0000000   0.0000000   0.0000000   0.0000000   0.0000000   0.0000000   0.0000000
 NMagM=    0.0000000   2.7928460   2.7928460   2.7928460   0.0000000   0.0000000   2.7928460   0.0000000   2.7928460   2.7928460
 AtZNuc=   6.0000000   1.0000000   1.0000000   1.0000000   6.0000000   6.0000000   1.0000000   6.0000000   1.0000000   1.0000000

  Atom        11          12          13          14          15          16          17          18          19
 IAtWgt=           1          12           1           1           1          12           1           1           1
 AtmWgt=   1.0078250  12.0000000   1.0078250   1.0078250   1.0078250  12.0000000   1.0078250   1.0078250   1.0078250
 NucSpn=           1           0           1           1           1           0           1           1           1
 AtZEff=   0.0000000   0.0000000   0.0000000   0.0000000   0.0000000   0.0000000   0.0000000   0.0000000   0.0000000
 NQMom=    0.0000000   0.0000000   0.0000000   0.0000000   0.0000000   0.0000000   0.0000000   0.0000000   0.0000000
 NMagM=    2.7928460   0.0000000   2.7928460   2.7928460   2.7928460   0.0000000   2.7928460   2.7928460   2.7928460
 AtZNuc=   1.0000000   6.0000000   1.0000000   1.0000000   1.0000000   6.0000000   1.0000000   1.0000000   1.0000000
 Leave Link  101 at Sat Nov  7 02:09:17 2015, MaxMem=   805306368 cpu:         0.7
 (Enter /home/hetanjin/apps/g09D01/g09/l103.exe)

 GradGradGradGradGradGradGradGradGradGradGradGradGradGradGradGradGradGrad
 Berny optimization.
 Initialization pass.
                           ----------------------------
                           !    Initial Parameters    !
                           ! (Angstroms and Degrees)  !
 --------------------------                            --------------------------
 ! Name  Definition              Value          Derivative Info.                !
 --------------------------------------------------------------------------------
 ! R1    R(1,2)                  1.0942         estimate D2E/DX2                !
 ! R2    R(1,3)                  1.0984         estimate D2E/DX2                !
 ! R3    R(1,4)                  1.0964         estimate D2E/DX2                !
 ! R4    R(1,5)                  1.5386         estimate D2E/DX2                !
 ! R5    R(5,6)                  1.553          estimate D2E/DX2                !
 ! R6    R(5,12)                 1.5386         estimate D2E/DX2                !
 ! R7    R(6,7)                  1.1023         estimate D2E/DX2                !
 ! R8    R(6,8)                  1.5386         estimate D2E/DX2                !
 ! R9    R(6,16)                 1.5386         estimate D2E/DX2                !
 ! R10   R(8,9)                  1.0984         estimate D2E/DX2                !
 ! R11   R(8,10)                 1.0964         estimate D2E/DX2                !
 ! R12   R(8,11)                 1.0942         estimate D2E/DX2                !
 ! R13   R(12,13)                1.0942         estimate D2E/DX2                !
 ! R14   R(12,14)                1.0984         estimate D2E/DX2                !
 ! R15   R(12,15)                1.0964         estimate D2E/DX2                !
 ! R16   R(16,17)                1.0984         estimate D2E/DX2                !
 ! R17   R(16,18)                1.0942         estimate D2E/DX2                !
 ! R18   R(16,19)                1.0964         estimate D2E/DX2                !
 ! A1    A(2,1,3)              107.7942         estimate D2E/DX2                !
 ! A2    A(2,1,4)              107.3678         estimate D2E/DX2                !
 ! A3    A(2,1,5)              112.5112         estimate D2E/DX2                !
 ! A4    A(3,1,4)              107.4347         estimate D2E/DX2                !
 ! A5    A(3,1,5)              110.9038         estimate D2E/DX2                !
 ! A6    A(4,1,5)              110.6151         estimate D2E/DX2                !
 ! A7    A(1,5,6)              112.3785         estimate D2E/DX2                !
 ! A8    A(1,5,12)             109.2744         estimate D2E/DX2                !
 ! A9    A(6,5,12)             112.3788         estimate D2E/DX2                !
 ! A10   A(5,6,7)              107.1209         estimate D2E/DX2                !
 ! A11   A(5,6,8)              112.3788         estimate D2E/DX2                !
 ! A12   A(5,6,16)             112.3785         estimate D2E/DX2                !
 ! A13   A(7,6,8)              107.7277         estimate D2E/DX2                !
 ! A14   A(7,6,16)             107.7277         estimate D2E/DX2                !
 ! A15   A(8,6,16)             109.2744         estimate D2E/DX2                !
 ! A16   A(6,8,9)              110.9039         estimate D2E/DX2                !
 ! A17   A(6,8,10)             110.6151         estimate D2E/DX2                !
 ! A18   A(6,8,11)             112.5112         estimate D2E/DX2                !
 ! A19   A(9,8,10)             107.4347         estimate D2E/DX2                !
 ! A20   A(9,8,11)             107.7943         estimate D2E/DX2                !
 ! A21   A(10,8,11)            107.3677         estimate D2E/DX2                !
 ! A22   A(5,12,13)            112.5112         estimate D2E/DX2                !
 ! A23   A(5,12,14)            110.9039         estimate D2E/DX2                !
 ! A24   A(5,12,15)            110.6151         estimate D2E/DX2                !
 ! A25   A(13,12,14)           107.7943         estimate D2E/DX2                !
 ! A26   A(13,12,15)           107.3677         estimate D2E/DX2                !
 ! A27   A(14,12,15)           107.4347         estimate D2E/DX2                !
 ! A28   A(6,16,17)            110.9038         estimate D2E/DX2                !
 ! A29   A(6,16,18)            112.5112         estimate D2E/DX2                !
 ! A30   A(6,16,19)            110.6151         estimate D2E/DX2                !
 ! A31   A(17,16,18)           107.7942         estimate D2E/DX2                !
 ! A32   A(17,16,19)           107.4347         estimate D2E/DX2                !
 ! A33   A(18,16,19)           107.3678         estimate D2E/DX2                !
 ! D1    D(2,1,5,6)             62.4263         estimate D2E/DX2                !
 ! D2    D(2,1,5,12)          -172.1116         estimate D2E/DX2                !
 ! D3    D(3,1,5,6)            -58.3978         estimate D2E/DX2                !
 ! D4    D(3,1,5,12)            67.0643         estimate D2E/DX2                !
 ! D5    D(4,1,5,6)           -177.4986         estimate D2E/DX2                !
 ! D6    D(4,1,5,12)           -52.0364         estimate D2E/DX2                !
 ! D7    D(1,5,6,7)             61.8763         estimate D2E/DX2                !
 ! D8    D(1,5,6,8)           -179.9988         estimate D2E/DX2                !
 ! D9    D(1,5,6,16)           -56.2483         estimate D2E/DX2                !
 ! D10   D(12,5,6,7)           -61.8741         estimate D2E/DX2                !
 ! D11   D(12,5,6,8)            56.2508         estimate D2E/DX2                !
 ! D12   D(12,5,6,16)         -179.9988         estimate D2E/DX2                !
 ! D13   D(1,5,12,13)          172.1107         estimate D2E/DX2                !
 ! D14   D(1,5,12,14)          -67.0651         estimate D2E/DX2                !
 ! D15   D(1,5,12,15)           52.0357         estimate D2E/DX2                !
 ! D16   D(6,5,12,13)          -62.4273         estimate D2E/DX2                !
 ! D17   D(6,5,12,14)           58.3969         estimate D2E/DX2                !
 ! D18   D(6,5,12,15)          177.4977         estimate D2E/DX2                !
 ! D19   D(5,6,8,9)             58.3969         estimate D2E/DX2                !
 ! D20   D(5,6,8,10)           177.4977         estimate D2E/DX2                !
 ! D21   D(5,6,8,11)           -62.4273         estimate D2E/DX2                !
 ! D22   D(7,6,8,9)            176.1628         estimate D2E/DX2                !
 ! D23   D(7,6,8,10)           -64.7364         estimate D2E/DX2                !
 ! D24   D(7,6,8,11)            55.3386         estimate D2E/DX2                !
 ! D25   D(16,6,8,9)           -67.0651         estimate D2E/DX2                !
 ! D26   D(16,6,8,10)           52.0357         estimate D2E/DX2                !
 ! D27   D(16,6,8,11)          172.1107         estimate D2E/DX2                !
 ! D28   D(5,6,16,17)          -58.3978         estimate D2E/DX2                !
 ! D29   D(5,6,16,18)           62.4263         estimate D2E/DX2                !
 ! D30   D(5,6,16,19)         -177.4986         estimate D2E/DX2                !
 ! D31   D(7,6,16,17)         -176.1635         estimate D2E/DX2                !
 ! D32   D(7,6,16,18)          -55.3394         estimate D2E/DX2                !
 ! D33   D(7,6,16,19)           64.7357         estimate D2E/DX2                !
 ! D34   D(8,6,16,17)           67.0643         estimate D2E/DX2                !
 ! D35   D(8,6,16,18)         -172.1116         estimate D2E/DX2                !
 ! D36   D(8,6,16,19)          -52.0364         estimate D2E/DX2                !
 --------------------------------------------------------------------------------
 Trust Radius=3.00D-01 FncErr=1.00D-07 GrdErr=1.00D-06
 Number of steps in this run=     97 maximum allowed number of steps=    114.
 GradGradGradGradGradGradGradGradGradGradGradGradGradGradGradGradGradGrad

 Leave Link  103 at Sat Nov  7 02:09:17 2015, MaxMem=   805306368 cpu:         0.0
 (Enter /home/hetanjin/apps/g09D01/g09/l202.exe)
                          Input orientation:                          
 ---------------------------------------------------------------------
 Center     Atomic      Atomic             Coordinates (Angstroms)
 Number     Number       Type             X           Y           Z
 ---------------------------------------------------------------------
      1          6           0        0.000010    1.518429    1.254759
      2          1           0        0.349148    1.042070    2.175866
      3          1           0       -1.085003    1.664723    1.342944
      4          1           0        0.462302    2.511266    1.204222
      5          6           0        0.342970    0.696651   -0.000006
      6          6           0       -0.342970   -0.696651   -0.000006
      7          1           0       -1.431409   -0.522493   -0.000015
      8          6           0        0.000010   -1.518447   -1.254754
      9          1           0        1.085024   -1.664732   -1.342928
     10          1           0       -0.462273   -2.511288   -1.204204
     11          1           0       -0.349127   -1.042109   -2.175873
     12          6           0       -0.000010    1.518447   -1.254754
     13          1           0        0.349127    1.042109   -2.175873
     14          1           0       -1.085024    1.664732   -1.342928
     15          1           0        0.462273    2.511288   -1.204204
     16          6           0       -0.000010   -1.518429    1.254759
     17          1           0        1.085003   -1.664723    1.342944
     18          1           0       -0.349148   -1.042070    2.175866
     19          1           0       -0.462302   -2.511266    1.204222
 ---------------------------------------------------------------------
                    Distance matrix (angstroms):
                    1          2          3          4          5
     1  C    0.000000
     2  H    1.094191   0.000000
     3  H    1.098377   1.771509   0.000000
     4  H    1.096355   1.765059   1.769190   0.000000
     5  C    1.538628   2.203128   2.186272   2.181108   0.000000
     6  C    2.568784   2.869947   2.816064   3.519852   1.552998
     7  H    2.790839   3.217561   2.589874   3.773595   2.152843
     8  C    3.939578   4.295032   4.249454   4.743297   2.568788
     9  H    4.249441   4.500022   4.796686   4.930995   2.816063
    10  H    4.743292   4.970878   4.931006   5.646362   3.519855
    11  H    4.295054   4.875348   4.500058   4.970909   2.869962
    12  C    2.509513   3.481092   2.818979   2.691837   1.538628
    13  H    3.481092   4.351739   3.850513   3.687312   2.203129
    14  H    2.818986   3.850515   2.685872   3.098195   2.186272
    15  H    2.691831   3.687312   3.098177   2.408426   2.181108
    16  C    3.036858   2.743448   3.364141   4.056443   2.568784
    17  H    3.364141   2.926084   3.974184   4.224439   2.816064
    18  H    2.743448   2.198012   2.926084   3.772100   2.869947
    19  H    4.056443   3.772100   4.224439   5.106929   3.519852
                    6          7          8          9         10
     6  C    0.000000
     7  H    1.102284   0.000000
     8  C    1.538628   2.148314   0.000000
     9  H    2.186272   3.072549   1.098376   0.000000
    10  H    2.181108   2.518849   1.096355   1.769189   0.000000
    11  H    2.203129   2.485094   1.094191   1.771509   1.765058
    12  C    2.568788   2.790826   3.036894   3.364179   4.056477
    13  H    2.869962   3.217553   2.743500   2.926146   3.772153
    14  H    2.816063   2.589855   3.364179   3.974222   4.224477
    15  H    3.519855   3.773583   4.056477   4.224477   5.106961
    16  C    1.538628   2.148313   2.509513   2.818986   2.691831
    17  H    2.186272   3.072549   2.818979   2.685872   3.098177
    18  H    2.203128   2.485097   3.481092   3.850515   3.687312
    19  H    2.181108   2.518844   2.691837   3.098195   2.408426
                   11         12         13         14         15
    11  H    0.000000
    12  C    2.743500   0.000000
    13  H    2.198073   1.094191   0.000000
    14  H    2.926146   1.098376   1.771509   0.000000
    15  H    3.772153   1.096355   1.765058   1.769189   0.000000
    16  C    3.481092   3.939578   4.295054   4.249441   4.743292
    17  H    3.850513   4.249454   4.500058   4.796686   4.931006
    18  H    4.351739   4.295032   4.875348   4.500022   4.970878
    19  H    3.687312   4.743297   4.970909   4.930995   5.646362
                   16         17         18         19
    16  C    0.000000
    17  H    1.098377   0.000000
    18  H    1.094191   1.771509   0.000000
    19  H    1.096355   1.769190   1.765059   0.000000
 Stoichiometry    C6H13(2)
 Framework group  C1[X(C6H13)]
 Deg. of freedom    51
 Full point group                 C1      NOp   1
 Largest Abelian subgroup         C1      NOp   1
 Largest concise Abelian subgroup C1      NOp   1
                         Standard orientation:                         
 ---------------------------------------------------------------------
 Center     Atomic      Atomic             Coordinates (Angstroms)
 Number     Number       Type             X           Y           Z
 ---------------------------------------------------------------------
      1          6           0       -1.529328    1.254758    0.011590
      2          1           0       -1.062455    2.175865   -0.350134
      3          1           0       -1.646618    1.342943    1.100120
      4          1           0       -2.534147    1.204221   -0.424045
      5          6           0       -0.716993   -0.000007   -0.353176
      6          6           0        0.694116   -0.000006    0.295341
      7          1           0        0.549063   -0.000016    1.388040
      8          6           0        1.506468   -1.254754   -0.069445
      9          1           0        1.623749   -1.342928   -1.157976
     10          1           0        2.511290   -1.204204    0.366181
     11          1           0        1.039616   -2.175873    0.292277
     12          6           0       -1.529345   -1.254755    0.011609
     13          1           0       -1.062492   -2.175874   -0.350114
     14          1           0       -1.646625   -1.342929    1.100141
     15          1           0       -2.534167   -1.204205   -0.424016
     16          6           0        1.506449    1.254759   -0.069424
     17          1           0        1.623739    1.342944   -1.157954
     18          1           0        1.039576    2.175866    0.292301
     19          1           0        2.511269    1.204222    0.366211
 ---------------------------------------------------------------------
 Rotational constants (GHZ):      4.2630247      2.8957125      1.8612604
 Leave Link  202 at Sat Nov  7 02:09:18 2015, MaxMem=   805306368 cpu:         0.0
 (Enter /home/hetanjin/apps/g09D01/g09/l301.exe)
 Standard basis: 6-31G(d) (6D, 7F)
 Ernie: Thresh=  0.10000D-02 Tol=  0.10000D-05 Strict=F.
 There are   116 symmetry adapted cartesian basis functions of A   symmetry.
 There are   116 symmetry adapted basis functions of A   symmetry.
   116 basis functions,   220 primitive gaussians,   116 cartesian basis functions
    25 alpha electrons       24 beta electrons
       nuclear repulsion energy       249.5410787898 Hartrees.
 IExCor=  402 DFT=T Ex+Corr=B3LYP ExCW=0 ScaHFX=  0.200000
 ScaDFX=  0.800000  0.720000  1.000000  0.810000 ScalE2=  1.000000  1.000000
 IRadAn=      5 IRanWt=     -1 IRanGd=            0 ICorTp=0 IEmpDi=  4
 NAtoms=   19 NActive=   19 NUniq=   19 SFac= 1.00D+00 NAtFMM=   60 NAOKFM=F Big=F
 Integral buffers will be    131072 words long.
 Raffenetti 2 integral format.
 Two-electron integral symmetry is turned on.
 Leave Link  301 at Sat Nov  7 02:09:18 2015, MaxMem=   805306368 cpu:         0.2
 (Enter /home/hetanjin/apps/g09D01/g09/l302.exe)
 NPDir=0 NMtPBC=     1 NCelOv=     1 NCel=       1 NClECP=     1 NCelD=      1
         NCelK=      1 NCelE2=     1 NClLst=     1 CellRange=     0.0.
 One-electron integrals computed using PRISM.
 NBasis=   116 RedAO= T EigKep=  3.85D-03  NBF=   116
 NBsUse=   116 1.00D-06 EigRej= -1.00D+00 NBFU=   116
 Precomputing XC quadrature grid using
 IXCGrd= 4 IRadAn=           5 IRanWt=          -1 IRanGd=           0 AccXCQ= 0.00D+00.
 Generated NRdTot=       0 NPtTot=           0 NUsed=           0 NTot=          32
 NSgBfM=   116   116   116   116   116 MxSgAt=    19 MxSgA2=    19.
 Leave Link  302 at Sat Nov  7 02:09:18 2015, MaxMem=   805306368 cpu:         1.8
 (Enter /home/hetanjin/apps/g09D01/g09/l303.exe)
 DipDrv:  MaxL=1.
 Leave Link  303 at Sat Nov  7 02:09:18 2015, MaxMem=   805306368 cpu:         0.1
 (Enter /home/hetanjin/apps/g09D01/g09/l401.exe)
 ExpMin= 1.61D-01 ExpMax= 3.05D+03 ExpMxC= 4.57D+02 IAcc=3 IRadAn=         5 AccDes= 0.00D+00
 Harris functional with IExCor=  402 and IRadAn=       5 diagonalized for initial guess.
 HarFok:  IExCor=  402 AccDes= 0.00D+00 IRadAn=         5 IDoV= 1 UseB2=F ITyADJ=14
 ICtDFT=  3500011 ScaDFX=  1.000000  1.000000  1.000000  1.000000
 FoFCou: FMM=F IPFlag=           0 FMFlag=      100000 FMFlg1=           0
         NFxFlg=           0 DoJE=T BraDBF=F KetDBF=T FulRan=T
         wScrn=  0.000000 ICntrl=     500 IOpCl=  0 I1Cent=   200000004 NGrid=           0
         NMat0=    1 NMatS0=      1 NMatT0=    0 NMatD0=    1 NMtDS0=    0 NMtDT0=    0
 Petite list used in FoFCou.
 Harris En= -236.461227106595    
 JPrj=0 DoOrth=F DoCkMO=F.
 Initial guess <Sx>= 0.0000 <Sy>= 0.0000 <Sz>= 0.5000 <S**2>= 0.7500 S= 0.5000
 Leave Link  401 at Sat Nov  7 02:09:21 2015, MaxMem=   805306368 cpu:         8.8
 (Enter /home/hetanjin/apps/g09D01/g09/l502.exe)
 UHF open shell SCF:
 Using DIIS extrapolation, IDIIS=  1040.
 Integral symmetry usage will be decided dynamically.
 Keep R1 and R2 ints in memory in canonical form, NReq=47059932.
 IVT=       60514 IEndB=       60514 NGot=   805306368 MDV=   759189273
 LenX=   759189273 LenY=   759175376
 Requested convergence on RMS density matrix=1.00D-08 within 128 cycles.
 Requested convergence on MAX density matrix=1.00D-06.
 Requested convergence on             energy=1.00D-06.
 No special actions if energy rises.
 FoFCou: FMM=F IPFlag=           0 FMFlag=           0 FMFlg1=           0
         NFxFlg=           0 DoJE=F BraDBF=F KetDBF=F FulRan=T
         wScrn=  0.000000 ICntrl=     600 IOpCl=  0 I1Cent=           0 NGrid=           0
         NMat0=    1 NMatS0=   6786 NMatT0=    0 NMatD0=    1 NMtDS0=    0 NMtDT0=    0
 Symmetry not used in FoFCou.
 Integral accuracy reduced to 1.0D-05 until final iterations.

 Cycle   1  Pass 0  IDiag  1:
 E= -236.142420077974    
 DIIS: error= 5.71D-02 at cycle   1 NSaved=   1.
 NSaved= 1 IEnMin= 1 EnMin= -236.142420077974     IErMin= 1 ErrMin= 5.71D-02
 ErrMax= 5.71D-02  0.00D+00 EMaxC= 1.00D-01 BMatC= 9.72D-01 BMatP= 9.72D-01
 IDIUse=3 WtCom= 4.29D-01 WtEn= 5.71D-01
 Coeff-Com:  0.100D+01
 Coeff-En:   0.100D+01
 Coeff:      0.100D+01
 Gap=     0.256 Goal=   None    Shift=    0.000
 Gap=     0.224 Goal=   None    Shift=    0.000
 GapD=    0.224 DampG=1.000 DampE=0.500 DampFc=0.5000 IDamp=-1.
 Damping current iteration by 5.00D-01
 RMSDP=9.50D-03 MaxDP=1.53D-01              OVMax= 1.79D-01

 Cycle   2  Pass 0  IDiag  1:
 E= -236.264137129699     Delta-E=       -0.121717051725 Rises=F Damp=T
 DIIS: error= 9.35D-03 at cycle   2 NSaved=   2.
 NSaved= 2 IEnMin= 2 EnMin= -236.264137129699     IErMin= 2 ErrMin= 9.35D-03
 ErrMax= 9.35D-03  0.00D+00 EMaxC= 1.00D-01 BMatC= 3.57D-02 BMatP= 9.72D-01
 IDIUse=3 WtCom= 9.06D-01 WtEn= 9.35D-02
 Coeff-Com:  0.658D-01 0.934D+00
 Coeff-En:   0.107D+00 0.893D+00
 Coeff:      0.697D-01 0.930D+00
 Gap=     0.288 Goal=   None    Shift=    0.000
 Gap=     0.259 Goal=   None    Shift=    0.000
 RMSDP=1.56D-03 MaxDP=2.06D-02 DE=-1.22D-01 OVMax= 1.00D-01

 Cycle   3  Pass 0  IDiag  1:
 E= -236.409926763183     Delta-E=       -0.145789633484 Rises=F Damp=F
 DIIS: error= 2.43D-03 at cycle   3 NSaved=   3.
 NSaved= 3 IEnMin= 3 EnMin= -236.409926763183     IErMin= 3 ErrMin= 2.43D-03
 ErrMax= 2.43D-03  0.00D+00 EMaxC= 1.00D-01 BMatC= 2.71D-03 BMatP= 3.57D-02
 IDIUse=3 WtCom= 9.76D-01 WtEn= 2.43D-02
 Coeff-Com: -0.160D-02 0.138D+00 0.864D+00
 Coeff-En:   0.000D+00 0.000D+00 0.100D+01
 Coeff:     -0.156D-02 0.134D+00 0.867D+00
 Gap=     0.283 Goal=   None    Shift=    0.000
 Gap=     0.253 Goal=   None    Shift=    0.000
 RMSDP=4.67D-04 MaxDP=1.10D-02 DE=-1.46D-01 OVMax= 9.92D-03

 Cycle   4  Pass 0  IDiag  1:
 E= -236.410246838896     Delta-E=       -0.000320075712 Rises=F Damp=F
 DIIS: error= 2.19D-03 at cycle   4 NSaved=   4.
 NSaved= 4 IEnMin= 4 EnMin= -236.410246838896     IErMin= 4 ErrMin= 2.19D-03
 ErrMax= 2.19D-03  0.00D+00 EMaxC= 1.00D-01 BMatC= 1.72D-03 BMatP= 2.71D-03
 IDIUse=3 WtCom= 9.78D-01 WtEn= 2.19D-02
 Coeff-Com: -0.335D-02 0.213D-01 0.448D+00 0.534D+00
 Coeff-En:   0.000D+00 0.000D+00 0.348D+00 0.652D+00
 Coeff:     -0.328D-02 0.208D-01 0.446D+00 0.536D+00
 Gap=     0.286 Goal=   None    Shift=    0.000
 Gap=     0.254 Goal=   None    Shift=    0.000
 RMSDP=2.09D-04 MaxDP=4.59D-03 DE=-3.20D-04 OVMax= 4.78D-03

 Cycle   5  Pass 0  IDiag  1:
 E= -236.410665652941     Delta-E=       -0.000418814045 Rises=F Damp=F
 DIIS: error= 3.31D-04 at cycle   5 NSaved=   5.
 NSaved= 5 IEnMin= 5 EnMin= -236.410665652941     IErMin= 5 ErrMin= 3.31D-04
 ErrMax= 3.31D-04  0.00D+00 EMaxC= 1.00D-01 BMatC= 5.06D-05 BMatP= 1.72D-03
 IDIUse=3 WtCom= 9.97D-01 WtEn= 3.31D-03
 Coeff-Com: -0.603D-03-0.530D-02 0.809D-01 0.185D+00 0.740D+00
 Coeff-En:   0.000D+00 0.000D+00 0.000D+00 0.000D+00 0.100D+01
 Coeff:     -0.601D-03-0.528D-02 0.806D-01 0.184D+00 0.741D+00
 Gap=     0.287 Goal=   None    Shift=    0.000
 Gap=     0.254 Goal=   None    Shift=    0.000
 RMSDP=3.26D-05 MaxDP=8.26D-04 DE=-4.19D-04 OVMax= 9.30D-04

 Cycle   6  Pass 0  IDiag  1:
 E= -236.410679856432     Delta-E=       -0.000014203491 Rises=F Damp=F
 DIIS: error= 5.61D-05 at cycle   6 NSaved=   6.
 NSaved= 6 IEnMin= 6 EnMin= -236.410679856432     IErMin= 6 ErrMin= 5.61D-05
 ErrMax= 5.61D-05  0.00D+00 EMaxC= 1.00D-01 BMatC= 1.39D-06 BMatP= 5.06D-05
 IDIUse=1 WtCom= 1.00D+00 WtEn= 0.00D+00
 Coeff-Com:  0.214D-03-0.676D-03-0.377D-01-0.591D-01-0.984D-01 0.120D+01
 Coeff:      0.214D-03-0.676D-03-0.377D-01-0.591D-01-0.984D-01 0.120D+01
 Gap=     0.287 Goal=   None    Shift=    0.000
 Gap=     0.255 Goal=   None    Shift=    0.000
 RMSDP=1.36D-05 MaxDP=3.24D-04 DE=-1.42D-05 OVMax= 4.30D-04

 Cycle   7  Pass 0  IDiag  1:
 E= -236.410680822539     Delta-E=       -0.000000966108 Rises=F Damp=F
 DIIS: error= 2.41D-05 at cycle   7 NSaved=   7.
 NSaved= 7 IEnMin= 7 EnMin= -236.410680822539     IErMin= 7 ErrMin= 2.41D-05
 ErrMax= 2.41D-05  0.00D+00 EMaxC= 1.00D-01 BMatC= 2.59D-07 BMatP= 1.39D-06
 IDIUse=1 WtCom= 1.00D+00 WtEn= 0.00D+00
 Coeff-Com:  0.775D-04 0.237D-03-0.173D-01-0.309D-01-0.829D-01 0.385D+00
 Coeff-Com:  0.746D+00
 Coeff:      0.775D-04 0.237D-03-0.173D-01-0.309D-01-0.829D-01 0.385D+00
 Coeff:      0.746D+00
 Gap=     0.287 Goal=   None    Shift=    0.000
 Gap=     0.255 Goal=   None    Shift=    0.000
 RMSDP=3.51D-06 MaxDP=7.69D-05 DE=-9.66D-07 OVMax= 1.07D-04

 Initial convergence to 1.0D-05 achieved.  Increase integral accuracy.
 Cycle   8  Pass 1  IDiag  1:
 E= -236.410698709173     Delta-E=       -0.000017886634 Rises=F Damp=F
 DIIS: error= 1.44D-05 at cycle   1 NSaved=   1.
 NSaved= 1 IEnMin= 1 EnMin= -236.410698709173     IErMin= 1 ErrMin= 1.44D-05
 ErrMax= 1.44D-05  0.00D+00 EMaxC= 1.00D-01 BMatC= 8.65D-08 BMatP= 8.65D-08
 IDIUse=1 WtCom= 1.00D+00 WtEn= 0.00D+00
 Coeff-Com:  0.100D+01
 Coeff:      0.100D+01
 Gap=     0.287 Goal=   None    Shift=    0.000
 Gap=     0.255 Goal=   None    Shift=    0.000
 RMSDP=3.51D-06 MaxDP=7.69D-05 DE=-1.79D-05 OVMax= 6.49D-05

 Cycle   9  Pass 1  IDiag  1:
 E= -236.410698722242     Delta-E=       -0.000000013069 Rises=F Damp=F
 DIIS: error= 1.37D-05 at cycle   2 NSaved=   2.
 NSaved= 2 IEnMin= 2 EnMin= -236.410698722242     IErMin= 2 ErrMin= 1.37D-05
 ErrMax= 1.37D-05  0.00D+00 EMaxC= 1.00D-01 BMatC= 6.97D-08 BMatP= 8.65D-08
 IDIUse=1 WtCom= 1.00D+00 WtEn= 0.00D+00
 Coeff-Com:  0.467D+00 0.533D+00
 Coeff:      0.467D+00 0.533D+00
 Gap=     0.287 Goal=   None    Shift=    0.000
 Gap=     0.255 Goal=   None    Shift=    0.000
 RMSDP=1.31D-06 MaxDP=2.13D-05 DE=-1.31D-08 OVMax= 3.57D-05

 Cycle  10  Pass 1  IDiag  1:
 E= -236.410698739579     Delta-E=       -0.000000017337 Rises=F Damp=F
 DIIS: error= 3.01D-06 at cycle   3 NSaved=   3.
 NSaved= 3 IEnMin= 3 EnMin= -236.410698739579     IErMin= 3 ErrMin= 3.01D-06
 ErrMax= 3.01D-06  0.00D+00 EMaxC= 1.00D-01 BMatC= 3.25D-09 BMatP= 6.97D-08
 IDIUse=1 WtCom= 1.00D+00 WtEn= 0.00D+00
 Coeff-Com: -0.616D-01 0.128D+00 0.934D+00
 Coeff:     -0.616D-01 0.128D+00 0.934D+00
 Gap=     0.287 Goal=   None    Shift=    0.000
 Gap=     0.255 Goal=   None    Shift=    0.000
 RMSDP=3.67D-07 MaxDP=8.42D-06 DE=-1.73D-08 OVMax= 1.02D-05

 Cycle  11  Pass 1  IDiag  1:
 E= -236.410698740735     Delta-E=       -0.000000001156 Rises=F Damp=F
 DIIS: error= 6.61D-07 at cycle   4 NSaved=   4.
 NSaved= 4 IEnMin= 4 EnMin= -236.410698740735     IErMin= 4 ErrMin= 6.61D-07
 ErrMax= 6.61D-07  0.00D+00 EMaxC= 1.00D-01 BMatC= 1.74D-10 BMatP= 3.25D-09
 IDIUse=1 WtCom= 1.00D+00 WtEn= 0.00D+00
 Coeff-Com: -0.231D-01-0.937D-02 0.843D-01 0.948D+00
 Coeff:     -0.231D-01-0.937D-02 0.843D-01 0.948D+00
 Gap=     0.287 Goal=   None    Shift=    0.000
 Gap=     0.255 Goal=   None    Shift=    0.000
 RMSDP=1.15D-07 MaxDP=3.40D-06 DE=-1.16D-09 OVMax= 4.28D-06

 Cycle  12  Pass 1  IDiag  1:
 E= -236.410698740815     Delta-E=       -0.000000000080 Rises=F Damp=F
 DIIS: error= 4.79D-07 at cycle   5 NSaved=   5.
 NSaved= 5 IEnMin= 5 EnMin= -236.410698740815     IErMin= 5 ErrMin= 4.79D-07
 ErrMax= 4.79D-07  0.00D+00 EMaxC= 1.00D-01 BMatC= 8.59D-11 BMatP= 1.74D-10
 IDIUse=1 WtCom= 1.00D+00 WtEn= 0.00D+00
 Coeff-Com:  0.481D-02-0.396D-01-0.212D+00 0.465D+00 0.782D+00
 Coeff:      0.481D-02-0.396D-01-0.212D+00 0.465D+00 0.782D+00
 Gap=     0.287 Goal=   None    Shift=    0.000
 Gap=     0.255 Goal=   None    Shift=    0.000
 RMSDP=6.25D-08 MaxDP=2.05D-06 DE=-8.01D-11 OVMax= 2.69D-06

 Cycle  13  Pass 1  IDiag  1:
 E= -236.410698740841     Delta-E=       -0.000000000026 Rises=F Damp=F
 DIIS: error= 1.20D-07 at cycle   6 NSaved=   6.
 NSaved= 6 IEnMin= 6 EnMin= -236.410698740841     IErMin= 6 ErrMin= 1.20D-07
 ErrMax= 1.20D-07  0.00D+00 EMaxC= 1.00D-01 BMatC= 6.56D-12 BMatP= 8.59D-11
 IDIUse=1 WtCom= 1.00D+00 WtEn= 0.00D+00
 Coeff-Com:  0.367D-02-0.157D-01-0.952D-01 0.110D+00 0.332D+00 0.666D+00
 Coeff:      0.367D-02-0.157D-01-0.952D-01 0.110D+00 0.332D+00 0.666D+00
 Gap=     0.287 Goal=   None    Shift=    0.000
 Gap=     0.255 Goal=   None    Shift=    0.000
 RMSDP=1.66D-08 MaxDP=3.51D-07 DE=-2.58D-11 OVMax= 5.33D-07

 Cycle  14  Pass 1  IDiag  1:
 E= -236.410698740847     Delta-E=       -0.000000000006 Rises=F Damp=F
 DIIS: error= 1.61D-08 at cycle   7 NSaved=   7.
 NSaved= 7 IEnMin= 7 EnMin= -236.410698740847     IErMin= 7 ErrMin= 1.61D-08
 ErrMax= 1.61D-08  0.00D+00 EMaxC= 1.00D-01 BMatC= 1.27D-13 BMatP= 6.56D-12
 IDIUse=1 WtCom= 1.00D+00 WtEn= 0.00D+00
 Coeff-Com:  0.695D-03-0.179D-02-0.128D-01 0.517D-02 0.381D-01 0.140D+00
 Coeff-Com:  0.830D+00
 Coeff:      0.695D-03-0.179D-02-0.128D-01 0.517D-02 0.381D-01 0.140D+00
 Coeff:      0.830D+00
 Gap=     0.287 Goal=   None    Shift=    0.000
 Gap=     0.255 Goal=   None    Shift=    0.000
 RMSDP=2.85D-09 MaxDP=6.80D-08 DE=-6.03D-12 OVMax= 6.82D-08

 SCF Done:  E(UB3LYP) =  -236.410698741     A.U. after   14 cycles
            NFock= 14  Conv=0.29D-08     -V/T= 2.0106
 <Sx>= 0.0000 <Sy>= 0.0000 <Sz>= 0.5000 <S**2>= 0.7531 S= 0.5016
 <L.S>= 0.000000000000E+00
 KE= 2.339385585701D+02 PE=-1.044683152331D+03 EE= 3.247928162307D+02
 Annihilation of the first spin contaminant:
 S**2 before annihilation     0.7531,   after     0.7500
 Leave Link  502 at Sat Nov  7 02:10:06 2015, MaxMem=   805306368 cpu:       173.4
 (Enter /home/hetanjin/apps/g09D01/g09/l601.exe)
 Copying SCF densities to generalized density rwf, IOpCl= 1 IROHF=0.

 **********************************************************************

            Population analysis using the SCF density.

 **********************************************************************

 Orbital symmetries:
 Alpha Orbitals:
       Occupied  (A) (A) (A) (A) (A) (A) (A) (A) (A) (A) (A) (A)
                 (A) (A) (A) (A) (A) (A) (A) (A) (A) (A) (A) (A)
                 (A)
       Virtual   (A) (A) (A) (A) (A) (A) (A) (A) (A) (A) (A) (A)
                 (A) (A) (A) (A) (A) (A) (A) (A) (A) (A) (A) (A)
                 (A) (A) (A) (A) (A) (A) (A) (A) (A) (A) (A) (A)
                 (A) (A) (A) (A) (A) (A) (A) (A) (A) (A) (A) (A)
                 (A) (A) (A) (A) (A) (A) (A) (A) (A) (A) (A) (A)
                 (A) (A) (A) (A) (A) (A) (A) (A) (A) (A) (A) (A)
                 (A) (A) (A) (A) (A) (A) (A) (A) (A) (A) (A) (A)
                 (A) (A) (A) (A) (A) (A) (A)
 Beta  Orbitals:
       Occupied  (A) (A) (A) (A) (A) (A) (A) (A) (A) (A) (A) (A)
                 (A) (A) (A) (A) (A) (A) (A) (A) (A) (A) (A) (A)
       Virtual   (A) (A) (A) (A) (A) (A) (A) (A) (A) (A) (A) (A)
                 (A) (A) (A) (A) (A) (A) (A) (A) (A) (A) (A) (A)
                 (A) (A) (A) (A) (A) (A) (A) (A) (A) (A) (A) (A)
                 (A) (A) (A) (A) (A) (A) (A) (A) (A) (A) (A) (A)
                 (A) (A) (A) (A) (A) (A) (A) (A) (A) (A) (A) (A)
                 (A) (A) (A) (A) (A) (A) (A) (A) (A) (A) (A) (A)
                 (A) (A) (A) (A) (A) (A) (A) (A) (A) (A) (A) (A)
                 (A) (A) (A) (A) (A) (A) (A) (A)
 The electronic state is 2-A.
 Alpha  occ. eigenvalues --  -10.19929 -10.18747 -10.17270 -10.17269 -10.16793
 Alpha  occ. eigenvalues --  -10.16792  -0.81038  -0.74244  -0.68851  -0.66489
 Alpha  occ. eigenvalues --   -0.60231  -0.52068  -0.45313  -0.44783  -0.42015
 Alpha  occ. eigenvalues --   -0.41861  -0.38819  -0.38719  -0.37524  -0.36016
 Alpha  occ. eigenvalues --   -0.35306  -0.33202  -0.31016  -0.30880  -0.20065
 Alpha virt. eigenvalues --    0.08614   0.12144   0.13342   0.14114   0.14330
 Alpha virt. eigenvalues --    0.16330   0.17146   0.17727   0.17833   0.18790
 Alpha virt. eigenvalues --    0.20093   0.20572   0.23512   0.23679   0.24318
 Alpha virt. eigenvalues --    0.26680   0.27701   0.28261   0.49393   0.50405
 Alpha virt. eigenvalues --    0.51720   0.52861   0.55700   0.55910   0.58143
 Alpha virt. eigenvalues --    0.62732   0.63557   0.67197   0.68284   0.73645
 Alpha virt. eigenvalues --    0.75177   0.77841   0.79992   0.81417   0.85165
 Alpha virt. eigenvalues --    0.86220   0.89614   0.90577   0.91151   0.91333
 Alpha virt. eigenvalues --    0.91639   0.92777   0.93526   0.93797   0.96542
 Alpha virt. eigenvalues --    0.97557   0.98812   1.01062   1.03551   1.05538
 Alpha virt. eigenvalues --    1.17010   1.35131   1.38316   1.40926   1.41570
 Alpha virt. eigenvalues --    1.57540   1.57780   1.63741   1.69109   1.79312
 Alpha virt. eigenvalues --    1.81712   1.84407   1.86198   1.91536   1.91926
 Alpha virt. eigenvalues --    1.95328   2.01238   2.02618   2.05875   2.11680
 Alpha virt. eigenvalues --    2.12858   2.15935   2.24181   2.25369   2.25921
 Alpha virt. eigenvalues --    2.28118   2.35654   2.40506   2.45759   2.46591
 Alpha virt. eigenvalues --    2.49222   2.58340   2.75444   2.76597   2.77263
 Alpha virt. eigenvalues --    4.11488   4.23424   4.28799   4.29201   4.41360
 Alpha virt. eigenvalues --    4.58798
  Beta  occ. eigenvalues --  -10.18774 -10.18526 -10.17302 -10.17301 -10.16779
  Beta  occ. eigenvalues --  -10.16778  -0.80085  -0.73663  -0.68707  -0.66400
  Beta  occ. eigenvalues --   -0.59645  -0.50382  -0.44883  -0.44402  -0.41594
  Beta  occ. eigenvalues --   -0.41046  -0.38695  -0.38340  -0.37387  -0.35955
  Beta  occ. eigenvalues --   -0.35025  -0.32866  -0.30698  -0.30274
  Beta virt. eigenvalues --   -0.04812   0.08834   0.12284   0.13440   0.14384
  Beta virt. eigenvalues --    0.14558   0.16570   0.17722   0.17838   0.18216
  Beta virt. eigenvalues --    0.18901   0.20567   0.20646   0.23719   0.24489
  Beta virt. eigenvalues --    0.24767   0.26921   0.28877   0.29243   0.49460
  Beta virt. eigenvalues --    0.50498   0.52014   0.53501   0.56198   0.56820
  Beta virt. eigenvalues --    0.61486   0.62857   0.63757   0.67637   0.70964
  Beta virt. eigenvalues --    0.73981   0.75854   0.77878   0.80869   0.81663
  Beta virt. eigenvalues --    0.85300   0.86675   0.89897   0.90924   0.91378
  Beta virt. eigenvalues --    0.91515   0.91776   0.93104   0.93704   0.93977
  Beta virt. eigenvalues --    0.96903   0.97863   0.98873   1.01255   1.03917
  Beta virt. eigenvalues --    1.05717   1.18661   1.35575   1.38399   1.42132
  Beta virt. eigenvalues --    1.42601   1.57869   1.58165   1.64419   1.69717
  Beta virt. eigenvalues --    1.79606   1.81846   1.84695   1.88402   1.92307
  Beta virt. eigenvalues --    1.94302   1.95565   2.01758   2.03889   2.06908
  Beta virt. eigenvalues --    2.12191   2.13434   2.17237   2.24343   2.25417
  Beta virt. eigenvalues --    2.25975   2.28153   2.35954   2.41316   2.46834
  Beta virt. eigenvalues --    2.48277   2.50252   2.59832   2.76326   2.77671
  Beta virt. eigenvalues --    2.77956   4.12239   4.23831   4.28845   4.29223
  Beta virt. eigenvalues --    4.42876   4.59758
          Condensed to atoms (all electrons):
               1          2          3          4          5          6
     1  C    5.159597   0.368018   0.357283   0.366665   0.365441  -0.055760
     2  H    0.368018   0.567265  -0.033178  -0.029311  -0.028731  -0.005514
     3  H    0.357283  -0.033178   0.595806  -0.033217  -0.035401  -0.004963
     4  H    0.366665  -0.029311  -0.033217   0.577935  -0.029343   0.004721
     5  C    0.365441  -0.028731  -0.035401  -0.029343   5.120751   0.385558
     6  C   -0.055760  -0.005514  -0.004963   0.004721   0.385558   4.895930
     7  H   -0.004538  -0.000067   0.006242  -0.000129  -0.047673   0.362007
     8  C    0.004546  -0.000001   0.000006  -0.000134  -0.046538   0.374718
     9  H    0.000070  -0.000003   0.000014  -0.000001  -0.001124  -0.035872
    10  H   -0.000161  -0.000003   0.000005   0.000002   0.004493  -0.029157
    11  H    0.000033  -0.000002  -0.000009  -0.000001  -0.005231  -0.027953
    12  C   -0.069456   0.005270  -0.003290  -0.006072   0.365441  -0.055760
    13  H    0.005270  -0.000174  -0.000109   0.000020  -0.028731  -0.005514
    14  H   -0.003290  -0.000109   0.004738  -0.000236  -0.035400  -0.004964
    15  H   -0.006072   0.000020  -0.000236   0.005211  -0.029343   0.004721
    16  C   -0.005938   0.001901  -0.000704   0.000193  -0.046538   0.374719
    17  H   -0.000629   0.000672   0.000151  -0.000045  -0.001124  -0.035872
    18  H    0.001902   0.002381   0.000530  -0.000057  -0.005232  -0.027953
    19  H    0.000158  -0.000101  -0.000016  -0.000001   0.004493  -0.029157
               7          8          9         10         11         12
     1  C   -0.004538   0.004546   0.000070  -0.000161   0.000033  -0.069456
     2  H   -0.000067  -0.000001  -0.000003  -0.000003  -0.000002   0.005270
     3  H    0.006242   0.000006   0.000014   0.000005  -0.000009  -0.003290
     4  H   -0.000129  -0.000134  -0.000001   0.000002  -0.000001  -0.006072
     5  C   -0.047673  -0.046538  -0.001124   0.004493  -0.005231   0.365441
     6  C    0.362007   0.374718  -0.035872  -0.029157  -0.027953  -0.055760
     7  H    0.653695  -0.047733   0.006038  -0.002350  -0.003668  -0.004538
     8  C   -0.047733   5.119684   0.372859   0.366003   0.370402  -0.005937
     9  H    0.006038   0.372859   0.577463  -0.031696  -0.031545  -0.000629
    10  H   -0.002350   0.366003  -0.031696   0.587555  -0.030885   0.000157
    11  H   -0.003668   0.370402  -0.031545  -0.030885   0.576092   0.001902
    12  C   -0.004538  -0.005937  -0.000629   0.000157   0.001902   5.159595
    13  H   -0.000067   0.001901   0.000672  -0.000101   0.002381   0.368018
    14  H    0.006243  -0.000704   0.000151  -0.000016   0.000530   0.357284
    15  H   -0.000129   0.000193  -0.000045  -0.000001  -0.000057   0.366665
    16  C   -0.047733  -0.054249  -0.004399  -0.005919   0.005099   0.004546
    17  H    0.006038  -0.004399   0.004405  -0.000162  -0.000050   0.000070
    18  H   -0.003668   0.005099  -0.000050   0.000010  -0.000189   0.000033
    19  H   -0.002350  -0.005919  -0.000162   0.005439   0.000010  -0.000161
              13         14         15         16         17         18
     1  C    0.005270  -0.003290  -0.006072  -0.005938  -0.000629   0.001902
     2  H   -0.000174  -0.000109   0.000020   0.001901   0.000672   0.002381
     3  H   -0.000109   0.004738  -0.000236  -0.000704   0.000151   0.000530
     4  H    0.000020  -0.000236   0.005211   0.000193  -0.000045  -0.000057
     5  C   -0.028731  -0.035400  -0.029343  -0.046538  -0.001124  -0.005232
     6  C   -0.005514  -0.004964   0.004721   0.374719  -0.035872  -0.027953
     7  H   -0.000067   0.006243  -0.000129  -0.047733   0.006038  -0.003668
     8  C    0.001901  -0.000704   0.000193  -0.054249  -0.004399   0.005099
     9  H    0.000672   0.000151  -0.000045  -0.004399   0.004405  -0.000050
    10  H   -0.000101  -0.000016  -0.000001  -0.005919  -0.000162   0.000010
    11  H    0.002381   0.000530  -0.000057   0.005099  -0.000050  -0.000189
    12  C    0.368018   0.357284   0.366665   0.004546   0.000070   0.000033
    13  H    0.567265  -0.033178  -0.029311  -0.000001  -0.000003  -0.000002
    14  H   -0.033178   0.595805  -0.033217   0.000006   0.000014  -0.000009
    15  H   -0.029311  -0.033217   0.577935  -0.000134  -0.000001  -0.000001
    16  C   -0.000001   0.000006  -0.000134   5.119687   0.372859   0.370402
    17  H   -0.000003   0.000014  -0.000001   0.372859   0.577464  -0.031545
    18  H   -0.000002  -0.000009  -0.000001   0.370402  -0.031545   0.576091
    19  H   -0.000003   0.000005   0.000002   0.366003  -0.031696  -0.030885
              19
     1  C    0.000158
     2  H   -0.000101
     3  H   -0.000016
     4  H   -0.000001
     5  C    0.004493
     6  C   -0.029157
     7  H   -0.002350
     8  C   -0.005919
     9  H   -0.000162
    10  H    0.005439
    11  H    0.000010
    12  C   -0.000161
    13  H   -0.000003
    14  H    0.000005
    15  H    0.000002
    16  C    0.366003
    17  H   -0.031696
    18  H   -0.030885
    19  H    0.587554
          Atomic-Atomic Spin Densities.
               1          2          3          4          5          6
     1  C   -0.045130   0.008494  -0.010341   0.006420  -0.021307   0.006538
     2  H    0.008494   0.009450  -0.007721   0.001357  -0.005865   0.001382
     3  H   -0.010341  -0.007721   0.097608  -0.005834  -0.021856  -0.004602
     4  H    0.006420   0.001357  -0.005834   0.005091  -0.004383   0.000176
     5  C   -0.021307  -0.005865  -0.021856  -0.004383   1.114772  -0.019400
     6  C    0.006538   0.001382  -0.004602   0.000176  -0.019400  -0.031593
     7  H   -0.003505  -0.000633   0.007276  -0.000137  -0.022497  -0.012351
     8  C    0.000227   0.000038  -0.000111   0.000007  -0.009509   0.007117
     9  H   -0.000075  -0.000011   0.000019  -0.000002   0.004823  -0.000720
    10  H   -0.000002  -0.000001   0.000004   0.000000   0.000196   0.000191
    11  H   -0.000006   0.000000  -0.000001   0.000000  -0.000018   0.000426
    12  C    0.006090   0.000156  -0.003210   0.001231  -0.021307   0.006538
    13  H    0.000156   0.000014  -0.000164   0.000048  -0.005865   0.001382
    14  H   -0.003210  -0.000164   0.006406  -0.000600  -0.021856  -0.004602
    15  H    0.001231   0.000048  -0.000600   0.000293  -0.004383   0.000176
    16  C    0.001207   0.000357  -0.000355   0.000023  -0.009509   0.007116
    17  H   -0.000407  -0.000376   0.000155  -0.000015   0.004823  -0.000720
    18  H    0.000087  -0.000038  -0.000035   0.000002  -0.000018   0.000426
    19  H   -0.000047  -0.000010   0.000026  -0.000001   0.000196   0.000191
               7          8          9         10         11         12
     1  C   -0.003505   0.000227  -0.000075  -0.000002  -0.000006   0.006090
     2  H   -0.000633   0.000038  -0.000011  -0.000001   0.000000   0.000156
     3  H    0.007276  -0.000111   0.000019   0.000004  -0.000001  -0.003210
     4  H   -0.000137   0.000007  -0.000002   0.000000   0.000000   0.001231
     5  C   -0.022497  -0.009509   0.004823   0.000196  -0.000018  -0.021307
     6  C   -0.012351   0.007117  -0.000720   0.000191   0.000426   0.006538
     7  H    0.088189  -0.006842   0.001023   0.000879  -0.000161  -0.003505
     8  C   -0.006842   0.016280  -0.006475  -0.000926  -0.000160   0.001207
     9  H    0.001023  -0.006475   0.004084   0.000876   0.000023  -0.000407
    10  H    0.000879  -0.000926   0.000876  -0.001903   0.000216  -0.000047
    11  H   -0.000161  -0.000160   0.000023   0.000216  -0.000727   0.000087
    12  C   -0.003505   0.001207  -0.000407  -0.000047   0.000087  -0.045130
    13  H   -0.000633   0.000357  -0.000376  -0.000010  -0.000037   0.008494
    14  H    0.007276  -0.000356   0.000155   0.000026  -0.000035  -0.010341
    15  H   -0.000137   0.000023  -0.000015  -0.000001   0.000002   0.006419
    16  C   -0.006841   0.004463  -0.001335  -0.000241  -0.000008   0.000227
    17  H    0.001023  -0.001335   0.000553   0.000120  -0.000002  -0.000075
    18  H   -0.000161  -0.000008  -0.000002   0.000005   0.000000  -0.000006
    19  H    0.000879  -0.000241   0.000120  -0.000159   0.000005  -0.000002
              13         14         15         16         17         18
     1  C    0.000156  -0.003210   0.001231   0.001207  -0.000407   0.000087
     2  H    0.000014  -0.000164   0.000048   0.000357  -0.000376  -0.000038
     3  H   -0.000164   0.006406  -0.000600  -0.000355   0.000155  -0.000035
     4  H    0.000048  -0.000600   0.000293   0.000023  -0.000015   0.000002
     5  C   -0.005865  -0.021856  -0.004383  -0.009509   0.004823  -0.000018
     6  C    0.001382  -0.004602   0.000176   0.007116  -0.000720   0.000426
     7  H   -0.000633   0.007276  -0.000137  -0.006841   0.001023  -0.000161
     8  C    0.000357  -0.000356   0.000023   0.004463  -0.001335  -0.000008
     9  H   -0.000376   0.000155  -0.000015  -0.001335   0.000553  -0.000002
    10  H   -0.000010   0.000026  -0.000001  -0.000241   0.000120   0.000005
    11  H   -0.000037  -0.000035   0.000002  -0.000008  -0.000002   0.000000
    12  C    0.008494  -0.010341   0.006419   0.000227  -0.000075  -0.000006
    13  H    0.009451  -0.007721   0.001357   0.000038  -0.000011   0.000000
    14  H   -0.007721   0.097607  -0.005834  -0.000111   0.000019  -0.000001
    15  H    0.001357  -0.005834   0.005090   0.000007  -0.000002   0.000000
    16  C    0.000038  -0.000111   0.000007   0.016278  -0.006475  -0.000160
    17  H   -0.000011   0.000019  -0.000002  -0.006475   0.004084   0.000023
    18  H    0.000000  -0.000001   0.000000  -0.000160   0.000023  -0.000727
    19  H   -0.000001   0.000004   0.000000  -0.000926   0.000876   0.000216
              19
     1  C   -0.000047
     2  H   -0.000010
     3  H    0.000026
     4  H   -0.000001
     5  C    0.000196
     6  C    0.000191
     7  H    0.000879
     8  C   -0.000241
     9  H    0.000120
    10  H   -0.000159
    11  H    0.000005
    12  C   -0.000002
    13  H   -0.000001
    14  H    0.000004
    15  H    0.000000
    16  C   -0.000926
    17  H    0.000876
    18  H    0.000216
    19  H   -0.001903
 Mulliken charges and spin densities:
               1          2
     1  C   -0.483137  -0.053580
     2  H    0.151668   0.006478
     3  H    0.146348   0.056662
     4  H    0.143800   0.003676
     5  C    0.094231   0.957036
     6  C   -0.083936  -0.042328
     7  H    0.124382   0.049141
     8  C   -0.449797   0.003757
     9  H    0.143854   0.002255
    10  H    0.136786  -0.000775
    11  H    0.143141  -0.000396
    12  C   -0.483137  -0.053580
    13  H    0.151667   0.006478
    14  H    0.146348   0.056661
    15  H    0.143800   0.003676
    16  C   -0.449798   0.003756
    17  H    0.143854   0.002255
    18  H    0.143142  -0.000396
    19  H    0.136785  -0.000775
 Sum of Mulliken charges =   0.00000   1.00000
 Mulliken charges and spin densities with hydrogens summed into heavy atoms:
               1          2
     1  C   -0.041322   0.013236
     5  C    0.094231   0.957036
     6  C    0.040445   0.006812
     8  C   -0.026016   0.004841
    12  C   -0.041322   0.013235
    16  C   -0.026017   0.004840
 Electronic spatial extent (au):  <R**2>=            738.3853
 Charge=              0.0000 electrons
 Dipole moment (field-independent basis, Debye):
    X=             -0.1106    Y=              0.0000    Z=              0.4973  Tot=              0.5095
 Quadrupole moment (field-independent basis, Debye-Ang):
   XX=            -40.6030   YY=            -40.8259   ZZ=            -40.9507
   XY=              0.0000   XZ=             -0.1712   YZ=              0.0000
 Traceless Quadrupole moment (field-independent basis, Debye-Ang):
   XX=              0.1902   YY=             -0.0327   ZZ=             -0.1575
   XY=              0.0000   XZ=             -0.1712   YZ=              0.0000
 Octapole moment (field-independent basis, Debye-Ang**2):
  XXX=             -1.0636  YYY=             -0.0001  ZZZ=              1.4156  XYY=             -0.5266
  XXY=              0.0000  XXZ=              0.1761  XZZ=              0.4227  YZZ=              0.0000
  YYZ=              0.0016  XYZ=              0.0000
 Hexadecapole moment (field-independent basis, Debye-Ang**3):
 XXXX=           -541.2260 YYYY=           -385.2517 ZZZZ=            -84.9379 XXXY=              0.0000
 XXXZ=              7.1393 YYYX=              0.0000 YYYZ=              0.0000 ZZZX=             -3.9266
 ZZZY=              0.0000 XXYY=           -163.1029 XXZZ=           -104.9601 YYZZ=            -78.9754
 XXYZ=              0.0000 YYXZ=              0.4226 ZZXY=              0.0000
 N-N= 2.495410787898D+02 E-N=-1.044683152966D+03  KE= 2.339385585701D+02
                          Isotropic Fermi Contact Couplings
        Atom                 a.u.       MegaHertz       Gauss      10(-4) cm-1
     1  C(13)             -0.00363      -4.07915      -1.45554      -1.36066
     2  H(1)               0.00441      19.71209       7.03376       6.57524
     3  H(1)               0.02120      94.76877      33.81585      31.61146
     4  H(1)               0.00252      11.24975       4.01419       3.75251
     5  C(13)              0.28700     322.64026     115.12607     107.62121
     6  C(13)             -0.00244      -2.73913      -0.97739      -0.91368
     7  H(1)               0.01711      76.49408      27.29499      25.51568
     8  C(13)              0.00731       8.22239       2.93395       2.74269
     9  H(1)              -0.00021      -0.93551      -0.33381      -0.31205
    10  H(1)              -0.00043      -1.92161      -0.68568      -0.64098
    11  H(1)              -0.00015      -0.68921      -0.24593      -0.22990
    12  C(13)             -0.00363      -4.07910      -1.45552      -1.36064
    13  H(1)               0.00441      19.71285       7.03404       6.57550
    14  H(1)               0.02120      94.76769      33.81547      31.61110
    15  H(1)               0.00252      11.24898       4.01391       3.75225
    16  C(13)              0.00731       8.22130       2.93356       2.74233
    17  H(1)              -0.00021      -0.93546      -0.33379      -0.31203
    18  H(1)              -0.00015      -0.68919      -0.24592      -0.22989
    19  H(1)              -0.00043      -1.92166      -0.68570      -0.64100
 --------------------------------------------------------
       Center         ----  Spin Dipole Couplings  ----
                      3XX-RR        3YY-RR        3ZZ-RR
 --------------------------------------------------------
     1   Atom       -0.003426      0.011025     -0.007598
     2   Atom       -0.009936      0.017996     -0.008060
     3   Atom       -0.004199      0.001240      0.002959
     4   Atom        0.009899     -0.001923     -0.007977
     5   Atom       -0.457288     -0.477189      0.934477
     6   Atom        0.018382     -0.017488     -0.000894
     7   Atom        0.003261     -0.009451      0.006190
     8   Atom        0.006548      0.000749     -0.007297
     9   Atom        0.007000     -0.002017     -0.004983
    10   Atom        0.004386     -0.002218     -0.002168
    11   Atom       -0.000036      0.003386     -0.003350
    12   Atom       -0.003426      0.011024     -0.007598
    13   Atom       -0.009936      0.017996     -0.008060
    14   Atom       -0.004199      0.001239      0.002959
    15   Atom        0.009900     -0.001923     -0.007976
    16   Atom        0.006548      0.000748     -0.007296
    17   Atom        0.007000     -0.002017     -0.004983
    18   Atom       -0.000036      0.003386     -0.003350
    19   Atom        0.004386     -0.002218     -0.002168
 --------------------------------------------------------
                        XY            XZ            YZ
 --------------------------------------------------------
     1   Atom       -0.019708     -0.013050      0.016229
     2   Atom       -0.004721     -0.000539      0.002806
     3   Atom       -0.006813     -0.005092      0.007280
     4   Atom       -0.013369     -0.001808      0.000905
     5   Atom       -0.000001     -0.168996      0.000012
     6   Atom        0.000000      0.026132      0.000000
     7   Atom        0.000000      0.009465      0.000000
     8   Atom       -0.010926      0.004471     -0.003652
     9   Atom       -0.008168     -0.002474      0.001823
    10   Atom       -0.003051      0.001811     -0.000678
    11   Atom       -0.006326      0.002246     -0.002910
    12   Atom        0.019708     -0.013050     -0.016229
    13   Atom        0.004721     -0.000539     -0.002806
    14   Atom        0.006813     -0.005092     -0.007280
    15   Atom        0.013369     -0.001809     -0.000905
    16   Atom        0.010925      0.004471      0.003652
    17   Atom        0.008168     -0.002474     -0.001823
    18   Atom        0.006326      0.002246      0.002910
    19   Atom        0.003051      0.001811      0.000678
 --------------------------------------------------------


 ---------------------------------------------------------------------------------
              Anisotropic Spin Dipole Couplings in Principal Axis System
 ---------------------------------------------------------------------------------

       Atom             a.u.   MegaHertz   Gauss  10(-4) cm-1        Axes

              Baa    -0.0188    -2.518    -0.899    -0.840  0.7064  0.0845  0.7027
     1 C(13)  Bbb    -0.0162    -2.171    -0.775    -0.724  0.4757  0.6785 -0.5598
              Bcc     0.0349     4.689     1.673     1.564 -0.5241  0.7297  0.4391
 
              Baa    -0.0107    -5.717    -2.040    -1.907  0.9867  0.1591  0.0323
     2 H(1)   Bbb    -0.0084    -4.460    -1.591    -1.488 -0.0150 -0.1085  0.9940
              Bcc     0.0191    10.177     3.631     3.395 -0.1616  0.9813  0.1047
 
              Baa    -0.0088    -4.705    -1.679    -1.569  0.8346  0.5504  0.0207
     3 H(1)   Bbb    -0.0046    -2.449    -0.874    -0.817  0.3435 -0.5495  0.7616
              Bcc     0.0134     7.154     2.553     2.386 -0.4306  0.6286  0.6477
 
              Baa    -0.0106    -5.682    -2.028    -1.895  0.5487  0.8312  0.0898
     4 H(1)   Bbb    -0.0081    -4.325    -1.543    -1.443  0.0135 -0.1162  0.9931
              Bcc     0.0188    10.008     3.571     3.338  0.8359 -0.5437 -0.0749
 
              Baa    -0.4775   -64.078   -22.865   -21.374  0.9929  0.0001  0.1188
     5 C(13)  Bbb    -0.4772   -64.034   -22.849   -21.359 -0.0001  1.0000  0.0000
              Bcc     0.9547   128.112    45.714    42.734 -0.1188  0.0000  0.9929
 
              Baa    -0.0191    -2.564    -0.915    -0.855 -0.5718 -0.0002  0.8204
     6 C(13)  Bbb    -0.0175    -2.347    -0.837    -0.783 -0.0001  1.0000  0.0001
              Bcc     0.0366     4.911     1.752     1.638  0.8204  0.0000  0.5718
 
              Baa    -0.0095    -5.043    -1.799    -1.682  0.0000  1.0000  0.0000
     7 H(1)   Bbb    -0.0049    -2.589    -0.924    -0.864  0.7593  0.0000 -0.6508
              Bcc     0.0143     7.632     2.723     2.546  0.6508  0.0000  0.7593
 
              Baa    -0.0087    -1.171    -0.418    -0.391 -0.0932  0.2626  0.9604
     8 C(13)  Bbb    -0.0076    -1.024    -0.365    -0.342  0.6324  0.7607 -0.1466
              Bcc     0.0164     2.195     0.783     0.732  0.7690 -0.5937  0.2370
 
              Baa    -0.0069    -3.685    -1.315    -1.229  0.4661  0.8584 -0.2141
     9 H(1)   Bbb    -0.0055    -2.910    -1.038    -0.971  0.2568  0.1004  0.9612
              Bcc     0.0124     6.595     2.353     2.200  0.8467 -0.5030 -0.1737
 
              Baa    -0.0034    -1.821    -0.650    -0.607  0.3709  0.9280 -0.0341
    10 H(1)   Bbb    -0.0026    -1.400    -0.499    -0.467 -0.2009  0.1160  0.9727
              Bcc     0.0060     3.220     1.149     1.074  0.9067 -0.3540  0.2294
 
              Baa    -0.0049    -2.603    -0.929    -0.868  0.7988  0.6009 -0.0299
    11 H(1)   Bbb    -0.0044    -2.357    -0.841    -0.786 -0.1449  0.2404  0.9598
              Bcc     0.0093     4.960     1.770     1.654 -0.5839  0.7623 -0.2791
 
              Baa    -0.0188    -2.518    -0.899    -0.840  0.7064 -0.0845  0.7027
    12 C(13)  Bbb    -0.0162    -2.171    -0.775    -0.724 -0.4757  0.6785  0.5598
              Bcc     0.0349     4.689     1.673     1.564  0.5241  0.7297 -0.4391
 
              Baa    -0.0107    -5.717    -2.040    -1.907  0.9867 -0.1591  0.0323
    13 H(1)   Bbb    -0.0084    -4.460    -1.591    -1.488 -0.0150  0.1085  0.9940
              Bcc     0.0191    10.177     3.631     3.395  0.1617  0.9813 -0.1047
 
              Baa    -0.0088    -4.705    -1.679    -1.569  0.8346 -0.5504  0.0206
    14 H(1)   Bbb    -0.0046    -2.449    -0.874    -0.817  0.3436  0.5495  0.7616
              Bcc     0.0134     7.154     2.553     2.386 -0.4306 -0.6285  0.6477
 
              Baa    -0.0106    -5.682    -2.028    -1.895 -0.5487  0.8312 -0.0898
    15 H(1)   Bbb    -0.0081    -4.325    -1.543    -1.443  0.0135  0.1162  0.9931
              Bcc     0.0188    10.008     3.571     3.338  0.8359  0.5437 -0.0750
 
              Baa    -0.0087    -1.171    -0.418    -0.391 -0.0932 -0.2627  0.9604
    16 C(13)  Bbb    -0.0076    -1.024    -0.365    -0.342 -0.6324  0.7606  0.1467
              Bcc     0.0164     2.195     0.783     0.732  0.7690  0.5936  0.2370
 
              Baa    -0.0069    -3.685    -1.315    -1.229 -0.4661  0.8584  0.2141
    17 H(1)   Bbb    -0.0055    -2.910    -1.038    -0.971  0.2568 -0.1004  0.9612
              Bcc     0.0124     6.595     2.353     2.200  0.8467  0.5030 -0.1737
 
              Baa    -0.0049    -2.603    -0.929    -0.868  0.7988 -0.6009 -0.0298
    18 H(1)   Bbb    -0.0044    -2.357    -0.841    -0.786 -0.1450 -0.2404  0.9598
              Bcc     0.0093     4.960     1.770     1.654  0.5839  0.7623  0.2791
 
              Baa    -0.0034    -1.821    -0.650    -0.607 -0.3709  0.9280  0.0341
    19 H(1)   Bbb    -0.0026    -1.400    -0.499    -0.467 -0.2009 -0.1160  0.9727
              Bcc     0.0060     3.220     1.149     1.074  0.9067  0.3540  0.2294
 

 ---------------------------------------------------------------------------------

 No NMR shielding tensors so no spin-rotation constants.
 Leave Link  601 at Sat Nov  7 02:10:06 2015, MaxMem=   805306368 cpu:         0.9
 (Enter /home/hetanjin/apps/g09D01/g09/l701.exe)
 Compute integral first derivatives.
 ... and contract with generalized density number  0.
 Leave Link  701 at Sat Nov  7 02:10:07 2015, MaxMem=   805306368 cpu:         0.9
 (Enter /home/hetanjin/apps/g09D01/g09/l702.exe)
 L702 exits ... SP integral derivatives will be done elsewhere.
 Leave Link  702 at Sat Nov  7 02:10:07 2015, MaxMem=   805306368 cpu:         0.1
 (Enter /home/hetanjin/apps/g09D01/g09/l703.exe)
 Compute integral first derivatives, UseDBF=F ICtDFT=           0.
 Integral derivatives from FoFJK, PRISM(SPDF).
 Calling FoFJK, ICntrl=      2127 FMM=F ISym2X=0 I1Cent= 0 IOpClX= 1 NMat=1 NMatS=1 NMatT=0.
 FoFJK:  IHMeth= 1 ICntrl=    2127 DoSepK=F KAlg= 0 I1Cent=   0 FoldK=F
 IRaf=         0 NMat=   1 IRICut=       1 DoRegI=T DoRafI=F ISym2E= 0.
 FoFCou: FMM=F IPFlag=           0 FMFlag=      100000 FMFlg1=         800
         NFxFlg=           0 DoJE=F BraDBF=F KetDBF=F FulRan=T
         wScrn=  0.000000 ICntrl=    2127 IOpCl=  1 I1Cent=           0 NGrid=           0
         NMat0=    1 NMatS0=      1 NMatT0=    0 NMatD0=    1 NMtDS0=    0 NMtDT0=    0
 Symmetry not used in FoFCou.
 Leave Link  703 at Sat Nov  7 02:10:15 2015, MaxMem=   805306368 cpu:        30.8
 (Enter /home/hetanjin/apps/g09D01/g09/l716.exe)
 Dipole        =-4.35222225D-02 1.28965264D-06 1.95659377D-01
 ***** Axes restored to original set *****
 -------------------------------------------------------------------
 Center     Atomic                   Forces (Hartrees/Bohr)
 Number     Number              X              Y              Z
 -------------------------------------------------------------------
      1        6           0.021112695   -0.005256132   -0.005002568
      2        1          -0.000815155    0.000297968    0.001074572
      3        1          -0.002495844   -0.000920239   -0.001053137
      4        1          -0.000732167    0.000538255    0.000489862
      5        6          -0.052476691    0.009713688    0.000000648
      6        6           0.021289638    0.000672506    0.000000207
      7        1          -0.001360198    0.002462000   -0.000000108
      8        6           0.000324910   -0.001533540   -0.000982201
      9        1          -0.000750318    0.000362488    0.000302157
     10        1          -0.000339906    0.000036326   -0.000099454
     11        1          -0.000030557    0.000051943   -0.000019092
     12        6           0.021113656   -0.005256579    0.005001835
     13        1          -0.000815501    0.000297547   -0.001074433
     14        1          -0.002496414   -0.000920310    0.001053141
     15        1          -0.000732242    0.000537981   -0.000489812
     16        6           0.000325893   -0.001534000    0.000981776
     17        1          -0.000750907    0.000362489   -0.000302124
     18        1          -0.000030906    0.000051495    0.000019257
     19        1          -0.000339986    0.000036112    0.000099474
 -------------------------------------------------------------------
 Cartesian Forces:  Max     0.052476691 RMS     0.008723437
 Leave Link  716 at Sat Nov  7 02:10:15 2015, MaxMem=   805306368 cpu:         0.1
 (Enter /home/hetanjin/apps/g09D01/g09/l103.exe)

 GradGradGradGradGradGradGradGradGradGradGradGradGradGradGradGradGradGrad
 Berny optimization.
 FormGI is forming the generalized inverse of G from B-inverse, IUseBI=4.
 Internal  Forces:  Max     0.010319077 RMS     0.002971235
 Search for a local minimum.
 Step number   1 out of a maximum of   97
 All quantities printed in internal units (Hartrees-Bohrs-Radians)
 RMS Force = .29712D-02 SwitMx=.10000D-02 MixMth= 1
 Mixed Optimization -- RFO/linear search
 Second derivative matrix not updated -- first step.
 ITU=  0
     Eigenvalues ---    0.00230   0.00255   0.00255   0.00255   0.00255
     Eigenvalues ---    0.02175   0.03661   0.04918   0.05276   0.05276
     Eigenvalues ---    0.05430   0.05491   0.05491   0.06751   0.06751
     Eigenvalues ---    0.06990   0.06990   0.16000   0.16000   0.16000
     Eigenvalues ---    0.16000   0.16000   0.16000   0.16000   0.16000
     Eigenvalues ---    0.16000   0.16000   0.16000   0.16000   0.16648
     Eigenvalues ---    0.16739   0.17415   0.18444   0.27398   0.28641
     Eigenvalues ---    0.28641   0.28641   0.28641   0.33431   0.33862
     Eigenvalues ---    0.33862   0.33862   0.33862   0.34088   0.34088
     Eigenvalues ---    0.34088   0.34088   0.34333   0.34333   0.34333
     Eigenvalues ---    0.34333
 RFO step:  Lambda=-1.30132726D-02 EMin= 2.30000000D-03
 Linear search not attempted -- first point.
 Iteration  1 RMS(Cart)=  0.06025503 RMS(Int)=  0.00459584
 Iteration  2 RMS(Cart)=  0.00726068 RMS(Int)=  0.00313782
 Iteration  3 RMS(Cart)=  0.00000496 RMS(Int)=  0.00313782
 Iteration  4 RMS(Cart)=  0.00000001 RMS(Int)=  0.00313782
 ITry= 1 IFail=0 DXMaxC= 2.91D-01 DCOld= 1.00D+10 DXMaxT= 3.00D-01 DXLimC= 3.00D+00 Rises=F
 Variable       Old X    -DE/DX   Delta X   Delta X   Delta X     New X
                                 (Linear)    (Quad)   (Total)
    R1        2.06772   0.00051   0.00000   0.00144   0.00144   2.06916
    R2        2.07563   0.00226   0.00000   0.00643   0.00643   2.08206
    R3        2.07181   0.00016   0.00000   0.00044   0.00044   2.07225
    R4        2.90759  -0.01032   0.00000  -0.03446  -0.03446   2.87312
    R5        2.93474  -0.00897   0.00000  -0.03126  -0.03126   2.90348
    R6        2.90759  -0.01032   0.00000  -0.03446  -0.03446   2.87312
    R7        2.08302   0.00173   0.00000   0.00499   0.00499   2.08800
    R8        2.90759   0.00105   0.00000   0.00352   0.00352   2.91110
    R9        2.90759   0.00105   0.00000   0.00352   0.00352   2.91110
   R10        2.07563  -0.00081   0.00000  -0.00231  -0.00231   2.07332
   R11        2.07181   0.00011   0.00000   0.00030   0.00030   2.07211
   R12        2.06772   0.00005   0.00000   0.00014   0.00014   2.06786
   R13        2.06772   0.00051   0.00000   0.00144   0.00144   2.06917
   R14        2.07563   0.00226   0.00000   0.00643   0.00643   2.08206
   R15        2.07181   0.00016   0.00000   0.00044   0.00044   2.07225
   R16        2.07563  -0.00081   0.00000  -0.00231  -0.00231   2.07332
   R17        2.06772   0.00005   0.00000   0.00014   0.00014   2.06786
   R18        2.07181   0.00011   0.00000   0.00030   0.00030   2.07211
    A1        1.88136  -0.00002   0.00000  -0.00439  -0.00436   1.87700
    A2        1.87392  -0.00057   0.00000   0.00365   0.00345   1.87738
    A3        1.96369   0.00197   0.00000   0.01277   0.01268   1.97637
    A4        1.87509   0.00035   0.00000  -0.00066  -0.00062   1.87447
    A5        1.93564  -0.00339   0.00000  -0.02332  -0.02328   1.91236
    A6        1.93060   0.00163   0.00000   0.01184   0.01174   1.94234
    A7        1.96138   0.00342   0.00000   0.09289   0.07633   2.03771
    A8        1.90720   0.00281   0.00000   0.09152   0.07480   1.98200
    A9        1.96138   0.00342   0.00000   0.09287   0.07632   2.03770
   A10        1.86961  -0.00187   0.00000  -0.02446  -0.02441   1.84520
   A11        1.96138   0.00109   0.00000   0.01049   0.01039   1.97177
   A12        1.96138   0.00109   0.00000   0.01050   0.01040   1.97178
   A13        1.88020   0.00036   0.00000  -0.00020  -0.00016   1.88004
   A14        1.88020   0.00036   0.00000  -0.00020  -0.00016   1.88004
   A15        1.90720  -0.00109   0.00000   0.00247   0.00232   1.90951
   A16        1.93564  -0.00044   0.00000  -0.00238  -0.00238   1.93326
   A17        1.93060   0.00003   0.00000   0.00040   0.00040   1.93100
   A18        1.96369  -0.00001   0.00000  -0.00047  -0.00047   1.96322
   A19        1.87509   0.00032   0.00000   0.00265   0.00265   1.87774
   A20        1.88137   0.00018   0.00000   0.00061   0.00060   1.88197
   A21        1.87392  -0.00005   0.00000  -0.00059  -0.00059   1.87333
   A22        1.96369   0.00197   0.00000   0.01277   0.01267   1.97637
   A23        1.93564  -0.00339   0.00000  -0.02332  -0.02328   1.91236
   A24        1.93060   0.00163   0.00000   0.01184   0.01175   1.94234
   A25        1.88137  -0.00002   0.00000  -0.00439  -0.00436   1.87700
   A26        1.87392  -0.00057   0.00000   0.00366   0.00346   1.87738
   A27        1.87509   0.00035   0.00000  -0.00066  -0.00062   1.87447
   A28        1.93564  -0.00044   0.00000  -0.00238  -0.00238   1.93326
   A29        1.96369  -0.00001   0.00000  -0.00047  -0.00047   1.96322
   A30        1.93060   0.00003   0.00000   0.00040   0.00040   1.93099
   A31        1.88136   0.00018   0.00000   0.00061   0.00061   1.88197
   A32        1.87509   0.00032   0.00000   0.00265   0.00265   1.87774
   A33        1.87392  -0.00005   0.00000  -0.00060  -0.00060   1.87333
    D1        1.08954  -0.00535   0.00000  -0.13356  -0.13490   0.95464
    D2       -3.00391   0.00368   0.00000   0.12342   0.12459  -2.87932
    D3       -1.01923  -0.00429   0.00000  -0.12019  -0.12146  -1.14069
    D4        1.17049   0.00475   0.00000   0.13678   0.13804   1.30853
    D5       -3.09793  -0.00361   0.00000  -0.11203  -0.11320   3.07205
    D6       -0.90821   0.00543   0.00000   0.14494   0.14630  -0.76191
    D7        1.07995   0.00450   0.00000   0.13230   0.13358   1.21353
    D8       -3.14157   0.00438   0.00000   0.12257   0.12380  -3.01777
    D9       -0.98172   0.00462   0.00000   0.14201   0.14335  -0.83837
   D10       -1.07991  -0.00450   0.00000  -0.13231  -0.13360  -1.21350
   D11        0.98176  -0.00462   0.00000  -0.14204  -0.14338   0.83838
   D12       -3.14157  -0.00438   0.00000  -0.12260  -0.12383   3.01779
   D13        3.00390  -0.00368   0.00000  -0.12341  -0.12458   2.87932
   D14       -1.17051  -0.00475   0.00000  -0.13678  -0.13803  -1.30854
   D15        0.90819  -0.00543   0.00000  -0.14494  -0.14629   0.76190
   D16       -1.08956   0.00536   0.00000   0.13357   0.13492  -0.95464
   D17        1.01922   0.00429   0.00000   0.12020   0.12147   1.14069
   D18        3.09792   0.00361   0.00000   0.11204   0.11321  -3.07205
   D19        1.01922   0.00092   0.00000   0.01798   0.01800   1.03721
   D20        3.09792   0.00106   0.00000   0.02002   0.02003   3.11795
   D21       -1.08956   0.00100   0.00000   0.01922   0.01923  -1.07033
   D22        3.07462  -0.00051   0.00000  -0.00608  -0.00608   3.06854
   D23       -1.12986  -0.00038   0.00000  -0.00405  -0.00405  -1.13391
   D24        0.96584  -0.00043   0.00000  -0.00484  -0.00485   0.96099
   D25       -1.17051  -0.00047   0.00000  -0.00511  -0.00512  -1.17563
   D26        0.90819  -0.00033   0.00000  -0.00308  -0.00309   0.90510
   D27        3.00390  -0.00039   0.00000  -0.00388  -0.00389   3.00001
   D28       -1.01923  -0.00092   0.00000  -0.01797  -0.01798  -1.03722
   D29        1.08954  -0.00100   0.00000  -0.01920  -0.01921   1.07033
   D30       -3.09793  -0.00106   0.00000  -0.02000  -0.02001  -3.11795
   D31       -3.07463   0.00051   0.00000   0.00608   0.00608  -3.06855
   D32       -0.96586   0.00043   0.00000   0.00485   0.00485  -0.96100
   D33        1.12985   0.00038   0.00000   0.00405   0.00405   1.13390
   D34        1.17049   0.00047   0.00000   0.00512   0.00513   1.17562
   D35       -3.00391   0.00039   0.00000   0.00389   0.00390  -3.00002
   D36       -0.90821   0.00033   0.00000   0.00309   0.00310  -0.90511
         Item               Value     Threshold  Converged?
 Maximum Force            0.010319     0.000015     NO 
 RMS     Force            0.002971     0.000010     NO 
 Maximum Displacement     0.291349     0.000060     NO 
 RMS     Displacement     0.058116     0.000040     NO 
 Predicted change in Energy=-9.698709D-03
 Lowest energy point so far.  Saving SCF results.
 GradGradGradGradGradGradGradGradGradGradGradGradGradGradGradGradGradGrad

 Leave Link  103 at Sat Nov  7 02:10:17 2015, MaxMem=   805306368 cpu:         6.3
 (Enter /home/hetanjin/apps/g09D01/g09/l202.exe)
                          Input orientation:                          
 ---------------------------------------------------------------------
 Center     Atomic      Atomic             Coordinates (Angstroms)
 Number     Number       Type             X           Y           Z
 ---------------------------------------------------------------------
      1          6           0        0.004564    1.522623    1.271923
      2          1           0        0.386430    1.018355    2.165689
      3          1           0       -1.067759    1.717619    1.433208
      4          1           0        0.507383    2.494476    1.199968
      5          6           0        0.188795    0.710300    0.000003
      6          6           0       -0.386118   -0.714541    0.000002
      7          1           0       -1.484470   -0.594227   -0.000006
      8          6           0       -0.002455   -1.517716   -1.257304
      9          1           0        1.087702   -1.603299   -1.346621
     10          1           0       -0.411495   -2.533812   -1.206556
     11          1           0       -0.379096   -1.060218   -2.177221
     12          6           0        0.004547    1.522616   -1.271918
     13          1           0        0.386409    1.018345   -2.165685
     14          1           0       -1.067778    1.717603   -1.433195
     15          1           0        0.507362    2.494473   -1.199972
     16          6           0       -0.002473   -1.517725    1.257309
     17          1           0        1.087682   -1.603317    1.346636
     18          1           0       -0.379119   -1.060230    2.177225
     19          1           0       -0.411520   -2.533817    1.206551
 ---------------------------------------------------------------------
                    Distance matrix (angstroms):
                    1          2          3          4          5
     1  C    0.000000
     2  H    1.094955   0.000000
     3  H    1.101777   1.772051   0.000000
     4  H    1.096587   1.768101   1.771717   0.000000
     5  C    1.520391   2.196396   2.155851   2.173637   0.000000
     6  C    2.602944   2.879229   2.904154   3.540629   1.536456
     7  H    2.883762   3.284955   2.751796   3.866201   2.121699
     8  C    3.954832   4.277823   4.340636   4.732421   2.565434
     9  H    4.219165   4.438601   4.837557   4.859388   2.823858
    10  H    4.771858   4.962521   5.047147   5.649723   3.512890
    11  H    4.326067   4.875179   4.607150   4.982680   2.863134
    12  C    2.543841   3.495320   2.916432   2.703253   1.520391
    13  H    3.495319   4.331375   3.944061   3.677121   2.196395
    14  H    2.916436   3.944064   2.866403   3.165156   2.155851
    15  H    2.703251   3.677122   3.165145   2.399940   2.173637
    16  C    3.040391   2.721783   3.410751   4.044874   2.565443
    17  H    3.309113   2.834744   3.960055   4.141277   2.823871
    18  H    2.763678   2.215111   2.957065   3.791683   2.863145
    19  H    4.078248   3.764917   4.307753   5.111572   3.512895
                    6          7          8          9         10
     6  C    0.000000
     7  H    1.104923   0.000000
     8  C    1.540489   2.151743   0.000000
     9  H    2.185276   3.073706   1.097153   0.000000
    10  H    2.183157   2.523693   1.096513   1.770046   0.000000
    11  H    2.204505   2.485813   1.094263   1.770968   1.764857
    12  C    2.602936   2.883740   3.040376   3.309101   4.078232
    13  H    2.879218   3.284927   2.721761   2.834731   3.764891
    14  H    2.904142   2.751767   3.410740   3.960049   4.307738
    15  H    3.540624   3.866184   4.044856   4.141261   5.111555
    16  C    1.540490   2.151745   2.514613   2.824226   2.696361
    17  H    2.185276   3.073708   2.824222   2.693257   3.103569
    18  H    2.204507   2.485820   3.485277   3.855383   3.690862
    19  H    2.183156   2.523691   2.696363   3.103581   2.413107
                   11         12         13         14         15
    11  H    0.000000
    12  C    2.763655   0.000000
    13  H    2.215074   1.094955   0.000000
    14  H    2.957051   1.101777   1.772051   0.000000
[...]
 6491706,0.03238041,-0.00580909,-0.01273401,0.00172108,0.00137610,0.004
 69677,-0.00024062,0.10473075,0.28850421,0.01302012,0.03421373,-0.05388
 165,0.01119850,0.02020533,-0.00275081,0.00335971,0.00991517,-0.0018809
 8,-0.01627485,-0.03398581,0.05968260,-0.05483158,-0.00856189,-0.002555
 82,0.00246915,-0.00849874,-0.00847190,0.00423279,0.01515408,0.02607044
 ,-0.00012462,-0.00574602,-0.01124526,0.17109862,-0.00465180,-0.1189545
 8,-0.04950019,-0.00216592,0.01105043,0.01101399,0.00387011,-0.00334109
 ,-0.00763090,0.00191986,-0.01760655,-0.02723438,0.06783336,0.47538925,
 0.00210017,-0.06033866,-0.17721485,0.00275229,-0.01122499,-0.02365993,
 0.00656510,-0.00886914,-0.01646790,0.00027889,0.00194406,0.00339194,0.
 00000335,-0.00000094,0.52379811,0.00325491,0.00385271,-0.00021234,-0.0
 0019112,-0.00030251,0.00057005,0.00063897,-0.00039884,-0.00038238,0.00
 115277,0.00047266,0.00101168,-0.06830877,-0.04194775,-0.00000043,0.502
 84600,-0.00760113,-0.01559585,-0.00390405,0.00054693,0.00045353,0.0013
 1236,-0.00046408,0.00160002,0.00194610,0.00034828,0.00048749,-0.001126
 98,-0.03415408,-0.17293629,-0.00000034,-0.00815901,0.46936133,-0.01042
 978,-0.02476758,0.00331655,-0.00064760,0.00030855,-0.00021936,0.000414
 84,0.00026476,0.00073801,-0.00021155,-0.00291000,-0.00515606,-0.000000
 21,0.00000037,-0.08910465,0.00000127,-0.00000021,0.46968291,0.00048178
 ,0.00025648,0.00091822,0.00002628,0.00012922,-0.00011177,0.00019814,-0
 .00081604,-0.00111427,0.00020089,-0.00034449,-0.00012329,-0.01377412,-
 0.01188595,-0.00000017,-0.26579986,0.01360043,-0.00000171,0.29702261,0
 .00096030,0.00128677,0.00143779,-0.00007576,-0.00007463,-0.00010504,0.
 00094999,-0.00059670,-0.00103635,0.00042913,-0.00015038,0.00007453,-0.
 03421928,-0.00847827,-0.00000029,-0.00241066,-0.04479813,0.00000004,-0
 .00525907,0.05475987,0.00007244,0.00027016,0.00027252,-0.00000952,0.00
 007873,0.00019022,0.00027947,-0.00003022,-0.00013490,0.00019065,-0.000
 01768,0.00004478,-0.00000010,-0.00000009,0.00085276,-0.00000167,0.0000
 0016,-0.04451313,0.00000197,-0.00000003,0.05497691,-0.00085162,-0.0026
 8127,0.00080751,0.00014602,0.00027588,0.00001669,0.00018327,-0.0001217
 7,-0.00026117,0.00013521,-0.00061590,-0.00068188,0.00269721,-0.0052668
 1,-0.01098158,-0.08602763,0.01552820,0.02405049,-0.01140305,0.01807466
 ,0.02987186,0.56505754,-0.00129295,-0.00452454,0.00186001,-0.00019546,
 0.00007390,-0.00004556,0.00025819,0.00004482,-0.00000951,-0.00007511,-
 0.00065679,-0.00141628,0.00595889,-0.02027138,-0.02748260,0.01805978,-
 0.10339362,-0.04060410,0.00128442,-0.00084288,-0.00300164,0.01795258,0
 .55011917,0.00119845,0.00148912,0.00006874,0.00016948,0.00011809,0.000
 15916,-0.00015483,-0.00002054,-0.00006515,0.00024730,0.00044487,0.0005
 6168,-0.00203969,-0.00823358,0.00076845,0.02564147,-0.03520240,-0.1440
 7252,0.00121951,-0.00191172,-0.00373972,0.02738582,-0.05332744,0.51144
 226,0.00009922,0.00019232,-0.00014813,-0.00000535,-0.00000655,0.000009
 02,-0.00002055,-0.00006706,-0.00004489,0.00002703,0.00010022,0.0000721
 5,0.00062623,-0.00094628,0.00000359,-0.00907085,0.00109622,0.00094489,
 0.00080431,0.00125591,0.00200161,-0.30710214,0.00761884,0.01665237,0.3
 3429752,-0.00005621,-0.00004847,-0.00015270,0.00001041,0.00000239,0.00
 003417,-0.00010633,0.00008998,0.00015807,-0.00004125,-0.00001104,0.000
 01650,0.00065444,0.00139990,0.00044514,0.01839888,-0.00148807,-0.00113
 749,0.00118084,-0.00138763,-0.00334368,0.00722326,-0.04997086,0.000557
 54,-0.00935850,0.04957419,-0.00007043,0.00002770,-0.00012497,-0.000003
 78,-0.00003213,-0.00003430,-0.00006360,0.00008461,0.00012371,-0.000049
 40,-0.00001495,-0.00000047,-0.00020203,0.00160904,0.00103321,0.0279541
 2,-0.00088216,-0.00220289,0.00194862,-0.00326555,-0.00447000,0.0167776
 3,0.00064123,-0.05083153,-0.02044668,0.00232955,0.05276464,0.00051356,
 0.00058349,-0.00010134,-0.00002930,-0.00002222,-0.00002410,0.00000475,
 -0.00007050,-0.00009241,-0.00000442,0.00014016,0.00019418,0.00006453,0
 .00026015,0.00189194,0.00297810,0.01031021,-0.00043955,0.00039693,0.00
 010427,-0.00072710,-0.08154314,-0.08522437,0.00453441,-0.01006629,-0.0
 3197547,0.00233955,0.08306759,-0.00024795,-0.00082068,0.00058969,-0.00
 004903,0.00004114,-0.00013846,0.00009753,-0.00006289,-0.00009846,-0.00
 001732,-0.00015986,-0.00036115,0.00155049,0.00005254,-0.00310981,-0.00
 606591,-0.01621481,0.00149487,0.00050723,0.00041439,0.00037069,-0.0847
 1248,-0.27928263,0.01368216,0.00047915,0.00267759,0.00001276,0.0930715
 7,0.30372378,-0.00045941,-0.00156830,0.00063033,-0.00005074,0.00003840
 ,0.00001479,0.00007372,0.00000948,-0.00001435,-0.00004374,-0.00036245,
 -0.00046560,0.00174828,-0.00093410,-0.00538278,-0.01004679,-0.02653163
 ,0.00019916,-0.00015717,0.00088791,0.00105378,0.00495734,0.01515932,-0
 .04875651,0.00011606,0.00174086,-0.00108928,-0.00687780,-0.01395481,0.
 05364419,-0.00004825,-0.00017671,0.00010941,-0.00003005,-0.00000078,0.
 00003910,-0.00002124,0.00000746,0.00003208,-0.00002354,-0.00003001,-0.
 00006663,0.00035869,-0.00001981,-0.00065236,0.00289592,-0.00540780,0.0
 0908234,0.00057003,-0.00075387,-0.00024202,-0.08545233,0.04075761,-0.0
 8102459,-0.01087631,0.01479779,-0.02819308,0.00438183,-0.00465231,0.01
 097494,0.08765334,0.00003208,0.00009468,0.00003107,0.00002240,0.000032
 45,0.00007216,-0.00004359,0.00002734,0.00004875,0.00001391,0.00001055,
 0.00004862,-0.00024166,0.00068452,0.00015692,-0.00775775,0.00833724,-0
 .01454993,-0.00042535,0.00060925,0.00092653,0.04160773,-0.09568908,0.0
 9329731,-0.00040577,-0.00094775,-0.00044914,0.01272011,-0.01237223,0.0
 2571430,-0.04547260,0.10389384,-0.00003670,-0.00015545,0.00012379,0.00
 009588,0.00009641,0.00017017,-0.00003607,0.00005845,0.00003016,-0.0000
 2224,-0.00015748,0.00001564,0.00016725,0.00124183,-0.00024250,-0.01051
 791,0.01253601,-0.02063401,0.00039531,0.00031734,0.00112533,-0.0807690
 6,0.09186374,-0.23199802,0.00080263,-0.00172843,0.00313072,0.00002958,
 0.00078389,-0.00073137,0.08733933,-0.10177073,0.25255724,0.00863065,-0
 .00266926,0.00464064,-0.00057418,0.00012110,-0.00074556,-0.00076819,0.
 00019876,-0.00152345,-0.00032891,0.00036086,-0.00091834,-0.05483171,-0
 .00465069,-0.00210277,0.00325455,-0.00760083,0.01042966,0.00048188,0.0
 0096021,-0.00007237,-0.00103954,-0.00104551,-0.00116028,-0.00005816,0.
 00032597,-0.00025639,0.00011576,-0.00027082,0.00065338,0.00087405,-0.0
 0068777,0.00060860,0.49668978,-0.00266913,0.00967557,-0.01224449,-0.00
 017880,-0.00182713,-0.00346065,0.00071808,-0.00091621,-0.00084107,-0.0
 0000308,0.00027423,-0.00194828,-0.00856095,-0.11895626,0.06033971,0.00
 385321,-0.01559584,0.02476752,0.00025656,0.00128692,-0.00027016,-0.000
 94005,-0.00114523,0.00034506,0.00031810,-0.00016531,-0.00014593,0.0001
 4235,0.00021931,0.00061767,0.00003199,-0.00151260,0.00059799,0.0228149
 8,0.55548396,-0.00464129,0.01224534,-0.02639799,0.00125137,-0.00166544
 ,-0.00301220,-0.00012523,0.00048491,0.00058732,0.00051076,0.00196381,0
 .00084273,0.00255370,0.04950034,-0.17721256,0.00021231,0.00390383,0.00
 331670,-0.00091822,-0.00143781,0.00027254,0.00018874,-0.00016799,0.001
 38161,0.00029572,-0.00002595,0.00015703,0.00015669,-0.00031296,-0.0006
 4645,-0.00055296,-0.00011528,-0.00020450,-0.01744901,0.04625245,0.5016
 7250,-0.00057434,-0.00017866,-0.00125145,0.00011483,0.00008987,-0.0002
 9774,0.00005011,0.00008683,-0.00013053,0.00007253,0.00025232,-0.000020
 34,0.00246954,-0.00216620,-0.00275265,-0.00019108,0.00054687,0.0006475
 9,0.00002628,-0.00007574,0.00000953,0.00091955,0.00010337,0.00082661,-
 0.00007537,0.00012858,0.00004758,-0.00015612,0.00022432,-0.00050308,-0
 .00060367,-0.00056209,-0.00062306,-0.11300720,0.06006811,0.09765719,0.
 12146887,0.00012102,-0.00182718,0.00166535,0.00008989,0.00051945,0.000
 43166,-0.00005671,0.00021447,0.00003953,0.00031542,0.00042196,0.000030
 98,-0.00849910,0.01105020,0.01122560,-0.00030249,0.00045357,-0.0003085
 5,0.00012922,-0.00007463,-0.00007871,-0.00102406,-0.00169604,0.0000046
 3,0.00021507,-0.00027200,-0.00004132,0.00019278,0.00007204,0.00015212,
 -0.00056598,-0.00198733,0.00029632,0.05964035,-0.10615283,-0.08538577,
 -0.06892430,0.11386935,0.00074549,0.00346069,-0.00301208,0.00029771,-0
 .00043165,-0.00088904,0.00049801,-0.00036742,-0.00066055,-0.00000213,0
 .00027244,0.00028592,0.00847173,-0.01101289,-0.02366002,-0.00056998,-0
 .00131229,-0.00021937,0.00011178,0.00010505,0.00019021,-0.00005563,-0.
 00058278,0.00003745,-0.00041456,0.00034205,-0.00010038,-0.00021408,-0.
 00015513,0.00050310,0.00032078,-0.00030426,0.00084470,0.09947304,-0.08
 837287,-0.17952434,-0.10487871,0.09541474,0.20018934,-0.00076825,0.000
 71814,0.00012528,0.00005012,-0.00005670,-0.00049801,0.00006578,-0.0002
 1545,-0.00035446,-0.00007898,0.00000801,0.00006704,0.00423213,0.003870
 31,-0.00656520,0.00063907,-0.00046412,-0.00041480,0.00019817,0.0009500
 5,-0.00027948,-0.00012539,0.00032203,-0.00048563,0.00014404,-0.0001277
 3,0.00012971,0.00007747,0.00001077,0.00008674,-0.00009166,0.00004654,0
 .00033342,-0.24930144,0.02189175,-0.06635053,-0.01844425,0.00169008,-0
 .00505932,0.27591845,0.00019870,-0.00091624,-0.00048490,0.00008685,0.0
 0021448,0.00036741,-0.00021544,0.00034849,0.00039822,-0.00006926,0.000
 24267,0.00018409,0.01515460,-0.00334080,0.00886904,-0.00039876,0.00160
 006,-0.00026481,-0.00081607,-0.00059669,0.00003019,0.00034125,-0.00002
 758,0.00043946,-0.00014068,0.00013456,-0.00001188,-0.00015346,0.000015
 16,-0.00016545,0.00009392,-0.00022787,-0.00038382,0.02905749,-0.050448
 23,0.00947249,0.01642679,-0.00200746,0.00458791,-0.03022516,0.05021389
 ,0.00152330,0.00084111,0.00058720,0.00013057,-0.00003950,-0.00066061,0
 .00035446,-0.00039821,-0.00097637,-0.00018287,0.00006108,-0.00007972,-
 0.02607045,0.00763023,-0.01646755,0.00038232,-0.00194609,0.00073809,0.
 00111429,0.00103633,-0.00013488,0.00035350,0.00016428,-0.00010417,-0.0
 0012062,-0.00009974,-0.00001379,-0.00005375,0.00008037,0.00006023,-0.0
 0008008,0.00016559,0.00007968,-0.07792431,0.00837356,-0.06804769,0.022
 67793,-0.00301984,0.00845642,0.08244385,-0.01299088,0.07836996,-0.0003
 2890,-0.00000295,-0.00051074,0.00007253,0.00031540,0.00000214,-0.00007
 899,-0.00006929,0.00018288,0.00039178,0.00020932,0.00026743,-0.0001246
 3,0.00192022,-0.00027873,0.00115276,0.00034820,0.00021147,0.00020092,0
 .00042914,-0.00019064,0.00019590,0.00026133,-0.00002637,0.00010886,-0.
 00016900,0.00009823,0.00003277,0.00003868,-0.00013886,-0.00021923,0.00
 013069,-0.00004084,-0.08985033,-0.09566094,-0.01212175,0.00784900,0.01
 673246,0.00131659,-0.01266149,-0.02908889,-0.00491453,0.09312475,0.000
 36064,0.00027428,-0.00196389,0.00025235,0.00042197,-0.00027247,0.00000
 802,0.00024266,-0.00006103,0.00020939,0.00134516,0.00059679,-0.0057460
 1,-0.01760697,-0.00194448,0.00047285,0.00048752,0.00291014,-0.00034446
 ,-0.00015034,0.00001767,-0.00033872,0.00030164,0.00025045,0.00005398,0
 .00006891,-0.00005937,-0.00000716,-0.00011965,0.00008765,0.00018166,0.
 00000183,0.00022324,-0.09498966,-0.26492126,-0.03238389,-0.00580838,-0
 .01273345,-0.00172126,0.00137570,0.00469625,0.00024061,0.10472537,0.28
 850865,0.00091838,0.00194826,0.00084271,0.00002035,-0.00003099,0.00028
 593,-0.00006702,-0.00018407,-0.00007975,-0.00026749,-0.00059672,-0.000
 73264,0.01124466,0.02723438,0.00339236,-0.00101179,0.00112700,-0.00515
 600,0.00012326,-0.00007456,0.00004477,-0.00041208,-0.00065309,-0.00080
 921,-0.00007694,0.00009086,0.00001540,0.00003131,-0.00009794,0.0003259
 8,0.00031798,-0.00012686,0.00059045,-0.01302098,-0.03421744,-0.0538826
 7,-0.01119805,-0.02020596,-0.00275120,-0.00335939,-0.00991507,-0.00188
 116,0.01627562,0.03398982,0.05968382,-0.00103976,-0.00094021,-0.000188
 77,0.00091964,-0.00102431,0.00005569,-0.00012538,0.00034129,-0.0003535
 2,0.00019594,-0.00033878,0.00041215,0.00269705,-0.00526699,0.01098173,
 -0.08602710,0.01552743,-0.02404992,-0.01140252,0.01807440,-0.02987220,
 0.00395012,-0.00535610,0.00776332,0.00042442,-0.00043568,0.00118358,0.
 00002351,-0.00033618,-0.00062780,-0.00018798,0.00082537,0.00292964,-0.
 00085153,-0.00268125,-0.00080754,0.00014601,0.00027588,-0.00001671,0.0
 0018329,-0.00012178,0.00026119,0.00013525,-0.00061590,0.00068187,0.565
 05870,-0.00104569,-0.00114575,0.00016800,0.00010330,-0.00169643,0.0005
 8288,0.00032206,-0.00002758,-0.00016428,0.00026139,0.00030160,0.000653
 14,0.00595867,-0.02027150,0.02748307,0.01805868,-0.10339296,0.04060418
 ,0.00128437,-0.00084299,0.00300169,-0.00535605,0.00862780,-0.01148863,
 -0.00015863,0.00007188,0.00011041,-0.00020998,0.00031258,-0.00172946,0
 .00098126,-0.00205125,-0.00449560,-0.00129305,-0.00452461,-0.00186004,
 -0.00019546,0.00007390,0.00004555,0.00025818,0.00004485,0.00000947,-0.
 00007509,-0.00065684,0.00141632,0.01795160,0.55012295,0.00116033,-0.00
 034504,0.00138155,-0.00082666,-0.00000469,0.00003747,0.00048565,-0.000
 43947,-0.00010417,0.00002637,-0.00025044,-0.00080927,0.00203957,0.0082
 3373,0.00076827,-0.02564085,0.03520302,-0.14407496,-0.00121968,0.00191
 199,-0.00374017,-0.00776273,0.01148782,-0.03303732,-0.00056614,0.00084
 977,0.00183208,-0.00031747,0.00168664,0.00103874,0.00163106,-0.0020919
 9,-0.00387593,-0.00119843,-0.00148913,0.00006877,-0.00016946,-0.000118
 09,0.00015916,0.00015482,0.00002054,-0.00006516,-0.00024729,-0.0004449
 0,0.00056166,-0.02738433,0.05332657,0.51143964,-0.00005813,0.00031810,
 -0.00029575,-0.00007537,0.00021506,0.00041458,0.00014405,-0.00014070,0
 .00012063,0.00010886,0.00005398,0.00007694,0.00062618,-0.00094624,-0.0
 0000363,-0.00907044,0.00109628,-0.00094498,0.00080439,0.00125585,-0.00
 200154,0.00042447,-0.00015864,0.00056616,0.00041579,-0.00027089,-0.000
 75629,-0.00003565,0.00002693,-0.00004222,0.00036324,-0.00000238,-0.000
 12140,0.00009922,0.00019232,0.00014813,-0.00000535,-0.00000655,-0.0000
 0902,-0.00002055,-0.00006706,0.00004489,0.00002703,0.00010022,-0.00007
 216,-0.30710166,0.00762305,-0.01665410,0.33429699,0.00032600,-0.000165
 31,0.00002597,0.00012860,-0.00027204,-0.00034208,-0.00012774,0.0001345
 6,0.00009974,-0.00016901,0.00006892,-0.00009087,0.00065445,0.00139984,
 -0.00044510,0.01839845,-0.00148825,0.00113756,0.00118074,-0.00138753,0
 .00334361,-0.00043567,0.00007191,-0.00084978,-0.00027089,0.00037561,0.
 00007427,-0.00016125,0.00004229,0.00010871,-0.00001790,-0.00014619,-0.
 00010644,-0.00005622,-0.00004848,0.00015270,0.00001041,0.00000239,-0.0
 0003417,-0.00010633,0.00008998,-0.00015807,-0.00004125,-0.00001105,-0.
 00001649,0.00722743,-0.04997123,-0.00055716,-0.00936307,0.04957445,0.0
 0025641,0.00014593,0.00015704,-0.00004758,0.00004133,-0.00010039,-0.00
 012972,0.00001188,-0.00001378,-0.00009824,0.00005937,0.00001540,0.0002
 0200,-0.00160904,0.00103316,-0.02795463,0.00088261,-0.00220316,-0.0019
 4856,0.00326559,-0.00447017,-0.00118357,-0.00011042,0.00183213,0.00075
 629,-0.00007426,-0.00032172,0.00000511,-0.00005185,-0.00010785,0.00043
 221,0.00003900,0.00024041,0.00007044,-0.00002769,-0.00012497,0.0000037
 8,0.00003212,-0.00003430,0.00006361,-0.00008462,0.00012372,0.00004941,
 0.00001495,-0.00000047,-0.01677932,-0.00064091,-0.05083162,0.02044861,
 -0.00232987,0.05276503,0.00087412,0.00003190,0.00055300,-0.00060377,-0
 .00056614,-0.00032079,-0.00009167,0.00009394,0.00008009,-0.00021924,0.
 00018168,-0.00031801,0.00035870,-0.00001978,0.00065236,0.00289574,-0.0
 0540778,-0.00908177,0.00056999,-0.00075387,0.00024203,-0.00018788,0.00
 098113,-0.00163097,0.00036324,-0.00001789,-0.00043223,-0.00011629,0.00
 030453,0.00012124,0.00057346,-0.00005843,-0.00065368,-0.00004826,-0.00
 017672,-0.00010942,-0.00003005,-0.00000077,-0.00003911,-0.00002125,0.0
 0000746,-0.00003209,-0.00002354,-0.00003002,0.00006663,-0.08545183,0.0
 4075942,0.08102242,-0.01087625,0.01479851,0.02819270,0.08765275,-0.000
 68800,-0.00151301,0.00011536,-0.00056224,-0.00198770,0.00030429,0.0000
 4653,-0.00022788,-0.00016561,0.00013072,0.00000179,0.00012691,-0.00024
 169,0.00068448,-0.00015693,-0.00775755,0.00833747,0.01454940,-0.000425
 33,0.00060922,-0.00092652,0.00082529,-0.00205118,0.00209201,-0.0000023
 7,-0.00014617,-0.00003899,0.00025855,0.00042071,0.00017986,-0.00005845
 ,0.00082190,0.00091218,0.00003209,0.00009468,-0.00003106,0.00002240,0.
 00003245,-0.00007216,-0.00004359,0.00002734,-0.00004875,0.00001391,0.0
 0001055,-0.00004862,0.04160982,-0.09569432,-0.09330124,-0.00040563,-0.
 00094799,0.00044866,-0.04547436,0.10390051,-0.00060870,-0.00059804,-0.
 00020446,0.00062308,-0.00029648,0.00084484,-0.00033343,0.00038386,0.00
 007970,0.00004084,-0.00022329,0.00059050,-0.00016726,-0.00124191,-0.00
 024254,0.01051814,-0.01253673,-0.02063413,-0.00039531,-0.00031733,0.00
 112533,-0.00292966,0.00449556,-0.00387611,0.00012141,0.00010644,0.0002
 4039,-0.00011931,0.00012948,0.00041162,0.00065374,-0.00091221,-0.00163
 359,0.00003669,0.00015543,0.00012381,-0.00009587,-0.00009641,0.0001701
 8,0.00003607,-0.00005844,0.00003016,0.00002224,0.00015748,0.00001564,0
 .08076700,-0.09186724,-0.23199257,-0.00080269,0.00172860,0.00313080,-0
 .08733711,0.10177488,0.25255130,0.00011578,0.00014237,-0.00015672,-0.0
 0015612,0.00019279,0.00021410,0.00007748,-0.00015347,0.00005376,0.0000
 3277,-0.00000716,-0.00003131,0.00006461,0.00026021,-0.00189190,0.00297
 807,0.01030978,0.00043930,0.00039697,0.00010432,0.00072709,0.00002343,
 -0.00021003,0.00031745,-0.00003564,-0.00016123,-0.00000511,0.00029441,
 0.00004079,0.00021591,-0.00011628,0.00025856,0.00011930,0.00051354,0.0
 0058347,0.00010133,-0.00002930,-0.00002222,0.00002410,0.00000476,-0.00
 007050,0.00009240,-0.00000443,0.00014016,-0.00019417,-0.08154616,-0.08
 522799,-0.00453308,-0.01006682,-0.03197526,-0.00233894,0.00438202,0.01
 271990,-0.00002987,0.08307089,-0.00027088,0.00021928,0.00031295,0.0002
 2436,0.00007200,0.00015518,0.00001077,0.00001517,-0.00008037,0.0000386
 9,-0.00011966,0.00009796,0.00155043,0.00005252,0.00310977,-0.00606600,
 -0.01621442,-0.00149472,0.00050724,0.00041438,-0.00037070,-0.00033609,
 0.00031254,-0.00168658,0.00002694,0.00004230,0.00005182,0.00004076,0.0
 0104122,0.00054992,0.00030453,0.00042071,-0.00012946,-0.00024799,-0.00
 082068,-0.00058968,-0.00004903,0.00004113,0.00013845,0.00009753,-0.000
 06288,0.00009845,-0.00001731,-0.00015987,0.00036116,-0.08471603,-0.279
 28011,-0.01367795,0.00047938,0.00267810,-0.00001279,-0.00465281,-0.012
 37286,-0.00078365,0.09307551,0.30372112,-0.00065345,-0.00061773,-0.000
 64649,0.00050312,-0.00015219,0.00050314,-0.00008674,0.00016546,0.00006
 023,0.00013887,-0.00008768,0.00032600,-0.00174826,0.00093409,-0.005382
 95,0.01004741,0.02653179,0.00019882,0.00015717,-0.00088788,0.00105385,
 0.00062778,0.00172946,0.00103877,0.00004221,-0.00010871,-0.00010785,-0
 .00021586,-0.00054999,-0.00068774,-0.00012126,-0.00017986,0.00041162,0
 .00045942,0.00156833,0.00063036,0.00005074,-0.00003840,0.00001480,-0.0
 0007371,-0.00000948,-0.00001435,0.00004373,0.00036247,-0.00046560,-0.0
 0495605,-0.01515512,-0.04875617,-0.00011616,-0.00174113,-0.00108926,-0
 .01097529,-0.02571367,-0.00073083,0.00687637,0.01395024,0.05364366\\-0
 .00000035,-0.00000042,-0.00000020,-0.00000018,-0.00000040,-0.00000003,
 -0.00000016,-0.00000019,-0.00000006,-0.00000025,0.00000005,0.,-0.00000
 034,0.00000110,0.00000015,-0.00000018,-0.00000133,-0.00000030,0.000000
 60,0.00000032,0.00000017,-0.00000022,0.00000013,0.00000042,0.00000031,
 -0.00000004,-0.00000020,0.00000039,-0.00000021,-0.00000022,0.00000022,
 -0.00000048,-0.00000004,0.00000030,-0.00000013,-0.00000025,-0.00000030
 ,0.00000039,0.00000048,-0.00000031,0.,0.,-0.00000036,0.00000019,0.0000
 0004,0.00000006,0.00000089,-0.00000073,0.00000023,0.,0.00000012,0.0000
 0026,0.00000026,0.00000042,0.00000028,-0.00000015,0.00000023\\\@


 ADVERTISING--  HE WHO HAS SOMETHING TO SELL AND GOES AND WHISPERS
                IN A WELL, IS NOT SO APT TO GET THE DOLLARS AS HE
                WHO CLIMBS A TREE AND HOLLERS.

                   -- FROM THE BACK OF A SUGAR PACKET
 Job cpu time:       0 days  0 hours 28 minutes 54.2 seconds.
 File lengths (MBytes):  RWF=     64 Int=      0 D2E=      0 Chk=      3 Scr=      1
 Normal termination of Gaussian 09 at Sat Nov  7 02:25:13 2015.
