 Entering Gaussian System, Link 0=/home/hetanjin/apps/g09D01/g09/g09
 Input=C6H14_2_r001_C7_2_opt_B3L.gjf
 Output=C6H14_2_r001_C7_2_opt_B3L.log
 Initial command:
 /home/hetanjin/apps/g09D01/g09/l1.exe "/state/partition1/Gau-4839.inp" -scrdir="/state/partition1/"
 Entering Link 1 = /home/hetanjin/apps/g09D01/g09/l1.exe PID=      4840.
  
 Copyright (c) 1988,1990,1992,1993,1995,1998,2003,2009,2013,
            Gaussian, Inc.  All Rights Reserved.
  
 This is part of the Gaussian(R) 09 program.  It is based on
 the Gaussian(R) 03 system (copyright 2003, Gaussian, Inc.),
 the Gaussian(R) 98 system (copyright 1998, Gaussian, Inc.),
 the Gaussian(R) 94 system (copyright 1995, Gaussian, Inc.),
 the Gaussian 92(TM) system (copyright 1992, Gaussian, Inc.),
 the Gaussian 90(TM) system (copyright 1990, Gaussian, Inc.),
 the Gaussian 88(TM) system (copyright 1988, Gaussian, Inc.),
 the Gaussian 86(TM) system (copyright 1986, Carnegie Mellon
 University), and the Gaussian 82(TM) system (copyright 1983,
 Carnegie Mellon University). Gaussian is a federally registered
 trademark of Gaussian, Inc.
  
 This software contains proprietary and confidential information,
 including trade secrets, belonging to Gaussian, Inc.
  
 This software is provided under written license and may be
 used, copied, transmitted, or stored only in accord with that
 written license.
  
 The following legend is applicable only to US Government
 contracts under FAR:
  
                    RESTRICTED RIGHTS LEGEND
  
 Use, reproduction and disclosure by the US Government is
 subject to restrictions as set forth in subparagraphs (a)
 and (c) of the Commercial Computer Software - Restricted
 Rights clause in FAR 52.227-19.
  
 Gaussian, Inc.
 340 Quinnipiac St., Bldg. 40, Wallingford CT 06492
  
  
 ---------------------------------------------------------------
 Warning -- This program may not be used in any manner that
 competes with the business of Gaussian, Inc. or will provide
 assistance to any competitor of Gaussian, Inc.  The licensee
 of this program is prohibited from giving any competitor of
 Gaussian, Inc. access to this program.  By using this program,
 the user acknowledges that Gaussian, Inc. is engaged in the
 business of creating and licensing software in the field of
 computational chemistry and represents and warrants to the
 licensee that it is not a competitor of Gaussian, Inc. and that
 it will not use this program in any manner prohibited above.
 ---------------------------------------------------------------
  

 Cite this work as:
 Gaussian 09, Revision D.01,
 M. J. Frisch, G. W. Trucks, H. B. Schlegel, G. E. Scuseria, 
 M. A. Robb, J. R. Cheeseman, G. Scalmani, V. Barone, B. Mennucci, 
 G. A. Petersson, H. Nakatsuji, M. Caricato, X. Li, H. P. Hratchian, 
 A. F. Izmaylov, J. Bloino, G. Zheng, J. L. Sonnenberg, M. Hada, 
 M. Ehara, K. Toyota, R. Fukuda, J. Hasegawa, M. Ishida, T. Nakajima, 
 Y. Honda, O. Kitao, H. Nakai, T. Vreven, J. A. Montgomery, Jr., 
 J. E. Peralta, F. Ogliaro, M. Bearpark, J. J. Heyd, E. Brothers, 
 K. N. Kudin, V. N. Staroverov, T. Keith, R. Kobayashi, J. Normand, 
 K. Raghavachari, A. Rendell, J. C. Burant, S. S. Iyengar, J. Tomasi, 
 M. Cossi, N. Rega, J. M. Millam, M. Klene, J. E. Knox, J. B. Cross, 
 V. Bakken, C. Adamo, J. Jaramillo, R. Gomperts, R. E. Stratmann, 
 O. Yazyev, A. J. Austin, R. Cammi, C. Pomelli, J. W. Ochterski, 
 R. L. Martin, K. Morokuma, V. G. Zakrzewski, G. A. Voth, 
 P. Salvador, J. J. Dannenberg, S. Dapprich, A. D. Daniels, 
 O. Farkas, J. B. Foresman, J. V. Ortiz, J. Cioslowski, 
 and D. J. Fox, Gaussian, Inc., Wallingford CT, 2013.
 
 ******************************************
 Gaussian 09:  ES64L-G09RevD.01 24-Apr-2013
                 7-Nov-2015 
 ******************************************
 %mem=6GB
 %nprocshared=4
 Will use up to    4 processors via shared memory.
 ----------------------------------------------
 #p B3LYP/6-31G(d) opt=tight int=ultrafine freq
 ----------------------------------------------
 1/7=10,14=-1,18=20,19=15,26=4,38=1/1,3;
 2/9=110,12=2,17=6,18=5,40=1/2;
 3/5=1,6=6,7=1,11=2,16=1,25=1,30=1,71=1,74=-5,75=-5/1,2,3;
 4//1;
 5/5=2,38=5/2;
 6/7=2,8=2,9=2,10=2,28=1/1;
 7//1,2,3,16;
 1/7=10,14=-1,18=20,19=15,26=4/3(2);
 2/9=110/2;
 99//99;
 2/9=110/2;
 3/5=1,6=6,7=1,11=2,16=1,25=1,30=1,71=1,74=-5,75=-5/1,2,3;
 4/5=5,16=3,69=1/1;
 5/5=2,38=5/2;
 7//1,2,3,16;
 1/7=10,14=-1,18=20,19=15,26=4/3(-5);
 2/9=110/2;
 6/7=2,8=2,9=2,10=2,19=2,28=1/1;
 99/9=1/99;
 Leave Link    1 at Sat Nov  7 01:59:33 2015, MaxMem=   805306368 cpu:         0.2
 (Enter /home/hetanjin/apps/g09D01/g09/l101.exe)
 ---------------------------------------------
 using B3LYP/6-31G(d) to do opt and freq calc.
 ---------------------------------------------
 Symbolic Z-matrix:
 Charge =  0 Multiplicity = 2
 C                     2.1588   -1.03826   0.03329 
 H                     1.92753  -2.02922  -0.37555 
 H                     2.248    -1.14076   1.12291 
 H                     3.14007  -0.7364   -0.35209 
 C                     1.07513  -0.01325  -0.33394 
 H                     1.02737   0.04492  -1.43284 
 C                    -0.30521  -0.48286   0.1671 
 H                    -0.29365  -0.5158    1.26793 
 C                    -1.49862   0.36099  -0.30192 
 H                    -1.48122   0.43273  -1.39913 
 H                    -1.40332   1.3884    0.07251 
 C                    -2.84619  -0.21322   0.1491 
 H                    -2.90621  -0.27062   1.24305 
 H                    -3.68183   0.40554  -0.19769 
 H                    -2.99673  -1.22689  -0.24256 
 C                     1.45204   1.37934   0.1949 
 H                     0.73689   2.14756  -0.118 
 H                     1.48756   1.38271   1.29264 
 H                     2.44125   1.682    -0.16891 
 
 NAtoms=     19 NQM=       19 NQMF=       0 NMMI=      0 NMMIF=      0
                NMic=       0 NMicF=      0.
                    Isotopes and Nuclear Properties:
 (Nuclear quadrupole moments (NQMom) in fm**2, nuclear magnetic moments (NMagM)
  in nuclear magnetons)

  Atom         1           2           3           4           5           6           7           8           9          10
 IAtWgt=          12           1           1           1          12           1          12           1          12           1
 AtmWgt=  12.0000000   1.0078250   1.0078250   1.0078250  12.0000000   1.0078250  12.0000000   1.0078250  12.0000000   1.0078250
 NucSpn=           0           1           1           1           0           1           0           1           0           1
 AtZEff=   0.0000000   0.0000000   0.0000000   0.0000000   0.0000000   0.0000000   0.0000000   0.0000000   0.0000000   0.0000000
 NQMom=    0.0000000   0.0000000   0.0000000   0.0000000   0.0000000   0.0000000   0.0000000   0.0000000   0.0000000   0.0000000
 NMagM=    0.0000000   2.7928460   2.7928460   2.7928460   0.0000000   2.7928460   0.0000000   2.7928460   0.0000000   2.7928460
 AtZNuc=   6.0000000   1.0000000   1.0000000   1.0000000   6.0000000   1.0000000   6.0000000   1.0000000   6.0000000   1.0000000

  Atom        11          12          13          14          15          16          17          18          19
 IAtWgt=           1          12           1           1           1          12           1           1           1
 AtmWgt=   1.0078250  12.0000000   1.0078250   1.0078250   1.0078250  12.0000000   1.0078250   1.0078250   1.0078250
 NucSpn=           1           0           1           1           1           0           1           1           1
 AtZEff=   0.0000000   0.0000000   0.0000000   0.0000000   0.0000000   0.0000000   0.0000000   0.0000000   0.0000000
 NQMom=    0.0000000   0.0000000   0.0000000   0.0000000   0.0000000   0.0000000   0.0000000   0.0000000   0.0000000
 NMagM=    2.7928460   0.0000000   2.7928460   2.7928460   2.7928460   0.0000000   2.7928460   2.7928460   2.7928460
 AtZNuc=   1.0000000   6.0000000   1.0000000   1.0000000   1.0000000   6.0000000   1.0000000   1.0000000   1.0000000
 Leave Link  101 at Sat Nov  7 01:59:33 2015, MaxMem=   805306368 cpu:         0.7
 (Enter /home/hetanjin/apps/g09D01/g09/l103.exe)

 GradGradGradGradGradGradGradGradGradGradGradGradGradGradGradGradGradGrad
 Berny optimization.
 Initialization pass.
                           ----------------------------
                           !    Initial Parameters    !
                           ! (Angstroms and Degrees)  !
 --------------------------                            --------------------------
 ! Name  Definition              Value          Derivative Info.                !
 --------------------------------------------------------------------------------
 ! R1    R(1,2)                  1.0967         estimate D2E/DX2                !
 ! R2    R(1,3)                  1.0981         estimate D2E/DX2                !
 ! R3    R(1,4)                  1.0966         estimate D2E/DX2                !
 ! R4    R(1,5)                  1.5362         estimate D2E/DX2                !
 ! R5    R(5,6)                  1.1015         estimate D2E/DX2                !
 ! R6    R(5,7)                  1.5417         estimate D2E/DX2                !
 ! R7    R(5,16)                 1.5366         estimate D2E/DX2                !
 ! R8    R(7,8)                  1.1014         estimate D2E/DX2                !
 ! R9    R(7,9)                  1.535          estimate D2E/DX2                !
 ! R10   R(9,10)                 1.0997         estimate D2E/DX2                !
 ! R11   R(9,11)                 1.0977         estimate D2E/DX2                !
 ! R12   R(9,12)                 1.5327         estimate D2E/DX2                !
 ! R13   R(12,13)                1.0971         estimate D2E/DX2                !
 ! R14   R(12,14)                1.0961         estimate D2E/DX2                !
 ! R15   R(12,15)                1.0971         estimate D2E/DX2                !
 ! R16   R(16,17)                1.0952         estimate D2E/DX2                !
 ! R17   R(16,18)                1.0983         estimate D2E/DX2                !
 ! R18   R(16,19)                1.0966         estimate D2E/DX2                !
 ! A1    A(2,1,3)              107.6218         estimate D2E/DX2                !
 ! A2    A(2,1,4)              107.8439         estimate D2E/DX2                !
 ! A3    A(2,1,5)              111.411          estimate D2E/DX2                !
 ! A4    A(3,1,4)              107.5616         estimate D2E/DX2                !
 ! A5    A(3,1,5)              110.9048         estimate D2E/DX2                !
 ! A6    A(4,1,5)              111.3185         estimate D2E/DX2                !
 ! A7    A(1,5,6)              107.7173         estimate D2E/DX2                !
 ! A8    A(1,5,7)              110.5269         estimate D2E/DX2                !
 ! A9    A(1,5,16)             110.4513         estimate D2E/DX2                !
 ! A10   A(6,5,7)              107.5475         estimate D2E/DX2                !
 ! A11   A(6,5,16)             107.8272         estimate D2E/DX2                !
 ! A12   A(7,5,16)             112.5709         estimate D2E/DX2                !
 ! A13   A(5,7,8)              108.9373         estimate D2E/DX2                !
 ! A14   A(5,7,9)              115.4245         estimate D2E/DX2                !
 ! A15   A(8,7,9)              109.2684         estimate D2E/DX2                !
 ! A16   A(7,9,10)             109.1727         estimate D2E/DX2                !
 ! A17   A(7,9,11)             110.049          estimate D2E/DX2                !
 ! A18   A(7,9,12)             112.8109         estimate D2E/DX2                !
 ! A19   A(10,9,11)            106.1361         estimate D2E/DX2                !
 ! A20   A(10,9,12)            109.3876         estimate D2E/DX2                !
 ! A21   A(11,9,12)            109.064          estimate D2E/DX2                !
 ! A22   A(9,12,13)            111.1695         estimate D2E/DX2                !
 ! A23   A(9,12,14)            111.4511         estimate D2E/DX2                !
 ! A24   A(9,12,15)            111.208          estimate D2E/DX2                !
 ! A25   A(13,12,14)           107.6561         estimate D2E/DX2                !
 ! A26   A(13,12,15)           107.4655         estimate D2E/DX2                !
 ! A27   A(14,12,15)           107.7002         estimate D2E/DX2                !
 ! A28   A(5,16,17)            112.1608         estimate D2E/DX2                !
 ! A29   A(5,16,18)            110.7757         estimate D2E/DX2                !
 ! A30   A(5,16,19)            110.9303         estimate D2E/DX2                !
 ! A31   A(17,16,18)           107.7288         estimate D2E/DX2                !
 ! A32   A(17,16,19)           107.4963         estimate D2E/DX2                !
 ! A33   A(18,16,19)           107.5521         estimate D2E/DX2                !
 ! D1    D(2,1,5,6)            -59.9218         estimate D2E/DX2                !
 ! D2    D(2,1,5,7)             57.3095         estimate D2E/DX2                !
 ! D3    D(2,1,5,16)          -177.4475         estimate D2E/DX2                !
 ! D4    D(3,1,5,6)           -179.7802         estimate D2E/DX2                !
 ! D5    D(3,1,5,7)            -62.549          estimate D2E/DX2                !
 ! D6    D(3,1,5,16)            62.6941         estimate D2E/DX2                !
 ! D7    D(4,1,5,6)             60.4987         estimate D2E/DX2                !
 ! D8    D(4,1,5,7)            177.7299         estimate D2E/DX2                !
 ! D9    D(4,1,5,16)           -57.027          estimate D2E/DX2                !
 ! D10   D(1,5,7,8)             64.5902         estimate D2E/DX2                !
 ! D11   D(1,5,7,9)           -172.0848         estimate D2E/DX2                !
 ! D12   D(6,5,7,8)           -178.0739         estimate D2E/DX2                !
 ! D13   D(6,5,7,9)            -54.749          estimate D2E/DX2                !
 ! D14   D(16,5,7,8)           -59.4435         estimate D2E/DX2                !
 ! D15   D(16,5,7,9)            63.8815         estimate D2E/DX2                !
 ! D16   D(1,5,16,17)          175.5612         estimate D2E/DX2                !
 ! D17   D(1,5,16,18)          -64.0287         estimate D2E/DX2                !
 ! D18   D(1,5,16,19)           55.3403         estimate D2E/DX2                !
 ! D19   D(6,5,16,17)           58.1032         estimate D2E/DX2                !
 ! D20   D(6,5,16,18)          178.5133         estimate D2E/DX2                !
 ! D21   D(6,5,16,19)          -62.1177         estimate D2E/DX2                !
 ! D22   D(7,5,16,17)          -60.3633         estimate D2E/DX2                !
 ! D23   D(7,5,16,18)           60.0468         estimate D2E/DX2                !
 ! D24   D(7,5,16,19)          179.4158         estimate D2E/DX2                !
 ! D25   D(5,7,9,10)            54.1765         estimate D2E/DX2                !
 ! D26   D(5,7,9,11)           -61.9346         estimate D2E/DX2                !
 ! D27   D(5,7,9,12)           176.0138         estimate D2E/DX2                !
 ! D28   D(8,7,9,10)           177.3265         estimate D2E/DX2                !
 ! D29   D(8,7,9,11)            61.2154         estimate D2E/DX2                !
 ! D30   D(8,7,9,12)           -60.8362         estimate D2E/DX2                !
 ! D31   D(7,9,12,13)           59.9145         estimate D2E/DX2                !
 ! D32   D(7,9,12,14)         -179.978          estimate D2E/DX2                !
 ! D33   D(7,9,12,15)          -59.7885         estimate D2E/DX2                !
 ! D34   D(10,9,12,13)        -178.3696         estimate D2E/DX2                !
 ! D35   D(10,9,12,14)         -58.2621         estimate D2E/DX2                !
 ! D36   D(10,9,12,15)          61.9275         estimate D2E/DX2                !
 ! D37   D(11,9,12,13)         -62.6901         estimate D2E/DX2                !
 ! D38   D(11,9,12,14)          57.4174         estimate D2E/DX2                !
 ! D39   D(11,9,12,15)         177.607          estimate D2E/DX2                !
 --------------------------------------------------------------------------------
 Trust Radius=3.00D-01 FncErr=1.00D-07 GrdErr=1.00D-06
 Number of steps in this run=    100 maximum allowed number of steps=    114.
 GradGradGradGradGradGradGradGradGradGradGradGradGradGradGradGradGradGrad

 Leave Link  103 at Sat Nov  7 01:59:33 2015, MaxMem=   805306368 cpu:         0.1
 (Enter /home/hetanjin/apps/g09D01/g09/l202.exe)
                          Input orientation:                          
 ---------------------------------------------------------------------
 Center     Atomic      Atomic             Coordinates (Angstroms)
 Number     Number       Type             X           Y           Z
 ---------------------------------------------------------------------
      1          6           0        2.158797   -1.038262    0.033294
      2          1           0        1.927533   -2.029222   -0.375554
      3          1           0        2.248004   -1.140761    1.122907
      4          1           0        3.140068   -0.736400   -0.352089
      5          6           0        1.075129   -0.013247   -0.333943
      6          1           0        1.027373    0.044919   -1.432844
      7          6           0       -0.305208   -0.482864    0.167098
      8          1           0       -0.293645   -0.515801    1.267925
      9          6           0       -1.498621    0.360991   -0.301923
     10          1           0       -1.481223    0.432726   -1.399129
     11          1           0       -1.403322    1.388403    0.072512
     12          6           0       -2.846192   -0.213221    0.149098
     13          1           0       -2.906213   -0.270618    1.243053
     14          1           0       -3.681827    0.405542   -0.197689
     15          1           0       -2.996731   -1.226889   -0.242561
     16          6           0        1.452038    1.379337    0.194904
     17          1           0        0.736890    2.147561   -0.117998
     18          1           0        1.487561    1.382710    1.292643
     19          1           0        2.441246    1.682004   -0.168912
 ---------------------------------------------------------------------
                    Distance matrix (angstroms):
                    1          2          3          4          5
     1  C    0.000000
     2  H    1.096650   0.000000
     3  H    1.098053   1.771285   0.000000
     4  H    1.096601   1.772620   1.770565   0.000000
     5  C    1.536182   2.189173   2.183881   2.187979   0.000000
     6  H    2.145451   2.496039   3.070446   2.498394   1.101475
     7  C    2.529366   2.769626   2.804513   3.493388   1.541724
     8  H    2.794951   3.150412   2.621371   3.803090   2.166122
     9  C    3.930265   4.178166   4.280490   4.766993   2.601013
    10  H    4.179161   4.327645   4.769031   4.880520   2.805076
    11  H    4.310329   4.793279   4.564228   5.033634   2.876204
    12  C    5.073856   5.134352   5.268725   6.029943   3.956018
    13  H    5.263755   5.392372   5.228531   6.270482   4.290016
    14  H    6.020865   6.117567   6.268806   6.918535   4.777298
    15  H    5.166347   4.990972   5.420255   6.157343   4.249861
    16  C    2.523967   3.488523   2.801008   2.761338   1.536564
    17  H    3.492016   4.350802   3.825751   3.761289   2.197755
    18  H    2.810271   3.823315   2.641021   3.150643   2.182791
    19  H    2.742355   3.752306   3.110328   2.524002   2.183435
                    6          7          8          9         10
     6  H    0.000000
     7  C    2.148055   0.000000
     8  H    3.058374   1.101380   0.000000
     9  C    2.785593   1.535027   2.164522   0.000000
    10  H    2.538619   2.162032   3.069727   1.099686   0.000000
    11  H    3.159007   2.171737   2.507267   1.097661   1.756449
    12  C    4.192098   2.555314   2.803360   1.532673   2.162729
    13  H    4.767923   2.822757   2.624166   2.183391   3.083247
    14  H    4.881826   3.510540   3.804823   2.186147   2.507360
    15  H    4.384938   2.822355   3.177088   2.183854   2.527595
    16  C    2.147225   2.560562   2.791116   3.160736   3.470019
    17  H    2.496859   2.843657   3.174316   2.867607   3.082528
    18  H    3.070788   2.821567   2.603392   3.536076   4.118469
    19  H    2.505316   3.513199   3.791369   4.157562   4.296498
                   11         12         13         14         15
    11  H    0.000000
    12  C    2.157067   0.000000
    13  H    2.526103   1.097103   0.000000
    14  H    2.496119   1.096091   1.770454   0.000000
    15  H    3.078632   1.097079   1.769095   1.770932   0.000000
    16  C    2.857996   4.584007   4.776538   5.240131   5.174489
    17  H    2.278842   4.299199   4.579547   4.750373   5.034119
    18  H    3.137827   4.757742   4.694806   5.467954   5.410705
    19  H    3.863313   5.625834   5.865296   6.254775   6.167550
                   16         17         18         19
    16  C    0.000000
    17  H    1.095223   0.000000
    18  H    1.098319   1.771556   0.000000
    19  H    1.096586   1.767531   1.770659   0.000000
 Stoichiometry    C6H13(2)
 Framework group  C1[X(C6H13)]
 Deg. of freedom    51
 Full point group                 C1      NOp   1
 Largest Abelian subgroup         C1      NOp   1
 Largest concise Abelian subgroup C1      NOp   1
                         Standard orientation:                         
 ---------------------------------------------------------------------
 Center     Atomic      Atomic             Coordinates (Angstroms)
 Number     Number       Type             X           Y           Z
 ---------------------------------------------------------------------
      1          6           0        2.155044   -1.058047    0.021186
      2          1           0        1.929264   -2.046404   -0.396922
      3          1           0        2.244287   -1.170137    1.109852
      4          1           0        3.134870   -0.747406   -0.360883
      5          6           0        1.066092   -0.035475   -0.337122
      6          1           0        1.018540    0.032592   -1.435463
      7          6           0       -0.311953   -0.517059    0.158843
      8          1           0       -0.300729   -0.560109    1.259325
      9          6           0       -1.509634    0.324719   -0.302976
     10          1           0       -1.492105    0.406686   -1.399463
     11          1           0       -1.419995    1.349119    0.080988
     12          6           0       -2.854331   -0.260817    0.142022
     13          1           0       -2.914557   -0.328644    1.235369
     14          1           0       -3.693095    0.356660   -0.199463
     15          1           0       -2.999274   -1.271609   -0.259066
     16          6           0        1.435315    1.354151    0.204768
     17          1           0        0.716223    2.121410   -0.101391
     18          1           0        1.470306    1.347565    1.302509
     19          1           0        2.423063    1.665440   -0.155724
 ---------------------------------------------------------------------
 Rotational constants (GHZ):      6.7993386      1.6925402      1.4659630
 Leave Link  202 at Sat Nov  7 01:59:33 2015, MaxMem=   805306368 cpu:         0.1
 (Enter /home/hetanjin/apps/g09D01/g09/l301.exe)
 Standard basis: 6-31G(d) (6D, 7F)
 Ernie: Thresh=  0.10000D-02 Tol=  0.10000D-05 Strict=F.
 There are   116 symmetry adapted cartesian basis functions of A   symmetry.
 There are   116 symmetry adapted basis functions of A   symmetry.
   116 basis functions,   220 primitive gaussians,   116 cartesian basis functions
    25 alpha electrons       24 beta electrons
       nuclear repulsion energy       241.1256305768 Hartrees.
 IExCor=  402 DFT=T Ex+Corr=B3LYP ExCW=0 ScaHFX=  0.200000
 ScaDFX=  0.800000  0.720000  1.000000  0.810000 ScalE2=  1.000000  1.000000
 IRadAn=      5 IRanWt=     -1 IRanGd=            0 ICorTp=0 IEmpDi=  4
 NAtoms=   19 NActive=   19 NUniq=   19 SFac= 1.00D+00 NAtFMM=   60 NAOKFM=F Big=F
 Integral buffers will be    131072 words long.
 Raffenetti 2 integral format.
 Two-electron integral symmetry is turned on.
 Leave Link  301 at Sat Nov  7 01:59:33 2015, MaxMem=   805306368 cpu:         0.3
 (Enter /home/hetanjin/apps/g09D01/g09/l302.exe)
 NPDir=0 NMtPBC=     1 NCelOv=     1 NCel=       1 NClECP=     1 NCelD=      1
         NCelK=      1 NCelE2=     1 NClLst=     1 CellRange=     0.0.
 One-electron integrals computed using PRISM.
 NBasis=   116 RedAO= T EigKep=  3.85D-03  NBF=   116
 NBsUse=   116 1.00D-06 EigRej= -1.00D+00 NBFU=   116
 Precomputing XC quadrature grid using
 IXCGrd= 4 IRadAn=           5 IRanWt=          -1 IRanGd=           0 AccXCQ= 0.00D+00.
 Generated NRdTot=       0 NPtTot=           0 NUsed=           0 NTot=          32
 NSgBfM=   116   116   116   116   116 MxSgAt=    19 MxSgA2=    19.
 Leave Link  302 at Sat Nov  7 01:59:34 2015, MaxMem=   805306368 cpu:         1.7
 (Enter /home/hetanjin/apps/g09D01/g09/l303.exe)
 DipDrv:  MaxL=1.
 Leave Link  303 at Sat Nov  7 01:59:34 2015, MaxMem=   805306368 cpu:         0.1
 (Enter /home/hetanjin/apps/g09D01/g09/l401.exe)
 ExpMin= 1.61D-01 ExpMax= 3.05D+03 ExpMxC= 4.57D+02 IAcc=3 IRadAn=         5 AccDes= 0.00D+00
 Harris functional with IExCor=  402 and IRadAn=       5 diagonalized for initial guess.
 HarFok:  IExCor=  402 AccDes= 0.00D+00 IRadAn=         5 IDoV= 1 UseB2=F ITyADJ=14
 ICtDFT=  3500011 ScaDFX=  1.000000  1.000000  1.000000  1.000000
 FoFCou: FMM=F IPFlag=           0 FMFlag=      100000 FMFlg1=           0
         NFxFlg=           0 DoJE=T BraDBF=F KetDBF=T FulRan=T
         wScrn=  0.000000 ICntrl=     500 IOpCl=  0 I1Cent=   200000004 NGrid=           0
         NMat0=    1 NMatS0=      1 NMatT0=    0 NMatD0=    1 NMtDS0=    0 NMtDT0=    0
 Petite list used in FoFCou.
 Harris En= -236.454253319041    
 JPrj=0 DoOrth=F DoCkMO=F.
 Initial guess <Sx>= 0.0000 <Sy>= 0.0000 <Sz>= 0.5000 <S**2>= 0.7500 S= 0.5000
 Leave Link  401 at Sat Nov  7 01:59:36 2015, MaxMem=   805306368 cpu:         8.3
 (Enter /home/hetanjin/apps/g09D01/g09/l502.exe)
 UHF open shell SCF:
 Using DIIS extrapolation, IDIIS=  1040.
 Integral symmetry usage will be decided dynamically.
 Keep R1 and R2 ints in memory in canonical form, NReq=47059932.
 IVT=       60514 IEndB=       60514 NGot=   805306368 MDV=   759189273
 LenX=   759189273 LenY=   759175376
 Requested convergence on RMS density matrix=1.00D-08 within 128 cycles.
 Requested convergence on MAX density matrix=1.00D-06.
 Requested convergence on             energy=1.00D-06.
 No special actions if energy rises.
 FoFCou: FMM=F IPFlag=           0 FMFlag=           0 FMFlg1=           0
         NFxFlg=           0 DoJE=F BraDBF=F KetDBF=F FulRan=T
         wScrn=  0.000000 ICntrl=     600 IOpCl=  0 I1Cent=           0 NGrid=           0
         NMat0=    1 NMatS0=   6786 NMatT0=    0 NMatD0=    1 NMtDS0=    0 NMtDT0=    0
 Symmetry not used in FoFCou.
 Integral accuracy reduced to 1.0D-05 until final iterations.

 Cycle   1  Pass 0  IDiag  1:
 E= -236.151532984191    
 DIIS: error= 5.31D-02 at cycle   1 NSaved=   1.
 NSaved= 1 IEnMin= 1 EnMin= -236.151532984191     IErMin= 1 ErrMin= 5.31D-02
 ErrMax= 5.31D-02  0.00D+00 EMaxC= 1.00D-01 BMatC= 9.12D-01 BMatP= 9.12D-01
 IDIUse=3 WtCom= 4.69D-01 WtEn= 5.31D-01
 Coeff-Com:  0.100D+01
 Coeff-En:   0.100D+01
 Coeff:      0.100D+01
 Gap=     0.265 Goal=   None    Shift=    0.000
 Gap=     0.258 Goal=   None    Shift=    0.000
 GapD=    0.258 DampG=1.000 DampE=0.500 DampFc=0.5000 IDamp=-1.
 Damping current iteration by 5.00D-01
 RMSDP=9.34D-03 MaxDP=1.37D-01              OVMax= 1.75D-01

 Cycle   2  Pass 0  IDiag  1:
 E= -236.267999426556     Delta-E=       -0.116466442364 Rises=F Damp=T
 DIIS: error= 8.26D-03 at cycle   2 NSaved=   2.
 NSaved= 2 IEnMin= 2 EnMin= -236.267999426556     IErMin= 2 ErrMin= 8.26D-03
 ErrMax= 8.26D-03  0.00D+00 EMaxC= 1.00D-01 BMatC= 3.63D-02 BMatP= 9.12D-01
 IDIUse=3 WtCom= 9.17D-01 WtEn= 8.26D-02
 Coeff-Com:  0.656D-01 0.934D+00
 Coeff-En:   0.103D+00 0.897D+00
 Coeff:      0.687D-01 0.931D+00
 Gap=     0.301 Goal=   None    Shift=    0.000
 Gap=     0.255 Goal=   None    Shift=    0.000
 RMSDP=1.39D-03 MaxDP=1.99D-02 DE=-1.16D-01 OVMax= 1.02D-01

 Cycle   3  Pass 0  IDiag  1:
 E= -236.407656961980     Delta-E=       -0.139657535424 Rises=F Damp=F
 DIIS: error= 1.65D-03 at cycle   3 NSaved=   3.
 NSaved= 3 IEnMin= 3 EnMin= -236.407656961980     IErMin= 3 ErrMin= 1.65D-03
 ErrMax= 1.65D-03  0.00D+00 EMaxC= 1.00D-01 BMatC= 3.07D-03 BMatP= 3.63D-02
 IDIUse=3 WtCom= 9.84D-01 WtEn= 1.65D-02
 Coeff-Com: -0.483D-02 0.153D+00 0.852D+00
 Coeff-En:   0.000D+00 0.000D+00 0.100D+01
 Coeff:     -0.475D-02 0.151D+00 0.854D+00
 Gap=     0.302 Goal=   None    Shift=    0.000
 Gap=     0.248 Goal=   None    Shift=    0.000
 RMSDP=3.93D-04 MaxDP=1.01D-02 DE=-1.40D-01 OVMax= 1.01D-02

 Cycle   4  Pass 0  IDiag  1:
 E= -236.408099285059     Delta-E=       -0.000442323079 Rises=F Damp=F
 DIIS: error= 1.23D-03 at cycle   4 NSaved=   4.
 NSaved= 4 IEnMin= 4 EnMin= -236.408099285059     IErMin= 4 ErrMin= 1.23D-03
 ErrMax= 1.23D-03  0.00D+00 EMaxC= 1.00D-01 BMatC= 1.41D-03 BMatP= 3.07D-03
 IDIUse=3 WtCom= 9.88D-01 WtEn= 1.23D-02
 Coeff-Com: -0.453D-02 0.251D-01 0.413D+00 0.566D+00
 Coeff-En:   0.000D+00 0.000D+00 0.268D+00 0.732D+00
 Coeff:     -0.448D-02 0.248D-01 0.412D+00 0.568D+00
 Gap=     0.299 Goal=   None    Shift=    0.000
 Gap=     0.252 Goal=   None    Shift=    0.000
 RMSDP=1.70D-04 MaxDP=4.63D-03 DE=-4.42D-04 OVMax= 5.40D-03

 Cycle   5  Pass 0  IDiag  1:
 E= -236.408434610282     Delta-E=       -0.000335325223 Rises=F Damp=F
 DIIS: error= 3.08D-04 at cycle   5 NSaved=   5.
 NSaved= 5 IEnMin= 5 EnMin= -236.408434610282     IErMin= 5 ErrMin= 3.08D-04
 ErrMax= 3.08D-04  0.00D+00 EMaxC= 1.00D-01 BMatC= 7.02D-05 BMatP= 1.41D-03
 IDIUse=3 WtCom= 9.97D-01 WtEn= 3.08D-03
 Coeff-Com: -0.109D-02-0.395D-02 0.855D-01 0.226D+00 0.693D+00
 Coeff-En:   0.000D+00 0.000D+00 0.000D+00 0.000D+00 0.100D+01
 Coeff:     -0.109D-02-0.394D-02 0.852D-01 0.225D+00 0.694D+00
 Gap=     0.301 Goal=   None    Shift=    0.000
 Gap=     0.252 Goal=   None    Shift=    0.000
 RMSDP=4.49D-05 MaxDP=1.01D-03 DE=-3.35D-04 OVMax= 1.39D-03

 Cycle   6  Pass 0  IDiag  1:
 E= -236.408453273269     Delta-E=       -0.000018662987 Rises=F Damp=F
 DIIS: error= 5.35D-05 at cycle   6 NSaved=   6.
 NSaved= 6 IEnMin= 6 EnMin= -236.408453273269     IErMin= 6 ErrMin= 5.35D-05
 ErrMax= 5.35D-05  0.00D+00 EMaxC= 1.00D-01 BMatC= 2.83D-06 BMatP= 7.02D-05
 IDIUse=1 WtCom= 1.00D+00 WtEn= 0.00D+00
 Coeff-Com:  0.681D-04-0.231D-02-0.144D-01-0.416D-03 0.109D+00 0.908D+00
 Coeff:      0.681D-04-0.231D-02-0.144D-01-0.416D-03 0.109D+00 0.908D+00
 Gap=     0.301 Goal=   None    Shift=    0.000
 Gap=     0.252 Goal=   None    Shift=    0.000
 RMSDP=1.44D-05 MaxDP=3.52D-04 DE=-1.87D-05 OVMax= 4.26D-04

 Cycle   7  Pass 0  IDiag  1:
 E= -236.408454398468     Delta-E=       -0.000001125198 Rises=F Damp=F
 DIIS: error= 3.41D-05 at cycle   7 NSaved=   7.
 NSaved= 7 IEnMin= 7 EnMin= -236.408454398468     IErMin= 7 ErrMin= 3.41D-05
 ErrMax= 3.41D-05  0.00D+00 EMaxC= 1.00D-01 BMatC= 1.04D-06 BMatP= 2.83D-06
 IDIUse=1 WtCom= 1.00D+00 WtEn= 0.00D+00
 Coeff-Com:  0.182D-03-0.207D-03-0.210D-01-0.398D-01-0.790D-01 0.402D+00
 Coeff-Com:  0.738D+00
 Coeff:      0.182D-03-0.207D-03-0.210D-01-0.398D-01-0.790D-01 0.402D+00
 Coeff:      0.738D+00
 Gap=     0.301 Goal=   None    Shift=    0.000
 Gap=     0.252 Goal=   None    Shift=    0.000
 RMSDP=6.08D-06 MaxDP=1.60D-04 DE=-1.13D-06 OVMax= 1.95D-04

 Initial convergence to 1.0D-05 achieved.  Increase integral accuracy.
 Cycle   8  Pass 1  IDiag  1:
 E= -236.408450238157     Delta-E=        0.000004160311 Rises=F Damp=F
 DIIS: error= 9.26D-06 at cycle   1 NSaved=   1.
 NSaved= 1 IEnMin= 1 EnMin= -236.408450238157     IErMin= 1 ErrMin= 9.26D-06
 ErrMax= 9.26D-06  0.00D+00 EMaxC= 1.00D-01 BMatC= 1.01D-07 BMatP= 1.01D-07
 IDIUse=1 WtCom= 1.00D+00 WtEn= 0.00D+00
 Coeff-Com:  0.100D+01
 Coeff:      0.100D+01
 Gap=     0.301 Goal=   None    Shift=    0.000
 Gap=     0.252 Goal=   None    Shift=    0.000
 RMSDP=6.08D-06 MaxDP=1.60D-04 DE= 4.16D-06 OVMax= 8.35D-05

 Cycle   9  Pass 1  IDiag  1:
 E= -236.408450246570     Delta-E=       -0.000000008413 Rises=F Damp=F
 DIIS: error= 9.63D-06 at cycle   2 NSaved=   2.
 NSaved= 2 IEnMin= 2 EnMin= -236.408450246570     IErMin= 1 ErrMin= 9.26D-06
 ErrMax= 9.63D-06  0.00D+00 EMaxC= 1.00D-01 BMatC= 1.06D-07 BMatP= 1.01D-07
 IDIUse=1 WtCom= 1.00D+00 WtEn= 0.00D+00
 Coeff-Com:  0.507D+00 0.493D+00
 Coeff:      0.507D+00 0.493D+00
 Gap=     0.301 Goal=   None    Shift=    0.000
 Gap=     0.252 Goal=   None    Shift=    0.000
 RMSDP=1.53D-06 MaxDP=3.06D-05 DE=-8.41D-09 OVMax= 3.78D-05

 Cycle  10  Pass 1  IDiag  1:
 E= -236.408450273794     Delta-E=       -0.000000027224 Rises=F Damp=F
 DIIS: error= 1.88D-06 at cycle   3 NSaved=   3.
 NSaved= 3 IEnMin= 3 EnMin= -236.408450273794     IErMin= 3 ErrMin= 1.88D-06
 ErrMax= 1.88D-06  0.00D+00 EMaxC= 1.00D-01 BMatC= 2.92D-09 BMatP= 1.01D-07
 IDIUse=1 WtCom= 1.00D+00 WtEn= 0.00D+00
 Coeff-Com: -0.343D-01 0.642D-01 0.970D+00
 Coeff:     -0.343D-01 0.642D-01 0.970D+00
 Gap=     0.301 Goal=   None    Shift=    0.000
 Gap=     0.252 Goal=   None    Shift=    0.000
 RMSDP=4.48D-07 MaxDP=1.21D-05 DE=-2.72D-08 OVMax= 1.51D-05

 Cycle  11  Pass 1  IDiag  1:
 E= -236.408450275080     Delta-E=       -0.000000001286 Rises=F Damp=F
 DIIS: error= 9.20D-07 at cycle   4 NSaved=   4.
 NSaved= 4 IEnMin= 4 EnMin= -236.408450275080     IErMin= 4 ErrMin= 9.20D-07
 ErrMax= 9.20D-07  0.00D+00 EMaxC= 1.00D-01 BMatC= 7.70D-10 BMatP= 2.92D-09
 IDIUse=1 WtCom= 1.00D+00 WtEn= 0.00D+00
 Coeff-Com: -0.110D+00-0.709D-01 0.354D+00 0.827D+00
 Coeff:     -0.110D+00-0.709D-01 0.354D+00 0.827D+00
 Gap=     0.301 Goal=   None    Shift=    0.000
 Gap=     0.252 Goal=   None    Shift=    0.000
 RMSDP=2.30D-07 MaxDP=5.31D-06 DE=-1.29D-09 OVMax= 7.61D-06

 Cycle  12  Pass 1  IDiag  1:
 E= -236.408450275394     Delta-E=       -0.000000000315 Rises=F Damp=F
 DIIS: error= 4.39D-07 at cycle   5 NSaved=   5.
 NSaved= 5 IEnMin= 5 EnMin= -236.408450275394     IErMin= 5 ErrMin= 4.39D-07
 ErrMax= 4.39D-07  0.00D+00 EMaxC= 1.00D-01 BMatC= 9.41D-11 BMatP= 7.70D-10
 IDIUse=1 WtCom= 1.00D+00 WtEn= 0.00D+00
 Coeff-Com: -0.404D-01-0.347D-01 0.476D-01 0.322D+00 0.705D+00
 Coeff:     -0.404D-01-0.347D-01 0.476D-01 0.322D+00 0.705D+00
 Gap=     0.301 Goal=   None    Shift=    0.000
 Gap=     0.252 Goal=   None    Shift=    0.000
 RMSDP=5.88D-08 MaxDP=1.89D-06 DE=-3.15D-10 OVMax= 2.11D-06

 Cycle  13  Pass 1  IDiag  1:
 E= -236.408450275420     Delta-E=       -0.000000000026 Rises=F Damp=F
 DIIS: error= 1.63D-07 at cycle   6 NSaved=   6.
 NSaved= 6 IEnMin= 6 EnMin= -236.408450275420     IErMin= 6 ErrMin= 1.63D-07
 ErrMax= 1.63D-07  0.00D+00 EMaxC= 1.00D-01 BMatC= 1.36D-11 BMatP= 9.41D-11
 IDIUse=1 WtCom= 1.00D+00 WtEn= 0.00D+00
 Coeff-Com:  0.368D-02-0.135D-02-0.446D-01-0.192D-01 0.289D+00 0.773D+00
 Coeff:      0.368D-02-0.135D-02-0.446D-01-0.192D-01 0.289D+00 0.773D+00
 Gap=     0.301 Goal=   None    Shift=    0.000
 Gap=     0.252 Goal=   None    Shift=    0.000
 RMSDP=2.18D-08 MaxDP=6.51D-07 DE=-2.60D-11 OVMax= 8.15D-07

 Cycle  14  Pass 1  IDiag  1:
 E= -236.408450275425     Delta-E=       -0.000000000004 Rises=F Damp=F
 DIIS: error= 2.56D-08 at cycle   7 NSaved=   7.
 NSaved= 7 IEnMin= 7 EnMin= -236.408450275425     IErMin= 7 ErrMin= 2.56D-08
 ErrMax= 2.56D-08  0.00D+00 EMaxC= 1.00D-01 BMatC= 3.77D-13 BMatP= 1.36D-11
 IDIUse=1 WtCom= 1.00D+00 WtEn= 0.00D+00
 Coeff-Com:  0.245D-02 0.929D-03-0.134D-01-0.175D-01 0.486D-01 0.206D+00
 Coeff-Com:  0.773D+00
 Coeff:      0.245D-02 0.929D-03-0.134D-01-0.175D-01 0.486D-01 0.206D+00
 Coeff:      0.773D+00
 Gap=     0.301 Goal=   None    Shift=    0.000
 Gap=     0.252 Goal=   None    Shift=    0.000
 RMSDP=4.38D-09 MaxDP=8.85D-08 DE=-4.49D-12 OVMax= 1.22D-07

 SCF Done:  E(UB3LYP) =  -236.408450275     A.U. after   14 cycles
            NFock= 14  Conv=0.44D-08     -V/T= 2.0105
 <Sx>= 0.0000 <Sy>= 0.0000 <Sz>= 0.5000 <S**2>= 0.7529 S= 0.5014
 <L.S>= 0.000000000000E+00
 KE= 2.339514111123D+02 PE=-1.027826104657D+03 EE= 3.163406126926D+02
 Annihilation of the first spin contaminant:
 S**2 before annihilation     0.7529,   after     0.7500
 Leave Link  502 at Sat Nov  7 02:00:17 2015, MaxMem=   805306368 cpu:       151.6
 (Enter /home/hetanjin/apps/g09D01/g09/l601.exe)
 Copying SCF densities to generalized density rwf, IOpCl= 1 IROHF=0.

 **********************************************************************

            Population analysis using the SCF density.

 **********************************************************************

 Orbital symmetries:
 Alpha Orbitals:
       Occupied  (A) (A) (A) (A) (A) (A) (A) (A) (A) (A) (A) (A)
                 (A) (A) (A) (A) (A) (A) (A) (A) (A) (A) (A) (A)
                 (A)
       Virtual   (A) (A) (A) (A) (A) (A) (A) (A) (A) (A) (A) (A)
                 (A) (A) (A) (A) (A) (A) (A) (A) (A) (A) (A) (A)
                 (A) (A) (A) (A) (A) (A) (A) (A) (A) (A) (A) (A)
                 (A) (A) (A) (A) (A) (A) (A) (A) (A) (A) (A) (A)
                 (A) (A) (A) (A) (A) (A) (A) (A) (A) (A) (A) (A)
                 (A) (A) (A) (A) (A) (A) (A) (A) (A) (A) (A) (A)
                 (A) (A) (A) (A) (A) (A) (A) (A) (A) (A) (A) (A)
                 (A) (A) (A) (A) (A) (A) (A)
 Beta  Orbitals:
       Occupied  (A) (A) (A) (A) (A) (A) (A) (A) (A) (A) (A) (A)
                 (A) (A) (A) (A) (A) (A) (A) (A) (A) (A) (A) (A)
       Virtual   (A) (A) (A) (A) (A) (A) (A) (A) (A) (A) (A) (A)
                 (A) (A) (A) (A) (A) (A) (A) (A) (A) (A) (A) (A)
                 (A) (A) (A) (A) (A) (A) (A) (A) (A) (A) (A) (A)
                 (A) (A) (A) (A) (A) (A) (A) (A) (A) (A) (A) (A)
                 (A) (A) (A) (A) (A) (A) (A) (A) (A) (A) (A) (A)
                 (A) (A) (A) (A) (A) (A) (A) (A) (A) (A) (A) (A)
                 (A) (A) (A) (A) (A) (A) (A) (A) (A) (A) (A) (A)
                 (A) (A) (A) (A) (A) (A) (A) (A)
 The electronic state is 2-A.
 Alpha  occ. eigenvalues --  -10.19165 -10.18772 -10.18156 -10.17535 -10.17092
 Alpha  occ. eigenvalues --  -10.16862  -0.80685  -0.75777  -0.67896  -0.66540
 Alpha  occ. eigenvalues --   -0.58826  -0.54775  -0.45511  -0.44178  -0.43673
 Alpha  occ. eigenvalues --   -0.40698  -0.39357  -0.38007  -0.37510  -0.35403
 Alpha  occ. eigenvalues --   -0.34162  -0.33267  -0.31688  -0.30864  -0.20978
 Alpha virt. eigenvalues --    0.09101   0.11204   0.12236   0.13848   0.15287
 Alpha virt. eigenvalues --    0.16077   0.16830   0.17203   0.18378   0.19034
 Alpha virt. eigenvalues --    0.19673   0.19808   0.21754   0.23070   0.25037
 Alpha virt. eigenvalues --    0.26622   0.27229   0.28633   0.49462   0.51300
 Alpha virt. eigenvalues --    0.52195   0.52388   0.54893   0.55481   0.57006
 Alpha virt. eigenvalues --    0.60325   0.63682   0.66227   0.69179   0.71657
 Alpha virt. eigenvalues --    0.72050   0.74168   0.77808   0.81669   0.82536
 Alpha virt. eigenvalues --    0.87124   0.87757   0.89633   0.90243   0.90410
 Alpha virt. eigenvalues --    0.91608   0.92034   0.94607   0.95097   0.96480
 Alpha virt. eigenvalues --    0.96870   0.97979   1.00578   1.01881   1.03317
 Alpha virt. eigenvalues --    1.23384   1.31299   1.40522   1.43239   1.44549
 Alpha virt. eigenvalues --    1.54584   1.59120   1.61138   1.72283   1.73645
 Alpha virt. eigenvalues --    1.79218   1.83695   1.90612   1.93042   1.95289
 Alpha virt. eigenvalues --    1.97440   1.99603   2.01340   2.02540   2.09699
 Alpha virt. eigenvalues --    2.13539   2.15572   2.20606   2.24244   2.25949
 Alpha virt. eigenvalues --    2.33016   2.34211   2.35772   2.44287   2.50711
 Alpha virt. eigenvalues --    2.51582   2.58630   2.68172   2.76349   2.79701
 Alpha virt. eigenvalues --    4.09977   4.21181   4.26600   4.30298   4.45770
 Alpha virt. eigenvalues --    4.57042
  Beta  occ. eigenvalues --  -10.18800 -10.18187 -10.17748 -10.17433 -10.17070
  Beta  occ. eigenvalues --  -10.16836  -0.79830  -0.75521  -0.67743  -0.65327
  Beta  occ. eigenvalues --   -0.58448  -0.53815  -0.44750  -0.43887  -0.43449
  Beta  occ. eigenvalues --   -0.40177  -0.39145  -0.37925  -0.37146  -0.34985
  Beta  occ. eigenvalues --   -0.33737  -0.33049  -0.31330  -0.30308
  Beta virt. eigenvalues --   -0.05094   0.09268   0.11348   0.12470   0.13958
  Beta virt. eigenvalues --    0.15504   0.16230   0.17042   0.17413   0.18533
  Beta virt. eigenvalues --    0.19168   0.19870   0.20054   0.22077   0.23530
  Beta virt. eigenvalues --    0.25411   0.27256   0.28184   0.29635   0.49611
  Beta virt. eigenvalues --    0.51766   0.52629   0.52758   0.55689   0.56286
  Beta virt. eigenvalues --    0.58540   0.62004   0.64745   0.66651   0.69448
  Beta virt. eigenvalues --    0.72173   0.72706   0.74660   0.78848   0.82327
  Beta virt. eigenvalues --    0.82896   0.87352   0.88052   0.89707   0.90337
  Beta virt. eigenvalues --    0.90464   0.92101   0.92303   0.95193   0.95446
  Beta virt. eigenvalues --    0.96716   0.96911   0.98274   1.00886   1.02583
  Beta virt. eigenvalues --    1.03642   1.23989   1.32238   1.41349   1.44167
  Beta virt. eigenvalues --    1.44823   1.54779   1.60157   1.61775   1.73227
  Beta virt. eigenvalues --    1.75049   1.79630   1.85135   1.90958   1.93634
  Beta virt. eigenvalues --    1.96447   1.97968   2.00798   2.01898   2.03895
  Beta virt. eigenvalues --    2.09947   2.15005   2.18269   2.21244   2.24477
  Beta virt. eigenvalues --    2.26085   2.33283   2.34689   2.36489   2.45031
  Beta virt. eigenvalues --    2.51483   2.51855   2.59510   2.69168   2.76945
  Beta virt. eigenvalues --    2.80924   4.11006   4.21263   4.27401   4.31264
  Beta virt. eigenvalues --    4.46249   4.57625
          Condensed to atoms (all electrons):
               1          2          3          4          5          6
     1  C    5.108578   0.371114   0.372176   0.365476   0.373618  -0.045272
     2  H    0.371114   0.572051  -0.030747  -0.030232  -0.029571  -0.003345
     3  H    0.372176  -0.030747   0.584616  -0.032575  -0.034214   0.005790
     4  H    0.365476  -0.030232  -0.032575   0.588848  -0.029237  -0.003505
     5  C    0.373618  -0.029571  -0.034214  -0.029237   4.880956   0.374391
     6  H   -0.045272  -0.003345   0.005790  -0.003505   0.374391   0.638977
     7  C   -0.046767   0.000388  -0.006212   0.004641   0.383381  -0.047957
     8  H   -0.004645  -0.000230   0.004940  -0.000097  -0.052273   0.006807
     9  C    0.003979   0.000006   0.000023  -0.000151  -0.039032  -0.006752
    10  H    0.000066  -0.000007   0.000009  -0.000002  -0.005044   0.006409
    11  H    0.000000   0.000003   0.000001   0.000006  -0.002891  -0.000224
    12  C   -0.000129  -0.000003   0.000000   0.000002   0.003478   0.000030
    13  H    0.000001   0.000000  -0.000001   0.000000   0.000062   0.000009
    14  H    0.000002   0.000000   0.000000   0.000000  -0.000131  -0.000001
    15  H   -0.000005   0.000001   0.000000   0.000000  -0.000003   0.000000
    16  C   -0.054539   0.005314  -0.005471  -0.003198   0.367922  -0.048731
    17  H    0.005156  -0.000180  -0.000041  -0.000031  -0.029927  -0.003495
    18  H   -0.005088  -0.000053   0.004914  -0.000242  -0.034640   0.005984
    19  H   -0.004385  -0.000039  -0.000234   0.004160  -0.028251  -0.003112
               7          8          9         10         11         12
     1  C   -0.046767  -0.004645   0.003979   0.000066   0.000000  -0.000129
     2  H    0.000388  -0.000230   0.000006  -0.000007   0.000003  -0.000003
     3  H   -0.006212   0.004940   0.000023   0.000009   0.000001   0.000000
     4  H    0.004641  -0.000097  -0.000151  -0.000002   0.000006   0.000002
     5  C    0.383381  -0.052273  -0.039032  -0.005044  -0.002891   0.003478
     6  H   -0.047957   0.006807  -0.006752   0.006409  -0.000224   0.000030
     7  C    5.258588   0.345777   0.371634  -0.042287  -0.037231  -0.042306
     8  H    0.345777   0.642290  -0.055480   0.006183  -0.003227  -0.003230
     9  C    0.371634  -0.055480   5.005725   0.372181   0.365551   0.365896
    10  H   -0.042287   0.006183   0.372181   0.607280  -0.040639  -0.037666
    11  H   -0.037231  -0.003227   0.365551  -0.040639   0.607220  -0.039491
    12  C   -0.042306  -0.003230   0.365896  -0.037666  -0.039491   5.068558
    13  H   -0.004618   0.004728  -0.035102   0.005185  -0.004451   0.377988
    14  H    0.004081  -0.000065  -0.028249  -0.002872  -0.001987   0.368456
    15  H   -0.000250  -0.000279  -0.034331  -0.004526   0.005241   0.378407
    16  C   -0.048284  -0.005689  -0.002448  -0.000521   0.001751   0.000132
    17  H   -0.004936  -0.000052   0.001833   0.000419   0.003446  -0.000098
    18  H   -0.005111   0.005997  -0.000333   0.000089   0.000221  -0.000027
    19  H    0.004891  -0.000130   0.000065  -0.000034  -0.000074   0.000000
              13         14         15         16         17         18
     1  C    0.000001   0.000002  -0.000005  -0.054539   0.005156  -0.005088
     2  H    0.000000   0.000000   0.000001   0.005314  -0.000180  -0.000053
     3  H   -0.000001   0.000000   0.000000  -0.005471  -0.000041   0.004914
     4  H    0.000000   0.000000   0.000000  -0.003198  -0.000031  -0.000242
     5  C    0.000062  -0.000131  -0.000003   0.367922  -0.029927  -0.034640
     6  H    0.000009  -0.000001   0.000000  -0.048731  -0.003495   0.005984
     7  C   -0.004618   0.004081  -0.000250  -0.048284  -0.004936  -0.005111
     8  H    0.004728  -0.000065  -0.000279  -0.005689  -0.000052   0.005997
     9  C   -0.035102  -0.028249  -0.034331  -0.002448   0.001833  -0.000333
    10  H    0.005185  -0.002872  -0.004526  -0.000521   0.000419   0.000089
    11  H   -0.004451  -0.001987   0.005241   0.001751   0.003446   0.000221
    12  C    0.377988   0.368456   0.378407   0.000132  -0.000098  -0.000027
    13  H    0.579157  -0.031966  -0.031926  -0.000012   0.000008   0.000002
    14  H   -0.031966   0.584791  -0.030967   0.000005   0.000006   0.000000
    15  H   -0.031926  -0.030967   0.570262   0.000002   0.000001   0.000000
    16  C   -0.000012   0.000005   0.000002   5.130736   0.370892   0.369294
    17  H    0.000008   0.000006   0.000001   0.370892   0.573072  -0.031734
    18  H    0.000002   0.000000   0.000000   0.369294  -0.031734   0.581233
    19  H    0.000000   0.000000   0.000000   0.366935  -0.030671  -0.030982
              19
     1  C   -0.004385
     2  H   -0.000039
     3  H   -0.000234
     4  H    0.004160
     5  C   -0.028251
     6  H   -0.003112
     7  C    0.004891
     8  H   -0.000130
     9  C    0.000065
    10  H   -0.000034
    11  H   -0.000074
    12  C    0.000000
    13  H    0.000000
    14  H    0.000000
    15  H    0.000000
    16  C    0.366935
    17  H   -0.030671
    18  H   -0.030982
    19  H    0.576330
          Atomic-Atomic Spin Densities.
               1          2          3          4          5          6
     1  C    0.015800  -0.004024   0.000069  -0.002076   0.009072   0.002118
     2  H   -0.004024   0.001276  -0.000003   0.001162  -0.001294  -0.000503
     3  H    0.000069  -0.000003  -0.000929   0.000038   0.000658  -0.000005
     4  H   -0.002076   0.001162   0.000038   0.001021  -0.000363  -0.000308
     5  C    0.009072  -0.001294   0.000658  -0.000363  -0.042592   0.004813
     6  H    0.002118  -0.000503  -0.000005  -0.000308   0.004813   0.005982
     7  C   -0.009791   0.004378  -0.000205   0.000363  -0.024479  -0.004420
     8  H    0.001066  -0.000283  -0.000020  -0.000065   0.005578   0.000138
     9  C    0.000184  -0.000070   0.000013  -0.000006   0.001574   0.001117
    10  H    0.000051  -0.000016   0.000000  -0.000003   0.000927   0.000480
    11  H   -0.000070   0.000014  -0.000003   0.000005  -0.000958  -0.000585
    12  C    0.000004  -0.000002   0.000000   0.000000   0.000067   0.000036
    13  H    0.000000   0.000000   0.000000   0.000000   0.000014   0.000000
    14  H    0.000000   0.000000   0.000000   0.000000  -0.000002  -0.000002
    15  H   -0.000003   0.000003   0.000000   0.000000  -0.000035  -0.000012
    16  C   -0.005317   0.000669  -0.000284   0.001640   0.000319  -0.005756
    17  H   -0.000030   0.000001   0.000000   0.000001   0.001118  -0.000052
    18  H    0.000113  -0.000016  -0.000014  -0.000032   0.000561   0.000049
    19  H    0.000794  -0.000086   0.000057  -0.000826   0.000007   0.000994
               7          8          9         10         11         12
     1  C   -0.009791   0.001066   0.000184   0.000051  -0.000070   0.000004
     2  H    0.004378  -0.000283  -0.000070  -0.000016   0.000014  -0.000002
     3  H   -0.000205  -0.000020   0.000013   0.000000  -0.000003   0.000000
     4  H    0.000363  -0.000065  -0.000006  -0.000003   0.000005   0.000000
     5  C   -0.024479   0.005578   0.001574   0.000927  -0.000958   0.000067
     6  H   -0.004420   0.000138   0.001117   0.000480  -0.000585   0.000036
     7  C    1.132321  -0.015598  -0.029667  -0.005497  -0.022384  -0.008860
     8  H   -0.015598  -0.021677   0.007269   0.000234  -0.003363   0.000876
     9  C   -0.029667   0.007269  -0.042171   0.005760  -0.000305   0.009098
    10  H   -0.005497   0.000234   0.005760   0.010501  -0.008431   0.003238
    11  H   -0.022384  -0.003363  -0.000305  -0.008431   0.088913  -0.006460
    12  C   -0.008860   0.000876   0.009098   0.003238  -0.006460   0.016603
    13  H   -0.000347   0.000068   0.000819   0.000039  -0.000585   0.000373
    14  H    0.000335  -0.000065   0.000000  -0.000419   0.001546  -0.002628
    15  H    0.005031  -0.000331  -0.001612  -0.000818   0.000931  -0.005683
    16  C   -0.023487  -0.002994  -0.001799  -0.000612   0.003596  -0.000041
    17  H   -0.000394  -0.000031   0.000014  -0.000008   0.000110   0.000000
    18  H    0.000947   0.000139   0.000060   0.000007  -0.000217   0.000001
    19  H    0.001616   0.000136   0.000039   0.000032  -0.000253   0.000001
              13         14         15         16         17         18
     1  C    0.000000   0.000000  -0.000003  -0.005317  -0.000030   0.000113
     2  H    0.000000   0.000000   0.000003   0.000669   0.000001  -0.000016
     3  H    0.000000   0.000000   0.000000  -0.000284   0.000000  -0.000014
     4  H    0.000000   0.000000   0.000000   0.001640   0.000001  -0.000032
     5  C    0.000014  -0.000002  -0.000035   0.000319   0.001118   0.000561
     6  H    0.000000  -0.000002  -0.000012  -0.005756  -0.000052   0.000049
     7  C   -0.000347   0.000335   0.005031  -0.023487  -0.000394   0.000947
     8  H    0.000068  -0.000065  -0.000331  -0.002994  -0.000031   0.000139
     9  C    0.000819   0.000000  -0.001612  -0.001799   0.000014   0.000060
    10  H    0.000039  -0.000419  -0.000818  -0.000612  -0.000008   0.000007
    11  H   -0.000585   0.001546   0.000931   0.003596   0.000110  -0.000217
    12  C    0.000373  -0.002628  -0.005683  -0.000041   0.000000   0.000001
    13  H   -0.000732  -0.000055  -0.000297  -0.000005   0.000000   0.000000
    14  H   -0.000055   0.000119   0.001384   0.000004   0.000000   0.000000
    15  H   -0.000297   0.001384   0.003580   0.000010   0.000000   0.000000
    16  C   -0.000005   0.000004   0.000010   0.086073  -0.000172  -0.001945
    17  H    0.000000   0.000000   0.000000  -0.000172  -0.002885   0.000236
    18  H    0.000000   0.000000   0.000000  -0.001945   0.000236  -0.001952
    19  H    0.000000   0.000000   0.000000  -0.010741  -0.000165   0.000786
              19
     1  C    0.000794
     2  H   -0.000086
     3  H    0.000057
     4  H   -0.000826
     5  C    0.000007
     6  H    0.000994
     7  C    0.001616
     8  H    0.000136
     9  C    0.000039
    10  H    0.000032
    11  H   -0.000253
    12  C    0.000001
    13  H    0.000000
    14  H    0.000000
    15  H    0.000000
    16  C   -0.010741
    17  H   -0.000165
    18  H    0.000786
    19  H    0.017340
 Mulliken charges and spin densities:
               1          2
     1  C   -0.439337   0.007960
     2  H    0.145530   0.001205
     3  H    0.137023  -0.000631
     4  H    0.136135   0.000549
     5  C   -0.098594  -0.045016
     6  H    0.123997   0.004082
     7  C   -0.087422   0.999862
     8  H    0.108676  -0.028924
     9  C   -0.285017  -0.049685
    10  H    0.135777   0.005466
    11  H    0.146774   0.051501
    12  C   -0.439996   0.006623
    13  H    0.140936  -0.000708
    14  H    0.138899   0.000217
    15  H    0.148372   0.002147
    16  C   -0.444090   0.039156
    17  H    0.146330  -0.002257
    18  H    0.140475  -0.001277
    19  H    0.145532   0.009729
 Sum of Mulliken charges =   0.00000   1.00000
 Mulliken charges and spin densities with hydrogens summed into heavy atoms:
               1          2
     1  C   -0.020649   0.009083
     5  C    0.025403  -0.040934
     7  C    0.021254   0.970938
     9  C   -0.002467   0.007283
    12  C   -0.011790   0.008279
    16  C   -0.011753   0.045351
 Electronic spatial extent (au):  <R**2>=            897.5029
 Charge=              0.0000 electrons
 Dipole moment (field-independent basis, Debye):
    X=              0.0868    Y=              0.5947    Z=              0.0069  Tot=              0.6011
 Quadrupole moment (field-independent basis, Debye-Ang):
   XX=            -40.8913   YY=            -41.4898   ZZ=            -40.2138
   XY=             -0.2124   XZ=             -0.0614   YZ=              0.0241
 Traceless Quadrupole moment (field-independent basis, Debye-Ang):
   XX=             -0.0263   YY=             -0.6248   ZZ=              0.6512
   XY=             -0.2124   XZ=             -0.0614   YZ=              0.0241
 Octapole moment (field-independent basis, Debye-Ang**2):
  XXX=              1.6581  YYY=              1.2939  ZZZ=              0.7985  XYY=             -0.8081
  XXY=              2.2243  XXZ=             -1.5580  XZZ=             -0.0130  YZZ=              0.0081
  YYZ=             -0.9857  XYZ=             -0.2760
 Hexadecapole moment (field-independent basis, Debye-Ang**3):
 XXXX=           -911.0395 YYYY=           -238.6158 ZZZZ=            -95.6157 XXXY=              1.4631
 XXXZ=             -0.8334 YYYX=             -1.4096 YYYZ=              1.4109 ZZZX=              0.4586
 ZZZY=             -0.3468 XXYY=           -191.7799 XXZZ=           -167.2194 YYZZ=            -57.2761
 XXYZ=             -0.5523 YYXZ=             -0.2866 ZZXY=             -0.1371
 N-N= 2.411256305768D+02 E-N=-1.027826108319D+03  KE= 2.339514111123D+02
                          Isotropic Fermi Contact Couplings
        Atom                 a.u.       MegaHertz       Gauss      10(-4) cm-1
     1  C(13)              0.01161      13.05149       4.65710       4.35351
     2  H(1)              -0.00019      -0.86745      -0.30953      -0.28935
     3  H(1)              -0.00026      -1.14399      -0.40820      -0.38159
     4  H(1)               0.00009       0.40542       0.14466       0.13523
     5  C(13)             -0.00806      -9.06333      -3.23402      -3.02320
     6  H(1)               0.00231      10.30368       3.67661       3.43694
     7  C(13)              0.29242     328.73251     117.29993     109.65336
     8  H(1)              -0.00355     -15.88779      -5.66916      -5.29960
     9  C(13)             -0.00833      -9.36420      -3.34138      -3.12356
    10  H(1)               0.00347      15.51414       5.53583       5.17496
    11  H(1)               0.02315     103.48888      36.92740      34.52018
    12  C(13)              0.01127      12.66878       4.52054       4.22585
    13  H(1)              -0.00025      -1.10855      -0.39556      -0.36977
    14  H(1)              -0.00035      -1.55936      -0.55642      -0.52015
    15  H(1)              -0.00028      -1.25859      -0.44909      -0.41982
    16  C(13)              0.03823      42.97715      15.33532      14.33564
    17  H(1)              -0.00075      -3.33480      -1.18994      -1.11237
    18  H(1)              -0.00047      -2.11955      -0.75631      -0.70700
    19  H(1)               0.00354      15.80818       5.64075       5.27304
 --------------------------------------------------------
       Center         ----  Spin Dipole Couplings  ----
                      3XX-RR        3YY-RR        3ZZ-RR
 --------------------------------------------------------
     1   Atom        0.021990     -0.010865     -0.011126
     2   Atom        0.008726     -0.001127     -0.007600
     3   Atom        0.007668     -0.004857     -0.002811
     4   Atom        0.006370     -0.002986     -0.003384
     5   Atom        0.015936      0.004048     -0.019985
     6   Atom        0.000751     -0.005165      0.004415
     7   Atom       -0.454509      0.761398     -0.306889
     8   Atom       -0.057353     -0.013612      0.070965
     9   Atom        0.002660      0.017526     -0.020186
    10   Atom       -0.002976     -0.001044      0.004020
    11   Atom       -0.001072      0.009332     -0.008260
    12   Atom        0.018401     -0.009554     -0.008847
    13   Atom        0.007009     -0.004659     -0.002350
    14   Atom        0.005758     -0.002178     -0.003580
    15   Atom        0.012051     -0.004850     -0.007201
    16   Atom       -0.018197      0.046941     -0.028744
    17   Atom       -0.001574      0.009273     -0.007700
    18   Atom       -0.001660     -0.000299      0.001959
    19   Atom        0.004864     -0.000356     -0.004508
 --------------------------------------------------------
                        XY            XZ            YZ
 --------------------------------------------------------
     1   Atom       -0.005240      0.005195     -0.000965
     2   Atom       -0.007998     -0.003107      0.002011
     3   Atom       -0.002195      0.006035     -0.001179
     4   Atom       -0.000147     -0.001508      0.000079
     5   Atom        0.027062     -0.006733     -0.002985
     6   Atom        0.006977     -0.013172     -0.006721
     7   Atom        0.180532      0.065759      0.457132
     8   Atom        0.006410      0.002217      0.000800
     9   Atom       -0.027603      0.004371     -0.003612
    10   Atom       -0.007685      0.010869     -0.009878
    11   Atom       -0.008072      0.002811      0.001176
    12   Atom       -0.003537     -0.005905     -0.000083
    13   Atom       -0.001756     -0.006341      0.000782
    14   Atom       -0.002402      0.000784     -0.000073
    15   Atom        0.003179      0.002190      0.000455
    16   Atom        0.030896      0.006016      0.015245
    17   Atom        0.002353      0.000265     -0.001939
    18   Atom        0.006486      0.004048      0.006208
    19   Atom        0.004864     -0.002904     -0.000079
 --------------------------------------------------------


 ---------------------------------------------------------------------------------
              Anisotropic Spin Dipole Couplings in Principal Axis System
 ---------------------------------------------------------------------------------

       Atom             a.u.   MegaHertz   Gauss  10(-4) cm-1        Axes

              Baa    -0.0120    -1.610    -0.575    -0.537 -0.0678  0.4454  0.8928
     1 C(13)  Bbb    -0.0116    -1.558    -0.556    -0.520  0.2033  0.8822 -0.4247
              Bcc     0.0236     3.168     1.130     1.057  0.9768 -0.1527  0.1503
 
              Baa    -0.0083    -4.406    -1.572    -1.470  0.1043 -0.1599  0.9816
     2 H(1)   Bbb    -0.0056    -2.973    -1.061    -0.992  0.5007  0.8612  0.0871
              Bcc     0.0138     7.379     2.633     2.461  0.8593 -0.4824 -0.1699
 
              Baa    -0.0056    -3.005    -1.072    -1.002 -0.3283  0.3839  0.8631
     3 H(1)   Bbb    -0.0052    -2.766    -0.987    -0.923  0.2931  0.9100 -0.2933
              Bcc     0.0108     5.771     2.059     1.925  0.8980 -0.1567  0.4112
 
              Baa    -0.0036    -1.930    -0.689    -0.644  0.1475 -0.0888  0.9851
     4 H(1)   Bbb    -0.0030    -1.592    -0.568    -0.531  0.0294  0.9959  0.0853
              Bcc     0.0066     3.522     1.257     1.175  0.9886 -0.0164 -0.1495
 
              Baa    -0.0217    -2.916    -1.040    -0.973  0.3497 -0.2630  0.8992
     5 C(13)  Bbb    -0.0168    -2.259    -0.806    -0.754 -0.5248  0.7401  0.4205
              Bcc     0.0386     5.175     1.847     1.726  0.7761  0.6189 -0.1208
 
              Baa    -0.0110    -5.879    -2.098    -1.961  0.7839 -0.3323  0.5244
     6 H(1)   Bbb    -0.0086    -4.600    -1.641    -1.534  0.0410  0.8706  0.4903
              Bcc     0.0196    10.479     3.739     3.495 -0.6195 -0.3628  0.6961
 
              Baa    -0.4808   -64.522   -23.023   -21.522  0.9761 -0.1843  0.1155
     7 C(13)  Bbb    -0.4756   -63.826   -22.775   -21.290 -0.1706 -0.3195  0.9321
              Bcc     0.9565   128.349    45.798    42.813  0.1349  0.9295  0.3433
 
              Baa    -0.0583   -31.110   -11.101   -10.377  0.9898 -0.1417 -0.0161
     8 H(1)   Bbb    -0.0127    -6.779    -2.419    -2.261  0.1415  0.9899 -0.0132
              Bcc     0.0710    37.889    13.520    12.638  0.0178  0.0108  0.9998
 
              Baa    -0.0213    -2.855    -1.019    -0.952 -0.3796 -0.1857  0.9063
     9 C(13)  Bbb    -0.0179    -2.404    -0.858    -0.802  0.6979  0.5856  0.4123
              Bcc     0.0392     5.259     1.877     1.754 -0.6073  0.7891 -0.0927
 
              Baa    -0.0109    -5.841    -2.084    -1.948  0.8405  0.1268 -0.5267
    10 H(1)   Bbb    -0.0086    -4.587    -1.637    -1.530  0.1865  0.8451  0.5011
              Bcc     0.0195    10.427     3.721     3.478  0.5087 -0.5194  0.6867
 
              Baa    -0.0102    -5.445    -1.943    -1.816 -0.4788 -0.2485  0.8420
    11 H(1)   Bbb    -0.0035    -1.885    -0.672    -0.629  0.7347  0.4117  0.5392
              Bcc     0.0137     7.329     2.615     2.445 -0.4807  0.8768 -0.0146
 
              Baa    -0.0108    -1.451    -0.518    -0.484  0.2237  0.6765  0.7016
    12 C(13)  Bbb    -0.0092    -1.237    -0.441    -0.413 -0.0532  0.7273 -0.6843
              Bcc     0.0200     2.687     0.959     0.896  0.9732 -0.1158 -0.1987
 
              Baa    -0.0056    -2.969    -1.059    -0.990  0.4613  0.1374  0.8766
    13 H(1)   Bbb    -0.0049    -2.609    -0.931    -0.870  0.0492  0.9825 -0.1799
              Bcc     0.0105     5.578     1.990     1.861  0.8859 -0.1260 -0.4464
 
              Baa    -0.0037    -1.955    -0.697    -0.652 -0.1183 -0.1431  0.9826
    14 H(1)   Bbb    -0.0028    -1.507    -0.538    -0.503  0.2513  0.9530  0.1691
              Bcc     0.0065     3.462     1.235     1.155  0.9607 -0.2669  0.0768
 
              Baa    -0.0075    -3.976    -1.419    -1.326 -0.1039 -0.0468  0.9935
    15 H(1)   Bbb    -0.0054    -2.895    -1.033    -0.966 -0.1822  0.9829  0.0272
              Bcc     0.0129     6.871     2.452     2.292  0.9778  0.1782  0.1107
 
              Baa    -0.0317    -4.254    -1.518    -1.419 -0.0191 -0.1831  0.9829
    16 C(13)  Bbb    -0.0305    -4.095    -1.461    -1.366  0.9310 -0.3617 -0.0493
              Bcc     0.0622     8.349     2.979     2.785  0.3645  0.9142  0.1773
 
              Baa    -0.0080    -4.249    -1.516    -1.417 -0.0863  0.1230  0.9887
    17 H(1)   Bbb    -0.0020    -1.062    -0.379    -0.354  0.9767 -0.1854  0.1083
              Bcc     0.0100     5.311     1.895     1.772  0.1966  0.9749 -0.1041
 
              Baa    -0.0077    -4.126    -1.472    -1.376 -0.6511  0.7329 -0.1974
    18 H(1)   Bbb    -0.0036    -1.911    -0.682    -0.637 -0.5735 -0.3047  0.7604
              Bcc     0.0113     6.037     2.154     2.014  0.4971  0.6083  0.6187
 
              Baa    -0.0058    -3.087    -1.101    -1.030  0.3870 -0.3342  0.8594
    19 H(1)   Bbb    -0.0025    -1.332    -0.475    -0.444 -0.3488  0.8097  0.4719
              Bcc     0.0083     4.419     1.577     1.474  0.8536  0.4824 -0.1968
 

 ---------------------------------------------------------------------------------

 No NMR shielding tensors so no spin-rotation constants.
 Leave Link  601 at Sat Nov  7 02:00:17 2015, MaxMem=   805306368 cpu:         0.9
 (Enter /home/hetanjin/apps/g09D01/g09/l701.exe)
 Compute integral first derivatives.
 ... and contract with generalized density number  0.
 Leave Link  701 at Sat Nov  7 02:00:17 2015, MaxMem=   805306368 cpu:         1.2
 (Enter /home/hetanjin/apps/g09D01/g09/l702.exe)
 L702 exits ... SP integral derivatives will be done elsewhere.
 Leave Link  702 at Sat Nov  7 02:00:17 2015, MaxMem=   805306368 cpu:         0.1
 (Enter /home/hetanjin/apps/g09D01/g09/l703.exe)
 Compute integral first derivatives, UseDBF=F ICtDFT=           0.
 Integral derivatives from FoFJK, PRISM(SPDF).
 Calling FoFJK, ICntrl=      2127 FMM=F ISym2X=0 I1Cent= 0 IOpClX= 1 NMat=1 NMatS=1 NMatT=0.
 FoFJK:  IHMeth= 1 ICntrl=    2127 DoSepK=F KAlg= 0 I1Cent=   0 FoldK=F
 IRaf=         0 NMat=   1 IRICut=       1 DoRegI=T DoRafI=F ISym2E= 0.
 FoFCou: FMM=F IPFlag=           0 FMFlag=      100000 FMFlg1=         800
         NFxFlg=           0 DoJE=F BraDBF=F KetDBF=F FulRan=T
         wScrn=  0.000000 ICntrl=    2127 IOpCl=  1 I1Cent=           0 NGrid=           0
         NMat0=    1 NMatS0=      1 NMatT0=    0 NMatD0=    1 NMtDS0=    0 NMtDT0=    0
 Symmetry not used in FoFCou.
 Leave Link  703 at Sat Nov  7 02:00:25 2015, MaxMem=   805306368 cpu:        27.1
 (Enter /home/hetanjin/apps/g09D01/g09/l716.exe)
 Dipole        = 3.41332416D-02 2.33983992D-01 2.72568923D-03
 ***** Axes restored to original set *****
 -------------------------------------------------------------------
 Center     Atomic                   Forces (Hartrees/Bohr)
 Number     Number              X              Y              Z
 -------------------------------------------------------------------
      1        6           0.001433045   -0.001560997    0.000035455
      2        1          -0.000259448    0.000727119    0.000316231
      3        1          -0.000117227    0.000053115   -0.000045321
      4        1           0.000198299    0.000234482    0.000035814
      5        6          -0.008117797   -0.018279378   -0.006513667
      6        1           0.000607236    0.000814091   -0.000062524
      7        6           0.007454529    0.049706110    0.008367965
      8        1          -0.002228108   -0.015062143   -0.001013672
      9        6           0.002637740   -0.022101699   -0.005971754
     10        1          -0.000384077    0.001242080   -0.000232421
     11        1           0.002207859    0.001769884    0.001994187
     12        6          -0.002208008   -0.000553871    0.000214085
     13        1           0.000119837    0.000032689   -0.000059344
     14        1          -0.000053159    0.000296923    0.000143641
     15        1           0.000515702    0.000797053    0.000231300
     16        6          -0.002267383    0.002992878    0.003304941
     17        1           0.000014598   -0.000172212   -0.000049760
     18        1           0.000132854    0.000135061   -0.000188752
     19        1           0.000313508   -0.001071184   -0.000506405
 -------------------------------------------------------------------
 Cartesian Forces:  Max     0.049706110 RMS     0.008224613
 Leave Link  716 at Sat Nov  7 02:00:25 2015, MaxMem=   805306368 cpu:         0.1
 (Enter /home/hetanjin/apps/g09D01/g09/l103.exe)

 GradGradGradGradGradGradGradGradGradGradGradGradGradGradGradGradGradGrad
 Berny optimization.
 FormGI is forming the generalized inverse of G from B-inverse, IUseBI=4.
 Internal  Forces:  Max     0.013481807 RMS     0.003118890
 Search for a local minimum.
 Step number   1 out of a maximum of  100
 All quantities printed in internal units (Hartrees-Bohrs-Radians)
 RMS Force = .31189D-02 SwitMx=.10000D-02 MixMth= 1
 Mixed Optimization -- RFO/linear search
 Second derivative matrix not updated -- first step.
 ITU=  0
     Eigenvalues ---    0.00230   0.00282   0.00287   0.00303   0.00334
     Eigenvalues ---    0.02076   0.03723   0.03940   0.04820   0.05336
     Eigenvalues ---    0.05336   0.05398   0.05430   0.05465   0.05472
     Eigenvalues ---    0.05490   0.05558   0.09301   0.11354   0.12834
     Eigenvalues ---    0.16000   0.16000   0.16000   0.16000   0.16000
     Eigenvalues ---    0.16000   0.16000   0.16000   0.16000   0.16749
     Eigenvalues ---    0.18244   0.21924   0.23353   0.28367   0.28825
     Eigenvalues ---    0.28860   0.28964   0.29178   0.33520   0.33530
     Eigenvalues ---    0.33717   0.33869   0.33898   0.33942   0.34005
     Eigenvalues ---    0.34007   0.34055   0.34061   0.34062   0.34118
     Eigenvalues ---    0.34216
 RFO step:  Lambda=-1.36105671D-02 EMin= 2.30000000D-03
 Linear search not attempted -- first point.
 Iteration  1 RMS(Cart)=  0.09837257 RMS(Int)=  0.00601700
 Iteration  2 RMS(Cart)=  0.00968137 RMS(Int)=  0.00423183
 Iteration  3 RMS(Cart)=  0.00000774 RMS(Int)=  0.00423182
 Iteration  4 RMS(Cart)=  0.00000006 RMS(Int)=  0.00423182
 ITry= 1 IFail=0 DXMaxC= 3.26D-01 DCOld= 1.00D+10 DXMaxT= 3.00D-01 DXLimC= 3.00D+00 Rises=F
 Variable       Old X    -DE/DX   Delta X   Delta X   Delta X     New X
                                 (Linear)    (Quad)   (Total)
    R1        2.07237  -0.00072   0.00000  -0.00204  -0.00204   2.07033
    R2        2.07502  -0.00006   0.00000  -0.00017  -0.00017   2.07485
    R3        2.07228   0.00023   0.00000   0.00065   0.00065   2.07292
    R4        2.90296   0.00133   0.00000   0.00440   0.00440   2.90737
    R5        2.08149   0.00008   0.00000   0.00023   0.00023   2.08171
    R6        2.91344  -0.01094   0.00000  -0.03679  -0.03679   2.87665
    R7        2.90369   0.00215   0.00000   0.00712   0.00712   2.91080
    R8        2.08131  -0.00059   0.00000  -0.00168  -0.00168   2.07963
    R9        2.90078  -0.01126   0.00000  -0.03713  -0.03713   2.86365
   R10        2.07811   0.00031   0.00000   0.00088   0.00088   2.07898
   R11        2.07428   0.00253   0.00000   0.00716   0.00716   2.08144
   R12        2.89633   0.00137   0.00000   0.00449   0.00449   2.90082
   R13        2.07322  -0.00007   0.00000  -0.00019  -0.00019   2.07303
   R14        2.07131   0.00016   0.00000   0.00046   0.00046   2.07177
   R15        2.07318  -0.00089   0.00000  -0.00251  -0.00251   2.07067
   R16        2.06967  -0.00012   0.00000  -0.00033  -0.00033   2.06935
   R17        2.07552  -0.00018   0.00000  -0.00052  -0.00052   2.07500
   R18        2.07225   0.00015   0.00000   0.00044   0.00044   2.07268
    A1        1.87835   0.00017   0.00000   0.00013   0.00013   1.87849
    A2        1.88223   0.00035   0.00000   0.00280   0.00280   1.88503
    A3        1.94449  -0.00045   0.00000  -0.00265  -0.00265   1.94184
    A4        1.87730   0.00006   0.00000   0.00043   0.00043   1.87773
    A5        1.93565  -0.00011   0.00000  -0.00108  -0.00108   1.93457
    A6        1.94287   0.00002   0.00000   0.00055   0.00055   1.94343
    A7        1.88002  -0.00058   0.00000   0.00317   0.00312   1.88314
    A8        1.92906   0.00126   0.00000   0.00481   0.00473   1.93378
    A9        1.92774   0.00090   0.00000   0.00077   0.00074   1.92848
   A10        1.87706   0.00099   0.00000   0.01127   0.01124   1.88830
   A11        1.88194   0.00035   0.00000   0.00110   0.00114   1.88308
   A12        1.96473  -0.00285   0.00000  -0.01995  -0.01993   1.94480
   A13        1.90132   0.00056   0.00000   0.11403   0.09022   1.99154
   A14        2.01454   0.01348   0.00000   0.10142   0.08085   2.09538
   A15        1.90709   0.00085   0.00000   0.11702   0.09345   2.00055
   A16        1.90542   0.00051   0.00000   0.01259   0.01245   1.91787
   A17        1.92072  -0.00293   0.00000  -0.02723  -0.02719   1.89353
   A18        1.96892   0.00232   0.00000   0.01064   0.01052   1.97945
   A19        1.85242   0.00022   0.00000  -0.00150  -0.00143   1.85099
   A20        1.90917  -0.00072   0.00000   0.00516   0.00497   1.91414
   A21        1.90353   0.00047   0.00000  -0.00027  -0.00026   1.90327
   A22        1.94027  -0.00011   0.00000  -0.00100  -0.00100   1.93928
   A23        1.94519   0.00002   0.00000   0.00043   0.00043   1.94562
   A24        1.94094  -0.00049   0.00000  -0.00277  -0.00277   1.93817
   A25        1.87895   0.00003   0.00000   0.00001   0.00001   1.87897
   A26        1.87563   0.00023   0.00000   0.00076   0.00076   1.87639
   A27        1.87972   0.00036   0.00000   0.00276   0.00276   1.88248
   A28        1.95757   0.00012   0.00000   0.00133   0.00132   1.95890
   A29        1.93340   0.00057   0.00000   0.00386   0.00385   1.93725
   A30        1.93610  -0.00182   0.00000  -0.01176  -0.01176   1.92434
   A31        1.88022  -0.00004   0.00000   0.00212   0.00211   1.88233
   A32        1.87616   0.00078   0.00000   0.00342   0.00341   1.87957
   A33        1.87714   0.00047   0.00000   0.00139   0.00139   1.87853
    D1       -1.04583  -0.00042   0.00000  -0.00631  -0.00631  -1.05214
    D2        1.00024   0.00112   0.00000   0.01175   0.01177   1.01201
    D3       -3.09704  -0.00100   0.00000  -0.00992  -0.00994  -3.10698
    D4       -3.13776  -0.00027   0.00000  -0.00399  -0.00399   3.14144
    D5       -1.09169   0.00128   0.00000   0.01407   0.01409  -1.07760
    D6        1.09422  -0.00084   0.00000  -0.00760  -0.00762   1.08660
    D7        1.05590  -0.00028   0.00000  -0.00418  -0.00417   1.05173
    D8        3.10197   0.00127   0.00000   0.01389   0.01390   3.11588
    D9       -0.99531  -0.00086   0.00000  -0.00779  -0.00781  -1.00312
   D10        1.12731  -0.00557   0.00000  -0.15042  -0.15267   0.97464
   D11       -3.00345   0.00574   0.00000   0.16828   0.17049  -2.83296
   D12       -3.10798  -0.00500   0.00000  -0.13737  -0.13955   3.03566
   D13       -0.95555   0.00631   0.00000   0.18133   0.18361  -0.77194
   D14       -1.03748  -0.00560   0.00000  -0.14044  -0.14270  -1.18019
   D15        1.11494   0.00571   0.00000   0.17826   0.18046   1.29540
   D16        3.06412  -0.00030   0.00000  -0.00010  -0.00013   3.06399
   D17       -1.11751   0.00012   0.00000   0.00619   0.00617  -1.11135
   D18        0.96587  -0.00011   0.00000   0.00280   0.00277   0.96864
   D19        1.01409  -0.00030   0.00000  -0.00499  -0.00498   1.00911
   D20        3.11564   0.00012   0.00000   0.00130   0.00131   3.11696
   D21       -1.08416  -0.00011   0.00000  -0.00210  -0.00208  -1.08624
   D22       -1.05354  -0.00007   0.00000  -0.00782  -0.00781  -1.06135
   D23        1.04801   0.00035   0.00000  -0.00153  -0.00152   1.04650
   D24        3.13140   0.00012   0.00000  -0.00493  -0.00492   3.12648
   D25        0.94556  -0.00636   0.00000  -0.17312  -0.17565   0.76991
   D26       -1.08096  -0.00527   0.00000  -0.16316  -0.16559  -1.24655
   D27        3.07202  -0.00537   0.00000  -0.15046  -0.15285   2.91917
   D28        3.09493   0.00486   0.00000   0.14498   0.14735  -3.04091
   D29        1.06841   0.00596   0.00000   0.15494   0.15741   1.22582
   D30       -1.06179   0.00586   0.00000   0.16764   0.17014  -0.89165
   D31        1.04570  -0.00125   0.00000  -0.02099  -0.02102   1.02469
   D32       -3.14121  -0.00127   0.00000  -0.02136  -0.02138   3.12059
   D33       -1.04351  -0.00114   0.00000  -0.01944  -0.01947  -1.06298
   D34       -3.11314   0.00046   0.00000   0.00592   0.00595  -3.10719
   D35       -1.01687   0.00043   0.00000   0.00556   0.00558  -1.01128
   D36        1.08084   0.00056   0.00000   0.00747   0.00749   1.08833
   D37       -1.09415   0.00059   0.00000   0.00683   0.00684  -1.08731
   D38        1.00212   0.00056   0.00000   0.00647   0.00647   1.00860
   D39        3.09983   0.00069   0.00000   0.00838   0.00839   3.10821
         Item               Value     Threshold  Converged?
 Maximum Force            0.013482     0.000015     NO 
 RMS     Force            0.003119     0.000010     NO 
 Maximum Displacement     0.325732     0.000060     NO 
 RMS     Displacement     0.096147     0.000040     NO 
 Predicted change in Energy=-1.028378D-02
 Lowest energy point so far.  Saving SCF results.
 GradGradGradGradGradGradGradGradGradGradGradGradGradGradGradGradGradGrad

 Leave Link  103 at Sat Nov  7 02:00:25 2015, MaxMem=   805306368 cpu:         0.1
 (Enter /home/hetanjin/apps/g09D01/g09/l202.exe)
                          Input orientation:                          
 ---------------------------------------------------------------------
 Center     Atomic      Atomic             Coordinates (Angstroms)
 Number     Number       Type             X           Y           Z
 ---------------------------------------------------------------------
      1          6           0        2.098256   -1.051462    0.025473
      2          1           0        1.786102   -2.025289   -0.367593
      3          1           0        2.212738   -1.152911    1.112729
      4          1           0        3.085723   -0.818265   -0.391438
      5          6           0        1.072853    0.043128   -0.317223
      6          1           0        0.996397    0.103772   -1.414487
      7          6           0       -0.300506   -0.310494    0.236037
      8          1           0       -0.313272   -0.499829    1.320043
      9          6           0       -1.536111    0.385604   -0.297903
     10          1           0       -1.488273    0.443260   -1.395499
     11          1           0       -1.533734    1.426527    0.062187
     12          6           0       -2.847893   -0.288689    0.127458
     13          1           0       -2.936171   -0.327149    1.220224
     14          1           0       -3.720399    0.251901   -0.257824
     15          1           0       -2.899605   -1.318294   -0.243897
     16          6           0        1.552474    1.412402    0.200146
     17          1           0        0.881520    2.225533   -0.096120
     18          1           0        1.622716    1.416354    1.295934
     19          1           0        2.548843    1.640811   -0.197456
 ---------------------------------------------------------------------
                    Distance matrix (angstroms):
                    1          2          3          4          5
     1  C    0.000000
     2  H    1.095573   0.000000
     3  H    1.097964   1.770428   0.000000
     4  H    1.096944   1.773835   1.771048   0.000000
     5  C    1.538512   2.188518   2.185089   2.190696   0.000000
     6  H    2.149917   2.500504   3.073363   2.502411   1.101595
     7  C    2.519411   2.767458   2.791890   3.481106   1.522255
     8  H    2.792074   3.095564   2.617292   3.818865   2.212868
     9  C    3.921524   4.105406   4.290779   4.776965   2.631417
    10  H    4.137214   4.227511   4.747257   4.849847   2.807516
    11  H    4.396945   4.808436   4.668318   5.155991   2.975238
    12  C    5.005658   4.973406   5.227583   5.979757   3.959809
    13  H    5.224702   5.263526   5.215812   6.253147   4.309654
    14  H    5.969569   5.959798   6.249322   6.891037   4.798163
    15  H    5.012222   4.740358   5.291865   6.007990   4.199913
    16  C    2.529627   3.492080   2.801711   2.770685   1.540331
    17  H    3.497703   4.354475   3.827184   3.769672   2.201905
    18  H    2.816083   3.826085   2.642501   3.159294   2.188693
    19  H    2.738806   3.748467   3.103939   2.524465   2.178413
                    6          7          8          9         10
     6  H    0.000000
     7  C    2.139580   0.000000
     8  H    3.091475   1.100491   0.000000
     9  C    2.782047   1.515376   2.212935   0.000000
    10  H    2.507827   2.154262   3.105513   1.100150   0.000000
    11  H    3.214314   2.137362   2.604338   1.101450   1.758901
    12  C    4.160551   2.549793   2.809118   1.535048   2.168805
    13  H    4.753155   2.813473   2.630472   2.184695   3.087385
    14  H    4.858804   3.500836   3.829266   2.188742   2.512630
    15  H    4.309453   2.828659   3.131280   2.182957   2.533992
[...]
 .32968033,-0.25848864,-0.04355370,0.09465733,-0.00906954,-0.00178109,0
 .00409738,0.00475900,0.00090058,-0.00149834,0.28186401,-0.04466977,-0.
 05876133,0.01931410,-0.02545821,-0.00425530,0.01332297,-0.00178308,-0.
 00136232,0.00041632,0.04625632,0.06114775,0.09447895,0.01864397,-0.092
 08524,-0.01204233,-0.00149186,0.00514741,0.03046876,0.00649874,-0.0122
 1972,-0.10371725,-0.02244745,0.09505002,-0.11682407,0.04646254,-0.0138
 7198,0.00745557,-0.00848231,0.00325137,-0.00341283,0.00276779,-0.00138
 981,-0.01866676,0.02258934,-0.00836365,0.47432561,0.05335222,-0.132100
 65,0.01838044,0.01952376,-0.01963008,0.00785749,0.00181575,-0.00303665
 ,0.00102104,-0.00444915,0.00393878,-0.00078132,-0.01959448,0.41636143,
 -0.01352494,0.01922476,-0.08870682,0.00910925,-0.00901245,0.00216712,-
 0.02272861,0.02611912,-0.00818811,0.00920436,-0.01192828,0.00295070,-0
 .00003881,-0.03056957,0.57457095,-0.00317196,0.00227349,-0.02217866,0.
 00076578,-0.00043061,0.00071533,-0.00249584,0.00361077,-0.00118132,0.0
 0048156,-0.00082134,-0.00003362,-0.05126559,0.00405546,-0.01910607,0.0
 6001474,0.00305744,-0.00268682,0.02559132,-0.00096442,0.00067951,-0.00
 008724,0.00360063,-0.00354070,0.00135639,-0.00037715,0.00087741,-0.000
 66071,0.00431065,-0.04677296,0.01321429,-0.00073903,0.05754172,-0.0009
 7693,0.00089675,-0.00652096,0.00020238,0.00052442,0.00045109,-0.000780
 85,0.00106096,0.00128509,-0.00056883,-0.00003972,0.00048543,-0.0210157
 6,0.01309739,-0.28825341,0.02200517,-0.01481214,0.31610914,-0.03060261
 ,0.00180764,0.00759838,0.00116190,-0.00142211,0.00017918,0.00163060,-0
 .00152862,0.00107475,-0.00209002,0.00263731,-0.00035803,-0.18574694,-0
 .01553233,0.04610367,-0.00054017,-0.00189919,0.00225146,0.50555752,0.0
 2127572,0.00426259,-0.00920179,0.00022139,0.00102306,-0.00016118,0.000
 23586,0.00038532,-0.00008508,0.00381338,-0.00312786,0.00105522,-0.0154
 9157,-0.06079657,0.02609011,-0.00505543,-0.00121352,0.00416825,-0.0409
 3183,0.22427724,-0.00651147,-0.00391224,0.00452421,-0.00009459,0.00058
 285,0.00029338,-0.00164409,0.00005163,0.00038877,-0.00269255,0.0023817
 1,-0.00001671,0.04835529,0.02700143,-0.10146451,0.03087103,0.00818290,
 -0.01470262,-0.02337588,-0.20164768,0.48342565,0.00203093,-0.00093932,
 0.00107762,-0.00004585,0.00023656,0.00000758,-0.00038615,0.00019064,-0
 .00082100,0.00020865,-0.00002905,-0.00035131,0.00112731,-0.00910258,0.
 02528558,-0.00453827,-0.00124909,0.00220870,-0.05569018,-0.00082841,0.
 01382391,0.05678618,0.00011443,0.00069123,-0.00097485,-0.00004071,-0.0
 0015162,-0.00012869,-0.00027847,0.00034542,-0.00014592,-0.00017032,-0.
 00017155,-0.00005848,0.00132774,0.00054586,0.00754369,-0.00063053,0.00
 050711,-0.00094725,-0.00054912,-0.06485044,0.11184602,-0.00003471,0.06
 343754,-0.00116895,0.00066157,0.00046465,0.00018677,-0.00032782,-0.000
 21354,0.00070785,-0.00037693,0.00046626,-0.00001505,-0.00025907,0.0003
 7281,-0.00268515,0.00279874,-0.00777517,0.00235586,0.00106499,-0.00059
 300,0.01460764,0.11999004,-0.27552395,-0.01563702,-0.12739227,0.289905
 80,-0.00280455,-0.00225046,0.00132143,0.00007518,0.00018369,0.00010585
 ,-0.00019788,0.00012434,-0.00021501,-0.00035682,0.00093274,-0.00042522
 ,-0.01994945,0.01327278,-0.00805192,0.00161862,0.00032540,-0.00145226,
 -0.17532634,0.04954779,-0.04127676,0.00256385,-0.00194677,0.00291762,0
 .46375705,-0.00136003,-0.00137429,0.00114476,0.00011954,0.00001478,0.0
 0006415,-0.00013165,0.00000286,-0.00015801,-0.00040883,0.00078017,-0.0
 0014303,-0.00592937,0.00964715,-0.00443623,-0.00016134,-0.00029491,0.0
 0045313,0.04768464,-0.08183188,0.03883077,0.00832606,-0.00080622,0.002
 20146,-0.00603014,0.48248862,0.00256643,0.00102424,-0.00180961,-0.0000
 9339,-0.00004532,-0.00002033,0.00004020,0.00004538,0.00041409,0.001150
 74,-0.00075144,0.00043127,0.00699271,-0.00620303,0.00708164,0.00156875
 ,-0.00053610,0.00016689,-0.03907872,0.03789842,-0.10096559,-0.02263001
 ,0.01413727,-0.00687227,-0.00701448,-0.00232648,0.55695494,-0.00005280
 ,0.00016711,0.00001580,0.00002002,-0.00002388,-0.00001465,0.00007104,-
 0.00008755,0.00022152,-0.00000072,-0.00003542,0.00007025,0.00152435,-0
 .00015126,-0.00183190,-0.00022788,-0.00005059,0.00098157,0.00147158,0.
 00365016,-0.02775143,-0.00387390,0.00178939,-0.00171384,-0.05102019,-0
 .00212862,0.01522911,0.05758018,-0.00007692,-0.00004125,0.00001269,0.0
 0002380,-0.00005189,0.00002042,-0.00007437,0.00001621,-0.00009304,-0.0
 0001758,0.00000954,-0.00004701,-0.00075293,-0.00010313,-0.00017568,0.0
 0015794,0.00024486,-0.00047406,0.00148903,-0.00295205,0.01699611,0.002
 54201,-0.00034099,0.00169806,-0.00237944,-0.04694080,0.00607541,-0.000
 09757,0.05153862,-0.00008679,-0.00006999,0.00061076,0.00003521,-0.0000
 0428,-0.00005276,0.00025855,-0.00016597,0.00008496,-0.00010621,0.00004
 087,0.00000903,0.00143571,0.00027113,0.00005391,-0.00096003,-0.0002089
 6,0.00104196,-0.00157561,0.00436017,-0.01316447,-0.00226841,-0.0005372
 7,-0.00049048,0.01757187,0.00642133,-0.29392518,-0.01801976,-0.0096071
 3,0.32248497,-0.00016617,-0.00008606,-0.00000199,0.00009752,-0.0001366
 6,-0.00002776,0.00007179,-0.00001451,-0.00000178,-0.00024207,-0.000041
 72,0.00002448,0.00088448,-0.00122367,-0.00106149,-0.00018541,0.0001560
 1,0.00008608,-0.00782334,0.02720258,0.00436227,-0.00029948,-0.00043017
 ,-0.00035806,-0.04405398,0.02417775,0.00898839,0.00035561,0.00242863,0
 .00130911,0.05518857,0.00045843,0.00020937,-0.00013309,-0.00008373,0.0
 0015086,0.00002237,-0.00004287,-0.00000581,0.00001631,0.00024039,-0.00
 008687,0.00002249,-0.00056860,-0.00076294,0.00075360,0.00006608,0.0000
 0080,-0.00015022,0.01148261,-0.01338936,0.00255009,0.00064329,-0.00008
 789,0.00026442,0.01115651,-0.24908309,-0.07120323,-0.00027678,-0.00022
 049,-0.00165545,-0.02021198,0.27962237,-0.00000095,0.00002563,0.000094
 79,0.00002537,0.00000036,-0.00002657,0.00002196,-0.00001022,0.00001834
 ,-0.00006952,-0.00004136,-0.00000843,0.00045123,-0.00014709,-0.0001234
 7,-0.00017559,-0.00012730,0.00014222,-0.00192194,0.01332610,0.00498802
 ,-0.00011931,-0.00105752,-0.00065037,0.00443335,-0.06374467,-0.0688780
 7,0.00295504,-0.03259548,-0.01214275,-0.00642839,0.07407416,0.07244735
 ,-0.00043797,-0.00053362,0.00043764,0.00001043,0.00001997,0.00000426,0
 .00000189,-0.00000201,-0.00004365,-0.00016865,0.00022181,-0.00005493,-
 0.00157726,0.00153748,-0.00236661,-0.00003559,0.00006076,0.00010682,-0
 .03324677,-0.00994050,0.00668944,0.00229390,-0.00039105,0.00130700,-0.
 15072871,-0.04990067,0.02312106,-0.00293558,-0.00128763,0.00096748,0.0
 0002553,-0.00049133,0.00078590,0.50677477,0.00091173,0.00072378,-0.000
 36785,-0.00004751,-0.00006105,-0.00004102,-0.00000615,-0.00003281,0.00
 006098,0.00035186,-0.00033454,0.00005411,0.00245452,-0.00232516,0.0018
 7006,-0.00017470,-0.00002187,-0.00001385,0.01093502,0.00812325,-0.0064
 2381,0.00030497,0.00053618,0.00017048,-0.04579613,-0.10488824,0.016890
 21,-0.00037826,-0.00081845,0.00015175,-0.02955924,-0.01743017,0.009283
 78,-0.04500080,0.55338970,-0.00058401,-0.00031183,0.00080856,0.0000493
 8,0.00001062,-0.00001324,0.00006476,-0.00008114,-0.00004901,-0.0002557
 9,0.00023747,-0.00008997,-0.00106702,0.00162388,-0.00204404,0.00000471
 ,-0.00000398,0.00064604,-0.00893018,-0.00703035,0.00563748,-0.00122557
 ,-0.00063532,0.00044441,0.02243792,0.01554189,-0.09080439,0.02913649,0
 .01741445,-0.00693149,-0.00859086,-0.00573747,0.00287918,0.02561750,0.
 01258154,0.56630970,0.00000706,0.00001221,-0.00009411,-0.00000826,0.00
 000291,0.00001360,-0.00005272,0.00002735,-0.00002875,0.00001585,-0.000
 00575,-0.00000502,-0.00019657,0.00007453,0.00005253,0.00009721,0.00005
 105,-0.00032343,0.00200020,-0.00059688,0.00145619,-0.00028484,0.000498
 80,-0.00078575,-0.00353115,-0.00029221,0.02963769,-0.00479134,-0.00313
 472,0.00128447,0.00113645,0.00060868,-0.00070826,-0.05106816,0.0005254
 4,0.02241048,0.05408789,-0.00001108,-0.00003002,-0.00006193,0.00000133
 ,0.00000665,-0.00000856,-0.00000611,0.00002492,0.00000494,-0.00001247,
 -0.00000050,0.00001383,-0.00004752,-0.00005873,0.00007314,0.00006053,-
 0.00002483,-0.00010072,0.00105134,0.00016797,-0.00046484,-0.00002385,0
 .00026037,-0.00017980,-0.00188807,-0.00096325,0.01829958,-0.00344797,-
 0.00108402,0.00086492,0.00088834,0.00049394,0.00025394,0.00047535,-0.0
 5019518,0.00447149,0.00272474,0.04985049,0.00006231,0.00004184,-0.0000
 3983,-0.00000789,0.00000216,-0.00001459,0.00003128,-0.00000341,0.00002
 457,0.00003116,-0.00002543,0.00000773,0.00016084,-0.00014770,0.0004163
 9,-0.00023038,-0.00001994,0.00010418,-0.00113633,0.00021060,0.00038927
 ,0.00078275,-0.00041087,0.00043474,0.00130035,0.00043045,-0.00815497,0
 .00140009,0.00123407,0.00127686,0.00001221,0.00049036,0.00058593,0.023
 07726,0.00481380,-0.30800833,-0.02676512,-0.00660872,0.33461219,-0.000
 34569,-0.00034820,0.00028166,0.00004308,0.00002265,-0.00000186,0.00001
 124,0.00000799,-0.00003849,-0.00018195,0.00014748,-0.00003285,-0.00038
 714,0.00075477,-0.00135062,0.00001684,-0.00000524,0.00010536,-0.003837
 92,-0.00369618,0.00353001,0.00024071,-0.00002572,-0.00004355,-0.021124
 61,0.01280453,-0.01142297,0.00079598,0.00049557,0.00051902,0.00127293,
 -0.00011788,-0.00043790,-0.21945247,0.09598651,-0.08124158,0.00352274,
 -0.00223813,0.00090565,0.23955785,-0.00024724,-0.00016961,0.00013740,-
 0.00000490,0.00002774,0.00001939,-0.00000170,-0.00000249,-0.00001572,-
 0.00007152,0.00009897,-0.00001789,-0.00063375,0.00081230,-0.00040651,0
 .00004895,-0.00000244,0.00000271,-0.00231103,-0.00135549,0.00199917,-0
 .00005511,-0.00019534,-0.00026276,-0.01545256,0.00806747,-0.00823889,0
 .00080146,0.00045685,-0.00020735,0.00066848,0.00077734,-0.00050371,0.0
 9705659,-0.10433617,0.04545166,-0.00080201,-0.00071500,-0.00028961,-0.
 10412121,0.10936684,0.00009755,0.00005437,-0.00009008,-0.00000688,0.00
 000054,-0.00000418,0.00000875,0.00001098,0.00000794,0.00003116,-0.0000
 3534,0.00001148,0.00044111,-0.00024824,0.00050951,-0.00008370,-0.00002
 142,0.00000756,0.00094096,0.00111497,-0.00036089,0.00031137,-0.0001616
 4,0.00034488,0.00895616,-0.00447605,0.00348688,-0.00020847,-0.00059907
 ,0.00042257,-0.00068441,-0.00035621,0.00001076,-0.08164818,0.04498269,
 -0.08828399,-0.02745401,0.01579340,-0.01150048,0.08851002,-0.05111661,
 0.09090656,0.00000387,0.00001305,-0.00002723,-0.00002457,0.00004927,0.
 00001105,-0.00000977,0.00000450,0.00000418,0.00003304,0.00000828,0.000
 00288,-0.00002567,-0.00007908,0.00011480,0.00002409,-0.00003209,-0.000
 03665,0.00212004,-0.00036305,0.00039138,-0.00013227,0.00000083,-0.0003
 2423,-0.00000934,-0.02757937,-0.01030831,0.00122537,0.00088143,-0.0001
 9490,-0.00490688,-0.00323910,0.00146263,-0.04943856,0.00934580,0.00228
 025,-0.00099177,0.00248553,0.00035177,0.00008824,0.02502828,0.01078182
 ,0.05196174,-0.00006532,-0.00009320,0.00003236,-0.00000971,0.00006077,
 0.00001046,0.00000259,0.00000613,-0.00000237,-0.00003778,0.00003986,-0
 .00000180,-0.00008144,0.00005085,-0.00012772,-0.00000223,-0.00002876,0
 .00001307,0.00136542,0.00086917,0.00046958,-0.00028714,-0.00008255,-0.
 00027535,-0.00037366,-0.01443691,-0.00500927,0.00032600,0.00032319,0.0
 0048980,-0.00328378,-0.00055287,0.00131598,0.00849208,-0.28241743,-0.0
 8365436,0.00025943,0.00224403,0.00032511,0.00033175,-0.01288198,-0.004
 94404,-0.00666739,0.30679122,-0.00001561,-0.00002465,-0.00001399,-0.00
 000510,0.00000627,0.00002392,-0.00001471,-0.00000633,-0.00001408,0.000
 01053,0.00001390,-0.00000367,-0.00008737,0.00009255,-0.00000312,0.0000
 1517,0.00001955,-0.00005051,-0.00043965,-0.00017048,0.00013252,-0.0000
 2728,-0.00012608,-0.00014897,-0.00014218,0.00988460,0.00319389,-0.0008
 0611,0.00026459,0.00055365,0.00207656,0.00145225,0.00054691,0.00191376
 ,-0.08386053,-0.08071550,0.00135742,-0.03234901,-0.01012441,0.00058733
 ,0.01347350,0.00455882,-0.00446257,0.09133554,0.08209452,0.00851262,0.
 01965215,0.00624872,-0.00321828,0.00485382,-0.00097936,0.00033362,-0.0
 0023756,0.00031404,0.00067189,0.00072711,0.00038908,-0.08189827,-0.032
 37798,-0.01634878,-0.00084714,-0.00469715,-0.00199493,-0.02031029,-0.0
 2662721,-0.00381528,0.00017430,0.00113241,0.00035320,0.00088257,0.0009
 9325,0.00098917,-0.00017418,-0.00022010,-0.00027239,-0.00113633,0.0003
 9587,-0.00016263,-0.00000178,0.00010676,-0.00003390,0.00008454,0.00001
 367,-0.00001528,-0.00015462,0.00008910,-0.00001702,0.00008028,0.000041
 52,0.00002321,0.55583430,-0.00593850,-0.03221428,-0.00897213,0.0024601
 7,-0.00320897,0.00102572,-0.00130757,0.00174716,-0.00062320,-0.0016447
 9,0.00144464,-0.00031126,-0.01536294,-0.13737530,-0.02875972,-0.000722
 60,-0.00250400,-0.00113615,-0.01646437,-0.00722973,0.00401698,0.000839
 62,0.00039953,-0.00028241,0.00023617,0.00035394,-0.00029069,0.00001369
 ,0.00011471,-0.00006686,0.00066534,-0.00060926,-0.00027446,0.00021433,
 -0.00048897,0.00014833,-0.00003541,0.00001037,-0.00000579,0.00017814,0
 .00008297,-0.00001977,-0.00013134,-0.00003858,0.00003318,-0.04844432,0
 .47715939,0.00213678,0.00564808,0.00325175,-0.00104051,0.00206256,0.00
 003397,0.00026861,0.00149519,0.00054500,0.00009835,-0.00052248,-0.0001
 6527,-0.00752693,-0.02146750,-0.08660863,-0.01322833,-0.03193514,-0.01
 219871,0.00271844,0.01014244,0.00499137,0.00061203,-0.00042625,-0.0005
 7840,-0.00018860,-0.00008796,-0.00078438,0.00027036,-0.00001908,0.0002
 1205,0.00023136,-0.00020430,0.00022881,0.00001579,-0.00008854,0.000382
 52,-0.00003652,0.00000041,-0.00003563,0.00017488,-0.00002753,-0.000026
 86,-0.00000446,0.00005244,-0.00005484,-0.01362454,-0.03648979,0.559452
 17,-0.00075305,-0.00196221,-0.00054487,0.00073485,-0.00058033,-0.00005
 804,-0.00013850,-0.00003906,0.00001038,0.00035899,-0.00020451,-0.00023
 522,0.00792514,-0.01024539,0.00414596,0.00039412,0.00075717,0.00045377
 ,0.00087924,-0.00020091,0.00037723,-0.00001589,-0.00007090,-0.00005595
 ,0.00009239,-0.00023404,-0.00017392,0.00000022,0.00002791,0.00000846,-
 0.00025844,-0.00008393,0.00000750,-0.00006062,-0.00002107,0.00009176,0
 .00000175,0.00000527,-0.00001798,0.00004728,0.00000485,0.00000089,0.00
 002240,0.00003139,-0.00000941,-0.15213114,0.12291401,-0.03988937,0.162
 60440,-0.00396084,-0.00486163,-0.00298481,0.00136739,-0.00152726,0.000
 45197,-0.00019360,0.00028656,0.00007809,-0.00006906,0.00036251,-0.0001
 3912,0.01725841,-0.02049929,0.00806190,0.00013168,0.00127950,-0.000299
 41,0.00184889,0.00097740,0.00011996,-0.00010815,-0.00003259,-0.0000775
 8,0.00005673,-0.00063294,-0.00017096,-0.00006368,-0.00003630,-0.000095
 12,-0.00060056,0.00053349,0.00015903,-0.00034021,0.00027991,0.00006413
 ,0.00005563,0.00001438,-0.00004858,-0.00002896,-0.00002205,0.00000460,
 0.00016493,0.00011431,-0.00002793,0.12227171,-0.19365573,0.04830104,-0
 .13324357,0.21168899,-0.00103184,-0.00174251,-0.00041061,0.00022697,-0
 .00067277,0.00060991,0.00011165,-0.00039821,0.00038943,-0.00034891,0.0
 0017718,-0.00007895,0.00781859,-0.00841573,0.00195353,0.00061127,0.000
 39664,0.00046213,0.00010057,0.00063954,-0.00017745,-0.00001352,0.00005
 188,0.00004028,-0.00006471,0.00014876,0.00025459,-0.00003284,-0.000088
 46,-0.00014569,0.00018830,-0.00017380,0.00008863,-0.00001049,-0.000074
 37,-0.00010241,0.00002470,0.00002918,-0.00001688,-0.00000311,-0.000000
 04,0.00000549,-0.00002789,-0.00002401,0.00000482,-0.03965331,0.0483260
 1,-0.06549492,0.04459625,-0.05147799,0.06584379,0.00009610,0.00063126,
 0.00080092,-0.00016213,0.00005100,0.00000278,0.00039680,-0.00004209,0.
 00017292,0.00005247,-0.00006050,0.00014766,-0.00266736,-0.00022251,-0.
 01263470,-0.00030125,-0.00255470,-0.00080173,0.00091256,0.00112516,-0.
 00102262,-0.00002558,-0.00032484,0.00016913,-0.00029942,-0.00002872,-0
 .00001861,0.00010815,0.00002939,0.00016134,-0.00001874,-0.00005375,-0.
 00007437,0.00001351,0.00000026,-0.00001432,-0.00003994,-0.00002320,0.0
 0003322,-0.00000100,-0.00000600,0.00000781,-0.00000566,-0.00000003,0.0
 0000453,-0.05331500,0.00115106,-0.02896093,-0.00234426,-0.00072958,-0.
 02132392,0.05256144,-0.00041958,0.00214294,-0.00107737,-0.00009094,0.0
 0029396,0.00039062,0.00023188,-0.00026881,0.00083018,0.00010316,-0.000
 12416,0.00003750,-0.00379080,-0.00081858,-0.03014215,-0.00249038,-0.00
 534764,-0.00225170,0.00175969,0.00138235,-0.00045699,-0.00024719,-0.00
 024911,0.00028719,-0.00010423,0.00000471,0.00000175,0.00008910,-0.0000
 9255,0.00009676,0.00000328,0.00001647,0.00009442,-0.00003017,0.0000362
 1,0.00002393,-0.00001339,0.00000378,0.00000164,-0.00000489,-0.00000890
 ,0.00000153,0.00001190,0.00001439,-0.00001137,0.00118216,-0.04846111,0
 .00355468,0.00133633,0.00047048,0.02520651,0.00116146,0.05190596,0.000
 02256,0.00089640,0.00048981,0.00006240,-0.00006144,0.00042326,0.000413
 97,-0.00079513,0.00048081,-0.00000554,-0.00004866,-0.00004980,-0.00171
 787,-0.00075433,-0.01065421,-0.00093297,-0.00221634,0.00083277,0.00098
 533,0.00056474,0.00088166,-0.00058496,-0.00033460,0.00024360,-0.000141
 36,-0.00001315,0.00009620,0.00009923,-0.00001246,0.00010145,-0.0000441
 6,0.00000994,-0.00010440,0.00002817,0.00002916,-0.00003108,-0.00002933
 ,-0.00002211,0.00003422,-0.00003288,-0.00000474,-0.00000217,-0.0000078
 0,-0.00000719,0.00000546,-0.02904272,0.00384078,-0.30643990,-0.0003148
 5,0.00034622,-0.00671211,0.03320353,-0.00188384,0.33304066,0.00052963,
 0.00115436,0.00004592,0.00021702,0.00006868,-0.00025722,0.00003363,-0.
 00001885,-0.00005200,0.00081970,-0.00041103,0.00003737,-0.01062456,-0.
 00140832,0.00502831,0.00019614,0.00024953,-0.00044993,-0.00051905,-0.0
 0334006,-0.00167209,-0.00013341,0.00002972,0.00018250,0.00041278,0.000
 07922,0.00045618,-0.00007592,-0.00003443,-0.00006713,0.00005794,0.0001
 1808,-0.00004411,0.00003210,0.00006098,-0.00015003,0.00001107,-0.00000
 770,0.00002409,-0.00011149,0.00000930,0.00001507,-0.00001457,-0.000041
 70,0.00002148,-0.25338707,-0.03862067,0.09797358,-0.01735886,-0.003817
 15,0.00883225,0.00503931,0.00131261,-0.00196074,0.27487560,-0.00099902
 ,0.00149845,0.00070287,0.00020976,0.00052301,-0.00023358,0.00008571,-0
 .00012340,-0.00000319,0.00092773,-0.00047520,-0.00022592,-0.02643530,-
 0.00707634,0.01260767,0.00082330,0.00130754,0.00000854,-0.00142300,-0.
 00472144,-0.00212365,-0.00017854,0.00024508,0.00029703,0.00038531,-0.0
 0010718,0.00040316,-0.00009531,-0.00002206,-0.00007835,-0.00060207,0.0
 0042411,-0.00003159,-0.00016036,0.00026100,-0.00011495,0.00003961,-0.0
 0000537,0.00001003,-0.00014300,-0.00000100,0.00001530,0.00009762,0.000
 01834,0.00000045,-0.03885519,-0.05552678,0.02001172,0.02180900,0.00526
 026,-0.01190779,-0.00010367,-0.00090041,0.00046674,0.04461742,0.059421
 39,0.00016303,0.00051175,-0.00001500,-0.00025443,0.00013941,-0.0000804
 8,0.00013687,-0.00000092,-0.00002113,-0.00000301,0.00019469,0.00025187
 ,-0.01114249,-0.00340959,0.00411774,-0.00003663,0.00080321,0.00058473,
 0.00025596,-0.00126402,0.00072386,-0.00043114,-0.00024186,0.00012871,-
 0.00007205,0.00026427,0.00013440,-0.00000045,-0.00000432,0.00000066,-0
 .00007984,-0.00004222,-0.00009689,0.00005178,-0.00001860,-0.00003443,-
 0.00000679,-0.00000914,0.00000907,-0.00000811,0.00000751,-0.00000381,-
 0.00000671,0.00000179,0.00001459,0.09764273,0.01984124,-0.09671006,-0.
 00839258,-0.00226543,0.00348642,0.03014735,0.00529671,-0.01263622,-0.1
 0796350,-0.01980450,0.10014599\\-0.00000005,0.,0.00000024,-0.00000011,
 -0.00000011,0.00000001,-0.00000030,-0.00000034,0.00000025,-0.00000003,
 -0.00000021,0.00000043,-0.00000051,-0.00000055,0.00000017,0.00000029,0
 .00000028,0.00000016,0.00000008,-0.00000043,-0.00000016,-0.00000032,-0
 .00000006,-0.00000018,0.00000054,0.00000013,-0.00000013,0.00000021,0.0
 0000038,-0.00000028,-0.00000006,0.00000029,-0.00000020,-0.00000036,0.0
 0000018,-0.00000050,-0.00000017,0.00000011,-0.00000061,0.00000015,0.00
 000035,-0.00000067,0.00000003,0.00000029,-0.00000075,0.00000059,0.0000
 0049,0.00000067,0.00000010,-0.00000016,0.00000043,-0.00000016,-0.00000
 037,0.00000045,0.00000009,-0.00000028,0.00000066\\\@


 DESK:  A WASTEBASKET WITH DRAWERS.
 Job cpu time:       0 days  0 hours 25 minutes 29.0 seconds.
 File lengths (MBytes):  RWF=     64 Int=      0 D2E=      0 Chk=      3 Scr=      1
 Normal termination of Gaussian 09 at Sat Nov  7 02:14:58 2015.
