 Entering Gaussian System, Link 0=/home/hetanjin/apps/g09D01/g09/g09
 Input=C6H14_3_r002_C5_2_opt_B3L.gjf
 Output=C6H14_3_r002_C5_2_opt_B3L.log
 Initial command:
 /home/hetanjin/apps/g09D01/g09/l1.exe "/state/partition1/Gau-17333.inp" -scrdir="/state/partition1/"
 Entering Link 1 = /home/hetanjin/apps/g09D01/g09/l1.exe PID=     17334.
  
 Copyright (c) 1988,1990,1992,1993,1995,1998,2003,2009,2013,
            Gaussian, Inc.  All Rights Reserved.
  
 This is part of the Gaussian(R) 09 program.  It is based on
 the Gaussian(R) 03 system (copyright 2003, Gaussian, Inc.),
 the Gaussian(R) 98 system (copyright 1998, Gaussian, Inc.),
 the Gaussian(R) 94 system (copyright 1995, Gaussian, Inc.),
 the Gaussian 92(TM) system (copyright 1992, Gaussian, Inc.),
 the Gaussian 90(TM) system (copyright 1990, Gaussian, Inc.),
 the Gaussian 88(TM) system (copyright 1988, Gaussian, Inc.),
 the Gaussian 86(TM) system (copyright 1986, Carnegie Mellon
 University), and the Gaussian 82(TM) system (copyright 1983,
 Carnegie Mellon University). Gaussian is a federally registered
 trademark of Gaussian, Inc.
  
 This software contains proprietary and confidential information,
 including trade secrets, belonging to Gaussian, Inc.
  
 This software is provided under written license and may be
 used, copied, transmitted, or stored only in accord with that
 written license.
  
 The following legend is applicable only to US Government
 contracts under FAR:
  
                    RESTRICTED RIGHTS LEGEND
  
 Use, reproduction and disclosure by the US Government is
 subject to restrictions as set forth in subparagraphs (a)
 and (c) of the Commercial Computer Software - Restricted
 Rights clause in FAR 52.227-19.
  
 Gaussian, Inc.
 340 Quinnipiac St., Bldg. 40, Wallingford CT 06492
  
  
 ---------------------------------------------------------------
 Warning -- This program may not be used in any manner that
 competes with the business of Gaussian, Inc. or will provide
 assistance to any competitor of Gaussian, Inc.  The licensee
 of this program is prohibited from giving any competitor of
 Gaussian, Inc. access to this program.  By using this program,
 the user acknowledges that Gaussian, Inc. is engaged in the
 business of creating and licensing software in the field of
 computational chemistry and represents and warrants to the
 licensee that it is not a competitor of Gaussian, Inc. and that
 it will not use this program in any manner prohibited above.
 ---------------------------------------------------------------
  

 Cite this work as:
 Gaussian 09, Revision D.01,
 M. J. Frisch, G. W. Trucks, H. B. Schlegel, G. E. Scuseria, 
 M. A. Robb, J. R. Cheeseman, G. Scalmani, V. Barone, B. Mennucci, 
 G. A. Petersson, H. Nakatsuji, M. Caricato, X. Li, H. P. Hratchian, 
 A. F. Izmaylov, J. Bloino, G. Zheng, J. L. Sonnenberg, M. Hada, 
 M. Ehara, K. Toyota, R. Fukuda, J. Hasegawa, M. Ishida, T. Nakajima, 
 Y. Honda, O. Kitao, H. Nakai, T. Vreven, J. A. Montgomery, Jr., 
 J. E. Peralta, F. Ogliaro, M. Bearpark, J. J. Heyd, E. Brothers, 
 K. N. Kudin, V. N. Staroverov, T. Keith, R. Kobayashi, J. Normand, 
 K. Raghavachari, A. Rendell, J. C. Burant, S. S. Iyengar, J. Tomasi, 
 M. Cossi, N. Rega, J. M. Millam, M. Klene, J. E. Knox, J. B. Cross, 
 V. Bakken, C. Adamo, J. Jaramillo, R. Gomperts, R. E. Stratmann, 
 O. Yazyev, A. J. Austin, R. Cammi, C. Pomelli, J. W. Ochterski, 
 R. L. Martin, K. Morokuma, V. G. Zakrzewski, G. A. Voth, 
 P. Salvador, J. J. Dannenberg, S. Dapprich, A. D. Daniels, 
 O. Farkas, J. B. Foresman, J. V. Ortiz, J. Cioslowski, 
 and D. J. Fox, Gaussian, Inc., Wallingford CT, 2013.
 
 ******************************************
 Gaussian 09:  ES64L-G09RevD.01 24-Apr-2013
                 7-Nov-2015 
 ******************************************
 %mem=6GB
 %nprocshared=4
 Will use up to    4 processors via shared memory.
 ----------------------------------------------
 #p B3LYP/6-31G(d) opt=tight int=ultrafine freq
 ----------------------------------------------
 1/7=10,14=-1,18=20,19=15,26=4,38=1/1,3;
 2/9=110,12=2,17=6,18=5,40=1/2;
 3/5=1,6=6,7=1,11=2,16=1,25=1,30=1,71=1,74=-5,75=-5/1,2,3;
 4//1;
 5/5=2,38=5/2;
 6/7=2,8=2,9=2,10=2,28=1/1;
 7//1,2,3,16;
 1/7=10,14=-1,18=20,19=15,26=4/3(2);
 2/9=110/2;
 99//99;
 2/9=110/2;
 3/5=1,6=6,7=1,11=2,16=1,25=1,30=1,71=1,74=-5,75=-5/1,2,3;
 4/5=5,16=3,69=1/1;
 5/5=2,38=5/2;
 7//1,2,3,16;
 1/7=10,14=-1,18=20,19=15,26=4/3(-5);
 2/9=110/2;
 6/7=2,8=2,9=2,10=2,19=2,28=1/1;
 99/9=1/99;
 Leave Link    1 at Sat Nov  7 02:04:17 2015, MaxMem=   805306368 cpu:         0.1
 (Enter /home/hetanjin/apps/g09D01/g09/l101.exe)
 ---------------------------------------------
 using B3LYP/6-31G(d) to do opt and freq calc.
 ---------------------------------------------
 Symbolic Z-matrix:
 Charge =  0 Multiplicity = 2
 C                    -2.58543  -0.17306  -0.29185 
 H                    -2.56946  -0.21059  -1.38848 
 H                    -2.79867   0.86056   0.00159 
 H                    -3.42636  -0.7886    0.04788 
 C                    -1.2643   -0.68112   0.2975 
 H                    -1.30509  -0.61825   1.39536 
 C                     0.        0.05117  -0.19883 
 H                     0.        0.00139  -1.30033 
 C                     1.2643   -0.68112   0.29751 
 H                     1.16193  -1.74928   0.05992 
 H                     1.30509  -0.61823   1.39536 
 C                     2.58543  -0.17306  -0.29185 
 H                     2.79867   0.86057   0.00157 
 H                     3.42636  -0.78859   0.04789 
 H                     2.56946  -0.21061  -1.38848 
 C                    0.         1.53336   0.20729 
 H                    -0.88093   2.05894  -0.1759 
 H                    -0.00001   1.63604   1.30101 
 H                     0.88093   2.05894  -0.17589 
 
 NAtoms=     19 NQM=       19 NQMF=       0 NMMI=      0 NMMIF=      0
                NMic=       0 NMicF=      0.
                    Isotopes and Nuclear Properties:
 (Nuclear quadrupole moments (NQMom) in fm**2, nuclear magnetic moments (NMagM)
  in nuclear magnetons)

  Atom         1           2           3           4           5           6           7           8           9          10
 IAtWgt=          12           1           1           1          12           1          12           1          12           1
 AtmWgt=  12.0000000   1.0078250   1.0078250   1.0078250  12.0000000   1.0078250  12.0000000   1.0078250  12.0000000   1.0078250
 NucSpn=           0           1           1           1           0           1           0           1           0           1
 AtZEff=   0.0000000   0.0000000   0.0000000   0.0000000   0.0000000   0.0000000   0.0000000   0.0000000   0.0000000   0.0000000
 NQMom=    0.0000000   0.0000000   0.0000000   0.0000000   0.0000000   0.0000000   0.0000000   0.0000000   0.0000000   0.0000000
 NMagM=    0.0000000   2.7928460   2.7928460   2.7928460   0.0000000   2.7928460   0.0000000   2.7928460   0.0000000   2.7928460
 AtZNuc=   6.0000000   1.0000000   1.0000000   1.0000000   6.0000000   1.0000000   6.0000000   1.0000000   6.0000000   1.0000000

  Atom        11          12          13          14          15          16          17          18          19
 IAtWgt=           1          12           1           1           1          12           1           1           1
 AtmWgt=   1.0078250  12.0000000   1.0078250   1.0078250   1.0078250  12.0000000   1.0078250   1.0078250   1.0078250
 NucSpn=           1           0           1           1           1           0           1           1           1
 AtZEff=   0.0000000   0.0000000   0.0000000   0.0000000   0.0000000   0.0000000   0.0000000   0.0000000   0.0000000
 NQMom=    0.0000000   0.0000000   0.0000000   0.0000000   0.0000000   0.0000000   0.0000000   0.0000000   0.0000000
 NMagM=    2.7928460   0.0000000   2.7928460   2.7928460   2.7928460   0.0000000   2.7928460   2.7928460   2.7928460
 AtZNuc=   1.0000000   6.0000000   1.0000000   1.0000000   1.0000000   6.0000000   1.0000000   1.0000000   1.0000000
 Leave Link  101 at Sat Nov  7 02:04:17 2015, MaxMem=   805306368 cpu:         0.8
 (Enter /home/hetanjin/apps/g09D01/g09/l103.exe)

 GradGradGradGradGradGradGradGradGradGradGradGradGradGradGradGradGradGrad
 Berny optimization.
 Initialization pass.
                           ----------------------------
                           !    Initial Parameters    !
                           ! (Angstroms and Degrees)  !
 --------------------------                            --------------------------
 ! Name  Definition              Value          Derivative Info.                !
 --------------------------------------------------------------------------------
 ! R1    R(1,2)                  1.0974         estimate D2E/DX2                !
 ! R2    R(1,3)                  1.0954         estimate D2E/DX2                !
 ! R3    R(1,4)                  1.0961         estimate D2E/DX2                !
 ! R4    R(1,5)                  1.5332         estimate D2E/DX2                !
 ! R5    R(5,6)                  1.1004         estimate D2E/DX2                !
 ! R6    R(5,7)                  1.5431         estimate D2E/DX2                !
 ! R7    R(7,8)                  1.1026         estimate D2E/DX2                !
 ! R8    R(7,9)                  1.5431         estimate D2E/DX2                !
 ! R9    R(7,16)                 1.5368         estimate D2E/DX2                !
 ! R10   R(9,10)                 1.099          estimate D2E/DX2                !
 ! R11   R(9,11)                 1.1004         estimate D2E/DX2                !
 ! R12   R(9,12)                 1.5332         estimate D2E/DX2                !
 ! R13   R(12,13)                1.0954         estimate D2E/DX2                !
 ! R14   R(12,14)                1.0961         estimate D2E/DX2                !
 ! R15   R(12,15)                1.0974         estimate D2E/DX2                !
 ! R16   R(16,17)                1.095          estimate D2E/DX2                !
 ! R17   R(16,18)                1.0985         estimate D2E/DX2                !
 ! R18   R(16,19)                1.095          estimate D2E/DX2                !
 ! A1    A(2,1,3)              107.6254         estimate D2E/DX2                !
 ! A2    A(2,1,4)              107.559          estimate D2E/DX2                !
 ! A3    A(2,1,5)              111.115          estimate D2E/DX2                !
 ! A4    A(3,1,4)              107.3082         estimate D2E/DX2                !
 ! A5    A(3,1,5)              112.1749         estimate D2E/DX2                !
 ! A6    A(4,1,5)              110.8451         estimate D2E/DX2                !
 ! A7    A(1,5,6)              109.4277         estimate D2E/DX2                !
 ! A8    A(1,5,7)              115.1572         estimate D2E/DX2                !
 ! A9    A(6,5,7)              108.915          estimate D2E/DX2                !
 ! A10   A(5,7,8)              107.4517         estimate D2E/DX2                !
 ! A11   A(5,7,9)              110.0384         estimate D2E/DX2                !
 ! A12   A(5,7,16)             111.882          estimate D2E/DX2                !
 ! A13   A(8,7,9)              107.4518         estimate D2E/DX2                !
 ! A14   A(8,7,16)             107.9103         estimate D2E/DX2                !
 ! A15   A(9,7,16)             111.882          estimate D2E/DX2                !
 ! A16   A(7,9,10)             108.3833         estimate D2E/DX2                !
 ! A17   A(7,9,11)             108.915          estimate D2E/DX2                !
 ! A18   A(7,9,12)             115.1571         estimate D2E/DX2                !
 ! A19   A(10,9,11)            105.9423         estimate D2E/DX2                !
 ! A20   A(10,9,12)            108.6152         estimate D2E/DX2                !
 ! A21   A(11,9,12)            109.4277         estimate D2E/DX2                !
 ! A22   A(9,12,13)            112.1749         estimate D2E/DX2                !
 ! A23   A(9,12,14)            110.8451         estimate D2E/DX2                !
 ! A24   A(9,12,15)            111.1149         estimate D2E/DX2                !
 ! A25   A(13,12,14)           107.3082         estimate D2E/DX2                !
 ! A26   A(13,12,15)           107.6254         estimate D2E/DX2                !
 ! A27   A(14,12,15)           107.559          estimate D2E/DX2                !
 ! A28   A(7,16,17)            111.7423         estimate D2E/DX2                !
 ! A29   A(7,16,18)            110.6857         estimate D2E/DX2                !
 ! A30   A(7,16,19)            111.7423         estimate D2E/DX2                !
 ! A31   A(17,16,18)           107.6699         estimate D2E/DX2                !
 ! A32   A(17,16,19)           107.12           estimate D2E/DX2                !
 ! A33   A(18,16,19)           107.67           estimate D2E/DX2                !
 ! D1    D(2,1,5,6)            179.2076         estimate D2E/DX2                !
 ! D2    D(2,1,5,7)             56.1554         estimate D2E/DX2                !
 ! D3    D(3,1,5,6)             58.6833         estimate D2E/DX2                !
 ! D4    D(3,1,5,7)            -64.369          estimate D2E/DX2                !
 ! D5    D(4,1,5,6)            -61.2484         estimate D2E/DX2                !
 ! D6    D(4,1,5,7)            175.6993         estimate D2E/DX2                !
 ! D7    D(1,5,7,8)            -54.8991         estimate D2E/DX2                !
 ! D8    D(1,5,7,9)           -171.5975         estimate D2E/DX2                !
 ! D9    D(1,5,7,16)            63.3728         estimate D2E/DX2                !
 ! D10   D(6,5,7,8)           -178.2239         estimate D2E/DX2                !
 ! D11   D(6,5,7,9)             65.0777         estimate D2E/DX2                !
 ! D12   D(6,5,7,16)           -59.952          estimate D2E/DX2                !
 ! D13   D(5,7,9,10)            49.746          estimate D2E/DX2                !
 ! D14   D(5,7,9,11)           -65.0785         estimate D2E/DX2                !
 ! D15   D(5,7,9,12)           171.5967         estimate D2E/DX2                !
 ! D16   D(8,7,9,10)           -66.9523         estimate D2E/DX2                !
 ! D17   D(8,7,9,11)           178.2232         estimate D2E/DX2                !
 ! D18   D(8,7,9,12)            54.8984         estimate D2E/DX2                !
 ! D19   D(16,7,9,10)          174.7757         estimate D2E/DX2                !
 ! D20   D(16,7,9,11)           59.9512         estimate D2E/DX2                !
 ! D21   D(16,7,9,12)          -63.3736         estimate D2E/DX2                !
 ! D22   D(5,7,16,17)          -57.9911         estimate D2E/DX2                !
 ! D23   D(5,7,16,18)           62.0011         estimate D2E/DX2                !
 ! D24   D(5,7,16,19)         -178.0067         estimate D2E/DX2                !
 ! D25   D(8,7,16,17)           60.0075         estimate D2E/DX2                !
 ! D26   D(8,7,16,18)          179.9997         estimate D2E/DX2                !
 ! D27   D(8,7,16,19)          -60.0081         estimate D2E/DX2                !
 ! D28   D(9,7,16,17)          178.0062         estimate D2E/DX2                !
 ! D29   D(9,7,16,18)          -62.0016         estimate D2E/DX2                !
 ! D30   D(9,7,16,19)           57.9905         estimate D2E/DX2                !
 ! D31   D(7,9,12,13)           64.3686         estimate D2E/DX2                !
 ! D32   D(7,9,12,14)         -175.6996         estimate D2E/DX2                !
 ! D33   D(7,9,12,15)          -56.1557         estimate D2E/DX2                !
 ! D34   D(10,9,12,13)        -173.9059         estimate D2E/DX2                !
 ! D35   D(10,9,12,14)         -53.9741         estimate D2E/DX2                !
 ! D36   D(10,9,12,15)          65.5698         estimate D2E/DX2                !
 ! D37   D(11,9,12,13)         -58.6837         estimate D2E/DX2                !
 ! D38   D(11,9,12,14)          61.2481         estimate D2E/DX2                !
 ! D39   D(11,9,12,15)        -179.208          estimate D2E/DX2                !
 --------------------------------------------------------------------------------
 Trust Radius=3.00D-01 FncErr=1.00D-07 GrdErr=1.00D-06
 Number of steps in this run=    100 maximum allowed number of steps=    114.
 GradGradGradGradGradGradGradGradGradGradGradGradGradGradGradGradGradGrad

 Leave Link  103 at Sat Nov  7 02:04:17 2015, MaxMem=   805306368 cpu:         0.0
 (Enter /home/hetanjin/apps/g09D01/g09/l202.exe)
                          Input orientation:                          
 ---------------------------------------------------------------------
 Center     Atomic      Atomic             Coordinates (Angstroms)
 Number     Number       Type             X           Y           Z
 ---------------------------------------------------------------------
      1          6           0       -2.585432   -0.173063   -0.291849
      2          1           0       -2.569458   -0.210592   -1.388477
      3          1           0       -2.798673    0.860561    0.001587
      4          1           0       -3.426358   -0.788597    0.047878
      5          6           0       -1.264298   -0.681121    0.297502
      6          1           0       -1.305088   -0.618252    1.395357
      7          6           0        0.000001    0.051166   -0.198829
      8          1           0        0.000003    0.001388   -1.300329
      9          6           0        1.264300   -0.681115    0.297508
     10          1           0        1.161927   -1.749278    0.059916
     11          1           0        1.305092   -0.618234    1.395362
     12          6           0        2.585433   -0.173062   -0.291851
     13          1           0        2.798671    0.860567    0.001568
     14          1           0        3.426361   -0.788588    0.047886
     15          1           0        2.569459   -0.210609   -1.388479
     16          6           0       -0.000004    1.533363    0.207287
     17          1           0       -0.880930    2.058937   -0.175897
     18          1           0       -0.000012    1.636037    1.301012
     19          1           0        0.880926    2.058939   -0.175885
 ---------------------------------------------------------------------
                    Distance matrix (angstroms):
                    1          2          3          4          5
     1  C    0.000000
     2  H    1.097386   0.000000
     3  H    1.095425   1.769798   0.000000
     4  H    1.096108   1.769600   1.765178   0.000000
     5  C    1.533249   2.183430   2.195144   2.179075   0.000000
     6  H    2.164287   3.084566   2.521959   2.518830   1.100410
     7  C    2.596805   2.843572   2.920251   3.536383   1.543062
     8  H    2.780636   2.579697   3.204021   3.765858   2.148800
     9  C    3.927581   4.214456   4.355696   4.698525   2.528598
    10  H    4.080550   4.288197   4.743523   4.687794   2.661574
    11  H    4.263923   4.788326   4.579337   4.922536   2.794820
    12  C    5.170865   5.270379   5.490271   6.052762   3.927581
    13  H    5.490269   5.647691   5.597344   6.439944   4.355697
    14  H    6.052763   6.192501   6.439944   6.852719   4.698525
    15  H    5.270380   5.138917   5.647701   6.192497   4.214452
    16  C    3.137748   3.491409   2.885745   4.142078   2.551572
    17  H    2.810800   3.077700   2.268335   3.825928   2.806955
    18  H    3.534748   4.152763   3.181567   4.380530   2.823946
    19  H    4.124429   4.304219   3.873894   5.168290   3.511981
                    6          7          8          9         10
     6  H    0.000000
     7  C    2.166289   0.000000
     8  H    3.058421   1.102624   0.000000
     9  C    2.794813   1.543061   2.148800   0.000000
    10  H    3.024696   2.158384   2.503031   1.099046   0.000000
    11  H    2.610180   2.166288   3.058421   1.100410   1.755897
    12  C    4.263921   2.596804   2.780631   1.533250   2.152804
    13  H    4.579344   2.920247   3.204008   2.195144   3.081173
    14  H    4.922530   3.536382   3.765856   2.179075   2.459823
    15  H    4.788322   2.843573   2.579693   2.183430   2.538995
    16  C    2.782841   1.536827   2.149384   2.551572   3.485331
    17  H    3.133064   2.192649   2.504775   3.511981   4.327976
    18  H    2.606519   2.182049   3.072304   2.823951   3.788242
    19  H    3.796684   2.192649   2.504779   2.806951   3.825844
                   11         12         13         14         15
    11  H    0.000000
    12  C    2.164287   0.000000
    13  H    2.521962   1.095424   0.000000
    14  H    2.518828   1.096108   1.765178   0.000000
    15  H    3.084567   1.097387   1.769799   1.769600   0.000000
    16  C    2.782834   3.137755   2.885751   4.142082   3.491425
    17  H    3.796682   4.124432   3.873893   5.168291   4.304228
    18  H    2.606518   3.534767   3.181593   4.380544   4.152788
    19  H    3.133048   2.810804   2.268332   3.825928   3.077723
                   16         17         18         19
    16  C    0.000000
    17  H    1.095029   0.000000
    18  H    1.098534   1.770910   0.000000
    19  H    1.095029   1.761856   1.770910   0.000000
 Stoichiometry    C6H13(2)
 Framework group  C1[X(C6H13)]
 Deg. of freedom    51
 Full point group                 C1      NOp   1
 Largest Abelian subgroup         C1      NOp   1
 Largest concise Abelian subgroup C1      NOp   1
                         Standard orientation:                         
 ---------------------------------------------------------------------
 Center     Atomic      Atomic             Coordinates (Angstroms)
 Number     Number       Type             X           Y           Z
 ---------------------------------------------------------------------
      1          6           0       -2.605297   -0.255016   -0.288230
      2          1           0       -2.589204   -0.297212   -1.384687
      3          1           0       -2.836185    0.776092    0.000667
      4          1           0       -3.435323   -0.883415    0.054734
      5          6           0       -1.275318   -0.737561    0.302667
      6          1           0       -1.316659   -0.670452    1.400250
      7          6           0       -0.024069    0.014163   -0.197661
      8          1           0       -0.023737   -0.040577   -1.298926
      9          6           0        1.252904   -0.693968    0.301264
     10          1           0        1.168847   -1.764798    0.068542
     11          1           0        1.293132   -0.625440    1.398801
     12          6           0        2.564799   -0.165882   -0.291113
     13          1           0        2.760326    0.872583   -0.002470
     14          1           0        3.416377   -0.765282    0.050924
     15          1           0        2.548949   -0.208647   -1.387551
     16          6           0       -0.049433    1.497958    0.201776
     17          1           0       -0.939472    2.006534   -0.183280
     18          1           0       -0.050687    1.605550    1.295027
     19          1           0        0.822122    2.036906   -0.184250
 ---------------------------------------------------------------------
 Rotational constants (GHZ):      6.7884516      1.8420217      1.5997570
 Leave Link  202 at Sat Nov  7 02:04:17 2015, MaxMem=   805306368 cpu:         0.0
 (Enter /home/hetanjin/apps/g09D01/g09/l301.exe)
 Standard basis: 6-31G(d) (6D, 7F)
 Ernie: Thresh=  0.10000D-02 Tol=  0.10000D-05 Strict=F.
 There are   116 symmetry adapted cartesian basis functions of A   symmetry.
 There are   116 symmetry adapted basis functions of A   symmetry.
   116 basis functions,   220 primitive gaussians,   116 cartesian basis functions
    25 alpha electrons       24 beta electrons
       nuclear repulsion energy       244.3247982797 Hartrees.
 IExCor=  402 DFT=T Ex+Corr=B3LYP ExCW=0 ScaHFX=  0.200000
 ScaDFX=  0.800000  0.720000  1.000000  0.810000 ScalE2=  1.000000  1.000000
 IRadAn=      5 IRanWt=     -1 IRanGd=            0 ICorTp=0 IEmpDi=  4
 NAtoms=   19 NActive=   19 NUniq=   19 SFac= 1.00D+00 NAtFMM=   60 NAOKFM=F Big=F
 Integral buffers will be    131072 words long.
 Raffenetti 2 integral format.
 Two-electron integral symmetry is turned on.
 Leave Link  301 at Sat Nov  7 02:04:17 2015, MaxMem=   805306368 cpu:         0.1
 (Enter /home/hetanjin/apps/g09D01/g09/l302.exe)
 NPDir=0 NMtPBC=     1 NCelOv=     1 NCel=       1 NClECP=     1 NCelD=      1
         NCelK=      1 NCelE2=     1 NClLst=     1 CellRange=     0.0.
 One-electron integrals computed using PRISM.
 NBasis=   116 RedAO= T EigKep=  3.88D-03  NBF=   116
 NBsUse=   116 1.00D-06 EigRej= -1.00D+00 NBFU=   116
 Precomputing XC quadrature grid using
 IXCGrd= 4 IRadAn=           5 IRanWt=          -1 IRanGd=           0 AccXCQ= 0.00D+00.
 Generated NRdTot=       0 NPtTot=           0 NUsed=           0 NTot=          32
 NSgBfM=   116   116   116   116   116 MxSgAt=    19 MxSgA2=    19.
 Leave Link  302 at Sat Nov  7 02:04:18 2015, MaxMem=   805306368 cpu:         1.9
 (Enter /home/hetanjin/apps/g09D01/g09/l303.exe)
 DipDrv:  MaxL=1.
 Leave Link  303 at Sat Nov  7 02:04:18 2015, MaxMem=   805306368 cpu:         0.2
 (Enter /home/hetanjin/apps/g09D01/g09/l401.exe)
 ExpMin= 1.61D-01 ExpMax= 3.05D+03 ExpMxC= 4.57D+02 IAcc=3 IRadAn=         5 AccDes= 0.00D+00
 Harris functional with IExCor=  402 and IRadAn=       5 diagonalized for initial guess.
 HarFok:  IExCor=  402 AccDes= 0.00D+00 IRadAn=         5 IDoV= 1 UseB2=F ITyADJ=14
 ICtDFT=  3500011 ScaDFX=  1.000000  1.000000  1.000000  1.000000
 FoFCou: FMM=F IPFlag=           0 FMFlag=      100000 FMFlg1=           0
         NFxFlg=           0 DoJE=T BraDBF=F KetDBF=T FulRan=T
         wScrn=  0.000000 ICntrl=     500 IOpCl=  0 I1Cent=   200000004 NGrid=           0
         NMat0=    1 NMatS0=      1 NMatT0=    0 NMatD0=    1 NMtDS0=    0 NMtDT0=    0
 Petite list used in FoFCou.
 Harris En= -236.451868295348    
 JPrj=0 DoOrth=F DoCkMO=F.
 Initial guess <Sx>= 0.0000 <Sy>= 0.0000 <Sz>= 0.5000 <S**2>= 0.7500 S= 0.5000
 Leave Link  401 at Sat Nov  7 02:04:20 2015, MaxMem=   805306368 cpu:         8.4
 (Enter /home/hetanjin/apps/g09D01/g09/l502.exe)
 UHF open shell SCF:
 Using DIIS extrapolation, IDIIS=  1040.
 Integral symmetry usage will be decided dynamically.
 Keep R1 and R2 ints in memory in canonical form, NReq=47059932.
 IVT=       60514 IEndB=       60514 NGot=   805306368 MDV=   759189273
 LenX=   759189273 LenY=   759175376
 Requested convergence on RMS density matrix=1.00D-08 within 128 cycles.
 Requested convergence on MAX density matrix=1.00D-06.
 Requested convergence on             energy=1.00D-06.
 No special actions if energy rises.
 FoFCou: FMM=F IPFlag=           0 FMFlag=           0 FMFlg1=           0
         NFxFlg=           0 DoJE=F BraDBF=F KetDBF=F FulRan=T
         wScrn=  0.000000 ICntrl=     600 IOpCl=  0 I1Cent=           0 NGrid=           0
         NMat0=    1 NMatS0=   6786 NMatT0=    0 NMatD0=    1 NMtDS0=    0 NMtDT0=    0
 Symmetry not used in FoFCou.
 Integral accuracy reduced to 1.0D-05 until final iterations.

 Cycle   1  Pass 0  IDiag  1:
 E= -236.151468473154    
 DIIS: error= 4.30D-02 at cycle   1 NSaved=   1.
 NSaved= 1 IEnMin= 1 EnMin= -236.151468473154     IErMin= 1 ErrMin= 4.30D-02
 ErrMax= 4.30D-02  0.00D+00 EMaxC= 1.00D-01 BMatC= 9.11D-01 BMatP= 9.11D-01
 IDIUse=3 WtCom= 5.70D-01 WtEn= 4.30D-01
 Coeff-Com:  0.100D+01
 Coeff-En:   0.100D+01
 Coeff:      0.100D+01
 Gap=     0.264 Goal=   None    Shift=    0.000
 Gap=     0.252 Goal=   None    Shift=    0.000
 GapD=    0.252 DampG=1.000 DampE=0.500 DampFc=0.5000 IDamp=-1.
 Damping current iteration by 5.00D-01
 RMSDP=9.39D-03 MaxDP=1.35D-01              OVMax= 1.78D-01

 Cycle   2  Pass 0  IDiag  1:
 E= -236.266322691078     Delta-E=       -0.114854217924 Rises=F Damp=T
 DIIS: error= 9.93D-03 at cycle   2 NSaved=   2.
 NSaved= 2 IEnMin= 2 EnMin= -236.266322691078     IErMin= 2 ErrMin= 9.93D-03
 ErrMax= 9.93D-03  0.00D+00 EMaxC= 1.00D-01 BMatC= 3.85D-02 BMatP= 9.11D-01
 IDIUse=3 WtCom= 9.01D-01 WtEn= 9.93D-02
 Coeff-Com:  0.699D-01 0.930D+00
 Coeff-En:   0.111D+00 0.889D+00
 Coeff:      0.740D-01 0.926D+00
 Gap=     0.298 Goal=   None    Shift=    0.000
 Gap=     0.259 Goal=   None    Shift=    0.000
 RMSDP=1.46D-03 MaxDP=2.30D-02 DE=-1.15D-01 OVMax= 1.00D-01

 Cycle   3  Pass 0  IDiag  1:
 E= -236.405847692924     Delta-E=       -0.139525001846 Rises=F Damp=F
 DIIS: error= 2.72D-03 at cycle   3 NSaved=   3.
 NSaved= 3 IEnMin= 3 EnMin= -236.405847692924     IErMin= 3 ErrMin= 2.72D-03
 ErrMax= 2.72D-03  0.00D+00 EMaxC= 1.00D-01 BMatC= 5.14D-03 BMatP= 3.85D-02
 IDIUse=3 WtCom= 9.73D-01 WtEn= 2.72D-02
 Coeff-Com: -0.149D-02 0.203D+00 0.798D+00
 Coeff-En:   0.000D+00 0.000D+00 0.100D+01
 Coeff:     -0.145D-02 0.198D+00 0.804D+00
 Gap=     0.302 Goal=   None    Shift=    0.000
 Gap=     0.247 Goal=   None    Shift=    0.000
 RMSDP=5.56D-04 MaxDP=1.27D-02 DE=-1.40D-01 OVMax= 1.40D-02

 Cycle   4  Pass 0  IDiag  1:
 E= -236.406577032466     Delta-E=       -0.000729339542 Rises=F Damp=F
 DIIS: error= 1.45D-03 at cycle   4 NSaved=   4.
 NSaved= 4 IEnMin= 4 EnMin= -236.406577032466     IErMin= 4 ErrMin= 1.45D-03
 ErrMax= 1.45D-03  0.00D+00 EMaxC= 1.00D-01 BMatC= 2.35D-03 BMatP= 5.14D-03
 IDIUse=3 WtCom= 9.86D-01 WtEn= 1.45D-02
 Coeff-Com: -0.445D-02 0.313D-01 0.411D+00 0.562D+00
 Coeff-En:   0.000D+00 0.000D+00 0.297D+00 0.703D+00
 Coeff:     -0.439D-02 0.308D-01 0.409D+00 0.564D+00
 Gap=     0.297 Goal=   None    Shift=    0.000
 Gap=     0.253 Goal=   None    Shift=    0.000
 RMSDP=2.26D-04 MaxDP=4.37D-03 DE=-7.29D-04 OVMax= 6.52D-03

 Cycle   5  Pass 0  IDiag  1:
 E= -236.407165890059     Delta-E=       -0.000588857593 Rises=F Damp=F
 DIIS: error= 3.68D-04 at cycle   5 NSaved=   5.
 NSaved= 5 IEnMin= 5 EnMin= -236.407165890059     IErMin= 5 ErrMin= 3.68D-04
 ErrMax= 3.68D-04  0.00D+00 EMaxC= 1.00D-01 BMatC= 7.29D-05 BMatP= 2.35D-03
 IDIUse=3 WtCom= 9.96D-01 WtEn= 3.68D-03
 Coeff-Com: -0.112D-02-0.400D-02 0.845D-01 0.204D+00 0.717D+00
 Coeff-En:   0.000D+00 0.000D+00 0.000D+00 0.000D+00 0.100D+01
 Coeff:     -0.111D-02-0.398D-02 0.842D-01 0.203D+00 0.718D+00
 Gap=     0.298 Goal=   None    Shift=    0.000
 Gap=     0.252 Goal=   None    Shift=    0.000
 RMSDP=4.13D-05 MaxDP=1.13D-03 DE=-5.89D-04 OVMax= 1.17D-03

 Cycle   6  Pass 0  IDiag  1:
 E= -236.407185640304     Delta-E=       -0.000019750245 Rises=F Damp=F
 DIIS: error= 5.65D-05 at cycle   6 NSaved=   6.
 NSaved= 6 IEnMin= 6 EnMin= -236.407185640304     IErMin= 6 ErrMin= 5.65D-05
 ErrMax= 5.65D-05  0.00D+00 EMaxC= 1.00D-01 BMatC= 2.36D-06 BMatP= 7.29D-05
 IDIUse=1 WtCom= 1.00D+00 WtEn= 0.00D+00
 Coeff-Com:  0.110D-03-0.202D-02-0.197D-01-0.198D-01 0.401D-01 0.100D+01
 Coeff:      0.110D-03-0.202D-02-0.197D-01-0.198D-01 0.401D-01 0.100D+01
 Gap=     0.298 Goal=   None    Shift=    0.000
 Gap=     0.252 Goal=   None    Shift=    0.000
 RMSDP=1.64D-05 MaxDP=4.32D-04 DE=-1.98D-05 OVMax= 4.65D-04

 Cycle   7  Pass 0  IDiag  1:
 E= -236.407186698092     Delta-E=       -0.000001057788 Rises=F Damp=F
 DIIS: error= 4.13D-05 at cycle   7 NSaved=   7.
 NSaved= 7 IEnMin= 7 EnMin= -236.407186698092     IErMin= 7 ErrMin= 4.13D-05
 ErrMax= 4.13D-05  0.00D+00 EMaxC= 1.00D-01 BMatC= 9.47D-07 BMatP= 2.36D-06
 IDIUse=1 WtCom= 1.00D+00 WtEn= 0.00D+00
 Coeff-Com:  0.172D-03-0.278D-03-0.197D-01-0.359D-01-0.804D-01 0.447D+00
 Coeff-Com:  0.690D+00
 Coeff:      0.172D-03-0.278D-03-0.197D-01-0.359D-01-0.804D-01 0.447D+00
 Coeff:      0.690D+00
 Gap=     0.298 Goal=   None    Shift=    0.000
 Gap=     0.253 Goal=   None    Shift=    0.000
 RMSDP=6.14D-06 MaxDP=1.93D-04 DE=-1.06D-06 OVMax= 1.91D-04

 Initial convergence to 1.0D-05 achieved.  Increase integral accuracy.
 Cycle   8  Pass 1  IDiag  1:
 E= -236.407170838312     Delta-E=        0.000015859780 Rises=F Damp=F
 DIIS: error= 1.02D-05 at cycle   1 NSaved=   1.
 NSaved= 1 IEnMin= 1 EnMin= -236.407170838312     IErMin= 1 ErrMin= 1.02D-05
 ErrMax= 1.02D-05  0.00D+00 EMaxC= 1.00D-01 BMatC= 9.99D-08 BMatP= 9.99D-08
 IDIUse=1 WtCom= 1.00D+00 WtEn= 0.00D+00
 Coeff-Com:  0.100D+01
 Coeff:      0.100D+01
 Gap=     0.298 Goal=   None    Shift=    0.000
 Gap=     0.252 Goal=   None    Shift=    0.000
 RMSDP=6.14D-06 MaxDP=1.93D-04 DE= 1.59D-05 OVMax= 7.95D-05

 Cycle   9  Pass 1  IDiag  1:
 E= -236.407170843608     Delta-E=       -0.000000005296 Rises=F Damp=F
 DIIS: error= 1.07D-05 at cycle   2 NSaved=   2.
 NSaved= 2 IEnMin= 2 EnMin= -236.407170843608     IErMin= 1 ErrMin= 1.02D-05
 ErrMax= 1.07D-05  0.00D+00 EMaxC= 1.00D-01 BMatC= 1.16D-07 BMatP= 9.99D-08
 IDIUse=1 WtCom= 1.00D+00 WtEn= 0.00D+00
 Coeff-Com:  0.521D+00 0.479D+00
 Coeff:      0.521D+00 0.479D+00
 Gap=     0.298 Goal=   None    Shift=    0.000
 Gap=     0.253 Goal=   None    Shift=    0.000
 RMSDP=1.59D-06 MaxDP=4.12D-05 DE=-5.30D-09 OVMax= 4.02D-05

 Cycle  10  Pass 1  IDiag  1:
 E= -236.407170873263     Delta-E=       -0.000000029656 Rises=F Damp=F
 DIIS: error= 1.77D-06 at cycle   3 NSaved=   3.
 NSaved= 3 IEnMin= 3 EnMin= -236.407170873263     IErMin= 3 ErrMin= 1.77D-06
 ErrMax= 1.77D-06  0.00D+00 EMaxC= 1.00D-01 BMatC= 2.51D-09 BMatP= 9.99D-08
 IDIUse=1 WtCom= 1.00D+00 WtEn= 0.00D+00
 Coeff-Com: -0.792D-01 0.149D-01 0.106D+01
 Coeff:     -0.792D-01 0.149D-01 0.106D+01
 Gap=     0.298 Goal=   None    Shift=    0.000
 Gap=     0.253 Goal=   None    Shift=    0.000
 RMSDP=4.59D-07 MaxDP=1.20D-05 DE=-2.97D-08 OVMax= 1.28D-05

 Cycle  11  Pass 1  IDiag  1:
 E= -236.407170874610     Delta-E=       -0.000000001346 Rises=F Damp=F
 DIIS: error= 9.82D-07 at cycle   4 NSaved=   4.
 NSaved= 4 IEnMin= 4 EnMin= -236.407170874610     IErMin= 4 ErrMin= 9.82D-07
 ErrMax= 9.82D-07  0.00D+00 EMaxC= 1.00D-01 BMatC= 6.03D-10 BMatP= 2.51D-09
 IDIUse=1 WtCom= 1.00D+00 WtEn= 0.00D+00
 Coeff-Com: -0.121D+00-0.844D-01 0.353D+00 0.852D+00
 Coeff:     -0.121D+00-0.844D-01 0.353D+00 0.852D+00
 Gap=     0.298 Goal=   None    Shift=    0.000
 Gap=     0.253 Goal=   None    Shift=    0.000
 RMSDP=2.08D-07 MaxDP=5.94D-06 DE=-1.35D-09 OVMax= 6.53D-06

 Cycle  12  Pass 1  IDiag  1:
 E= -236.407170874860     Delta-E=       -0.000000000250 Rises=F Damp=F
 DIIS: error= 3.33D-07 at cycle   5 NSaved=   5.
 NSaved= 5 IEnMin= 5 EnMin= -236.407170874860     IErMin= 5 ErrMin= 3.33D-07
 ErrMax= 3.33D-07  0.00D+00 EMaxC= 1.00D-01 BMatC= 7.81D-11 BMatP= 6.03D-10
 IDIUse=1 WtCom= 1.00D+00 WtEn= 0.00D+00
 Coeff-Com: -0.448D-01-0.373D-01 0.641D-01 0.366D+00 0.652D+00
 Coeff:     -0.448D-01-0.373D-01 0.641D-01 0.366D+00 0.652D+00
 Gap=     0.298 Goal=   None    Shift=    0.000
 Gap=     0.253 Goal=   None    Shift=    0.000
 RMSDP=4.55D-08 MaxDP=1.29D-06 DE=-2.50D-10 OVMax= 1.62D-06

 Cycle  13  Pass 1  IDiag  1:
 E= -236.407170874878     Delta-E=       -0.000000000019 Rises=F Damp=F
 DIIS: error= 8.29D-08 at cycle   6 NSaved=   6.
 NSaved= 6 IEnMin= 6 EnMin= -236.407170874878     IErMin= 6 ErrMin= 8.29D-08
 ErrMax= 8.29D-08  0.00D+00 EMaxC= 1.00D-01 BMatC= 5.57D-12 BMatP= 7.81D-11
 IDIUse=1 WtCom= 1.00D+00 WtEn= 0.00D+00
 Coeff-Com:  0.221D-02-0.223D-03-0.292D-01 0.470D-02 0.215D+00 0.807D+00
 Coeff:      0.221D-02-0.223D-03-0.292D-01 0.470D-02 0.215D+00 0.807D+00
 Gap=     0.298 Goal=   None    Shift=    0.000
 Gap=     0.253 Goal=   None    Shift=    0.000
 RMSDP=1.55D-08 MaxDP=3.27D-07 DE=-1.85D-11 OVMax= 4.36D-07

 Cycle  14  Pass 1  IDiag  1:
 E= -236.407170874880     Delta-E=       -0.000000000002 Rises=F Damp=F
 DIIS: error= 2.34D-08 at cycle   7 NSaved=   7.
 NSaved= 7 IEnMin= 7 EnMin= -236.407170874880     IErMin= 7 ErrMin= 2.34D-08
 ErrMax= 2.34D-08  0.00D+00 EMaxC= 1.00D-01 BMatC= 2.86D-13 BMatP= 5.57D-12
 IDIUse=1 WtCom= 1.00D+00 WtEn= 0.00D+00
 Coeff-Com:  0.283D-02 0.188D-02-0.108D-01-0.174D-01 0.214D-01 0.208D+00
 Coeff-Com:  0.794D+00
 Coeff:      0.283D-02 0.188D-02-0.108D-01-0.174D-01 0.214D-01 0.208D+00
 Coeff:      0.794D+00
 Gap=     0.298 Goal=   None    Shift=    0.000
 Gap=     0.253 Goal=   None    Shift=    0.000
 RMSDP=4.02D-09 MaxDP=8.42D-08 DE=-1.59D-12 OVMax= 9.53D-08

 SCF Done:  E(UB3LYP) =  -236.407170875     A.U. after   14 cycles
            NFock= 14  Conv=0.40D-08     -V/T= 2.0105
 <Sx>= 0.0000 <Sy>= 0.0000 <Sz>= 0.5000 <S**2>= 0.7529 S= 0.5014
 <L.S>= 0.000000000000E+00
 KE= 2.339451860720D+02 PE=-1.034221994035D+03 EE= 3.195448388084D+02
 Annihilation of the first spin contaminant:
 S**2 before annihilation     0.7529,   after     0.7500
 Leave Link  502 at Sat Nov  7 02:05:02 2015, MaxMem=   805306368 cpu:       154.9
 (Enter /home/hetanjin/apps/g09D01/g09/l601.exe)
 Copying SCF densities to generalized density rwf, IOpCl= 1 IROHF=0.

 **********************************************************************

            Population analysis using the SCF density.

 **********************************************************************

 Orbital symmetries:
 Alpha Orbitals:
       Occupied  (A) (A) (A) (A) (A) (A) (A) (A) (A) (A) (A) (A)
                 (A) (A) (A) (A) (A) (A) (A) (A) (A) (A) (A) (A)
                 (A)
       Virtual   (A) (A) (A) (A) (A) (A) (A) (A) (A) (A) (A) (A)
                 (A) (A) (A) (A) (A) (A) (A) (A) (A) (A) (A) (A)
                 (A) (A) (A) (A) (A) (A) (A) (A) (A) (A) (A) (A)
                 (A) (A) (A) (A) (A) (A) (A) (A) (A) (A) (A) (A)
                 (A) (A) (A) (A) (A) (A) (A) (A) (A) (A) (A) (A)
                 (A) (A) (A) (A) (A) (A) (A) (A) (A) (A) (A) (A)
                 (A) (A) (A) (A) (A) (A) (A) (A) (A) (A) (A) (A)
                 (A) (A) (A) (A) (A) (A) (A)
 Beta  Orbitals:
       Occupied  (A) (A) (A) (A) (A) (A) (A) (A) (A) (A) (A) (A)
                 (A) (A) (A) (A) (A) (A) (A) (A) (A) (A) (A) (A)
       Virtual   (A) (A) (A) (A) (A) (A) (A) (A) (A) (A) (A) (A)
                 (A) (A) (A) (A) (A) (A) (A) (A) (A) (A) (A) (A)
                 (A) (A) (A) (A) (A) (A) (A) (A) (A) (A) (A) (A)
                 (A) (A) (A) (A) (A) (A) (A) (A) (A) (A) (A) (A)
                 (A) (A) (A) (A) (A) (A) (A) (A) (A) (A) (A) (A)
                 (A) (A) (A) (A) (A) (A) (A) (A) (A) (A) (A) (A)
                 (A) (A) (A) (A) (A) (A) (A) (A) (A) (A) (A) (A)
                 (A) (A) (A) (A) (A) (A) (A) (A)
 The electronic state is 2-A.
 Alpha  occ. eigenvalues --  -10.19392 -10.18567 -10.17599 -10.17475 -10.17441
 Alpha  occ. eigenvalues --  -10.16996  -0.80832  -0.74408  -0.70665  -0.64789
 Alpha  occ. eigenvalues --   -0.58962  -0.54692  -0.45731  -0.44156  -0.42383
 Alpha  occ. eigenvalues --   -0.41374  -0.39533  -0.38603  -0.37334  -0.36213
 Alpha  occ. eigenvalues --   -0.34559  -0.32273  -0.31399  -0.30708  -0.20993
 Alpha virt. eigenvalues --    0.08803   0.11865   0.12050   0.13915   0.15122
 Alpha virt. eigenvalues --    0.15919   0.16854   0.17344   0.17927   0.18164
 Alpha virt. eigenvalues --    0.19165   0.21156   0.22512   0.24520   0.25113
 Alpha virt. eigenvalues --    0.25368   0.28001   0.29470   0.49683   0.51106
 Alpha virt. eigenvalues --    0.51739   0.53119   0.54230   0.57174   0.58989
 Alpha virt. eigenvalues --    0.60519   0.63475   0.64467   0.65936   0.69319
 Alpha virt. eigenvalues --    0.71290   0.77406   0.81033   0.81937   0.84917
 Alpha virt. eigenvalues --    0.87111   0.87891   0.89693   0.89860   0.90187
 Alpha virt. eigenvalues --    0.91996   0.92429   0.94429   0.95338   0.96740
 Alpha virt. eigenvalues --    0.98183   0.99386   0.99786   1.03184   1.04983
 Alpha virt. eigenvalues --    1.24232   1.31195   1.37175   1.40886   1.43726
 Alpha virt. eigenvalues --    1.57614   1.60765   1.63765   1.69902   1.74039
 Alpha virt. eigenvalues --    1.76176   1.87426   1.89588   1.93877   1.95243
 Alpha virt. eigenvalues --    1.96606   1.99406   2.00722   2.02205   2.08754
 Alpha virt. eigenvalues --    2.11987   2.16966   2.21126   2.28310   2.30291
 Alpha virt. eigenvalues --    2.31268   2.33543   2.35519   2.42514   2.49850
 Alpha virt. eigenvalues --    2.52341   2.58418   2.68281   2.76982   2.79327
 Alpha virt. eigenvalues --    4.09429   4.19354   4.26587   4.36979   4.41055
 Alpha virt. eigenvalues --    4.58378
  Beta  occ. eigenvalues --  -10.18593 -10.17965 -10.17631 -10.17448 -10.17342
  Beta  occ. eigenvalues --  -10.16996  -0.80178  -0.73686  -0.70307  -0.64413
  Beta  occ. eigenvalues --   -0.58071  -0.53885  -0.45558  -0.43553  -0.41663
  Beta  occ. eigenvalues --   -0.40838  -0.39313  -0.38165  -0.37148  -0.36013
  Beta  occ. eigenvalues --   -0.34188  -0.32035  -0.31111  -0.30243
  Beta virt. eigenvalues --   -0.04991   0.08915   0.12009   0.12222   0.14170
  Beta virt. eigenvalues --    0.15336   0.16066   0.17233   0.17404   0.18074
  Beta virt. eigenvalues --    0.18479   0.19350   0.21393   0.23002   0.24760
  Beta virt. eigenvalues --    0.25590   0.26217   0.28684   0.30184   0.49980
  Beta virt. eigenvalues --    0.51308   0.52131   0.53226   0.55940   0.58663
  Beta virt. eigenvalues --    0.59295   0.62916   0.64002   0.64938   0.66179
  Beta virt. eigenvalues --    0.70077   0.72259   0.78135   0.81432   0.82561
  Beta virt. eigenvalues --    0.85130   0.87330   0.88131   0.89878   0.90044
  Beta virt. eigenvalues --    0.90354   0.92181   0.92687   0.95497   0.95538
  Beta virt. eigenvalues --    0.96986   0.98396   0.99703   1.00007   1.03349
  Beta virt. eigenvalues --    1.05500   1.24991   1.31724   1.37861   1.41890
  Beta virt. eigenvalues --    1.44597   1.58567   1.60954   1.64473   1.70817
  Beta virt. eigenvalues --    1.74430   1.77098   1.88103   1.90402   1.95135
  Beta virt. eigenvalues --    1.95650   1.97463   1.99618   2.02020   2.03406
  Beta virt. eigenvalues --    2.09842   2.12907   2.18785   2.23061   2.28488
  Beta virt. eigenvalues --    2.30383   2.31608   2.34212   2.36070   2.43250
  Beta virt. eigenvalues --    2.50671   2.52734   2.59352   2.69049   2.77778
  Beta virt. eigenvalues --    2.80152   4.10442   4.19876   4.26720   4.38755
  Beta virt. eigenvalues --    4.41119   4.58802
          Condensed to atoms (all electrons):
               1          2          3          4          5          6
     1  C    5.118074   0.372364   0.363493   0.369393   0.359088  -0.054080
     2  H    0.372364   0.574174  -0.033738  -0.030264  -0.035332   0.005486
     3  H    0.363493  -0.033738   0.578579  -0.032031  -0.032448  -0.002323
     4  H    0.369393  -0.030264  -0.032031   0.570185  -0.028036  -0.002960
     5  C    0.359088  -0.035332  -0.032448  -0.028036   5.232202   0.350899
     6  H   -0.054080   0.005486  -0.002323  -0.002960   0.350899   0.635334
     7  C   -0.045777  -0.005954  -0.003374   0.003894   0.392435  -0.052099
     8  H   -0.006261   0.005920  -0.000169  -0.000012  -0.046693   0.006790
     9  C    0.003848   0.000047   0.000020  -0.000112  -0.043418  -0.005104
    10  H    0.000099  -0.000004   0.000007  -0.000009   0.001134  -0.000296
    11  H   -0.000019   0.000007   0.000002   0.000003  -0.004608   0.004866
    12  C   -0.000145  -0.000001   0.000003   0.000001   0.004039  -0.000018
    13  H    0.000001   0.000000   0.000000   0.000000   0.000018   0.000002
    14  H    0.000001   0.000000   0.000000   0.000000  -0.000114   0.000004
    15  H    0.000000  -0.000001   0.000000   0.000000   0.000044   0.000008
    16  C   -0.002039  -0.000371   0.001409   0.000103  -0.050907  -0.005476
    17  H    0.002170   0.000368   0.003518  -0.000105  -0.006036  -0.000084
    18  H   -0.000297   0.000084   0.000209  -0.000022  -0.004616   0.005917
    19  H    0.000018  -0.000031  -0.000117   0.000001   0.004959  -0.000125
               7          8          9         10         11         12
     1  C   -0.045777  -0.006261   0.003848   0.000099  -0.000019  -0.000145
     2  H   -0.005954   0.005920   0.000047  -0.000004   0.000007  -0.000001
     3  H   -0.003374  -0.000169   0.000020   0.000007   0.000002   0.000003
     4  H    0.003894  -0.000012  -0.000112  -0.000009   0.000003   0.000001
     5  C    0.392435  -0.046693  -0.043418   0.001134  -0.004608   0.004039
     6  H   -0.052099   0.006790  -0.005104  -0.000296   0.004866  -0.000018
     7  C    4.892352   0.369405   0.388252  -0.037919  -0.038382  -0.039147
     8  H    0.369405   0.645898  -0.046758  -0.003527   0.006508  -0.005056
     9  C    0.388252  -0.046758   4.994052   0.373305   0.369442   0.363039
    10  H   -0.037919  -0.003527   0.373305   0.605558  -0.037724  -0.039207
    11  H   -0.038382   0.006508   0.369442  -0.037724   0.618749  -0.040030
    12  C   -0.039147  -0.005056   0.363039  -0.039207  -0.040030   5.082718
    13  H   -0.004970  -0.000165  -0.032585   0.005067  -0.004640   0.376171
    14  H    0.003967  -0.000017  -0.026846  -0.003731  -0.002259   0.371660
    15  H   -0.004693   0.005759  -0.035886  -0.003837   0.005364   0.376664
    16  C    0.364942  -0.050105  -0.050301   0.005889  -0.008033  -0.003420
    17  H   -0.029956  -0.003344   0.004912  -0.000168  -0.000034   0.000075
    18  H   -0.035383   0.006053  -0.005292  -0.000022   0.005720  -0.000323
    19  H   -0.027273  -0.003143  -0.005490  -0.000035  -0.000080   0.002187
              13         14         15         16         17         18
     1  C    0.000001   0.000001   0.000000  -0.002039   0.002170  -0.000297
     2  H    0.000000   0.000000  -0.000001  -0.000371   0.000368   0.000084
     3  H    0.000000   0.000000   0.000000   0.001409   0.003518   0.000209
     4  H    0.000000   0.000000   0.000000   0.000103  -0.000105  -0.000022
     5  C    0.000018  -0.000114   0.000044  -0.050907  -0.006036  -0.004616
     6  H    0.000002   0.000004   0.000008  -0.005476  -0.000084   0.005917
     7  C   -0.004970   0.003967  -0.004693   0.364942  -0.029956  -0.035383
     8  H   -0.000165  -0.000017   0.005759  -0.050105  -0.003344   0.006053
     9  C   -0.032585  -0.026846  -0.035886  -0.050301   0.004912  -0.005292
    10  H    0.005067  -0.003731  -0.003837   0.005889  -0.000168  -0.000022
    11  H   -0.004640  -0.002259   0.005364  -0.008033  -0.000034   0.005720
    12  C    0.376171   0.371660   0.376664  -0.003420   0.000075  -0.000323
    13  H    0.576489  -0.031301  -0.033241   0.001826  -0.000117   0.000269
    14  H   -0.031301   0.577565  -0.031240   0.000112   0.000001  -0.000022
    15  H   -0.033241  -0.031240   0.580464  -0.000562  -0.000029   0.000078
    16  C    0.001826   0.000112  -0.000562   5.141270   0.371475   0.368858
    17  H   -0.000117   0.000001  -0.000029   0.371475   0.574553  -0.031928
    18  H    0.000269  -0.000022   0.000078   0.368858  -0.031928   0.581998
    19  H    0.003350  -0.000103   0.000399   0.367912  -0.030922  -0.031037
              19
     1  C    0.000018
     2  H   -0.000031
     3  H   -0.000117
     4  H    0.000001
     5  C    0.004959
     6  H   -0.000125
     7  C   -0.027273
     8  H   -0.003143
     9  C   -0.005490
    10  H   -0.000035
    11  H   -0.000080
    12  C    0.002187
    13  H    0.003350
    14  H   -0.000103
    15  H    0.000399
    16  C    0.367912
    17  H   -0.030922
    18  H   -0.031037
    19  H    0.568927
          Atomic-Atomic Spin Densities.
               1          2          3          4          5          6
     1  C   -0.048429   0.005937   0.001091   0.007473  -0.026969   0.006111
     2  H    0.005937   0.009042  -0.007535   0.001848  -0.004661   0.000158
     3  H    0.001091  -0.007535   0.091959  -0.006958  -0.022837  -0.003250
     4  H    0.007473   0.001848  -0.006958   0.009713  -0.005867   0.001115
     5  C   -0.026969  -0.004661  -0.022837  -0.005867   1.131465  -0.013843
     6  H    0.006111   0.000158  -0.003250   0.001115  -0.013843  -0.022696
     7  C    0.001182   0.000788  -0.000669   0.000014  -0.024764   0.004750
     8  H    0.000925   0.000370  -0.000515   0.000040  -0.003841   0.000121
     9  C    0.000180   0.000046  -0.000066   0.000008  -0.010720   0.001157
    10  H   -0.000084  -0.000018   0.000018  -0.000005   0.005975  -0.000403
    11  H    0.000007   0.000000   0.000000   0.000000   0.000008  -0.000073
    12  C   -0.000003  -0.000002   0.000004   0.000000   0.000338  -0.000074
    13  H    0.000000   0.000000   0.000000   0.000000   0.000010   0.000003
    14  H    0.000000   0.000000   0.000000   0.000000  -0.000011   0.000001
    15  H    0.000000   0.000000   0.000000   0.000000   0.000006   0.000000
    16  C   -0.001141  -0.000506   0.003226  -0.000089  -0.024512  -0.002829
    17  H   -0.000008  -0.000026   0.000329  -0.000003  -0.000766  -0.000057
    18  H    0.000037   0.000006  -0.000196   0.000004   0.000977   0.000132
    19  H    0.000013   0.000028  -0.000254   0.000002   0.001782   0.000135
               7          8          9         10         11         12
     1  C    0.001182   0.000925   0.000180  -0.000084   0.000007  -0.000003
     2  H    0.000788   0.000370   0.000046  -0.000018   0.000000  -0.000002
     3  H   -0.000669  -0.000515  -0.000066   0.000018   0.000000   0.000004
     4  H    0.000014   0.000040   0.000008  -0.000005   0.000000   0.000000
     5  C   -0.024764  -0.003841  -0.010720   0.005975   0.000008   0.000338
     6  H    0.004750   0.000121   0.001157  -0.000403  -0.000073  -0.000074
     7  C   -0.040497   0.004508   0.008853  -0.001663   0.000446  -0.000443
     8  H    0.004508   0.005644   0.002272  -0.000548  -0.000023  -0.000460
     9  C    0.008853   0.002272   0.020034  -0.005493  -0.000196  -0.003621
    10  H   -0.001663  -0.000548  -0.005493   0.001518   0.000211   0.001630
    11  H    0.000446  -0.000023  -0.000196   0.000211  -0.000990   0.000164
    12  C   -0.000443  -0.000460  -0.003621   0.001630   0.000164   0.002461
    13  H    0.000027   0.000046   0.000323  -0.000080   0.000005  -0.000663
    14  H   -0.000007   0.000006   0.000339  -0.000193  -0.000014  -0.000131
    15  H   -0.000013  -0.000039  -0.000221   0.000065  -0.000007   0.000295
    16  C    0.001514  -0.005478  -0.005242   0.000769  -0.000066   0.002060
    17  H    0.001118  -0.000096  -0.000036   0.000002   0.000000   0.000005
    18  H    0.000514   0.000045   0.000114  -0.000020  -0.000027  -0.000044
    19  H   -0.000192   0.000973   0.000767  -0.000086   0.000020  -0.000934
              13         14         15         16         17         18
     1  C    0.000000   0.000000   0.000000  -0.001141  -0.000008   0.000037
     2  H    0.000000   0.000000   0.000000  -0.000506  -0.000026   0.000006
     3  H    0.000000   0.000000   0.000000   0.003226   0.000329  -0.000196
     4  H    0.000000   0.000000   0.000000  -0.000089  -0.000003   0.000004
     5  C    0.000010  -0.000011   0.000006  -0.024512  -0.000766   0.000977
     6  H    0.000003   0.000001   0.000000  -0.002829  -0.000057   0.000132
     7  C    0.000027  -0.000007  -0.000013   0.001514   0.001118   0.000514
     8  H    0.000046   0.000006  -0.000039  -0.005478  -0.000096   0.000045
     9  C    0.000323   0.000339  -0.000221  -0.005242  -0.000036   0.000114
    10  H   -0.000080  -0.000193   0.000065   0.000769   0.000002  -0.000020
    11  H    0.000005  -0.000014  -0.000007  -0.000066   0.000000  -0.000027
    12  C   -0.000663  -0.000131   0.000295   0.002060   0.000005  -0.000044
    13  H    0.000565   0.000117  -0.000053  -0.000398   0.000001   0.000017
    14  H    0.000117  -0.000051  -0.000039  -0.000032   0.000000   0.000001
    15  H   -0.000053  -0.000039   0.000050   0.000037   0.000000  -0.000001
    16  C   -0.000398  -0.000032   0.000037   0.082611   0.000294  -0.001885
    17  H    0.000001   0.000000   0.000000   0.000294  -0.002712   0.000196
    18  H    0.000017   0.000001  -0.000001  -0.001885   0.000196  -0.001869
    19  H    0.000413   0.000020  -0.000021  -0.011159  -0.000399   0.000778
              19
     1  C    0.000013
     2  H    0.000028
     3  H   -0.000254
     4  H    0.000002
     5  C    0.001782
     6  H    0.000135
     7  C   -0.000192
     8  H    0.000973
     9  C    0.000767
    10  H   -0.000086
    11  H    0.000020
    12  C   -0.000934
    13  H    0.000413
    14  H    0.000020
    15  H   -0.000021
    16  C   -0.011159
    17  H   -0.000399
    18  H    0.000778
    19  H    0.018704
 Mulliken charges and spin densities:
               1          2
     1  C   -0.479932  -0.053677
     2  H    0.147245   0.005475
     3  H    0.156959   0.054346
     4  H    0.149968   0.007295
     5  C   -0.092610   1.001770
     6  H    0.113260  -0.029542
     7  C   -0.090319  -0.044533
     8  H    0.118915   0.003949
     9  C   -0.245126   0.008498
    10  H    0.135419   0.001596
    11  H    0.125147  -0.000535
    12  C   -0.449211   0.000582
    13  H    0.143825   0.000334
    14  H    0.142322   0.000005
    15  H    0.140710   0.000059
    16  C   -0.452585   0.037172
    17  H    0.145651  -0.002158
    18  H    0.139756  -0.001222
    19  H    0.150603   0.010589
 Sum of Mulliken charges =   0.00000   1.00000
 Mulliken charges and spin densities with hydrogens summed into heavy atoms:
               1          2
     1  C   -0.025760   0.013438
     5  C    0.020651   0.972228
     7  C    0.028596  -0.040584
     9  C    0.015441   0.009559
    12  C   -0.022354   0.000979
    16  C   -0.016575   0.044381
 Electronic spatial extent (au):  <R**2>=            839.5214
 Charge=              0.0000 electrons
 Dipole moment (field-independent basis, Debye):
    X=             -0.0701    Y=              0.5600    Z=              0.0104  Tot=              0.5645
 Quadrupole moment (field-independent basis, Debye-Ang):
   XX=            -40.4650   YY=            -41.7211   ZZ=            -40.3057
   XY=             -0.7253   XZ=             -0.0125   YZ=              0.1377
 Traceless Quadrupole moment (field-independent basis, Debye-Ang):
   XX=              0.3656   YY=             -0.8905   ZZ=              0.5249
   XY=             -0.7253   XZ=             -0.0125   YZ=              0.1377
 Octapole moment (field-independent basis, Debye-Ang**2):
  XXX=             -2.4144  YYY=              2.2296  ZZZ=             -0.2438  XYY=              1.5525
  XXY=              0.3176  XXZ=              1.0914  XZZ=             -0.1651  YZZ=              0.1531
  YYZ=             -0.5905  XYZ=              0.0457
 Hexadecapole moment (field-independent basis, Debye-Ang**3):
 XXXX=           -828.2098 YYYY=           -233.1015 ZZZZ=           -102.8185 XXXY=             -1.9557
 XXXZ=              0.3452 YYYX=             -3.4213 YYYZ=             -0.0541 ZZZX=              0.1752
 ZZZY=              1.3300 XXYY=           -172.5952 XXZZ=           -156.6746 YYZZ=            -57.4831
 XXYZ=             -0.9588 YYXZ=              0.0999 ZZXY=             -0.1240
 N-N= 2.443247982797D+02 E-N=-1.034221998732D+03  KE= 2.339451860720D+02
                          Isotropic Fermi Contact Couplings
        Atom                 a.u.       MegaHertz       Gauss      10(-4) cm-1
     1  C(13)             -0.00867      -9.74336      -3.47667      -3.25003
     2  H(1)               0.00343      15.33377       5.47147       5.11480
     3  H(1)               0.02481     110.91955      39.57885      36.99878
     4  H(1)               0.00499      22.31421       7.96227       7.44322
     5  C(13)              0.29671     333.56038     119.02263     111.26377
     6  H(1)              -0.00384     -17.16920      -6.12640      -5.72703
     7  C(13)             -0.00717      -8.05572      -2.87448      -2.68710
     8  H(1)               0.00233      10.40175       3.71160       3.46965
     9  C(13)              0.01266      14.23190       5.07830       4.74725
    10  H(1)              -0.00019      -0.84078      -0.30001      -0.28046
    11  H(1)              -0.00024      -1.07378      -0.38315      -0.35817
    12  C(13)              0.00013       0.14944       0.05332       0.04985
    13  H(1)               0.00009       0.38945       0.13897       0.12991
    14  H(1)               0.00004       0.17829       0.06362       0.05947
    15  H(1)               0.00008       0.35637       0.12716       0.11887
    16  C(13)              0.03783      42.52652      15.17452      14.18532
    17  H(1)              -0.00068      -3.02435      -1.07916      -1.00882
    18  H(1)              -0.00047      -2.09824      -0.74870      -0.69990
    19  H(1)               0.00368      16.47040       5.87705       5.49393
 --------------------------------------------------------
       Center         ----  Spin Dipole Couplings  ----
                      3XX-RR        3YY-RR        3ZZ-RR
 --------------------------------------------------------
     1   Atom        0.012776      0.004669     -0.017445
     2   Atom       -0.000337     -0.006027      0.006364
     3   Atom        0.002598      0.004832     -0.007430
     4   Atom        0.019867     -0.009058     -0.010809
     5   Atom       -0.466422      0.855429     -0.389007
     6   Atom       -0.057908     -0.012152      0.070060
     7   Atom        0.003255      0.016751     -0.020006
     8   Atom       -0.001594     -0.003387      0.004982
     9   Atom        0.021595     -0.011444     -0.010151
    10   Atom        0.013624     -0.004199     -0.009426
    11   Atom        0.007196     -0.005031     -0.002164
    12   Atom        0.004874     -0.002200     -0.002674
    13   Atom        0.002811     -0.000840     -0.001971
    14   Atom        0.002776     -0.001274     -0.001502
    15   Atom        0.002621     -0.001635     -0.000985
    16   Atom       -0.028301      0.058140     -0.029839
    17   Atom       -0.002144      0.009463     -0.007319
    18   Atom       -0.004717      0.004068      0.000650
    19   Atom        0.002075      0.002328     -0.004403
 --------------------------------------------------------
                        XY            XZ            YZ
 --------------------------------------------------------
     1   Atom       -0.026623      0.011395     -0.007760
     2   Atom       -0.005502      0.013027     -0.006016
     3   Atom       -0.009725      0.003343      0.000397
     4   Atom       -0.000941      0.002126      0.000346
     5   Atom       -0.147974     -0.039066      0.343247
     6   Atom       -0.004908     -0.005024      0.009326
     7   Atom        0.026860     -0.007201     -0.006424
     8   Atom        0.006921     -0.012307     -0.008677
     9   Atom        0.004659      0.007650      0.001183
    10   Atom       -0.005896     -0.001429      0.000299
    11   Atom        0.001772      0.006577      0.000776
    12   Atom        0.001239     -0.000919     -0.000113
    13   Atom        0.001509     -0.000279     -0.000094
    14   Atom        0.000058     -0.000141     -0.000032
    15   Atom        0.000776     -0.002155     -0.000290
    16   Atom        0.008564      0.000962      0.008667
    17   Atom       -0.000325      0.000886     -0.003369
    18   Atom        0.005195      0.001633      0.007001
    19   Atom        0.005272     -0.002948     -0.001276
 --------------------------------------------------------


 ---------------------------------------------------------------------------------
              Anisotropic Spin Dipole Couplings in Principal Axis System
 ---------------------------------------------------------------------------------

       Atom             a.u.   MegaHertz   Gauss  10(-4) cm-1        Axes

              Baa    -0.0215    -2.880    -1.028    -0.961 -0.4333 -0.1791  0.8833
     1 C(13)  Bbb    -0.0175    -2.351    -0.839    -0.784  0.5128  0.7569  0.4051
              Bcc     0.0390     5.231     1.867     1.745  0.7411 -0.6285  0.2361
 
              Baa    -0.0106    -5.676    -2.026    -1.893  0.8065  0.2901 -0.5152
     2 H(1)   Bbb    -0.0085    -4.511    -1.610    -1.505 -0.0582  0.9061  0.4190
              Bcc     0.0191    10.188     3.635     3.398  0.5884 -0.3079  0.7476
 
              Baa    -0.0097    -5.172    -1.846    -1.725 -0.4954 -0.3534  0.7935
     3 H(1)   Bbb    -0.0040    -2.129    -0.760    -0.710  0.5501  0.5794  0.6015
              Bcc     0.0137     7.301     2.605     2.435 -0.6723  0.7345 -0.0926
 
              Baa    -0.0110    -5.891    -2.102    -1.965 -0.0734 -0.2048  0.9760
     4 H(1)   Bbb    -0.0090    -4.803    -1.714    -1.602  0.0167  0.9783  0.2065
              Bcc     0.0200    10.694     3.816     3.567  0.9972 -0.0314  0.0684
 
              Baa    -0.4830   -64.813   -23.127   -21.619  0.9810  0.0613  0.1839
     5 C(13)  Bbb    -0.4773   -64.043   -22.852   -21.362 -0.1619 -0.2630  0.9511
              Bcc     0.9602   128.855    45.979    42.982 -0.1067  0.9629  0.2480
 
              Baa    -0.0586   -31.242   -11.148   -10.421  0.9946  0.0988  0.0317
     6 H(1)   Bbb    -0.0128    -6.823    -2.434    -2.276 -0.0945  0.9886 -0.1170
              Bcc     0.0713    38.065    13.583    12.697 -0.0429  0.1134  0.9926
 
              Baa    -0.0222    -2.976    -1.062    -0.993  0.3705 -0.1033  0.9231
     7 C(13)  Bbb    -0.0170    -2.287    -0.816    -0.763  0.6996 -0.6227 -0.3504
              Bcc     0.0392     5.263     1.878     1.756  0.6110  0.7756 -0.1584
 
              Baa    -0.0111    -5.901    -2.106    -1.968  0.8098 -0.0719  0.5824
     8 H(1)   Bbb    -0.0087    -4.639    -1.655    -1.547 -0.2005  0.8988  0.3898
              Bcc     0.0198    10.540     3.761     3.516 -0.5514 -0.4324  0.7134
 
              Baa    -0.0121    -1.630    -0.582    -0.544 -0.0263  0.9011 -0.4329
     9 C(13)  Bbb    -0.0118    -1.590    -0.567    -0.530 -0.2574  0.4123  0.8739
              Bcc     0.0240     3.220     1.149     1.074  0.9660  0.1344  0.2211
 
              Baa    -0.0095    -5.077    -1.812    -1.693  0.0659  0.0169  0.9977
    10 H(1)   Bbb    -0.0060    -3.184    -1.136    -1.062  0.2856  0.9577 -0.0351
              Bcc     0.0155     8.261     2.948     2.756  0.9561 -0.2873 -0.0583
 
              Baa    -0.0056    -2.988    -1.066    -0.997 -0.4667  0.3398  0.8165
    11 H(1)   Bbb    -0.0052    -2.786    -0.994    -0.929  0.0557  0.9327 -0.3563
              Bcc     0.0108     5.775     2.061     1.926  0.8827  0.1209  0.4542
 
              Baa    -0.0028    -0.374    -0.133    -0.125  0.1330 -0.0908  0.9869
    12 C(13)  Bbb    -0.0024    -0.323    -0.115    -0.108 -0.1531  0.9820  0.1110
              Bcc     0.0052     0.697     0.249     0.232  0.9792  0.1658 -0.1167
 
              Baa    -0.0020    -1.060    -0.378    -0.354  0.0555  0.0084  0.9984
    13 H(1)   Bbb    -0.0014    -0.738    -0.263    -0.246 -0.3380  0.9411  0.0109
              Bcc     0.0034     1.798     0.642     0.600  0.9395  0.3381 -0.0551
 
              Baa    -0.0015    -0.806    -0.288    -0.269  0.0309  0.1265  0.9915
    14 H(1)   Bbb    -0.0013    -0.678    -0.242    -0.226 -0.0187  0.9919 -0.1260
              Bcc     0.0028     1.484     0.530     0.495  0.9993  0.0146 -0.0330
 
              Baa    -0.0020    -1.072    -0.383    -0.358  0.4428 -0.2523  0.8604
    15 H(1)   Bbb    -0.0017    -0.931    -0.332    -0.310 -0.0252  0.9557  0.2932
              Bcc     0.0038     2.003     0.715     0.668  0.8963  0.1515 -0.4168
 
              Baa    -0.0307    -4.119    -1.470    -1.374 -0.0802 -0.0891  0.9928
    16 C(13)  Bbb    -0.0291    -3.909    -1.395    -1.304  0.9920 -0.1044  0.0708
              Bcc     0.0598     8.028     2.865     2.678  0.0973  0.9905  0.0968
 
              Baa    -0.0081    -4.311    -1.538    -1.438 -0.1352  0.1844  0.9735
    17 H(1)   Bbb    -0.0021    -1.096    -0.391    -0.365  0.9900  0.0646  0.1252
              Bcc     0.0101     5.407     1.929     1.804 -0.0397  0.9807 -0.1913
 
              Baa    -0.0076    -4.046    -1.444    -1.350  0.7949 -0.5309  0.2938
    18 H(1)   Bbb    -0.0036    -1.939    -0.692    -0.647 -0.5226 -0.3530  0.7761
              Bcc     0.0112     5.985     2.136     1.996  0.3083  0.7704  0.5580
 
              Baa    -0.0057    -3.015    -1.076    -1.006  0.4395 -0.1487  0.8858
    19 H(1)   Bbb    -0.0025    -1.352    -0.482    -0.451 -0.5663  0.7197  0.4018
              Bcc     0.0082     4.367     1.558     1.457  0.6973  0.6782 -0.2321
 

 ---------------------------------------------------------------------------------

 No NMR shielding tensors so no spin-rotation constants.
 Leave Link  601 at Sat Nov  7 02:05:02 2015, MaxMem=   805306368 cpu:         0.9
 (Enter /home/hetanjin/apps/g09D01/g09/l701.exe)
 Compute integral first derivatives.
 ... and contract with generalized density number  0.
 Leave Link  701 at Sat Nov  7 02:05:03 2015, MaxMem=   805306368 cpu:         0.6
 (Enter /home/hetanjin/apps/g09D01/g09/l702.exe)
 L702 exits ... SP integral derivatives will be done elsewhere.
 Leave Link  702 at Sat Nov  7 02:05:03 2015, MaxMem=   805306368 cpu:         0.1
 (Enter /home/hetanjin/apps/g09D01/g09/l703.exe)
 Compute integral first derivatives, UseDBF=F ICtDFT=           0.
 Integral derivatives from FoFJK, PRISM(SPDF).
 Calling FoFJK, ICntrl=      2127 FMM=F ISym2X=0 I1Cent= 0 IOpClX= 1 NMat=1 NMatS=1 NMatT=0.
 FoFJK:  IHMeth= 1 ICntrl=    2127 DoSepK=F KAlg= 0 I1Cent=   0 FoldK=F
 IRaf=         0 NMat=   1 IRICut=       1 DoRegI=T DoRafI=F ISym2E= 0.
 FoFCou: FMM=F IPFlag=           0 FMFlag=      100000 FMFlg1=         800
         NFxFlg=           0 DoJE=F BraDBF=F KetDBF=F FulRan=T
         wScrn=  0.000000 ICntrl=    2127 IOpCl=  1 I1Cent=           0 NGrid=           0
         NMat0=    1 NMatS0=      1 NMatT0=    0 NMatD0=    1 NMtDS0=    0 NMtDT0=    0
 Symmetry not used in FoFCou.
 Leave Link  703 at Sat Nov  7 02:05:10 2015, MaxMem=   805306368 cpu:        27.4
 (Enter /home/hetanjin/apps/g09D01/g09/l716.exe)
 Dipole        =-2.75641543D-02 2.20329437D-01 4.09310770D-03
 ***** Axes restored to original set *****
 -------------------------------------------------------------------
 Center     Atomic                   Forces (Hartrees/Bohr)
 Number     Number              X              Y              Z
 -------------------------------------------------------------------
      1        6           0.008413397   -0.021841585   -0.003623179
      2        1          -0.000675717    0.001074826   -0.000329940
      3        1           0.001056462    0.002493035    0.002148204
      4        1          -0.001036562    0.000662940    0.000199638
      5        6          -0.004796233    0.050576511    0.003963400
      6        1           0.001277271   -0.015262062    0.000194538
      7        6          -0.003297757   -0.019725562   -0.005096414
      8        1           0.000429573    0.000917699   -0.000109831
      9        6           0.001615459   -0.001663252    0.000275578
     10        1          -0.000532497    0.000748247    0.000237257
     11        1          -0.000135518    0.000036210   -0.000024953
     12        6          -0.000023865    0.000289429   -0.000010425
     13        1           0.000187857    0.000120416   -0.000026146
     14        1          -0.000073183    0.000004976    0.000013217
     15        1           0.000027175   -0.000027579   -0.000005758
     16        6          -0.003205656    0.002467624    0.002859673
     17        1           0.000096339   -0.000061311   -0.000040406
     18        1           0.000093526    0.000133263   -0.000205087
     19        1           0.000579927   -0.000943824   -0.000419366
 -------------------------------------------------------------------
 Cartesian Forces:  Max     0.050576511 RMS     0.008236645
 Leave Link  716 at Sat Nov  7 02:05:10 2015, MaxMem=   805306368 cpu:         0.1
 (Enter /home/hetanjin/apps/g09D01/g09/l103.exe)

 GradGradGradGradGradGradGradGradGradGradGradGradGradGradGradGradGradGrad
 Berny optimization.
 FormGI is forming the generalized inverse of G from B-inverse, IUseBI=4.
 Internal  Forces:  Max     0.013720462 RMS     0.003180196
 Search for a local minimum.
 Step number   1 out of a maximum of  100
 All quantities printed in internal units (Hartrees-Bohrs-Radians)
 RMS Force = .31802D-02 SwitMx=.10000D-02 MixMth= 1
 Mixed Optimization -- RFO/linear search
 Second derivative matrix not updated -- first step.
 ITU=  0
     Eigenvalues ---    0.00230   0.00230   0.00279   0.00326   0.00326
     Eigenvalues ---    0.02102   0.03219   0.03659   0.04708   0.04711
     Eigenvalues ---    0.05346   0.05357   0.05439   0.05496   0.05687
     Eigenvalues ---    0.06829   0.06983   0.08726   0.11320   0.12495
     Eigenvalues ---    0.16000   0.16000   0.16000   0.16000   0.16000
     Eigenvalues ---    0.16000   0.16000   0.16000   0.16000   0.16976
     Eigenvalues ---    0.18127   0.21941   0.23352   0.28249   0.28249
     Eigenvalues ---    0.28802   0.29125   0.29125   0.33394   0.33637
     Eigenvalues ---    0.33637   0.33788   0.33845   0.33973   0.33973
     Eigenvalues ---    0.34116   0.34116   0.34193   0.34193   0.34238
     Eigenvalues ---    0.34238
 RFO step:  Lambda=-1.38003374D-02 EMin= 2.30000000D-03
 Linear search not attempted -- first point.
 Iteration  1 RMS(Cart)=  0.08261988 RMS(Int)=  0.00676937
 Iteration  2 RMS(Cart)=  0.00900275 RMS(Int)=  0.00425446
 Iteration  3 RMS(Cart)=  0.00002993 RMS(Int)=  0.00425438
 Iteration  4 RMS(Cart)=  0.00000020 RMS(Int)=  0.00425438
 ITry= 1 IFail=0 DXMaxC= 3.03D-01 DCOld= 1.00D+10 DXMaxT= 3.00D-01 DXLimC= 3.00D+00 Rises=F
 Variable       Old X    -DE/DX   Delta X   Delta X   Delta X     New X
                                 (Linear)    (Quad)   (Total)
    R1        2.07376   0.00028   0.00000   0.00080   0.00080   2.07456
    R2        2.07005   0.00272   0.00000   0.00765   0.00765   2.07771
    R3        2.07134   0.00048   0.00000   0.00136   0.00136   2.07271
    R4        2.89742  -0.01190   0.00000  -0.03901  -0.03901   2.85841
    R5        2.07947  -0.00073   0.00000  -0.00207  -0.00207   2.07740
    R6        2.91596  -0.01106   0.00000  -0.03731  -0.03731   2.87865
    R7        2.08366   0.00007   0.00000   0.00020   0.00020   2.08385
    R8        2.91596   0.00125   0.00000   0.00423   0.00423   2.92020
    R9        2.90418   0.00212   0.00000   0.00702   0.00702   2.91121
   R10        2.07690  -0.00073   0.00000  -0.00207  -0.00207   2.07482
   R11        2.07947  -0.00003   0.00000  -0.00008  -0.00008   2.07939
   R12        2.89742   0.00024   0.00000   0.00079   0.00079   2.89821
   R13        2.07005   0.00014   0.00000   0.00040   0.00040   2.07045
   R14        2.07134  -0.00005   0.00000  -0.00015  -0.00015   2.07119
   R15        2.07376   0.00001   0.00000   0.00002   0.00002   2.07378
   R16        2.06931  -0.00009   0.00000  -0.00026  -0.00026   2.06904
   R17        2.07593  -0.00019   0.00000  -0.00054  -0.00054   2.07539
   R18        2.06930   0.00016   0.00000   0.00045   0.00045   2.06975
    A1        1.87842   0.00040   0.00000  -0.00061  -0.00056   1.87786
    A2        1.87726  -0.00046   0.00000   0.00510   0.00487   1.88213
    A3        1.93932   0.00212   0.00000   0.01465   0.01455   1.95388
    A4        1.87288   0.00020   0.00000  -0.00352  -0.00352   1.86936
    A5        1.95782  -0.00401   0.00000  -0.02712  -0.02708   1.93074
    A6        1.93461   0.00178   0.00000   0.01179   0.01167   1.94628
    A7        1.90987   0.00082   0.00000   0.11708   0.09338   2.00325
    A8        2.00987   0.01372   0.00000   0.10244   0.08176   2.09163
    A9        1.90093   0.00060   0.00000   0.11447   0.09054   1.99147
   A10        1.87539   0.00109   0.00000   0.01144   0.01143   1.88682
   A11        1.92053   0.00075   0.00000   0.00160   0.00154   1.92207
   A12        1.95271  -0.00265   0.00000  -0.01865  -0.01864   1.93407
   A13        1.87539  -0.00056   0.00000   0.00304   0.00301   1.87840
   A14        1.88339   0.00019   0.00000   0.00125   0.00128   1.88467
   A15        1.95271   0.00124   0.00000   0.00263   0.00258   1.95529
   A16        1.89165  -0.00045   0.00000  -0.00368  -0.00368   1.88796
   A17        1.90093  -0.00007   0.00000  -0.00108  -0.00109   1.89984
   A18        2.00987   0.00010   0.00000   0.00047   0.00047   2.01034
   A19        1.84904   0.00000   0.00000  -0.00021  -0.00021   1.84883
   A20        1.89569   0.00040   0.00000   0.00374   0.00374   1.89943
   A21        1.90987   0.00000   0.00000   0.00069   0.00069   1.91056
   A22        1.95782   0.00027   0.00000   0.00175   0.00175   1.95957
   A23        1.93461  -0.00013   0.00000  -0.00099  -0.00099   1.93362
   A24        1.93932  -0.00001   0.00000  -0.00002  -0.00002   1.93931
   A25        1.87288  -0.00007   0.00000  -0.00043  -0.00043   1.87245
   A26        1.87842  -0.00008   0.00000  -0.00009  -0.00009   1.87832
   A27        1.87726   0.00002   0.00000  -0.00029  -0.00029   1.87697
   A28        1.95027   0.00025   0.00000   0.00217   0.00216   1.95243
   A29        1.93183   0.00053   0.00000   0.00360   0.00360   1.93543
   A30        1.95027  -0.00179   0.00000  -0.01160  -0.01161   1.93867
   A31        1.87919  -0.00007   0.00000   0.00204   0.00202   1.88122
   A32        1.86960   0.00068   0.00000   0.00286   0.00285   1.87245
   A33        1.87920   0.00047   0.00000   0.00133   0.00133   1.88052
    D1        3.12776   0.00463   0.00000   0.13919   0.14154  -3.01389
    D2        0.98010  -0.00678   0.00000  -0.17904  -0.18161   0.79848
    D3        1.02422   0.00540   0.00000   0.14838   0.15086   1.17507
    D4       -1.12345  -0.00601   0.00000  -0.16985  -0.17229  -1.29574
    D5       -1.06899   0.00662   0.00000   0.16301   0.16556  -0.90343
    D6        3.06653  -0.00478   0.00000  -0.15523  -0.15759   2.90894
    D7       -0.95817   0.00630   0.00000   0.18053   0.18283  -0.77534
    D8       -2.99494   0.00595   0.00000   0.16956   0.17183  -2.82311
    D9        1.10606   0.00570   0.00000   0.17852   0.18074   1.28680
   D10       -3.11059  -0.00511   0.00000  -0.13757  -0.13979   3.03280
   D11        1.13582  -0.00547   0.00000  -0.14853  -0.15079   0.98503
   D12       -1.04636  -0.00572   0.00000  -0.13958  -0.14189  -1.18825
   D13        0.86823   0.00092   0.00000   0.00928   0.00929   0.87752
   D14       -1.13583   0.00120   0.00000   0.01205   0.01206  -1.12378
   D15        2.99493   0.00118   0.00000   0.01166   0.01167   3.00660
   D16       -1.16854  -0.00046   0.00000  -0.00694  -0.00693  -1.17547
   D17        3.11058  -0.00019   0.00000  -0.00417  -0.00416   3.10642
   D18        0.95816  -0.00021   0.00000  -0.00456  -0.00455   0.95361
   D19        3.05041  -0.00106   0.00000  -0.01186  -0.01188   3.03853
   D20        1.04635  -0.00079   0.00000  -0.00909  -0.00911   1.03723
   D21       -1.10608  -0.00081   0.00000  -0.00948  -0.00950  -1.11558
   D22       -1.01213  -0.00023   0.00000  -0.00944  -0.00943  -1.02157
   D23        1.08212   0.00020   0.00000  -0.00297  -0.00296   1.07916
   D24       -3.10680  -0.00004   0.00000  -0.00657  -0.00657  -3.11337
   D25        1.04733  -0.00032   0.00000  -0.00546  -0.00545   1.04188
   D26        3.14159   0.00012   0.00000   0.00101   0.00102  -3.14058
   D27       -1.04734  -0.00013   0.00000  -0.00260  -0.00259  -1.04993
   D28        3.10679  -0.00016   0.00000   0.00056   0.00055   3.10734
   D29       -1.08213   0.00028   0.00000   0.00703   0.00702  -1.07511
   D30        1.01213   0.00003   0.00000   0.00343   0.00341   1.01554
   D31        1.12344   0.00009   0.00000   0.00064   0.00064   1.12408
   D32       -3.06654   0.00008   0.00000   0.00058   0.00058  -3.06595
   D33       -0.98010   0.00001   0.00000  -0.00044  -0.00044  -0.98054
   D34       -3.03523  -0.00012   0.00000  -0.00099  -0.00099  -3.03622
   D35       -0.94203  -0.00012   0.00000  -0.00104  -0.00104  -0.94307
   D36        1.14441  -0.00019   0.00000  -0.00206  -0.00206   1.14234
   D37       -1.02422   0.00011   0.00000   0.00118   0.00119  -1.02304
   D38        1.06898   0.00010   0.00000   0.00113   0.00113   1.07011
   D39       -3.12777   0.00003   0.00000   0.00011   0.00011  -3.12766
         Item               Value     Threshold  Converged?
 Maximum Force            0.013720     0.000015     NO 
 RMS     Force            0.003180     0.000010     NO 
 Maximum Displacement     0.303027     0.000060     NO 
 RMS     Displacement     0.080522     0.000040     NO 
 Predicted change in Energy=-1.041406D-02
 Lowest energy point so far.  Saving SCF results.
 GradGradGradGradGradGradGradGradGradGradGradGradGradGradGradGradGradGrad

 Leave Link  103 at Sat Nov  7 02:05:10 2015, MaxMem=   805306368 cpu:         0.1
 (Enter /home/hetanjin/apps/g09D01/g09/l202.exe)
                          Input orientation:                          
 ---------------------------------------------------------------------
 Center     Atomic      Atomic             Coordinates (Angstroms)
 Number     Number       Type             X           Y           Z
 ---------------------------------------------------------------------
      1          6           0       -2.601379   -0.238066   -0.315658
      2          1           0       -2.538779   -0.268667   -1.411255
      3          1           0       -2.949209    0.765217   -0.030557
      4          1           0       -3.376089   -0.948952   -0.003403
      5          6           0       -1.271221   -0.545787    0.335463
      6          1           0       -1.307232   -0.652245    1.429016
      7          6           0       -0.001791    0.117294   -0.183543
      8          1           0       -0.017379    0.072149   -1.285237
      9          6           0        1.241408   -0.663347    0.299169
     10          1           0        1.090873   -1.725497    0.065350
     11          1           0        1.296808   -0.600539    1.396344
     12          6           0        2.574368   -0.207178   -0.306852
     13          1           0        2.832760    0.817654   -0.018109
     14          1           0        3.394092   -0.855181    0.023934
     15          1           0        2.543985   -0.245775   -1.403148
     16          6           0        0.050071    1.600096    0.231046
     17          1           0       -0.814983    2.158234   -0.141710
     18          1           0        0.068336    1.700610    1.324531
     19          1           0        0.947282    2.088429   -0.164115
 ---------------------------------------------------------------------
                    Distance matrix (angstroms):
                    1          2          3          4          5
     1  C    0.000000
     2  H    1.097811   0.000000
     3  H    1.099475   1.773047   0.000000
     4  H    1.096830   1.773675   1.766731   0.000000
     5  C    1.512604   2.175895   2.160636   2.169756   0.000000
     6  H    2.211391   3.119452   2.614506   2.533778   1.099313
     7  C    2.627089   2.844741   3.021669   3.543334   1.523318
     8  H    2.777296   2.547448   3.263463   3.737202   2.140241
     9  C    3.914829   4.167869   4.439683   4.636205   2.515639
    10  H    3.998793   4.180561   4.747117   4.534479   2.654085
    11  H    4.272962   4.764921   4.682948   4.890465   2.779072
    12  C    5.175847   5.231420   5.615318   6.004185   3.913537
    13  H    5.543731   5.654589   5.782221   6.455302   4.338968
    14  H    6.036707   6.132105   6.547223   6.770885   4.685928
    15  H    5.259037   5.082822   5.751634   6.123808   4.203400
    16  C    3.272295   3.590484   3.124283   4.276819   2.522207
    17  H    2.993948   3.236212   2.551034   4.029019   2.783447
    18  H    3.684571   4.261411   3.437558   4.543968   2.796242
    19  H    4.246003   4.389064   4.117205   5.286119   3.480004
                    6          7          8          9         10
     6  H    0.000000
     7  C    2.212852   0.000000
     8  H    3.091219   1.102728   0.000000
     9  C    2.787874   1.545301   2.153100   0.000000
    10  H    2.960129   2.156790   2.506759   1.097950   0.000000
    11  H    2.604757   2.167415   3.061123   1.100367   1.754846
    12  C    4.275294   2.599439   2.784315   1.533667   2.155129
    13  H    4.625398   2.924475   3.206974   2.196914   3.083626
    14  H    4.910996   3.538471   3.769881   2.178670   2.462515
    15  H    4.797733   2.846091   2.583711   2.183795   2.541180
[...]
 37,-0.12315990,-0.17620704,0.05036264,0.00266091,0.00120359,-0.0003479
 2,-0.01923271,-0.02264126,0.00878877,0.13227030,0.19129171,0.04479168,
 0.04974262,-0.07072714,0.02105166,0.02407925,-0.00662451,-0.00570896,-
 0.00704763,0.00231269,-0.04902945,-0.05609328,0.06923084,-0.19589974,0
 .01044359,-0.05891962,0.00266439,0.00154349,-0.00205360,-0.01827188,0.
 00888105,-0.00679550,-0.02289359,0.00607984,-0.00996936,0.50268507,0.0
 1211270,-0.06021535,0.02523728,0.00265341,-0.00091707,0.00363728,0.024
 25085,-0.00046965,0.01410697,-0.01810600,0.00575107,-0.01095004,0.0489
 5325,0.20488866,-0.05908419,0.02550436,-0.11037507,-0.03086495,0.00797
 753,-0.01485124,0.00113761,0.00554770,0.00396001,0.01015248,-0.0026076
 2,0.00559630,0.03582120,-0.18803654,0.50701499,0.00248842,0.00803500,-
 0.02606065,-0.00454266,0.00146887,-0.00235295,-0.00042705,0.00062991,0
 .00007274,0.00137005,-0.00042244,0.00064843,-0.05459142,-0.00634257,-0
 .00291502,0.05618345,-0.00187574,0.00151513,0.00607467,0.00036579,0.00
 077187,-0.00146111,-0.00026981,-0.00002489,-0.00112272,0.00088017,0.00
 045998,-0.00072064,-0.00564702,-0.05623786,0.10450638,0.00665778,0.053
 65441,0.00257595,0.00269950,-0.00746769,-0.00233386,0.00090663,-0.0005
 4552,-0.00029856,0.00013341,-0.00070789,0.00002679,-0.00032395,0.00051
 755,-0.00449713,0.11244742,-0.28905020,0.00494691,-0.11861115,0.303697
 39,-0.02085886,-0.01382783,0.00754680,0.00190403,-0.00011871,0.0014164
 2,0.00121053,-0.00019455,0.00055596,-0.00275120,0.00151664,-0.00115053
 ,-0.17187484,-0.04638777,0.03571080,0.00199814,0.00082849,-0.00237557,
 0.47300798,0.00515944,0.00803621,-0.00366073,0.00012227,-0.00024765,0.
 00060637,-0.00032848,-0.00101621,0.00006511,0.00133117,-0.00017765,0.0
 0107593,-0.04752310,-0.07478251,0.03508999,-0.00740106,-0.00056708,0.0
 0118848,0.00304711,0.41001090,-0.00913868,-0.00739225,0.00718374,-0.00
 158119,-0.00070821,0.00036968,-0.00103040,0.00043625,-0.00014861,-0.00
 459040,0.00017423,-0.00147034,0.03506828,0.03403424,-0.09948492,0.0231
 2376,0.01407945,-0.00699860,-0.00248884,-0.01806304,0.57331910,0.00143
 946,0.00048239,0.00160493,-0.00017382,0.00002253,-0.00099947,-0.000186
 58,0.00002781,-0.00019548,0.00033437,-0.00004710,-0.00019236,-0.001055
 00,-0.00300821,0.02829374,-0.00390320,-0.00166408,0.00187869,-0.050656
 16,0.00187622,-0.00435179,0.05722702,0.00070160,-0.00006994,-0.0001298
 7,-0.00007750,0.00019783,-0.00042662,0.00008881,0.00004161,-0.00015335
 ,0.00022196,-0.00006033,0.00002507,-0.00229021,-0.00180548,0.01577358,
 -0.00240668,-0.00041832,0.00149929,0.00187065,-0.04500384,-0.01022048,
 0.00096362,0.05743379,-0.00131770,0.00008741,0.00057789,0.00109095,-0.
 00016808,0.00090693,0.00005899,-0.00016589,0.00014827,-0.00013005,0.00
 004337,0.00053619,0.00199453,0.00372413,-0.01367925,0.00220326,-0.0005
 1389,-0.00043964,-0.00635306,-0.01135691,-0.28618357,0.00560921,0.0108
 4857,0.31526502,-0.00210115,-0.00108224,0.00197492,-0.00006561,-0.0000
 8939,-0.00004614,-0.00036148,0.00020737,-0.00007620,-0.00056959,0.0002
 7288,-0.00037205,-0.03422910,0.01023581,-0.00887761,0.00203468,0.00069
 779,-0.00140802,-0.13008976,0.03960678,-0.02352961,-0.00302985,0.00136
 701,-0.00115918,0.45707234,-0.00268527,-0.00231362,0.00155237,0.000224
 47,0.00002551,-0.00003173,-0.00018915,0.00023802,-0.00001015,-0.001254
 46,0.00010956,-0.00028700,-0.00757113,0.00701177,-0.00691146,-0.000683
 64,0.00051797,0.00056291,0.03690069,-0.10306676,0.01786834,-0.00078038
 ,0.00038025,-0.00002202,0.02732906,0.55548125,0.00151456,0.00144129,-0
 .00170448,-0.00007239,0.00004987,0.00053444,0.00006703,-0.00019041,0.0
 0014693,0.00069003,0.00002653,0.00066770,0.00778466,-0.00653130,0.0056
 1482,0.00157793,-0.00043052,0.00032549,-0.02233063,0.01804312,-0.09392
 917,-0.02729192,0.01774984,-0.01176921,0.00188850,0.03266753,0.5631920
 8,0.00000888,0.00010941,-0.00001031,0.00004159,0.00004164,0.00005438,0
 .00014430,-0.00006718,0.00003833,0.00003775,-0.00001659,0.00003207,0.0
 0087990,0.00079720,-0.00028578,-0.00002759,-0.00004255,0.00031482,0.00
 213141,0.02674431,0.00676465,0.00084298,-0.00082601,0.00011668,-0.0531
 2862,-0.03932125,-0.00930459,0.06493767,0.00021869,0.00020862,-0.00003
 938,-0.00002949,-0.00006328,-0.00001791,-0.00018535,0.00009979,-0.0000
 2641,0.00011246,0.00001831,0.00000692,-0.00156468,0.00077971,0.0005146
 9,0.00036453,-0.00008635,-0.00040748,-0.00136840,-0.01706636,-0.004814
 12,-0.00025764,0.00034906,0.00051878,-0.03854881,-0.28526374,-0.053934
 07,0.04169636,0.31061479,0.00009217,0.00011737,-0.00010695,-0.00003330
 ,0.00002741,-0.00004634,-0.00000927,-0.00000387,-0.00002308,0.00003756
 ,-0.00001581,0.00000803,0.00053726,-0.00026923,0.00047740,0.00002692,-
 0.00012834,-0.00020119,0.00070067,0.01212650,0.00206205,0.00076861,-0.
 00001847,0.00042827,-0.00874921,-0.05414924,-0.06447945,0.00893101,0.0
 5807510,0.06474910,-0.00013334,-0.00022002,0.00005720,0.00007486,-0.00
 002646,0.00025355,0.00005244,0.00000296,0.00002852,-0.00007214,-0.0000
 0209,0.00006731,0.00164688,0.00073416,-0.00137839,-0.00031972,-0.00040
 858,0.00070807,-0.00358337,-0.00130624,-0.02747135,-0.00417444,0.00292
 637,-0.00147611,-0.04905446,-0.00144138,-0.01467305,-0.00071656,-0.000
 25015,-0.00515663,0.05758693,0.00006067,-0.00003610,0.00009892,-0.0000
 3600,-0.00003727,-0.00007629,0.00001200,-0.00000888,-0.00000198,0.0000
 1543,-0.00000526,-0.00006780,-0.00084285,0.00009367,-0.00028022,-0.000
 13061,0.00018303,-0.00012239,0.00237023,0.00020546,0.01893056,0.003017
 86,-0.00138887,0.00167606,-0.00149438,-0.05261268,-0.01995189,-0.00184
 114,-0.00189456,-0.03274950,0.00045899,0.05289032,-0.00030023,-0.00019
 676,0.00044736,0.00026105,-0.00002414,0.00012732,-0.00000387,0.0000241
 8,0.00001451,-0.00011367,0.00000133,-0.00002752,0.00109000,0.00049632,
 0.00005810,-0.00072958,-0.00043426,0.00056674,-0.00182018,-0.00058498,
 -0.01298846,-0.00213802,0.00139885,0.00050330,-0.01432929,-0.01958263,
 -0.29557117,-0.00048966,-0.00124137,-0.00714865,0.01532999,0.01982831,
 0.32392771,-0.00033702,-0.00037042,0.00094403,0.00006726,-0.00000301,-
 0.00004633,-0.00008225,0.00005210,-0.00005465,-0.00024133,0.00002513,-
 0.00013272,-0.00238539,0.00221514,-0.00209235,-0.00003811,-0.00013412,
 0.00015998,-0.02691246,-0.00495735,0.00978547,0.00154996,-0.00094382,0
 .00087745,-0.16292571,-0.02988917,0.04011265,-0.00736337,-0.00214907,0
 .00323801,0.00056374,0.00001585,-0.00015259,0.50054467,0.00080089,0.00
 105174,-0.00053757,-0.00005192,-0.00002780,0.00003160,-0.00002337,-0.0
 0008682,-0.00004040,0.00044310,-0.00003753,0.00017597,0.00252243,-0.00
 196501,0.00229719,0.00014501,-0.00016886,-0.00031952,0.01466524,0.0077
 0352,-0.00965838,-0.00042332,0.00027145,-0.00028282,-0.02795717,-0.093
 33244,0.01417684,-0.02991162,-0.00854634,0.01478463,0.00229235,0.00041
 977,-0.00097110,-0.02274166,0.57093072,-0.00073519,-0.00053530,0.00072
 002,0.00008083,-0.00001918,-0.00003557,-0.00004920,0.00009908,-0.00003
 727,-0.00029971,0.00000392,-0.00015122,-0.00156640,0.00189163,-0.00167
 544,-0.00013571,-0.00010722,0.00039765,-0.00839177,-0.00453014,0.00560
 431,-0.00147292,-0.00017218,0.00048456,0.04039933,0.01361947,-0.100654
 57,-0.00662961,-0.00190004,0.00317714,0.03158119,0.01095460,-0.0131454
 4,0.03678482,0.00945683,0.55554129,0.00004275,0.00002862,-0.00006521,-
 0.00001705,-0.00001107,-0.00001216,-0.00006961,0.00002610,-0.00000897,
 0.00002089,0.00001409,0.00000176,-0.00002956,0.00032868,0.00027349,0.0
 0011393,-0.00005007,-0.00011877,0.00109091,-0.00059413,-0.00046946,-0.
 00013366,0.00007189,-0.00002601,-0.00603026,-0.02895077,-0.00878922,-0
 .00518585,-0.00148210,0.00285816,0.00138324,0.00076229,-0.00013094,-0.
 06372534,-0.05754836,-0.01658831,0.06824927,-0.00000115,-0.00005376,0.
 00003460,-0.00000506,-0.00000680,-0.00001094,-0.00006021,0.00005121,-0
 .00000719,-0.00003548,0.00000514,-0.00001268,-0.00017809,0.00023986,-0
 .00004544,0.00002850,-0.00003332,-0.00003304,0.00038433,-0.00027627,0.
 00037563,-0.00001441,0.00004909,0.00000512,-0.00253376,-0.00810106,-0.
 00171153,-0.00155068,0.00110418,0.00128763,0.00001949,0.00043138,0.000
 48116,-0.05820883,-0.27890729,-0.06502600,0.06408592,0.30429386,-0.000
 01168,-0.00003375,-0.00000733,0.00000916,-0.00000557,0.00000795,0.0000
 0792,-0.00000178,0.00001477,-0.00000146,0.00000815,-0.00000137,-0.0001
 0500,0.00003907,-0.00003783,-0.00000511,0.00000437,0.00002291,-0.00044
 237,-0.00054062,0.00004654,0.00001813,-0.00007500,0.00006986,0.0027680
 8,0.01510883,0.00379205,0.00329622,0.00105933,-0.00034513,-0.00085810,
 0.00027806,0.00067202,-0.01697220,-0.06509692,-0.06896056,0.01605233,0
 .07098416,0.06953376,-0.00029283,-0.00033528,0.00041911,0.00003171,0.0
 0000863,-0.00003935,-0.00007671,0.00007806,-0.00002561,-0.00021503,0.0
 0000939,-0.00008413,-0.00092362,0.00107113,-0.00104212,-0.00006355,-0.
 00001642,0.00013038,-0.00332813,-0.00359766,0.00421899,0.00031961,-0.0
 0020930,0.00001765,-0.02163267,0.01832504,-0.01015009,0.00100245,-0.00
 038490,-0.00069597,0.00105315,0.00023228,0.00037819,-0.18886457,0.1170
 1772,-0.06019807,0.00675275,-0.00467930,0.00342562,0.20663128,-0.00009
 610,-0.00012582,0.00003043,0.00000148,-0.00000282,-0.00000429,-0.00000
 691,0.00000322,0.00000638,-0.00004182,0.00001634,-0.00002241,-0.000326
 07,0.00039988,-0.00014589,0.00001774,-0.00000527,0.00001500,-0.0020387
 1,-0.00045067,0.00112381,0.00006224,-0.00011801,0.00006183,-0.00939490
 ,0.00657137,-0.00417040,0.00031783,0.00084634,-0.00045627,0.00060066,0
 .00011388,-0.00031394,0.11757816,-0.14598471,0.04926919,0.02310733,-0.
 01836279,0.01075584,-0.12729579,0.15557352,0.00016263,0.00016953,-0.00
 014192,-0.00000312,0.00000571,0.00000608,0.00000146,-0.00001632,-0.000
 00115,0.00008044,-0.00000536,0.00003575,0.00047056,-0.00036503,0.00070
 182,-0.00005576,-0.00001658,-0.00002724,0.00173038,0.00120665,-0.00139
 153,0.00030028,-0.00001674,0.00045580,0.01135414,-0.00993554,0.0042752
 4,-0.00076809,-0.00008158,0.00039367,-0.00054416,-0.00051777,0.0004468
 0,-0.06047499,0.04930757,-0.07483199,0.00790262,-0.00582285,0.00256059
 ,0.06445883,-0.05538131,0.07678018,0.00006366,0.00004944,-0.00012655,-
 0.00006120,0.00000745,-0.00004080,-0.00000374,-0.00000339,-0.00000448,
 0.00002736,-0.00000046,0.00000759,-0.00008500,-0.00027665,0.00007869,0
 .00010037,0.00011604,-0.00023974,0.00217484,-0.00012661,0.00152224,-0.
 00024192,0.00009318,-0.00094674,0.00100344,0.00232255,0.03135550,0.001
 17574,0.00017271,-0.00080713,-0.00541712,-0.00193783,0.00266925,-0.049
 46066,-0.00036320,-0.01242238,-0.00128020,0.00060135,-0.00738118,-0.00
 074885,-0.00286046,-0.02464013,0.05275711,0.00000972,-0.00001489,-0.00
 002714,-0.00000985,0.00001424,-0.00000107,-0.00000040,0.00000474,-0.00
 000475,-0.00001437,-0.00000401,0.00000835,0.00008486,-0.00009956,0.000
 02194,0.00002673,0.00001354,-0.00001024,0.00038224,0.00021800,-0.00068
 336,-0.00000327,0.00019850,-0.00012605,0.00083340,0.00018837,0.0104868
 1,0.00065575,0.00018154,0.00022802,-0.00207331,0.00033223,0.00087004,-
 0.00050135,-0.05150176,-0.01313217,-0.00145810,-0.00000442,-0.03238043
 ,0.00001016,0.00119723,0.02133055,0.00213631,0.04938150,0.00003002,0.0
 0003647,-0.00001125,0.00003853,-0.00000435,0.00003416,0.00000967,-0.00
 000870,0.00000693,0.00003115,0.00000270,0.00000633,0.00004233,-0.00008
 066,0.00039973,-0.00022402,-0.00006572,0.00008246,-0.00117905,0.000197
 48,0.00033471,0.00087801,-0.00038305,0.00070620,0.00007405,-0.00058296
 ,-0.01371220,0.00003928,0.00043489,0.00056330,0.00267070,0.00137471,0.
 00048973,-0.01233407,-0.01315621,-0.30674784,-0.00081533,-0.00031655,-
 0.00759291,-0.00071625,-0.00070235,-0.00929674,0.01122080,0.01338089,0
 .33469922,0.00039098,0.00102831,0.00082892,-0.00012078,-0.00030402,-0.
 00027481,-0.00124896,0.00019160,-0.00015897,-0.00022885,0.00019848,-0.
 00001906,-0.00625321,-0.02738617,-0.00371364,-0.00049221,0.00086507,0.
 00045377,-0.07489984,-0.01014777,-0.00564241,0.00083871,-0.00127496,-0
 .00057180,0.00263065,0.02840026,0.00635992,-0.00496823,0.00399297,-0.0
 0168718,0.00094800,-0.00066371,0.00065607,0.00080203,0.00078519,0.0000
 8762,-0.00069078,0.00038816,-0.00016652,0.00017597,-0.00018128,0.00009
 558,-0.00010289,0.00007823,0.00033111,0.57675184,0.00030783,0.00066961
 ,-0.00004014,-0.00004404,0.00001121,-0.00008924,0.00046003,-0.00031370
 ,-0.00023265,0.00042680,-0.00012747,0.00017316,-0.01633236,-0.02006681
 ,0.00302885,0.00066927,0.00080916,-0.00015165,0.00506216,-0.14896768,-
 0.02727238,0.00005909,-0.00641983,-0.00197436,0.00465547,-0.02277386,-
 0.00401352,0.00155806,-0.00071105,0.00041277,-0.00156987,0.00130660,-0
 .00078942,0.00071715,0.00108645,0.00011716,-0.00011776,-0.00086150,-0.
 00042395,-0.00063563,-0.00043593,0.00016356,0.00009417,-0.00004983,-0.
 00007664,-0.01002921,0.45177462,-0.00008707,-0.00008002,-0.00053214,0.
 00026479,0.00003237,0.00018940,0.00005476,-0.00016245,0.00023505,0.000
 14216,0.00012829,0.00019763,0.00006079,0.01015799,0.00368951,0.0006627
 2,-0.00029948,-0.00054375,-0.00015906,-0.01943520,-0.08320504,-0.00251
 780,-0.03499814,-0.00999924,0.00033610,0.01002117,0.00314718,-0.002218
 66,0.00206326,-0.00036362,-0.00001696,0.00150666,0.00058204,-0.0004673
 5,-0.00032987,-0.00049495,0.00028958,0.00025483,0.00052738,-0.00005240
 ,0.00033292,0.00016668,-0.00009987,0.00004362,0.00008909,-0.00014195,-
 0.03407337,0.56366523,0.00005459,-0.00011322,-0.00007912,0.00000686,0.
 00005141,0.00004871,-0.00002074,-0.00026298,-0.00003595,0.00013749,-0.
 00003041,0.00007360,0.00031666,-0.00066181,0.00039457,0.00004427,-0.00
 005576,-0.00002985,0.00283013,-0.00204717,0.00153130,0.00011915,0.0004
 0816,0.00043508,0.00041177,-0.00080550,0.00033406,0.00014247,-0.000116
 72,-0.00002934,-0.00004014,-0.00010955,-0.00001694,-0.00011669,-0.0002
 1958,-0.00028653,0.00040486,0.00027870,0.00010005,0.00004914,0.0002429
 3,0.00001941,0.00002228,0.00005500,0.00006157,-0.22361840,0.10550641,-
 0.06809736,0.24116250,0.00018706,-0.00047264,-0.00019334,-0.00005729,-
 0.00007389,-0.00010558,-0.00078120,0.00020623,0.00010052,-0.00018664,0
 .00029493,-0.00001559,0.00176036,0.00133505,0.00038566,-0.00009508,-0.
 00010193,-0.00011248,0.02540132,-0.01611630,0.01141177,-0.00018729,0.0
 0138040,-0.00026786,-0.00256493,-0.00619053,-0.00283645,0.00191673,-0.
 00127319,0.00053665,-0.00027402,0.00021612,0.00000993,-0.00081615,-0.0
 0019429,0.00009655,0.00021677,0.00037449,0.00006058,0.00014408,0.00018
 799,0.00000331,0.00006560,0.00002685,-0.00006405,0.10487735,-0.1103258
 8,0.04126400,-0.11468276,0.12177346,-0.00012805,0.00014205,0.00023055,
 -0.00000749,-0.00010884,-0.00013113,0.00028502,-0.00011725,0.00011989,
 0.00004775,-0.00008429,-0.00010730,-0.00020209,0.00055933,-0.00015782,
 -0.00001573,0.00005909,0.00004186,0.00832961,-0.00459339,0.00223904,0.
 00043289,0.00051542,0.00044536,-0.00040135,-0.00137724,-0.00026093,0.0
 0024911,-0.00028601,0.00052400,0.00020902,-0.00030028,0.00044878,0.000
 02459,-0.00002105,0.00019020,-0.00007845,-0.00004505,-0.00016883,-0.00
 003477,-0.00008281,-0.00000502,-0.00003318,0.00003124,0.00001040,-0.06
 773230,0.04134113,-0.07616674,0.07491123,-0.04415989,0.07747054,-0.000
 23421,-0.00009468,0.00000094,0.00004727,0.00008532,0.00011689,0.000007
 14,-0.00007594,-0.00009924,-0.00001679,-0.00005330,0.00000585,0.000131
 05,0.00060118,-0.00090079,0.00013195,-0.00018238,0.00006348,-0.0010692
 7,-0.00019761,-0.00200141,0.00074427,-0.00039141,-0.00000593,0.0003590
 7,0.00016488,0.00125372,-0.00005931,-0.00005313,-0.00010154,0.00019726
 ,0.00006712,-0.00012492,-0.00011172,0.00000941,-0.00005155,-0.00003693
 ,-0.00006177,0.00013832,-0.00000703,0.00004273,-0.00004630,0.00004688,
 -0.00011541,-0.00013012,-0.05134281,-0.00157382,-0.01520179,-0.0007842
 1,-0.00347445,-0.02774593,0.04903489,-0.00018530,-0.00003065,0.0000162
 2,0.00013679,-0.00003895,0.00012673,-0.00001765,-0.00000928,0.00005745
 ,-0.00003856,0.00002880,-0.00000020,0.00146521,0.00207536,-0.00063183,
 -0.00020326,-0.00040935,0.00030845,-0.00224502,-0.00453843,-0.03307469
 ,-0.00053642,-0.00665064,-0.00190742,-0.00092424,0.00205276,-0.0012938
 6,-0.00026626,0.00032986,0.00039515,0.00037680,-0.00008672,0.00103860,
 0.00014104,-0.00003981,0.00009433,0.00007901,0.00002099,-0.00001423,0.
 00007454,0.00004710,0.00000152,-0.00018012,-0.00002684,0.00010938,-0.0
 0147955,-0.05006540,-0.02277113,-0.00048651,0.00142592,0.01653867,0.00
 194421,0.05496213,-0.00016857,-0.00005833,0.00009506,0.00009333,0.0000
 4104,0.00008475,-0.00002318,-0.00000433,-0.00012640,-0.00002774,-0.000
 03919,0.00000690,0.00061663,0.00077069,0.00084208,-0.00042999,-0.00044
 825,0.00020932,-0.00057420,-0.00184122,-0.00856745,-0.00028908,-0.0019
 2753,0.00100781,-0.00038041,0.00081148,0.00044756,0.00007339,0.0000077
 2,0.00037876,0.00061344,-0.00061081,0.00055240,0.00019674,-0.00022261,
 0.00011547,0.00007217,0.00001875,-0.00021967,0.00006039,-0.00004944,0.
 00001105,-0.00011224,0.00011712,0.00012249,-0.01547083,-0.02231268,-0.
 30606314,-0.00005835,-0.00047388,-0.00928633,0.01731543,0.02707528,0.3
 3262975,0.00022177,0.00017479,0.00029204,-0.00003112,-0.00003198,-0.00
 004208,0.00025277,0.00012934,-0.00002366,0.00002304,-0.00008266,-0.000
 02134,0.00016838,-0.00178434,-0.00070774,-0.00005975,-0.00006461,0.000
 04264,-0.00032409,0.00033990,0.00028086,0.00013910,-0.00029337,-0.0004
 1721,-0.00029368,-0.00009486,-0.00032668,0.00010438,-0.00016728,0.0000
 7920,0.00000479,0.00004336,-0.00003466,-0.00096305,0.00055885,-0.00010
 643,-0.00085934,0.00154227,0.00012777,0.00013692,0.00027093,-0.0000437
 5,0.00002989,-0.00009633,-0.00002836,-0.21857124,-0.08921374,0.0872493
 7,-0.02112199,-0.01144946,0.01189012,0.00296251,0.00234531,-0.00150693
 ,0.23818069,0.00040969,0.00018619,0.00047311,-0.00009460,-0.00005097,-
 0.00011677,-0.00060314,0.00028880,-0.00011239,-0.00028672,0.00008111,-
 0.00007000,0.00054144,-0.00601574,-0.00198888,-0.00035801,0.00012814,0
 .00033081,-0.02624810,-0.01389666,0.01345263,0.00041035,0.00163327,-0.
 00017994,-0.00061576,0.00107786,0.00042211,0.00000599,0.00037265,-0.00
 020051,0.00016034,-0.00012214,-0.00001010,-0.00002962,-0.00067099,-0.0
 0018053,0.00149166,0.00003702,0.00027387,0.00018324,0.00052913,-0.0000
 2933,0.00008993,-0.00005546,-0.00009529,-0.08933897,-0.09453871,0.0463
 4455,0.01304933,0.00752719,-0.00801084,0.00335904,0.00095314,-0.000853
 82,0.09787391,0.10253617,-0.00015651,0.00021116,0.00008287,0.00000468,
 -0.00000090,0.00000319,-0.00000180,-0.00008009,-0.00009381,0.00005564,
 -0.00002250,-0.00000651,0.00062248,-0.00086957,0.00095702,-0.00033814,
 -0.00036407,0.00012035,-0.00872538,-0.00499340,0.00320851,-0.00033566,
 0.00071082,0.00053545,0.00053394,0.00067788,-0.00006229,-0.00020325,0.
 00006769,-0.00004731,0.00005578,0.00003104,0.00004443,0.00060351,0.000
 40582,0.00050421,-0.00034727,-0.00041060,0.00008579,-0.00007041,-0.000
 26631,-0.00013807,0.00000035,-0.00015338,-0.00018384,0.08676647,0.0462
 1337,-0.09512055,-0.00927613,-0.00563988,0.00456349,0.02751488,0.01393
 159,-0.01224040,-0.09670318,-0.04944868,0.09778748\\0.00000127,0.,0.00
 000132,-0.00000057,0.00000076,0.00000039,-0.00000058,0.00000089,0.0000
 0040,-0.00000033,0.00000055,0.00000050,0.00000050,-0.00000056,-0.00000
 041,0.00000011,0.00000032,-0.00000002,-0.00000109,-0.00000153,0.000000
 43,-0.00000037,0.00000038,0.00000008,0.00000007,-0.00000015,-0.0000007
 6,-0.00000013,-0.00000033,-0.00000040,0.00000029,-0.00000025,-0.000000
 52,-0.00000006,-0.00000034,-0.00000036,0.00000007,-0.00000033,-0.00000
 049,-0.00000008,-0.00000047,-0.00000083,-0.00000048,-0.00000019,-0.000
 00043,0.00000071,0.00000180,0.00000052,0.00000011,-0.00000004,0.000000
 42,0.00000044,-0.00000021,0.00000012,0.00000011,-0.00000029,0.00000004
 \\\@


 FLOATING POINT NUMBERS ARE LIKE SANDPILES:
 EVERY TIME THAT YOU MOVE ONE, YOU LOSE A LITTLE SAND 
 AND YOU PICK UP A LITTLE DIRT.
 Job cpu time:       0 days  0 hours 28 minutes 18.6 seconds.
 File lengths (MBytes):  RWF=     64 Int=      0 D2E=      0 Chk=      3 Scr=      1
 Normal termination of Gaussian 09 at Sat Nov  7 02:21:28 2015.
