 Entering Gaussian System, Link 0=/home/hetanjin/apps/g09D01/g09/g09
 Input=C6H14_1_r009_C1_2_opt_B3L.gjf
 Output=C6H14_1_r009_C1_2_opt_B3L.log
 Initial command:
 /home/hetanjin/apps/g09D01/g09/l1.exe "/state/partition1/Gau-9251.inp" -scrdir="/state/partition1/"
 Entering Link 1 = /home/hetanjin/apps/g09D01/g09/l1.exe PID=      9252.
  
 Copyright (c) 1988,1990,1992,1993,1995,1998,2003,2009,2013,
            Gaussian, Inc.  All Rights Reserved.
  
 This is part of the Gaussian(R) 09 program.  It is based on
 the Gaussian(R) 03 system (copyright 2003, Gaussian, Inc.),
 the Gaussian(R) 98 system (copyright 1998, Gaussian, Inc.),
 the Gaussian(R) 94 system (copyright 1995, Gaussian, Inc.),
 the Gaussian 92(TM) system (copyright 1992, Gaussian, Inc.),
 the Gaussian 90(TM) system (copyright 1990, Gaussian, Inc.),
 the Gaussian 88(TM) system (copyright 1988, Gaussian, Inc.),
 the Gaussian 86(TM) system (copyright 1986, Carnegie Mellon
 University), and the Gaussian 82(TM) system (copyright 1983,
 Carnegie Mellon University). Gaussian is a federally registered
 trademark of Gaussian, Inc.
  
 This software contains proprietary and confidential information,
 including trade secrets, belonging to Gaussian, Inc.
  
 This software is provided under written license and may be
 used, copied, transmitted, or stored only in accord with that
 written license.
  
 The following legend is applicable only to US Government
 contracts under FAR:
  
                    RESTRICTED RIGHTS LEGEND
  
 Use, reproduction and disclosure by the US Government is
 subject to restrictions as set forth in subparagraphs (a)
 and (c) of the Commercial Computer Software - Restricted
 Rights clause in FAR 52.227-19.
  
 Gaussian, Inc.
 340 Quinnipiac St., Bldg. 40, Wallingford CT 06492
  
  
 ---------------------------------------------------------------
 Warning -- This program may not be used in any manner that
 competes with the business of Gaussian, Inc. or will provide
 assistance to any competitor of Gaussian, Inc.  The licensee
 of this program is prohibited from giving any competitor of
 Gaussian, Inc. access to this program.  By using this program,
 the user acknowledges that Gaussian, Inc. is engaged in the
 business of creating and licensing software in the field of
 computational chemistry and represents and warrants to the
 licensee that it is not a competitor of Gaussian, Inc. and that
 it will not use this program in any manner prohibited above.
 ---------------------------------------------------------------
  

 Cite this work as:
 Gaussian 09, Revision D.01,
 M. J. Frisch, G. W. Trucks, H. B. Schlegel, G. E. Scuseria, 
 M. A. Robb, J. R. Cheeseman, G. Scalmani, V. Barone, B. Mennucci, 
 G. A. Petersson, H. Nakatsuji, M. Caricato, X. Li, H. P. Hratchian, 
 A. F. Izmaylov, J. Bloino, G. Zheng, J. L. Sonnenberg, M. Hada, 
 M. Ehara, K. Toyota, R. Fukuda, J. Hasegawa, M. Ishida, T. Nakajima, 
 Y. Honda, O. Kitao, H. Nakai, T. Vreven, J. A. Montgomery, Jr., 
 J. E. Peralta, F. Ogliaro, M. Bearpark, J. J. Heyd, E. Brothers, 
 K. N. Kudin, V. N. Staroverov, T. Keith, R. Kobayashi, J. Normand, 
 K. Raghavachari, A. Rendell, J. C. Burant, S. S. Iyengar, J. Tomasi, 
 M. Cossi, N. Rega, J. M. Millam, M. Klene, J. E. Knox, J. B. Cross, 
 V. Bakken, C. Adamo, J. Jaramillo, R. Gomperts, R. E. Stratmann, 
 O. Yazyev, A. J. Austin, R. Cammi, C. Pomelli, J. W. Ochterski, 
 R. L. Martin, K. Morokuma, V. G. Zakrzewski, G. A. Voth, 
 P. Salvador, J. J. Dannenberg, S. Dapprich, A. D. Daniels, 
 O. Farkas, J. B. Foresman, J. V. Ortiz, J. Cioslowski, 
 and D. J. Fox, Gaussian, Inc., Wallingford CT, 2013.
 
 ******************************************
 Gaussian 09:  ES64L-G09RevD.01 24-Apr-2013
                 7-Nov-2015 
 ******************************************
 %mem=6GB
 %nprocshared=4
 Will use up to    4 processors via shared memory.
 ----------------------------------------------
 #p B3LYP/6-31G(d) opt=tight int=ultrafine freq
 ----------------------------------------------
 1/7=10,14=-1,18=20,19=15,26=4,38=1/1,3;
 2/9=110,12=2,17=6,18=5,40=1/2;
 3/5=1,6=6,7=1,11=2,16=1,25=1,30=1,71=1,74=-5,75=-5/1,2,3;
 4//1;
 5/5=2,38=5/2;
 6/7=2,8=2,9=2,10=2,28=1/1;
 7//1,2,3,16;
 1/7=10,14=-1,18=20,19=15,26=4/3(2);
 2/9=110/2;
 99//99;
 2/9=110/2;
 3/5=1,6=6,7=1,11=2,16=1,25=1,30=1,71=1,74=-5,75=-5/1,2,3;
 4/5=5,16=3,69=1/1;
 5/5=2,38=5/2;
 7//1,2,3,16;
 1/7=10,14=-1,18=20,19=15,26=4/3(-5);
 2/9=110/2;
 6/7=2,8=2,9=2,10=2,19=2,28=1/1;
 99/9=1/99;
 Leave Link    1 at Sat Nov  7 01:57:32 2015, MaxMem=   805306368 cpu:         0.2
 (Enter /home/hetanjin/apps/g09D01/g09/l101.exe)
 ---------------------------------------------
 using B3LYP/6-31G(d) to do opt and freq calc.
 ---------------------------------------------
 Symbolic Z-matrix:
 Charge =  0 Multiplicity = 2
 C                    -1.41423   2.90508   0. 
 H                    -0.9005    3.3015    0.8846 
 H                    -2.43424   3.30628   0. 
 C                    -1.41423   1.37295   0. 
 H                    -1.9654    1.00688   0.878 
 H                    -1.9654    1.00688  -0.878 
 C                    -0.00489   0.76692   0. 
 H                     0.54683   1.1341    0.87848 
 H                     0.54683   1.1341   -0.87848 
 C                     0.00489  -0.76692   0. 
 H                    -0.54683  -1.1341   -0.87848 
 H                    -0.54683  -1.1341    0.87848 
 C                     1.41423  -1.37295   0. 
 H                     1.9654   -1.00688   0.878 
 H                     1.9654   -1.00688  -0.878 
 C                     1.41423  -2.90508   0. 
 H                     0.9005   -3.3015   -0.8846 
 H                     2.43424  -3.30628   0. 
 H                     0.9005   -3.3015    0.8846 
 
 NAtoms=     19 NQM=       19 NQMF=       0 NMMI=      0 NMMIF=      0
                NMic=       0 NMicF=      0.
                    Isotopes and Nuclear Properties:
 (Nuclear quadrupole moments (NQMom) in fm**2, nuclear magnetic moments (NMagM)
  in nuclear magnetons)

  Atom         1           2           3           4           5           6           7           8           9          10
 IAtWgt=          12           1           1          12           1           1          12           1           1          12
 AtmWgt=  12.0000000   1.0078250   1.0078250  12.0000000   1.0078250   1.0078250  12.0000000   1.0078250   1.0078250  12.0000000
 NucSpn=           0           1           1           0           1           1           0           1           1           0
 AtZEff=   0.0000000   0.0000000   0.0000000   0.0000000   0.0000000   0.0000000   0.0000000   0.0000000   0.0000000   0.0000000
 NQMom=    0.0000000   0.0000000   0.0000000   0.0000000   0.0000000   0.0000000   0.0000000   0.0000000   0.0000000   0.0000000
 NMagM=    0.0000000   2.7928460   2.7928460   0.0000000   2.7928460   2.7928460   0.0000000   2.7928460   2.7928460   0.0000000
 AtZNuc=   6.0000000   1.0000000   1.0000000   6.0000000   1.0000000   1.0000000   6.0000000   1.0000000   1.0000000   6.0000000

  Atom        11          12          13          14          15          16          17          18          19
 IAtWgt=           1           1          12           1           1          12           1           1           1
 AtmWgt=   1.0078250   1.0078250  12.0000000   1.0078250   1.0078250  12.0000000   1.0078250   1.0078250   1.0078250
 NucSpn=           1           1           0           1           1           0           1           1           1
 AtZEff=   0.0000000   0.0000000   0.0000000   0.0000000   0.0000000   0.0000000   0.0000000   0.0000000   0.0000000
 NQMom=    0.0000000   0.0000000   0.0000000   0.0000000   0.0000000   0.0000000   0.0000000   0.0000000   0.0000000
 NMagM=    2.7928460   2.7928460   0.0000000   2.7928460   2.7928460   0.0000000   2.7928460   2.7928460   2.7928460
 AtZNuc=   1.0000000   1.0000000   6.0000000   1.0000000   1.0000000   6.0000000   1.0000000   1.0000000   1.0000000
 Leave Link  101 at Sat Nov  7 01:57:33 2015, MaxMem=   805306368 cpu:         0.8
 (Enter /home/hetanjin/apps/g09D01/g09/l103.exe)

 GradGradGradGradGradGradGradGradGradGradGradGradGradGradGradGradGradGrad
 Berny optimization.
 Initialization pass.
                           ----------------------------
                           !    Initial Parameters    !
                           ! (Angstroms and Degrees)  !
 --------------------------                            --------------------------
 ! Name  Definition              Value          Derivative Info.                !
 --------------------------------------------------------------------------------
 ! R1    R(1,2)                  1.0971         estimate D2E/DX2                !
 ! R2    R(1,3)                  1.0961         estimate D2E/DX2                !
 ! R3    R(1,4)                  1.5321         estimate D2E/DX2                !
 ! R4    R(4,5)                  1.0994         estimate D2E/DX2                !
 ! R5    R(4,6)                  1.0994         estimate D2E/DX2                !
 ! R6    R(4,7)                  1.5341         estimate D2E/DX2                !
 ! R7    R(7,8)                  1.1004         estimate D2E/DX2                !
 ! R8    R(7,9)                  1.1004         estimate D2E/DX2                !
 ! R9    R(7,10)                 1.5339         estimate D2E/DX2                !
 ! R10   R(10,11)                1.1004         estimate D2E/DX2                !
 ! R11   R(10,12)                1.1004         estimate D2E/DX2                !
 ! R12   R(10,13)                1.5341         estimate D2E/DX2                !
 ! R13   R(13,14)                1.0994         estimate D2E/DX2                !
 ! R14   R(13,15)                1.0994         estimate D2E/DX2                !
 ! R15   R(13,16)                1.5321         estimate D2E/DX2                !
 ! R16   R(16,17)                1.0971         estimate D2E/DX2                !
 ! R17   R(16,18)                1.0961         estimate D2E/DX2                !
 ! R18   R(16,19)                1.0971         estimate D2E/DX2                !
 ! A1    A(2,1,3)              107.6687         estimate D2E/DX2                !
 ! A2    A(2,1,4)              111.1823         estimate D2E/DX2                !
 ! A3    A(3,1,4)              111.4711         estimate D2E/DX2                !
 ! A4    A(1,4,5)              109.4494         estimate D2E/DX2                !
 ! A5    A(1,4,6)              109.4494         estimate D2E/DX2                !
 ! A6    A(1,4,7)              113.2685         estimate D2E/DX2                !
 ! A7    A(5,4,6)              105.9962         estimate D2E/DX2                !
 ! A8    A(5,4,7)              109.2096         estimate D2E/DX2                !
 ! A9    A(6,4,7)              109.2096         estimate D2E/DX2                !
 ! A10   A(4,7,8)              109.1945         estimate D2E/DX2                !
 ! A11   A(4,7,9)              109.1945         estimate D2E/DX2                !
 ! A12   A(4,7,10)             113.634          estimate D2E/DX2                !
 ! A13   A(8,7,9)              105.9372         estimate D2E/DX2                !
 ! A14   A(8,7,10)             109.2971         estimate D2E/DX2                !
 ! A15   A(9,7,10)             109.2971         estimate D2E/DX2                !
 ! A16   A(7,10,11)            109.2971         estimate D2E/DX2                !
 ! A17   A(7,10,12)            109.2971         estimate D2E/DX2                !
 ! A18   A(7,10,13)            113.634          estimate D2E/DX2                !
 ! A19   A(11,10,12)           105.9372         estimate D2E/DX2                !
 ! A20   A(11,10,13)           109.1945         estimate D2E/DX2                !
 ! A21   A(12,10,13)           109.1945         estimate D2E/DX2                !
 ! A22   A(10,13,14)           109.2096         estimate D2E/DX2                !
 ! A23   A(10,13,15)           109.2096         estimate D2E/DX2                !
 ! A24   A(10,13,16)           113.2685         estimate D2E/DX2                !
 ! A25   A(14,13,15)           105.9962         estimate D2E/DX2                !
 ! A26   A(14,13,16)           109.4494         estimate D2E/DX2                !
 ! A27   A(15,13,16)           109.4494         estimate D2E/DX2                !
 ! A28   A(13,16,17)           111.1823         estimate D2E/DX2                !
 ! A29   A(13,16,18)           111.4711         estimate D2E/DX2                !
 ! A30   A(13,16,19)           111.1823         estimate D2E/DX2                !
 ! A31   A(17,16,18)           107.6687         estimate D2E/DX2                !
 ! A32   A(17,16,19)           107.4766         estimate D2E/DX2                !
 ! A33   A(18,16,19)           107.6687         estimate D2E/DX2                !
 ! D1    D(2,1,4,5)             62.2647         estimate D2E/DX2                !
 ! D2    D(2,1,4,6)            178.0268         estimate D2E/DX2                !
 ! D3    D(2,1,4,7)            -59.8542         estimate D2E/DX2                !
 ! D4    D(3,1,4,5)            -57.881          estimate D2E/DX2                !
 ! D5    D(3,1,4,6)             57.881          estimate D2E/DX2                !
 ! D6    D(3,1,4,7)            180.0            estimate D2E/DX2                !
 ! D7    D(1,4,7,8)             57.7038         estimate D2E/DX2                !
 ! D8    D(1,4,7,9)            -57.7038         estimate D2E/DX2                !
 ! D9    D(1,4,7,10)           180.0            estimate D2E/DX2                !
 ! D10   D(5,4,7,8)            -64.5489         estimate D2E/DX2                !
 ! D11   D(5,4,7,9)           -179.9565         estimate D2E/DX2                !
 ! D12   D(5,4,7,10)            57.7473         estimate D2E/DX2                !
 ! D13   D(6,4,7,8)            179.9565         estimate D2E/DX2                !
 ! D14   D(6,4,7,9)             64.5489         estimate D2E/DX2                !
 ! D15   D(6,4,7,10)           -57.7473         estimate D2E/DX2                !
 ! D16   D(4,7,10,11)           57.7606         estimate D2E/DX2                !
 ! D17   D(4,7,10,12)          -57.7606         estimate D2E/DX2                !
 ! D18   D(4,7,10,13)          180.0            estimate D2E/DX2                !
 ! D19   D(8,7,10,11)          180.0            estimate D2E/DX2                !
 ! D20   D(8,7,10,12)           64.4789         estimate D2E/DX2                !
 ! D21   D(8,7,10,13)          -57.7606         estimate D2E/DX2                !
 ! D22   D(9,7,10,11)          -64.4789         estimate D2E/DX2                !
 ! D23   D(9,7,10,12)          180.0            estimate D2E/DX2                !
 ! D24   D(9,7,10,13)           57.7606         estimate D2E/DX2                !
 ! D25   D(7,10,13,14)          57.7473         estimate D2E/DX2                !
 ! D26   D(7,10,13,15)         -57.7473         estimate D2E/DX2                !
 ! D27   D(7,10,13,16)         180.0            estimate D2E/DX2                !
 ! D28   D(11,10,13,14)       -179.9565         estimate D2E/DX2                !
 ! D29   D(11,10,13,15)         64.5489         estimate D2E/DX2                !
 ! D30   D(11,10,13,16)        -57.7038         estimate D2E/DX2                !
 ! D31   D(12,10,13,14)        -64.5489         estimate D2E/DX2                !
 ! D32   D(12,10,13,15)        179.9565         estimate D2E/DX2                !
 ! D33   D(12,10,13,16)         57.7038         estimate D2E/DX2                !
 ! D34   D(10,13,16,17)         59.8542         estimate D2E/DX2                !
 ! D35   D(10,13,16,18)        180.0            estimate D2E/DX2                !
 ! D36   D(10,13,16,19)        -59.8542         estimate D2E/DX2                !
 ! D37   D(14,13,16,17)       -178.0268         estimate D2E/DX2                !
 ! D38   D(14,13,16,18)        -57.881          estimate D2E/DX2                !
 ! D39   D(14,13,16,19)         62.2647         estimate D2E/DX2                !
 ! D40   D(15,13,16,17)        -62.2647         estimate D2E/DX2                !
 ! D41   D(15,13,16,18)         57.881          estimate D2E/DX2                !
 ! D42   D(15,13,16,19)        178.0268         estimate D2E/DX2                !
 --------------------------------------------------------------------------------
 Trust Radius=3.00D-01 FncErr=1.00D-07 GrdErr=1.00D-06
 Number of steps in this run=    103 maximum allowed number of steps=    114.
 GradGradGradGradGradGradGradGradGradGradGradGradGradGradGradGradGradGrad

 Leave Link  103 at Sat Nov  7 01:57:33 2015, MaxMem=   805306368 cpu:         0.0
 (Enter /home/hetanjin/apps/g09D01/g09/l202.exe)
                          Input orientation:                          
 ---------------------------------------------------------------------
 Center     Atomic      Atomic             Coordinates (Angstroms)
 Number     Number       Type             X           Y           Z
 ---------------------------------------------------------------------
      1          6           0       -1.414227    2.905083    0.000000
      2          1           0       -0.900497    3.301499    0.884602
      3          1           0       -2.434236    3.306282    0.000000
      4          6           0       -1.414227    1.372954    0.000000
      5          1           0       -1.965398    1.006883    0.877995
      6          1           0       -1.965398    1.006883   -0.877995
      7          6           0       -0.004893    0.766918    0.000000
      8          1           0        0.546827    1.134100    0.878477
      9          1           0        0.546827    1.134100   -0.878477
     10          6           0        0.004893   -0.766918    0.000000
     11          1           0       -0.546827   -1.134100   -0.878477
     12          1           0       -0.546827   -1.134100    0.878477
     13          6           0        1.414227   -1.372954    0.000000
     14          1           0        1.965398   -1.006883    0.877995
     15          1           0        1.965398   -1.006883   -0.877995
     16          6           0        1.414227   -2.905083    0.000000
     17          1           0        0.900497   -3.301499   -0.884602
     18          1           0        2.434236   -3.306282    0.000000
     19          1           0        0.900497   -3.301499    0.884602
 ---------------------------------------------------------------------
                    Distance matrix (angstroms):
                    1          2          3          4          5
     1  C    0.000000
     2  H    1.097080   0.000000
     3  H    1.096074   1.770565   0.000000
     4  C    1.532129   2.183054   2.185904   0.000000
     5  H    2.162829   2.529688   2.505578   1.099397   0.000000
     6  H    2.162829   3.083184   2.505578   1.099397   1.755990
     7  C    2.560854   2.829970   3.514268   1.534113   2.161490
     8  H    2.784571   2.606224   3.791679   2.162061   2.515444
     9  H    2.784571   3.146556   3.791679   2.162061   3.068005
    10  C    3.936686   4.260783   4.747663   2.567675   2.792721
    11  H    4.223636   4.786237   4.904185   2.794535   3.111486
    12  H    4.223636   4.449681   4.904185   2.794535   2.568298
    13  C    5.128523   5.290650   6.058541   3.942101   4.225679
    14  H    5.243684   5.174510   6.223427   4.225679   4.416606
    15  H    5.243684   5.466467   6.223427   4.225679   4.752885
    16  C    6.462057   6.682973   7.306964   5.128523   5.243684
    17  H    6.682973   7.069176   7.454243   5.290650   5.466467
    18  H    7.306964   7.454243   8.211457   6.058541   6.223427
    19  H    6.682973   6.844206   7.454243   5.290650   5.174510
                    6          7          8          9         10
     6  H    0.000000
     7  C    2.161490   0.000000
     8  H    3.068005   1.100427   0.000000
     9  H    2.515444   1.100427   1.756954   0.000000
    10  C    2.792721   1.533867   2.163165   2.163165   0.000000
    11  H    2.568298   2.163165   3.070456   2.518097   1.100427
    12  H    3.111486   2.163165   2.518097   3.070456   1.100427
    13  C    4.225679   2.567675   2.794535   2.794535   1.534113
    14  H    4.752885   2.792721   2.568298   3.111486   2.161490
    15  H    4.416606   2.792721   3.111486   2.568298   2.161490
    16  C    5.243684   3.936686   4.223636   4.223636   2.560854
    17  H    5.174510   4.260783   4.786237   4.449681   2.829970
    18  H    6.223427   4.747663   4.904185   4.904185   3.514268
    19  H    5.466467   4.260783   4.449681   4.786237   2.829970
                   11         12         13         14         15
    11  H    0.000000
    12  H    1.756954   0.000000
    13  C    2.162061   2.162061   0.000000
    14  H    3.068005   2.515444   1.099397   0.000000
    15  H    2.515444   3.068005   1.099397   1.755990   0.000000
    16  C    2.784571   2.784571   1.532129   2.162829   2.162829
    17  H    2.606224   3.146556   2.183054   3.083184   2.529688
    18  H    3.791679   3.791679   2.185904   2.505578   2.505578
    19  H    3.146556   2.606224   2.183054   2.529688   3.083184
                   16         17         18         19
    16  C    0.000000
    17  H    1.097080   0.000000
    18  H    1.096074   1.770565   0.000000
    19  H    1.097080   1.769204   1.770565   0.000000
 Stoichiometry    C6H13(2)
 Framework group  C1[X(C6H13)]
 Deg. of freedom    51
 Full point group                 C1      NOp   1
 Largest Abelian subgroup         C1      NOp   1
 Largest concise Abelian subgroup C1      NOp   1
                         Standard orientation:                         
 ---------------------------------------------------------------------
 Center     Atomic      Atomic             Coordinates (Angstroms)
 Number     Number       Type             X           Y           Z
 ---------------------------------------------------------------------
      1          6           0       -3.288486    0.260524   -0.078663
      2          1           0       -3.381647    0.971864    0.751338
      3          1           0       -4.150085   -0.415621   -0.035609
      4          6           0       -1.966487   -0.510061   -0.001619
      5          1           0       -1.939764   -1.099303    0.926149
      6          1           0       -1.918509   -1.237844   -0.824239
      7          6           0       -0.731413    0.398156   -0.058506
      8          1           0       -0.780078    1.127008    0.764504
      9          1           0       -0.758812    0.988391   -0.986844
     10          6           0        0.597004   -0.364865    0.018017
     11          1           0        0.645669   -1.093717   -0.804993
     12          1           0        0.624403   -0.955100    0.946355
     13          6           0        1.832078    0.543352   -0.038870
     14          1           0        1.784100    1.271135    0.783750
     15          1           0        1.805354    1.132594   -0.966637
     16          6           0        3.154077   -0.227233    0.038174
     17          1           0        3.247238   -0.938573   -0.791827
     18          1           0        4.015676    0.448912   -0.004880
     19          1           0        3.225823   -0.798990    0.971732
 ---------------------------------------------------------------------
 Rotational constants (GHZ):     15.2891076      1.1558497      1.1149809
 Leave Link  202 at Sat Nov  7 01:57:33 2015, MaxMem=   805306368 cpu:         0.0
 (Enter /home/hetanjin/apps/g09D01/g09/l301.exe)
 Standard basis: 6-31G(d) (6D, 7F)
 Ernie: Thresh=  0.10000D-02 Tol=  0.10000D-05 Strict=F.
 There are   116 symmetry adapted cartesian basis functions of A   symmetry.
 There are   116 symmetry adapted basis functions of A   symmetry.
   116 basis functions,   220 primitive gaussians,   116 cartesian basis functions
    25 alpha electrons       24 beta electrons
       nuclear repulsion energy       233.8452327015 Hartrees.
 IExCor=  402 DFT=T Ex+Corr=B3LYP ExCW=0 ScaHFX=  0.200000
 ScaDFX=  0.800000  0.720000  1.000000  0.810000 ScalE2=  1.000000  1.000000
 IRadAn=      5 IRanWt=     -1 IRanGd=            0 ICorTp=0 IEmpDi=  4
 NAtoms=   19 NActive=   19 NUniq=   19 SFac= 1.00D+00 NAtFMM=   60 NAOKFM=F Big=F
 Integral buffers will be    131072 words long.
 Raffenetti 2 integral format.
 Two-electron integral symmetry is turned on.
 Leave Link  301 at Sat Nov  7 01:57:33 2015, MaxMem=   805306368 cpu:         0.2
 (Enter /home/hetanjin/apps/g09D01/g09/l302.exe)
 NPDir=0 NMtPBC=     1 NCelOv=     1 NCel=       1 NClECP=     1 NCelD=      1
         NCelK=      1 NCelE2=     1 NClLst=     1 CellRange=     0.0.
 One-electron integrals computed using PRISM.
 NBasis=   116 RedAO= T EigKep=  3.40D-03  NBF=   116
 NBsUse=   116 1.00D-06 EigRej= -1.00D+00 NBFU=   116
 Precomputing XC quadrature grid using
 IXCGrd= 4 IRadAn=           5 IRanWt=          -1 IRanGd=           0 AccXCQ= 0.00D+00.
 Generated NRdTot=       0 NPtTot=           0 NUsed=           0 NTot=          32
 NSgBfM=   116   116   116   116   116 MxSgAt=    19 MxSgA2=    19.
 Leave Link  302 at Sat Nov  7 01:57:33 2015, MaxMem=   805306368 cpu:         1.8
 (Enter /home/hetanjin/apps/g09D01/g09/l303.exe)
 DipDrv:  MaxL=1.
 Leave Link  303 at Sat Nov  7 01:57:34 2015, MaxMem=   805306368 cpu:         0.3
 (Enter /home/hetanjin/apps/g09D01/g09/l401.exe)
 ExpMin= 1.61D-01 ExpMax= 3.05D+03 ExpMxC= 4.57D+02 IAcc=3 IRadAn=         5 AccDes= 0.00D+00
 Harris functional with IExCor=  402 and IRadAn=       5 diagonalized for initial guess.
 HarFok:  IExCor=  402 AccDes= 0.00D+00 IRadAn=         5 IDoV= 1 UseB2=F ITyADJ=14
 ICtDFT=  3500011 ScaDFX=  1.000000  1.000000  1.000000  1.000000
 FoFCou: FMM=F IPFlag=           0 FMFlag=      100000 FMFlg1=           0
         NFxFlg=           0 DoJE=T BraDBF=F KetDBF=T FulRan=T
         wScrn=  0.000000 ICntrl=     500 IOpCl=  0 I1Cent=   200000004 NGrid=           0
         NMat0=    1 NMatS0=      1 NMatT0=    0 NMatD0=    1 NMtDS0=    0 NMtDT0=    0
 Petite list used in FoFCou.
 Harris En= -236.441496856075    
 JPrj=0 DoOrth=F DoCkMO=F.
 Initial guess <Sx>= 0.0000 <Sy>= 0.0000 <Sz>= 0.5000 <S**2>= 0.7500 S= 0.5000
 Leave Link  401 at Sat Nov  7 01:57:36 2015, MaxMem=   805306368 cpu:        10.2
 (Enter /home/hetanjin/apps/g09D01/g09/l502.exe)
 UHF open shell SCF:
 Using DIIS extrapolation, IDIIS=  1040.
 Integral symmetry usage will be decided dynamically.
 Keep R1 and R2 ints in memory in canonical form, NReq=47059932.
 IVT=       60514 IEndB=       60514 NGot=   805306368 MDV=   759189273
 LenX=   759189273 LenY=   759175376
 Requested convergence on RMS density matrix=1.00D-08 within 128 cycles.
 Requested convergence on MAX density matrix=1.00D-06.
 Requested convergence on             energy=1.00D-06.
 No special actions if energy rises.
 FoFCou: FMM=F IPFlag=           0 FMFlag=           0 FMFlg1=           0
         NFxFlg=           0 DoJE=F BraDBF=F KetDBF=F FulRan=T
         wScrn=  0.000000 ICntrl=     600 IOpCl=  0 I1Cent=           0 NGrid=           0
         NMat0=    1 NMatS0=   6786 NMatT0=    0 NMatD0=    1 NMtDS0=    0 NMtDT0=    0
 Symmetry not used in FoFCou.
 Integral accuracy reduced to 1.0D-05 until final iterations.

 Cycle   1  Pass 0  IDiag  1:
 E= -236.157991765846    
 DIIS: error= 4.69D-02 at cycle   1 NSaved=   1.
 NSaved= 1 IEnMin= 1 EnMin= -236.157991765846     IErMin= 1 ErrMin= 4.69D-02
 ErrMax= 4.69D-02  0.00D+00 EMaxC= 1.00D-01 BMatC= 8.51D-01 BMatP= 8.51D-01
 IDIUse=3 WtCom= 5.31D-01 WtEn= 4.69D-01
 Coeff-Com:  0.100D+01
 Coeff-En:   0.100D+01
 Coeff:      0.100D+01
 Gap=     0.296 Goal=   None    Shift=    0.000
 Gap=     0.248 Goal=   None    Shift=    0.000
 GapD=    0.248 DampG=1.000 DampE=0.500 DampFc=0.5000 IDamp=-1.
 Damping current iteration by 5.00D-01
 RMSDP=9.34D-03 MaxDP=1.39D-01              OVMax= 1.85D-01

 Cycle   2  Pass 0  IDiag  1:
 E= -236.269311947889     Delta-E=       -0.111320182044 Rises=F Damp=T
 DIIS: error= 8.86D-03 at cycle   2 NSaved=   2.
 NSaved= 2 IEnMin= 2 EnMin= -236.269311947889     IErMin= 2 ErrMin= 8.86D-03
 ErrMax= 8.86D-03  0.00D+00 EMaxC= 1.00D-01 BMatC= 3.54D-02 BMatP= 8.51D-01
 IDIUse=3 WtCom= 9.11D-01 WtEn= 8.86D-02
 Coeff-Com:  0.596D-01 0.940D+00
 Coeff-En:   0.920D-01 0.908D+00
 Coeff:      0.625D-01 0.938D+00
 Gap=     0.343 Goal=   None    Shift=    0.000
 Gap=     0.259 Goal=   None    Shift=    0.000
 RMSDP=1.37D-03 MaxDP=2.06D-02 DE=-1.11D-01 OVMax= 9.48D-02

 Cycle   3  Pass 0  IDiag  1:
 E= -236.401602512890     Delta-E=       -0.132290565001 Rises=F Damp=F
 DIIS: error= 2.13D-03 at cycle   3 NSaved=   3.
 NSaved= 3 IEnMin= 3 EnMin= -236.401602512890     IErMin= 3 ErrMin= 2.13D-03
 ErrMax= 2.13D-03  0.00D+00 EMaxC= 1.00D-01 BMatC= 3.06D-03 BMatP= 3.54D-02
 IDIUse=3 WtCom= 9.79D-01 WtEn= 2.13D-02
 Coeff-Com: -0.847D-02 0.158D+00 0.850D+00
 Coeff-En:   0.000D+00 0.000D+00 0.100D+01
 Coeff:     -0.829D-02 0.155D+00 0.853D+00
 Gap=     0.327 Goal=   None    Shift=    0.000
 Gap=     0.241 Goal=   None    Shift=    0.000
 RMSDP=4.30D-04 MaxDP=1.07D-02 DE=-1.32D-01 OVMax= 1.11D-02

 Cycle   4  Pass 0  IDiag  1:
 E= -236.402117427698     Delta-E=       -0.000514914808 Rises=F Damp=F
 DIIS: error= 1.32D-03 at cycle   4 NSaved=   4.
 NSaved= 4 IEnMin= 4 EnMin= -236.402117427698     IErMin= 4 ErrMin= 1.32D-03
 ErrMax= 1.32D-03  0.00D+00 EMaxC= 1.00D-01 BMatC= 1.23D-03 BMatP= 3.06D-03
 IDIUse=3 WtCom= 9.87D-01 WtEn= 1.32D-02
 Coeff-Com: -0.522D-02 0.284D-01 0.402D+00 0.575D+00
 Coeff-En:   0.000D+00 0.000D+00 0.230D+00 0.770D+00
 Coeff:     -0.515D-02 0.281D-01 0.400D+00 0.577D+00
 Gap=     0.320 Goal=   None    Shift=    0.000
 Gap=     0.248 Goal=   None    Shift=    0.000
 RMSDP=1.75D-04 MaxDP=4.56D-03 DE=-5.15D-04 OVMax= 4.26D-03

 Cycle   5  Pass 0  IDiag  1:
 E= -236.402428475123     Delta-E=       -0.000311047425 Rises=F Damp=F
 DIIS: error= 3.46D-04 at cycle   5 NSaved=   5.
 NSaved= 5 IEnMin= 5 EnMin= -236.402428475123     IErMin= 5 ErrMin= 3.46D-04
 ErrMax= 3.46D-04  0.00D+00 EMaxC= 1.00D-01 BMatC= 5.84D-05 BMatP= 1.23D-03
 IDIUse=3 WtCom= 9.97D-01 WtEn= 3.46D-03
 Coeff-Com: -0.959D-03-0.354D-02 0.801D-01 0.221D+00 0.703D+00
 Coeff-En:   0.000D+00 0.000D+00 0.000D+00 0.000D+00 0.100D+01
 Coeff:     -0.955D-03-0.353D-02 0.798D-01 0.220D+00 0.704D+00
 Gap=     0.321 Goal=   None    Shift=    0.000
 Gap=     0.247 Goal=   None    Shift=    0.000
 RMSDP=3.81D-05 MaxDP=1.06D-03 DE=-3.11D-04 OVMax= 1.09D-03

 Cycle   6  Pass 0  IDiag  1:
 E= -236.402444392092     Delta-E=       -0.000015916969 Rises=F Damp=F
 DIIS: error= 5.00D-05 at cycle   6 NSaved=   6.
 NSaved= 6 IEnMin= 6 EnMin= -236.402444392092     IErMin= 6 ErrMin= 5.00D-05
 ErrMax= 5.00D-05  0.00D+00 EMaxC= 1.00D-01 BMatC= 2.63D-06 BMatP= 5.84D-05
 IDIUse=1 WtCom= 1.00D+00 WtEn= 0.00D+00
 Coeff-Com:  0.120D-03-0.231D-02-0.970D-02 0.400D-02 0.120D+00 0.888D+00
 Coeff:      0.120D-03-0.231D-02-0.970D-02 0.400D-02 0.120D+00 0.888D+00
 Gap=     0.321 Goal=   None    Shift=    0.000
 Gap=     0.247 Goal=   None    Shift=    0.000
 RMSDP=1.18D-05 MaxDP=3.59D-04 DE=-1.59D-05 OVMax= 3.10D-04

 Cycle   7  Pass 0  IDiag  1:
 E= -236.402445325635     Delta-E=       -0.000000933543 Rises=F Damp=F
 DIIS: error= 3.91D-05 at cycle   7 NSaved=   7.
 NSaved= 7 IEnMin= 7 EnMin= -236.402445325635     IErMin= 7 ErrMin= 3.91D-05
 ErrMax= 3.91D-05  0.00D+00 EMaxC= 1.00D-01 BMatC= 1.12D-06 BMatP= 2.63D-06
 IDIUse=1 WtCom= 1.00D+00 WtEn= 0.00D+00
 Coeff-Com:  0.236D-03-0.267D-03-0.208D-01-0.440D-01-0.922D-01 0.426D+00
 Coeff-Com:  0.731D+00
 Coeff:      0.236D-03-0.267D-03-0.208D-01-0.440D-01-0.922D-01 0.426D+00
 Coeff:      0.731D+00
 Gap=     0.321 Goal=   None    Shift=    0.000
 Gap=     0.247 Goal=   None    Shift=    0.000
 RMSDP=5.81D-06 MaxDP=1.93D-04 DE=-9.34D-07 OVMax= 1.83D-04

 Initial convergence to 1.0D-05 achieved.  Increase integral accuracy.
 Cycle   8  Pass 1  IDiag  1:
 E= -236.402434199142     Delta-E=        0.000011126493 Rises=F Damp=F
 DIIS: error= 1.07D-05 at cycle   1 NSaved=   1.
 NSaved= 1 IEnMin= 1 EnMin= -236.402434199142     IErMin= 1 ErrMin= 1.07D-05
 ErrMax= 1.07D-05  0.00D+00 EMaxC= 1.00D-01 BMatC= 5.82D-08 BMatP= 5.82D-08
 IDIUse=1 WtCom= 1.00D+00 WtEn= 0.00D+00
 Coeff-Com:  0.100D+01
 Coeff:      0.100D+01
 Gap=     0.321 Goal=   None    Shift=    0.000
 Gap=     0.247 Goal=   None    Shift=    0.000
 RMSDP=5.81D-06 MaxDP=1.93D-04 DE= 1.11D-05 OVMax= 5.97D-05

 Cycle   9  Pass 1  IDiag  1:
 E= -236.402434208929     Delta-E=       -0.000000009788 Rises=F Damp=F
 DIIS: error= 7.79D-06 at cycle   2 NSaved=   2.
 NSaved= 2 IEnMin= 2 EnMin= -236.402434208929     IErMin= 2 ErrMin= 7.79D-06
 ErrMax= 7.79D-06  0.00D+00 EMaxC= 1.00D-01 BMatC= 4.99D-08 BMatP= 5.82D-08
 IDIUse=1 WtCom= 1.00D+00 WtEn= 0.00D+00
 Coeff-Com:  0.477D+00 0.523D+00
 Coeff:      0.477D+00 0.523D+00
 Gap=     0.321 Goal=   None    Shift=    0.000
 Gap=     0.247 Goal=   None    Shift=    0.000
 RMSDP=1.02D-06 MaxDP=1.93D-05 DE=-9.79D-09 OVMax= 2.72D-05

 Cycle  10  Pass 1  IDiag  1:
 E= -236.402434221663     Delta-E=       -0.000000012734 Rises=F Damp=F
 DIIS: error= 1.67D-06 at cycle   3 NSaved=   3.
 NSaved= 3 IEnMin= 3 EnMin= -236.402434221663     IErMin= 3 ErrMin= 1.67D-06
 ErrMax= 1.67D-06  0.00D+00 EMaxC= 1.00D-01 BMatC= 2.53D-09 BMatP= 4.99D-08
 IDIUse=1 WtCom= 1.00D+00 WtEn= 0.00D+00
 Coeff-Com: -0.407D-01 0.954D-01 0.945D+00
 Coeff:     -0.407D-01 0.954D-01 0.945D+00
 Gap=     0.321 Goal=   None    Shift=    0.000
 Gap=     0.247 Goal=   None    Shift=    0.000
 RMSDP=3.68D-07 MaxDP=8.73D-06 DE=-1.27D-08 OVMax= 8.50D-06

 Cycle  11  Pass 1  IDiag  1:
 E= -236.402434222763     Delta-E=       -0.000000001100 Rises=F Damp=F
 DIIS: error= 6.99D-07 at cycle   4 NSaved=   4.
 NSaved= 4 IEnMin= 4 EnMin= -236.402434222763     IErMin= 4 ErrMin= 6.99D-07
 ErrMax= 6.99D-07  0.00D+00 EMaxC= 1.00D-01 BMatC= 5.13D-10 BMatP= 2.53D-09
 IDIUse=1 WtCom= 1.00D+00 WtEn= 0.00D+00
 Coeff-Com: -0.123D+00-0.885D-01 0.299D+00 0.912D+00
 Coeff:     -0.123D+00-0.885D-01 0.299D+00 0.912D+00
 Gap=     0.321 Goal=   None    Shift=    0.000
 Gap=     0.247 Goal=   None    Shift=    0.000
 RMSDP=1.94D-07 MaxDP=5.63D-06 DE=-1.10D-09 OVMax= 5.50D-06

 Cycle  12  Pass 1  IDiag  1:
 E= -236.402434222984     Delta-E=       -0.000000000222 Rises=F Damp=F
 DIIS: error= 2.85D-07 at cycle   5 NSaved=   5.
 NSaved= 5 IEnMin= 5 EnMin= -236.402434222984     IErMin= 5 ErrMin= 2.85D-07
 ErrMax= 2.85D-07  0.00D+00 EMaxC= 1.00D-01 BMatC= 5.35D-11 BMatP= 5.13D-10
 IDIUse=1 WtCom= 1.00D+00 WtEn= 0.00D+00
 Coeff-Com: -0.543D-01-0.451D-01 0.894D-01 0.411D+00 0.599D+00
 Coeff:     -0.543D-01-0.451D-01 0.894D-01 0.411D+00 0.599D+00
 Gap=     0.321 Goal=   None    Shift=    0.000
 Gap=     0.247 Goal=   None    Shift=    0.000
 RMSDP=3.88D-08 MaxDP=1.25D-06 DE=-2.22D-10 OVMax= 1.07D-06

 Cycle  13  Pass 1  IDiag  1:
 E= -236.402434222997     Delta-E=       -0.000000000013 Rises=F Damp=F
 DIIS: error= 7.80D-08 at cycle   6 NSaved=   6.
 NSaved= 6 IEnMin= 6 EnMin= -236.402434222997     IErMin= 6 ErrMin= 7.80D-08
 ErrMax= 7.80D-08  0.00D+00 EMaxC= 1.00D-01 BMatC= 2.93D-12 BMatP= 5.35D-11
 IDIUse=1 WtCom= 1.00D+00 WtEn= 0.00D+00
 Coeff-Com:  0.151D-03-0.151D-02-0.121D-01 0.491D-03 0.179D+00 0.834D+00
 Coeff:      0.151D-03-0.151D-02-0.121D-01 0.491D-03 0.179D+00 0.834D+00
 Gap=     0.321 Goal=   None    Shift=    0.000
 Gap=     0.247 Goal=   None    Shift=    0.000
 RMSDP=1.10D-08 MaxDP=3.31D-07 DE=-1.31D-11 OVMax= 3.38D-07

 Cycle  14  Pass 1  IDiag  1:
 E= -236.402434222999     Delta-E=       -0.000000000002 Rises=F Damp=F
 DIIS: error= 1.65D-08 at cycle   7 NSaved=   7.
 NSaved= 7 IEnMin= 7 EnMin= -236.402434222999     IErMin= 7 ErrMin= 1.65D-08
 ErrMax= 1.65D-08  0.00D+00 EMaxC= 1.00D-01 BMatC= 2.55D-13 BMatP= 2.93D-12
 IDIUse=1 WtCom= 1.00D+00 WtEn= 0.00D+00
 Coeff-Com:  0.349D-02 0.238D-02-0.973D-02-0.264D-01 0.233D-01 0.288D+00
 Coeff-Com:  0.719D+00
 Coeff:      0.349D-02 0.238D-02-0.973D-02-0.264D-01 0.233D-01 0.288D+00
 Coeff:      0.719D+00
 Gap=     0.321 Goal=   None    Shift=    0.000
 Gap=     0.247 Goal=   None    Shift=    0.000
 RMSDP=3.43D-09 MaxDP=8.92D-08 DE=-2.10D-12 OVMax= 7.13D-08

 SCF Done:  E(UB3LYP) =  -236.402434223     A.U. after   14 cycles
            NFock= 14  Conv=0.34D-08     -V/T= 2.0104
 <Sx>= 0.0000 <Sy>= 0.0000 <Sz>= 0.5000 <S**2>= 0.7527 S= 0.5013
 <L.S>= 0.000000000000E+00
 KE= 2.339626048415D+02 PE=-1.013243632043D+03 EE= 3.090333602766D+02
 Annihilation of the first spin contaminant:
 S**2 before annihilation     0.7527,   after     0.7500
 Leave Link  502 at Sat Nov  7 01:58:28 2015, MaxMem=   805306368 cpu:       183.8
 (Enter /home/hetanjin/apps/g09D01/g09/l601.exe)
 Copying SCF densities to generalized density rwf, IOpCl= 1 IROHF=0.

 **********************************************************************

            Population analysis using the SCF density.

 **********************************************************************

 Orbital symmetries:
 Alpha Orbitals:
       Occupied  (A) (A) (A) (A) (A) (A) (A) (A) (A) (A) (A) (A)
                 (A) (A) (A) (A) (A) (A) (A) (A) (A) (A) (A) (A)
                 (A)
       Virtual   (A) (A) (A) (A) (A) (A) (A) (A) (A) (A) (A) (A)
                 (A) (A) (A) (A) (A) (A) (A) (A) (A) (A) (A) (A)
                 (A) (A) (A) (A) (A) (A) (A) (A) (A) (A) (A) (A)
                 (A) (A) (A) (A) (A) (A) (A) (A) (A) (A) (A) (A)
                 (A) (A) (A) (A) (A) (A) (A) (A) (A) (A) (A) (A)
                 (A) (A) (A) (A) (A) (A) (A) (A) (A) (A) (A) (A)
                 (A) (A) (A) (A) (A) (A) (A) (A) (A) (A) (A) (A)
                 (A) (A) (A) (A) (A) (A) (A)
 Beta  Orbitals:
       Occupied  (A) (A) (A) (A) (A) (A) (A) (A) (A) (A) (A) (A)
                 (A) (A) (A) (A) (A) (A) (A) (A) (A) (A) (A) (A)
       Virtual   (A) (A) (A) (A) (A) (A) (A) (A) (A) (A) (A) (A)
                 (A) (A) (A) (A) (A) (A) (A) (A) (A) (A) (A) (A)
                 (A) (A) (A) (A) (A) (A) (A) (A) (A) (A) (A) (A)
                 (A) (A) (A) (A) (A) (A) (A) (A) (A) (A) (A) (A)
                 (A) (A) (A) (A) (A) (A) (A) (A) (A) (A) (A) (A)
                 (A) (A) (A) (A) (A) (A) (A) (A) (A) (A) (A) (A)
                 (A) (A) (A) (A) (A) (A) (A) (A) (A) (A) (A) (A)
                 (A) (A) (A) (A) (A) (A) (A) (A)
 The electronic state is 2-A.
 Alpha  occ. eigenvalues --  -10.19521 -10.18396 -10.17716 -10.17609 -10.17547
 Alpha  occ. eigenvalues --  -10.17088  -0.80155  -0.76323  -0.70270  -0.63170
 Alpha  occ. eigenvalues --   -0.57666  -0.57155  -0.47429  -0.43951  -0.43213
 Alpha  occ. eigenvalues --   -0.41595  -0.38991  -0.38031  -0.37042  -0.34511
 Alpha  occ. eigenvalues --   -0.33328  -0.32338  -0.31932  -0.30848  -0.22885
 Alpha virt. eigenvalues --    0.09260   0.10621   0.12265   0.13174   0.13934
 Alpha virt. eigenvalues --    0.16382   0.16689   0.17391   0.18586   0.19205
 Alpha virt. eigenvalues --    0.19737   0.20378   0.20471   0.22686   0.23926
 Alpha virt. eigenvalues --    0.26351   0.28118   0.28998   0.49351   0.49887
 Alpha virt. eigenvalues --    0.51028   0.54894   0.55700   0.57334   0.58459
 Alpha virt. eigenvalues --    0.59693   0.62855   0.64271   0.67803   0.68784
 Alpha virt. eigenvalues --    0.72317   0.74963   0.78263   0.81868   0.82466
 Alpha virt. eigenvalues --    0.84736   0.85860   0.88592   0.90271   0.90939
 Alpha virt. eigenvalues --    0.92955   0.93625   0.93864   0.94658   0.95803
 Alpha virt. eigenvalues --    0.96220   0.98130   0.98589   1.01502   1.09618
 Alpha virt. eigenvalues --    1.19145   1.34730   1.40310   1.44107   1.45523
 Alpha virt. eigenvalues --    1.52068   1.53776   1.63437   1.75197   1.81477
 Alpha virt. eigenvalues --    1.82185   1.87058   1.88298   1.90437   1.93678
 Alpha virt. eigenvalues --    1.94560   1.97880   2.00165   2.02382   2.05861
 Alpha virt. eigenvalues --    2.07885   2.15795   2.22613   2.23751   2.29554
 Alpha virt. eigenvalues --    2.32598   2.33191   2.41193   2.42506   2.44404
 Alpha virt. eigenvalues --    2.56324   2.60381   2.62891   2.77335   2.82013
 Alpha virt. eigenvalues --    4.08481   4.15146   4.25196   4.34897   4.44008
 Alpha virt. eigenvalues --    4.55648
  Beta  occ. eigenvalues --  -10.18425 -10.18074 -10.17717 -10.17590 -10.17547
  Beta  occ. eigenvalues --  -10.17088  -0.79953  -0.75767  -0.69400  -0.62197
  Beta  occ. eigenvalues --   -0.57365  -0.56340  -0.47261  -0.43559  -0.42865
  Beta  occ. eigenvalues --   -0.41256  -0.38494  -0.37578  -0.36665  -0.34191
  Beta  occ. eigenvalues --   -0.33107  -0.32234  -0.31896  -0.30586
  Beta virt. eigenvalues --   -0.05859   0.09333   0.10925   0.12332   0.13244
  Beta virt. eigenvalues --    0.14343   0.16662   0.16956   0.17657   0.18991
  Beta virt. eigenvalues --    0.19500   0.19885   0.20417   0.20694   0.22927
  Beta virt. eigenvalues --    0.24385   0.26622   0.28488   0.29394   0.49586
  Beta virt. eigenvalues --    0.50275   0.51315   0.55435   0.56941   0.58709
  Beta virt. eigenvalues --    0.59815   0.61532   0.63363   0.65664   0.68202
  Beta virt. eigenvalues --    0.68865   0.72659   0.75514   0.78524   0.82056
  Beta virt. eigenvalues --    0.82792   0.84895   0.86240   0.89029   0.90383
  Beta virt. eigenvalues --    0.91539   0.93100   0.93915   0.94212   0.95133
  Beta virt. eigenvalues --    0.96111   0.96696   0.98455   0.98910   1.01821
  Beta virt. eigenvalues --    1.10365   1.20198   1.34933   1.40937   1.44215
  Beta virt. eigenvalues --    1.45889   1.52597   1.54192   1.64275   1.75970
  Beta virt. eigenvalues --    1.82879   1.84507   1.87875   1.89996   1.91711
  Beta virt. eigenvalues --    1.93826   1.95265   1.98694   2.00334   2.02974
  Beta virt. eigenvalues --    2.06764   2.09202   2.18489   2.23301   2.24387
  Beta virt. eigenvalues --    2.30205   2.33386   2.33645   2.41541   2.42586
  Beta virt. eigenvalues --    2.44921   2.56714   2.60523   2.63610   2.77686
  Beta virt. eigenvalues --    2.82180   4.10149   4.16193   4.25748   4.35134
  Beta virt. eigenvalues --    4.44215   4.55750
          Condensed to atoms (all electrons):
               1          2          3          4          5          6
     1  C    5.320374   0.360578   0.353252   0.367614  -0.037817  -0.038681
     2  H    0.360578   0.594835  -0.045358  -0.044249  -0.002196   0.005315
     3  H    0.353252  -0.045358   0.596628  -0.036225  -0.000320  -0.003930
     4  C    0.367614  -0.044249  -0.036225   4.996367   0.365483   0.373394
     5  H   -0.037817  -0.002196  -0.000320   0.365483   0.608412  -0.039453
     6  H   -0.038681   0.005315  -0.003930   0.373394  -0.039453   0.602334
     7  C   -0.041211  -0.005883   0.004128   0.376165  -0.040631  -0.040084
     8  H   -0.003176   0.004920  -0.000039  -0.040863  -0.005345   0.005868
     9  H    0.000638  -0.000287   0.000017  -0.040005   0.005951  -0.005320
    10  C    0.003581   0.000048  -0.000153  -0.035166  -0.003203  -0.003441
    11  H    0.000032   0.000007   0.000002  -0.003597  -0.000469   0.005110
    12  H    0.000014   0.000002   0.000001  -0.003491   0.005260  -0.000448
    13  C   -0.000106  -0.000001   0.000001   0.003397   0.000022   0.000004
    14  H    0.000002  -0.000001   0.000000   0.000021   0.000005   0.000006
    15  H    0.000000   0.000000   0.000000   0.000027   0.000006   0.000005
    16  C    0.000001   0.000000   0.000000  -0.000120   0.000001   0.000002
    17  H    0.000000   0.000000   0.000000   0.000001   0.000000  -0.000001
    18  H    0.000000   0.000000   0.000000   0.000001   0.000000   0.000000
    19  H    0.000000   0.000000   0.000000   0.000001  -0.000001   0.000000
               7          8          9         10         11         12
     1  C   -0.041211  -0.003176   0.000638   0.003581   0.000032   0.000014
     2  H   -0.005883   0.004920  -0.000287   0.000048   0.000007   0.000002
     3  H    0.004128  -0.000039   0.000017  -0.000153   0.000002   0.000001
     4  C    0.376165  -0.040863  -0.040005  -0.035166  -0.003597  -0.003491
     5  H   -0.040631  -0.005345   0.005951  -0.003203  -0.000469   0.005260
     6  H   -0.040084   0.005868  -0.005320  -0.003441   0.005110  -0.000448
     7  C    4.988174   0.372618   0.375144   0.376565  -0.039415  -0.039693
     8  H    0.372618   0.617122  -0.039683  -0.039599   0.005939  -0.005364
     9  H    0.375144  -0.039683   0.605867  -0.039610  -0.005373   0.005881
    10  C    0.376565  -0.039599  -0.039610   4.984390   0.372404   0.371418
    11  H   -0.039415   0.005939  -0.005373   0.372404   0.617948  -0.041148
    12  H   -0.039693  -0.005364   0.005881   0.371418  -0.041148   0.621276
    13  C   -0.035264  -0.003563  -0.003342   0.386983  -0.040318  -0.040313
    14  H   -0.003576   0.005116  -0.000450  -0.040351   0.005979  -0.005505
    15  H   -0.003459  -0.000457   0.005056  -0.040315  -0.005496   0.005999
    16  C    0.003519   0.000035   0.000029  -0.042030  -0.002883  -0.002914
    17  H    0.000032   0.000006   0.000003  -0.004521   0.004877  -0.000393
    18  H   -0.000127   0.000002   0.000002   0.004079  -0.000035  -0.000034
    19  H    0.000031   0.000003   0.000006  -0.004543  -0.000392   0.004889
              13         14         15         16         17         18
     1  C   -0.000106   0.000002   0.000000   0.000001   0.000000   0.000000
     2  H   -0.000001  -0.000001   0.000000   0.000000   0.000000   0.000000
     3  H    0.000001   0.000000   0.000000   0.000000   0.000000   0.000000
     4  C    0.003397   0.000021   0.000027  -0.000120   0.000001   0.000001
     5  H    0.000022   0.000005   0.000006   0.000001   0.000000   0.000000
     6  H    0.000004   0.000006   0.000005   0.000002  -0.000001   0.000000
     7  C   -0.035264  -0.003576  -0.003459   0.003519   0.000032  -0.000127
     8  H   -0.003563   0.005116  -0.000457   0.000035   0.000006   0.000002
     9  H   -0.003342  -0.000450   0.005056   0.000029   0.000003   0.000002
    10  C    0.386983  -0.040351  -0.040315  -0.042030  -0.004521   0.004079
    11  H   -0.040318   0.005979  -0.005496  -0.002883   0.004877  -0.000035
    12  H   -0.040313  -0.005505   0.005999  -0.002914  -0.000393  -0.000034
    13  C    4.951413   0.376646   0.376903   0.370981  -0.034715  -0.027169
    14  H    0.376646   0.612768  -0.040099  -0.038579   0.005264  -0.002716
    15  H    0.376903  -0.040099   0.611383  -0.038554  -0.004501  -0.002702
    16  C    0.370981  -0.038579  -0.038554   5.065356   0.377494   0.371680
    17  H   -0.034715   0.005264  -0.004501   0.377494   0.579533  -0.031330
    18  H   -0.027169  -0.002716  -0.002702   0.371680  -0.031330   0.578124
    19  H   -0.034725  -0.004505   0.005257   0.377374  -0.032936  -0.031361
              19
     1  C    0.000000
     2  H    0.000000
     3  H    0.000000
     4  C    0.000001
     5  H   -0.000001
     6  H    0.000000
     7  C    0.000031
     8  H    0.000003
     9  H    0.000006
    10  C   -0.004543
    11  H   -0.000392
    12  H    0.004889
    13  C   -0.034725
    14  H   -0.004505
    15  H    0.005257
    16  C    0.377374
    17  H   -0.032936
    18  H   -0.031361
    19  H    0.580148
          Atomic-Atomic Spin Densities.
               1          2          3          4          5          6
     1  C    1.137955  -0.013632  -0.012642  -0.036534  -0.023146  -0.005015
     2  H   -0.013632  -0.024032   0.006325   0.003107  -0.002497   0.000183
     3  H   -0.012642   0.006325  -0.026033   0.002725  -0.002624   0.001229
     4  C   -0.036534   0.003107   0.002725  -0.038661   0.011812   0.004025
     5  H   -0.023146  -0.002497  -0.002624   0.011812   0.079355  -0.007468
     6  H   -0.005015   0.000183   0.001229   0.004025  -0.007468   0.011401
     7  C   -0.007470   0.001101   0.000188   0.005604  -0.007921   0.004019
     8  H   -0.000158   0.000065   0.000024   0.000436  -0.000547   0.000044
     9  H    0.004434  -0.000282  -0.000077  -0.000998   0.000798  -0.000754
    10  C    0.000140  -0.000069  -0.000007   0.000538   0.001546  -0.000616
    11  H    0.000001   0.000000   0.000000   0.000005   0.000033  -0.000050
    12  H   -0.000004  -0.000001   0.000000  -0.000002   0.000106  -0.000013
    13  C   -0.000001   0.000000   0.000000  -0.000035   0.000002  -0.000007
    14  H    0.000000   0.000000   0.000000   0.000002   0.000004  -0.000001
    15  H   -0.000002   0.000000   0.000000   0.000000  -0.000003   0.000002
    16  C    0.000000   0.000000   0.000000   0.000003   0.000002   0.000000
    17  H    0.000000   0.000000   0.000000   0.000000   0.000000   0.000000
    18  H    0.000000   0.000000   0.000000   0.000000   0.000000   0.000000
    19  H    0.000000   0.000000   0.000000   0.000000   0.000000   0.000000
               7          8          9         10         11         12
     1  C   -0.007470  -0.000158   0.004434   0.000140   0.000001  -0.000004
     2  H    0.001101   0.000065  -0.000282  -0.000069   0.000000  -0.000001
     3  H    0.000188   0.000024  -0.000077  -0.000007   0.000000   0.000000
     4  C    0.005604   0.000436  -0.000998   0.000538   0.000005  -0.000002
     5  H   -0.007921  -0.000547   0.000798   0.001546   0.000033   0.000106
     6  H    0.004019   0.000044  -0.000754  -0.000616  -0.000050  -0.000013
     7  C    0.019095   0.000509  -0.005586  -0.002965  -0.000274   0.000111
     8  H    0.000509  -0.000759  -0.000249  -0.000024  -0.000013   0.000004
     9  H   -0.005586  -0.000249   0.003004   0.001575   0.000060  -0.000003
    10  C   -0.002965  -0.000024   0.001575   0.000162   0.000217   0.000048
    11  H   -0.000274  -0.000013   0.000060   0.000217   0.000043   0.000025
    12  H    0.000111   0.000004  -0.000003   0.000048   0.000025  -0.000197
    13  C   -0.000082  -0.000007  -0.000018   0.000455   0.000007  -0.000038
    14  H   -0.000028  -0.000015   0.000025  -0.000016   0.000002   0.000003
    15  H    0.000116   0.000009  -0.000117  -0.000056  -0.000009  -0.000004
    16  C   -0.000022  -0.000001   0.000010  -0.000190   0.000015   0.000004
    17  H   -0.000001   0.000000   0.000000  -0.000005   0.000001   0.000000
    18  H    0.000000   0.000000   0.000000   0.000005   0.000000  -0.000001
    19  H    0.000002   0.000000   0.000000   0.000035  -0.000001  -0.000001
              13         14         15         16         17         18
     1  C   -0.000001   0.000000  -0.000002   0.000000   0.000000   0.000000
     2  H    0.000000   0.000000   0.000000   0.000000   0.000000   0.000000
     3  H    0.000000   0.000000   0.000000   0.000000   0.000000   0.000000
     4  C   -0.000035   0.000002   0.000000   0.000003   0.000000   0.000000
     5  H    0.000002   0.000004  -0.000003   0.000002   0.000000   0.000000
     6  H   -0.000007  -0.000001   0.000002   0.000000   0.000000   0.000000
     7  C   -0.000082  -0.000028   0.000116  -0.000022  -0.000001   0.000000
     8  H   -0.000007  -0.000015   0.000009  -0.000001   0.000000   0.000000
     9  H   -0.000018   0.000025  -0.000117   0.000010   0.000000   0.000000
    10  C    0.000455  -0.000016  -0.000056  -0.000190  -0.000005   0.000005
    11  H    0.000007   0.000002  -0.000009   0.000015   0.000001   0.000000
    12  H   -0.000038   0.000003  -0.000004   0.000004   0.000000  -0.000001
    13  C   -0.000771  -0.000006  -0.000020   0.000179   0.000008  -0.000002
    14  H   -0.000006   0.000068  -0.000039   0.000036   0.000001  -0.000002
    15  H   -0.000020  -0.000039   0.000273  -0.000056  -0.000003   0.000004
    16  C    0.000179   0.000036  -0.000056   0.000117  -0.000001   0.000017
    17  H    0.000008   0.000001  -0.000003  -0.000001  -0.000006   0.000002
    18  H   -0.000002  -0.000002   0.000004   0.000017   0.000002  -0.000055
    19  H   -0.000003  -0.000005   0.000004  -0.000047  -0.000002   0.000008
              19
     1  C    0.000000
     2  H    0.000000
     3  H    0.000000
     4  C    0.000000
     5  H    0.000000
     6  H    0.000000
     7  C    0.000002
     8  H    0.000000
     9  H    0.000000
    10  C    0.000035
    11  H   -0.000001
    12  H   -0.000001
    13  C   -0.000003
    14  H   -0.000005
    15  H    0.000004
    16  C   -0.000047
    17  H   -0.000002
    18  H    0.000008
    19  H    0.000021
 Mulliken charges and spin densities:
               1          2
     1  C   -0.285095   1.043925
     2  H    0.132268  -0.029732
     3  H    0.131996  -0.030891
     4  C   -0.278756  -0.047971
     5  H    0.144296   0.049452
     6  H    0.139320   0.006979
     7  C   -0.247032   0.006398
     8  H    0.126460  -0.000680
     9  H    0.135476   0.001821
    10  C   -0.246537   0.000772
    11  H    0.126825   0.000061
    12  H    0.124560   0.000036
    13  C   -0.246837  -0.000341
    14  H    0.129976   0.000029
    15  H    0.130946   0.000100
    16  C   -0.441392   0.000065
    17  H    0.141187  -0.000006
    18  H    0.141585  -0.000024
    19  H    0.140753   0.000010
 Sum of Mulliken charges =   0.00000   1.00000
 Mulliken charges and spin densities with hydrogens summed into heavy atoms:
               1          2
     1  C   -0.020830   0.983301
     4  C    0.004861   0.008459
     7  C    0.014904   0.007538
    10  C    0.004848   0.000869
    13  C    0.014084  -0.000212
    16  C   -0.017867   0.000045
 Electronic spatial extent (au):  <R**2>=           1098.8057
 Charge=              0.0000 electrons
 Dipole moment (field-independent basis, Debye):
    X=              0.2274    Y=             -0.3575    Z=              0.4753  Tot=              0.6368
 Quadrupole moment (field-independent basis, Debye-Ang):
   XX=            -42.4467   YY=            -41.0485   ZZ=            -40.3654
   XY=              1.5543   XZ=             -1.7730   YZ=              0.4616
 Traceless Quadrupole moment (field-independent basis, Debye-Ang):
   XX=             -1.1598   YY=              0.2384   ZZ=              0.9214
   XY=              1.5543   XZ=             -1.7730   YZ=              0.4616
 Octapole moment (field-independent basis, Debye-Ang**2):
  XXX=              4.3602  YYY=             -0.6653  ZZZ=              0.8043  XYY=              1.0299
  XXY=             -3.8942  XXZ=              5.9814  XZZ=              1.6671  YZZ=             -0.5544
  YYZ=              0.4670  XYZ=             -1.4376
 Hexadecapole moment (field-independent basis, Debye-Ang**3):
 XXXX=          -1343.9364 YYYY=           -135.2768 ZZZZ=            -79.5290 XXXY=             27.8906
 XXXZ=            -23.0297 YYYX=              2.9727 YYYZ=              1.4361 ZZZX=             -2.6552
 ZZZY=              0.0851 XXYY=           -243.6501 XXZZ=           -236.4914 YYZZ=            -32.8316
 XXYZ=              5.3818 YYXZ=             -2.1352 ZZXY=             -0.1302
 N-N= 2.338452327015D+02 E-N=-1.013243635698D+03  KE= 2.339626048415D+02
                          Isotropic Fermi Contact Couplings
        Atom                 a.u.       MegaHertz       Gauss      10(-4) cm-1
     1  C(13)              0.31175     350.46792     125.05566     116.90351
     2  H(1)              -0.00377     -16.84729      -6.01153      -5.61965
     3  H(1)              -0.00449     -20.05100      -7.15470      -6.68830
     4  C(13)             -0.01178     -13.24845      -4.72737      -4.41921
     5  H(1)               0.02612     116.75414      41.66078      38.94499
     6  H(1)               0.00463      20.70869       7.38937       6.90768
     7  C(13)              0.00921      10.35224       3.69394       3.45314
     8  H(1)              -0.00026      -1.14275      -0.40776      -0.38118
     9  H(1)              -0.00030      -1.34354      -0.47941      -0.44816
    10  C(13)             -0.00127      -1.42222      -0.50748      -0.47440
    11  H(1)               0.00007       0.31719       0.11318       0.10580
    12  H(1)               0.00023       1.00608       0.35900       0.33559
    13  C(13)             -0.00021      -0.23488      -0.08381      -0.07835
    14  H(1)               0.00000       0.01678       0.00599       0.00560
    15  H(1)               0.00006       0.26804       0.09564       0.08941
    16  C(13)              0.00006       0.07191       0.02566       0.02399
    17  H(1)               0.00000      -0.01119      -0.00399      -0.00373
    18  H(1)              -0.00001      -0.04041      -0.01442      -0.01348
    19  H(1)               0.00000      -0.01305      -0.00466      -0.00435
 --------------------------------------------------------
       Center         ----  Spin Dipole Couplings  ----
                      3XX-RR        3YY-RR        3ZZ-RR
 --------------------------------------------------------
     1   Atom       -0.479515     -0.112266      0.591780
     2   Atom       -0.059040      0.019483      0.039556
     3   Atom        0.022669     -0.002339     -0.020330
     4   Atom        0.006353     -0.002014     -0.004339
     5   Atom        0.000855     -0.000736     -0.000119
     6   Atom        0.000202      0.006930     -0.007132
     7   Atom        0.018752     -0.008930     -0.009822
     8   Atom        0.006831     -0.003712     -0.003119
     9   Atom        0.011351     -0.005544     -0.005807
    10   Atom        0.003312     -0.002196     -0.001116
    11   Atom        0.003019     -0.001328     -0.001691
    12   Atom        0.003391     -0.001765     -0.001626
    13   Atom        0.002006     -0.001079     -0.000927
    14   Atom        0.001755     -0.000864     -0.000890
    15   Atom        0.001934     -0.000957     -0.000977
    16   Atom        0.001141     -0.000558     -0.000583
    17   Atom        0.000946     -0.000460     -0.000486
    18   Atom        0.000765     -0.000382     -0.000384
    19   Atom        0.000931     -0.000472     -0.000459
 --------------------------------------------------------
                        XY            XZ            YZ
 --------------------------------------------------------
     1   Atom       -0.020859      0.039029     -0.626085
     2   Atom       -0.007877     -0.006322      0.040618
     3   Atom        0.060142      0.005959     -0.018943
     4   Atom       -0.025051      0.018535     -0.019712
     5   Atom       -0.008417      0.003280     -0.009132
     6   Atom       -0.014290     -0.004983      0.005658
     7   Atom        0.004758      0.005956      0.001289
     8   Atom        0.004322      0.005573      0.001654
     9   Atom        0.003985     -0.004291     -0.002028
    10   Atom       -0.000888      0.001045     -0.001205
    11   Atom       -0.001743     -0.000900      0.000180
    12   Atom       -0.001120      0.001082     -0.000636
    13   Atom       -0.000088      0.000165     -0.000076
    14   Atom        0.000578      0.000577      0.000064
    15   Atom        0.000480     -0.000399     -0.000097
    16   Atom       -0.000152      0.000034     -0.000009
    17   Atom       -0.000267     -0.000140      0.000015
    18   Atom        0.000036      0.000034     -0.000007
    19   Atom       -0.000216      0.000251     -0.000053
 --------------------------------------------------------


 ---------------------------------------------------------------------------------
              Anisotropic Spin Dipole Couplings in Principal Axis System
 ---------------------------------------------------------------------------------

       Atom             a.u.   MegaHertz   Gauss  10(-4) cm-1        Axes

              Baa    -0.4818   -64.648   -23.068   -21.564  0.8859 -0.3860 -0.2573
     1 C(13)  Bbb    -0.4776   -64.092   -22.869   -21.379  0.4629  0.7722  0.4352
              Bcc     0.9594   128.740    45.937    42.943  0.0307 -0.5047  0.8628
 
              Baa    -0.0599   -31.954   -11.402   -10.659  0.9960  0.0840  0.0290
     2 H(1)   Bbb    -0.0122    -6.514    -2.324    -2.173 -0.0480  0.7830 -0.6202
              Bcc     0.0721    38.468    13.726    12.832 -0.0748  0.6164  0.7839
 
              Baa    -0.0599   -31.986   -11.413   -10.669 -0.5524  0.7167  0.4257
     3 H(1)   Bbb    -0.0122    -6.532    -2.331    -2.179  0.3301 -0.2809  0.9012
              Bcc     0.0722    38.518    13.744    12.848  0.7654  0.6383 -0.0814
 
              Baa    -0.0247    -3.311    -1.181    -1.104  0.4073  0.8127  0.4166
     4 C(13)  Bbb    -0.0182    -2.447    -0.873    -0.816 -0.6438 -0.0680  0.7622
              Bcc     0.0429     5.758     2.055     1.921  0.6478 -0.5786  0.4955
 
              Baa    -0.0112    -5.978    -2.133    -1.994  0.3934  0.7633  0.5124
     5 H(1)   Bbb    -0.0029    -1.522    -0.543    -0.508  0.7413  0.0663 -0.6679
              Bcc     0.0141     7.500     2.676     2.502 -0.5438  0.6426 -0.5398
 
              Baa    -0.0112    -5.969    -2.130    -1.991  0.7989  0.5735  0.1815
     6 H(1)   Bbb    -0.0091    -4.869    -1.737    -1.624  0.0149 -0.3205  0.9471
              Bcc     0.0203    10.838     3.867     3.615 -0.6013  0.7539  0.2646
 
              Baa    -0.0111    -1.489    -0.531    -0.497 -0.1546 -0.2322  0.9603
     7 C(13)  Bbb    -0.0097    -1.297    -0.463    -0.433 -0.2023  0.9588  0.1993
              Bcc     0.0208     2.786     0.994     0.929  0.9670  0.1635  0.1952
 
              Baa    -0.0057    -3.055    -1.090    -1.019 -0.4827  0.3934  0.7824
     8 H(1)   Bbb    -0.0051    -2.706    -0.966    -0.903 -0.0860  0.8678 -0.4894
              Bcc     0.0108     5.761     2.056     1.922  0.8715  0.3035  0.3851
 
              Baa    -0.0077    -4.121    -1.470    -1.375  0.0378  0.6429  0.7650
     9 H(1)   Bbb    -0.0056    -3.010    -1.074    -1.004 -0.3231  0.7323 -0.5994
              Bcc     0.0134     7.131     2.545     2.379  0.9456  0.2245 -0.2354
 
              Baa    -0.0030    -0.400    -0.143    -0.133  0.0317  0.8478  0.5294
    10 C(13)  Bbb    -0.0008    -0.105    -0.038    -0.035 -0.3138 -0.4945  0.8106
              Bcc     0.0038     0.506     0.180     0.169  0.9490 -0.1919  0.2504
 
              Baa    -0.0020    -1.082    -0.386    -0.361  0.3581  0.7491  0.5573
    11 H(1)   Bbb    -0.0018    -0.936    -0.334    -0.312 -0.0576 -0.5781  0.8139
              Bcc     0.0038     2.018     0.720     0.673  0.9319 -0.3236 -0.1639
 
              Baa    -0.0023    -1.248    -0.445    -0.416  0.0292  0.7675  0.6403
    12 H(1)   Bbb    -0.0015    -0.823    -0.294    -0.275 -0.2991 -0.6045  0.7383
              Bcc     0.0039     2.071     0.739     0.691  0.9538 -0.2131  0.2119
 
              Baa    -0.0011    -0.149    -0.053    -0.050  0.0062  0.9260  0.3774
    13 C(13)  Bbb    -0.0009    -0.122    -0.043    -0.041 -0.0636 -0.3762  0.9243
              Bcc     0.0020     0.271     0.097     0.090  0.9980 -0.0297  0.0565
 
              Baa    -0.0011    -0.562    -0.200    -0.187 -0.2776  0.5967  0.7529
    14 H(1)   Bbb    -0.0009    -0.501    -0.179    -0.167 -0.0322  0.7775 -0.6281
              Bcc     0.0020     1.063     0.379     0.355  0.9601  0.1986  0.1966
 
              Baa    -0.0011    -0.568    -0.203    -0.189 -0.0256  0.7289  0.6841
    15 H(1)   Bbb    -0.0010    -0.535    -0.191    -0.178  0.2062 -0.6658  0.7171
              Bcc     0.0021     1.103     0.393     0.368  0.9782  0.1595 -0.1333
 
              Baa    -0.0006    -0.079    -0.028    -0.026  0.0147  0.3770  0.9261
    16 C(13)  Bbb    -0.0006    -0.076    -0.027    -0.025  0.0893  0.9220 -0.3767
              Bcc     0.0012     0.155     0.055     0.052  0.9959 -0.0883  0.0201
 
              Baa    -0.0005    -0.275    -0.098    -0.092  0.2013  0.8235  0.5305
    17 H(1)   Bbb    -0.0005    -0.263    -0.094    -0.088 -0.0178 -0.5384  0.8425
              Bcc     0.0010     0.538     0.192     0.179  0.9794 -0.1790 -0.0937
 
              Baa    -0.0004    -0.209    -0.075    -0.070 -0.0425  0.6634  0.7470
    18 H(1)   Bbb    -0.0004    -0.201    -0.072    -0.067 -0.0038  0.7476 -0.6641
              Bcc     0.0008     0.409     0.146     0.137  0.9991  0.0311  0.0293
 
              Baa    -0.0005    -0.277    -0.099    -0.092 -0.0123  0.7217  0.6921
    19 H(1)   Bbb    -0.0005    -0.261    -0.093    -0.087 -0.2268 -0.6762  0.7010
              Bcc     0.0010     0.538     0.192     0.180  0.9739 -0.1484  0.1720
 

 ---------------------------------------------------------------------------------

 No NMR shielding tensors so no spin-rotation constants.
 Leave Link  601 at Sat Nov  7 01:58:28 2015, MaxMem=   805306368 cpu:         1.4
 (Enter /home/hetanjin/apps/g09D01/g09/l701.exe)
 Compute integral first derivatives.
 ... and contract with generalized density number  0.
 Leave Link  701 at Sat Nov  7 01:58:28 2015, MaxMem=   805306368 cpu:         1.1
 (Enter /home/hetanjin/apps/g09D01/g09/l702.exe)
 L702 exits ... SP integral derivatives will be done elsewhere.
 Leave Link  702 at Sat Nov  7 01:58:28 2015, MaxMem=   805306368 cpu:         0.1
 (Enter /home/hetanjin/apps/g09D01/g09/l703.exe)
 Compute integral first derivatives, UseDBF=F ICtDFT=           0.
 Integral derivatives from FoFJK, PRISM(SPDF).
 Calling FoFJK, ICntrl=      2127 FMM=F ISym2X=0 I1Cent= 0 IOpClX= 1 NMat=1 NMatS=1 NMatT=0.
 FoFJK:  IHMeth= 1 ICntrl=    2127 DoSepK=F KAlg= 0 I1Cent=   0 FoldK=F
 IRaf=         0 NMat=   1 IRICut=       1 DoRegI=T DoRafI=F ISym2E= 0.
 FoFCou: FMM=F IPFlag=           0 FMFlag=      100000 FMFlg1=         800
         NFxFlg=           0 DoJE=F BraDBF=F KetDBF=F FulRan=T
         wScrn=  0.000000 ICntrl=    2127 IOpCl=  1 I1Cent=           0 NGrid=           0
         NMat0=    1 NMatS0=      1 NMatT0=    0 NMatD0=    1 NMtDS0=    0 NMtDT0=    0
 Symmetry not used in FoFCou.
 Leave Link  703 at Sat Nov  7 01:58:38 2015, MaxMem=   805306368 cpu:        34.8
 (Enter /home/hetanjin/apps/g09D01/g09/l716.exe)
 Dipole        = 8.94493641D-02-1.40657521D-01 1.87012072D-01
 ***** Axes restored to original set *****
 -------------------------------------------------------------------
 Center     Atomic                   Forces (Hartrees/Bohr)
 Number     Number              X              Y              Z
 -------------------------------------------------------------------
      1        6          -0.020458099   -0.024159152    0.034635954
      2        1           0.010233939    0.006098967   -0.009330991
      3        1           0.002954833    0.005998966   -0.013185348
      4        6           0.009451122    0.012730047   -0.016417108
      5        1          -0.002238035    0.001632931    0.002941201
      6        1          -0.000837505   -0.000921013    0.000474878
      7        6           0.002133491   -0.001327519   -0.000086996
      8        1          -0.000117911    0.000041255   -0.000008794
      9        1          -0.000799665   -0.000043941    0.000686856
     10        6          -0.000182770    0.000028850    0.000097299
     11        1           0.000008621   -0.000002017    0.000003359
     12        1          -0.000092940   -0.000187824    0.000141265
     13        6           0.000081781    0.000074562    0.000016269
     14        1          -0.000010961    0.000002204   -0.000007171
     15        1          -0.000063067    0.000015974    0.000031827
     16        6          -0.000065723   -0.000011655   -0.000001536
     17        1           0.000012240    0.000003821    0.000000627
     18        1          -0.000016014    0.000037683   -0.000001359
     19        1           0.000006663   -0.000012137    0.000009766
 -------------------------------------------------------------------
 Cartesian Forces:  Max     0.034635954 RMS     0.007488003
 Leave Link  716 at Sat Nov  7 01:58:38 2015, MaxMem=   805306368 cpu:         0.1
 (Enter /home/hetanjin/apps/g09D01/g09/l103.exe)

 GradGradGradGradGradGradGradGradGradGradGradGradGradGradGradGradGradGrad
 Berny optimization.
 FormGI is forming the generalized inverse of G from B-inverse, IUseBI=4.
 Internal  Forces:  Max     0.013632816 RMS     0.003308635
 Search for a local minimum.
 Step number   1 out of a maximum of  103
 All quantities printed in internal units (Hartrees-Bohrs-Radians)
 RMS Force = .33086D-02 SwitMx=.10000D-02 MixMth= 1
 Mixed Optimization -- RFO/linear search
 Second derivative matrix not updated -- first step.
 ITU=  0
     Eigenvalues ---    0.00315   0.00315   0.00318   0.00341   0.00341
     Eigenvalues ---    0.03382   0.03382   0.03425   0.03604   0.03892
     Eigenvalues ---    0.04763   0.04763   0.04780   0.05320   0.05434
     Eigenvalues ---    0.05477   0.08440   0.08496   0.08496   0.09390
     Eigenvalues ---    0.12286   0.12327   0.12327   0.12889   0.16000
     Eigenvalues ---    0.16000   0.16000   0.16000   0.16000   0.21899
     Eigenvalues ---    0.21905   0.21905   0.21929   0.29047   0.29047
     Eigenvalues ---    0.29069   0.29228   0.29228   0.33635   0.33635
     Eigenvalues ---    0.33635   0.33635   0.33749   0.33749   0.33749
     Eigenvalues ---    0.33749   0.34007   0.34007   0.34007   0.34120
     Eigenvalues ---    0.34120
 RFO step:  Lambda=-1.39027859D-02 EMin= 3.14701035D-03
 Linear search not attempted -- first point.
 Iteration  1 RMS(Cart)=  0.04265208 RMS(Int)=  0.00826751
 Iteration  2 RMS(Cart)=  0.00633848 RMS(Int)=  0.00572501
 Iteration  3 RMS(Cart)=  0.00008258 RMS(Int)=  0.00572467
 Iteration  4 RMS(Cart)=  0.00000182 RMS(Int)=  0.00572466
 Iteration  5 RMS(Cart)=  0.00000005 RMS(Int)=  0.00572466
 ITry= 1 IFail=0 DXMaxC= 1.60D-01 DCOld= 1.00D+10 DXMaxT= 3.00D-01 DXLimC= 3.00D+00 Rises=F
 Variable       Old X    -DE/DX   Delta X   Delta X   Delta X     New X
                                 (Linear)    (Quad)   (Total)
    R1        2.07318  -0.00053   0.00000  -0.00149  -0.00149   2.07169
    R2        2.07128  -0.00055   0.00000  -0.00156  -0.00156   2.06972
    R3        2.89530  -0.01206   0.00000  -0.03939  -0.03939   2.85591
    R4        2.07756   0.00293   0.00000   0.00833   0.00833   2.08589
    R5        2.07756   0.00035   0.00000   0.00099   0.00099   2.07855
    R6        2.89905   0.00137   0.00000   0.00449   0.00449   2.90354
    R7        2.07951  -0.00005   0.00000  -0.00015  -0.00015   2.07936
    R8        2.07951  -0.00096   0.00000  -0.00275  -0.00275   2.07675
    R9        2.89859   0.00005   0.00000   0.00016   0.00016   2.89875
   R10        2.07951  -0.00001   0.00000  -0.00002  -0.00002   2.07949
   R11        2.07951   0.00022   0.00000   0.00063   0.00063   2.08014
   R12        2.89905  -0.00009   0.00000  -0.00031  -0.00031   2.89874
   R13        2.07756  -0.00001   0.00000  -0.00003  -0.00003   2.07753
   R14        2.07756  -0.00005   0.00000  -0.00015  -0.00015   2.07741
   R15        2.89530  -0.00002   0.00000  -0.00006  -0.00006   2.89525
   R16        2.07318  -0.00001   0.00000  -0.00002  -0.00002   2.07316
   R17        2.07128  -0.00003   0.00000  -0.00008  -0.00008   2.07120
   R18        2.07318   0.00001   0.00000   0.00003   0.00003   2.07321
    A1        1.87917  -0.00066   0.00000   0.12173   0.08656   1.96573
    A2        1.94050   0.01363   0.00000   0.14559   0.11749   2.05799
    A3        1.94554   0.01345   0.00000   0.14424   0.11617   2.06171
    A4        1.91025  -0.00345   0.00000  -0.03164  -0.03159   1.87867
    A5        1.91025   0.00025   0.00000   0.01147   0.01125   1.92150
    A6        1.97691   0.00284   0.00000   0.01317   0.01303   1.98994
    A7        1.84998   0.00018   0.00000  -0.00294  -0.00290   1.84708
    A8        1.90607   0.00065   0.00000   0.00129   0.00133   1.90740
    A9        1.90607  -0.00062   0.00000   0.00765   0.00741   1.91347
   A10        1.90580   0.00003   0.00000  -0.00062  -0.00062   1.90518
   A11        1.90580  -0.00026   0.00000  -0.00240  -0.00240   1.90341
   A12        1.98329  -0.00018   0.00000  -0.00098  -0.00098   1.98231
   A13        1.84895   0.00002   0.00000   0.00089   0.00089   1.84984
   A14        1.90759   0.00002   0.00000   0.00014   0.00014   1.90773
   A15        1.90759   0.00037   0.00000   0.00310   0.00310   1.91069
   A16        1.90759   0.00003   0.00000   0.00002   0.00002   1.90762
   A17        1.90759   0.00015   0.00000   0.00117   0.00117   1.90876
   A18        1.98329  -0.00019   0.00000  -0.00082  -0.00082   1.98246
   A19        1.84895  -0.00004   0.00000  -0.00014  -0.00014   1.84881
   A20        1.90580   0.00007   0.00000   0.00007   0.00007   1.90587
   A21        1.90580  -0.00001   0.00000  -0.00025  -0.00025   1.90555
   A22        1.90607   0.00002   0.00000   0.00008   0.00008   1.90615
   A23        1.90607  -0.00003   0.00000  -0.00036  -0.00036   1.90571
   A24        1.97691  -0.00004   0.00000  -0.00022  -0.00022   1.97669
   A25        1.84998   0.00000   0.00000   0.00010   0.00010   1.85008
   A26        1.91025   0.00002   0.00000   0.00017   0.00017   1.91042
   A27        1.91025   0.00004   0.00000   0.00024   0.00024   1.91050
   A28        1.94050   0.00000   0.00000   0.00004   0.00004   1.94054
   A29        1.94554  -0.00005   0.00000  -0.00033  -0.00033   1.94520
   A30        1.94050   0.00002   0.00000   0.00018   0.00018   1.94067
   A31        1.87917   0.00001   0.00000   0.00001   0.00001   1.87918
   A32        1.87582   0.00000   0.00000   0.00010   0.00010   1.87592
   A33        1.87917   0.00001   0.00000   0.00001   0.00001   1.87919
    D1        1.08672   0.00951   0.00000   0.18366   0.18989   1.27662
    D2        3.10715   0.00792   0.00000   0.16878   0.17494  -3.00110
    D3       -1.04465   0.00925   0.00000   0.19603   0.20234  -0.84232
    D4       -1.01021  -0.00803   0.00000  -0.16749  -0.17373  -1.18394
    D5        1.01021  -0.00962   0.00000  -0.18237  -0.18868   0.82153
    D6        3.14159  -0.00829   0.00000  -0.15512  -0.16128   2.98031
    D7        1.00712  -0.00133   0.00000  -0.02263  -0.02267   0.98445
    D8       -1.00712  -0.00124   0.00000  -0.02203  -0.02207  -1.02919
    D9        3.14159  -0.00140   0.00000  -0.02358  -0.02363   3.11797
   D10       -1.12659   0.00070   0.00000   0.00810   0.00811  -1.11848
   D11       -3.14083   0.00079   0.00000   0.00870   0.00871  -3.13213
   D12        1.00788   0.00063   0.00000   0.00715   0.00715   1.01503
   D13        3.14083   0.00047   0.00000   0.00669   0.00672  -3.13563
   D14        1.12659   0.00057   0.00000   0.00729   0.00733   1.13392
   D15       -1.00788   0.00040   0.00000   0.00573   0.00577  -1.00211
   D16        1.00811  -0.00001   0.00000   0.00075   0.00075   1.00886
   D17       -1.00811  -0.00006   0.00000   0.00025   0.00025  -1.00786
   D18        3.14159  -0.00003   0.00000   0.00029   0.00029  -3.14131
   D19        3.14159  -0.00007   0.00000  -0.00063  -0.00063   3.14096
   D20        1.12537  -0.00012   0.00000  -0.00113  -0.00113   1.12424
   D21       -1.00811  -0.00009   0.00000  -0.00109  -0.00109  -1.00920
   D22       -1.12537   0.00018   0.00000   0.00223   0.00223  -1.12314
   D23        3.14159   0.00012   0.00000   0.00174   0.00174  -3.13986
   D24        1.00811   0.00016   0.00000   0.00177   0.00177   1.00989
   D25        1.00788   0.00003   0.00000   0.00044   0.00044   1.00832
   D26       -1.00788   0.00004   0.00000   0.00047   0.00048  -1.00741
   D27        3.14159   0.00003   0.00000   0.00057   0.00057  -3.14102
   D28       -3.14083  -0.00001   0.00000  -0.00004  -0.00004  -3.14088
   D29        1.12659   0.00000   0.00000  -0.00001  -0.00001   1.12658
   D30       -1.00712   0.00000   0.00000   0.00009   0.00009  -1.00703
   D31       -1.12659  -0.00003   0.00000  -0.00031  -0.00031  -1.12690
   D32        3.14083  -0.00002   0.00000  -0.00028  -0.00028   3.14056
   D33        1.00712  -0.00003   0.00000  -0.00018  -0.00018   1.00694
   D34        1.04465   0.00000   0.00000  -0.00005  -0.00005   1.04460
   D35        3.14159  -0.00002   0.00000  -0.00024  -0.00024   3.14136
   D36       -1.04465  -0.00002   0.00000  -0.00033  -0.00033  -1.04498
   D37       -3.10715   0.00000   0.00000   0.00003   0.00003  -3.10712
   D38       -1.01021  -0.00001   0.00000  -0.00015  -0.00015  -1.01037
   D39        1.08672  -0.00002   0.00000  -0.00024  -0.00024   1.08648
   D40       -1.08672   0.00003   0.00000   0.00038   0.00038  -1.08634
   D41        1.01021   0.00002   0.00000   0.00020   0.00020   1.01041
   D42        3.10715   0.00001   0.00000   0.00011   0.00011   3.10726
         Item               Value     Threshold  Converged?
 Maximum Force            0.013633     0.000015     NO 
 RMS     Force            0.003309     0.000010     NO 
 Maximum Displacement     0.159572     0.000060     NO 
 RMS     Displacement     0.039976     0.000040     NO 
 Predicted change in Energy=-1.000499D-02
 Lowest energy point so far.  Saving SCF results.
 GradGradGradGradGradGradGradGradGradGradGradGradGradGradGradGradGradGrad

 Leave Link  103 at Sat Nov  7 01:58:38 2015, MaxMem=   805306368 cpu:         1.0
 (Enter /home/hetanjin/apps/g09D01/g09/l202.exe)
                          Input orientation:                          
 ---------------------------------------------------------------------
 Center     Atomic      Atomic             Coordinates (Angstroms)
 Number     Number       Type             X           Y           Z
 ---------------------------------------------------------------------
      1          6           0       -1.456989    2.867870    0.066624
      2          1           0       -0.830497    3.370134    0.813012
      3          1           0       -2.417930    3.371199   -0.084442
      4          6           0       -1.428694    1.357570    0.020010
      5          1           0       -1.981201    0.985351    0.900110
      6          1           0       -1.984148    0.996126   -0.857857
      7          6           0       -0.013847    0.758406    0.018350
      8          1           0        0.532477    1.119975    0.902410
      9          1           0        0.535956    1.138943   -0.853799
     10          6           0        0.002923   -0.775389    0.004100
     11          1           0       -0.544015   -1.136873   -0.879702
     12          1           0       -0.549700   -1.154559    0.877322
     13          6           0        1.415337   -1.373789    0.002842
     14          1           0        1.961757   -1.013389    0.886117
     15          1           0        1.967023   -0.996041   -0.869769
     16          6           0        1.423239   -2.905793   -0.012222
     17          1           0        0.914437   -3.296146   -0.902338
     18          1           0        2.445391   -3.301380   -0.013004
     19          1           0        0.908977   -3.313715    0.866839
 ---------------------------------------------------------------------
                    Distance matrix (angstroms):
                    1          2          3          4          5
     1  C    0.000000
     2  H    1.096292   0.000000
     3  H    1.095249   1.823559   0.000000
     4  C    1.511284   2.244350   2.245929   0.000000
     5  H    2.124470   2.649320   2.617698   1.103805   0.000000
     6  H    2.153134   3.123880   2.535214   1.099919   1.758002
     7  C    2.556331   2.849479   3.552023   1.536487   2.167830
     8  H    2.776985   2.632281   3.840154   2.163625   2.517281
     9  H    2.794315   3.102204   3.781577   2.161294   3.071786
    10  C    3.925377   4.305147   4.802350   2.568910   2.799962
    11  H    4.215094   4.822910   4.946383   2.795422   3.120428
    12  H    4.202420   4.533854   4.989765   2.796141   2.574671
    13  C    5.123084   5.310833   6.100530   3.943238   4.231678
    14  H    5.236751   5.197817   6.272819   4.226908   4.420642
    15  H    5.246951   5.451730   6.238376   4.226357   4.758872
    16  C    6.452683   6.719197   7.359377   5.129409   5.250102
    17  H    6.675151   7.101163   7.498474   5.291320   5.474008
    18  H    7.300312   7.478158   8.257137   6.059327   6.229331
    19  H    6.667094   6.906701   7.527372   5.291761   5.180368
                    6          7          8          9         10
     6  H    0.000000
     7  C    2.169409   0.000000
     8  H    3.073643   1.100348   0.000000
[...]
 77,0.00231202,-0.01961624,0.00149021,0.00491824,0.02478634,-0.00034564
 ,0.48031177,0.00229842,-0.23108948,-0.01036035,0.00236321,-0.00822946,
 0.00088832,-0.00349207,-0.00720251,-0.00243583,0.02641827,0.48986294,-
 0.01983945,-0.01364114,-0.05597564,-0.00092454,-0.01699197,0.00301019,
 0.00120376,0.00833777,0.00200937,0.03280217,0.01746655,0.53098341,0.00
 199663,-0.00386726,-0.00150093,0.00023276,-0.00030638,-0.00035198,-0.0
 0070127,-0.00036466,0.00086142,-0.09789449,-0.03894426,0.08590675,0.11
 122443,-0.01291483,-0.02360388,0.02068186,0.00039083,-0.00062442,-0.00
 046873,0.00032835,-0.00058337,-0.00065717,-0.04765423,-0.07448618,0.07
 512275,0.04636704,0.08983204,-0.00241529,0.00488781,0.00530692,0.00033
 147,0.00039105,-0.00093154,0.00017577,0.00052907,0.00008976,0.08643142
 ,0.06161150,-0.18719570,-0.09815677,-0.07759948,0.20537208,0.00015140,
 -0.00253551,0.00029507,0.00104481,-0.00008081,-0.00076150,0.00032283,-
 0.00032760,0.00103699,-0.10894417,-0.03371188,-0.09894190,0.00780892,0
 .00448041,0.01316939,0.11916022,-0.01994180,-0.01455371,-0.02555771,0.
 00093419,-0.00546366,-0.00087898,0.00037183,0.00143040,0.00069765,-0.0
 3501032,-0.07011960,-0.06396947,0.00606563,0.00460500,0.01030016,0.039
 52123,0.08091346,0.00008345,-0.00010161,0.00130607,0.00114745,0.000509
 05,0.00025935,0.00013813,-0.00043392,0.00068024,-0.09998861,-0.0628501
 1,-0.21403024,-0.01260536,-0.00724630,-0.02442498,0.11052306,0.0683162
 8,0.23225281,0.00031126,0.00859367,0.00081674,0.00119655,-0.00195733,-
 0.00086687,-0.00004053,-0.00308770,0.00109098,-0.16884584,0.02718430,-
 0.00043984,-0.01979865,0.00679615,0.00037535,-0.01638785,0.00591354,0.
 00037996,0.50477873,0.03319703,-0.01929526,0.00303030,0.00031326,0.001
 90723,0.00048640,0.00053310,-0.00527123,-0.00092885,0.03222216,-0.0866
 2337,-0.00548140,-0.01028411,0.00440507,0.00070402,-0.00883234,0.00284
 857,0.00087219,0.03895421,0.48324636,0.00067390,0.00155715,-0.00046167
 ,0.00098644,-0.00068691,0.00036990,-0.00025367,0.00011523,0.00056888,-
 0.00019598,-0.00365269,-0.07980508,0.02706696,-0.00918225,-0.00115485,
 -0.02670225,0.01082613,0.00085113,-0.00153504,-0.00324707,0.59223110,0
 .00087865,-0.00188724,0.00014409,0.00054565,0.00093469,0.00020119,0.00
 026654,0.00006001,0.00026494,-0.01810491,-0.00858556,-0.02728742,0.001
 31664,-0.00065425,0.00019504,-0.00578034,0.00267397,0.00043247,-0.1068
 1685,-0.03860596,-0.09671124,0.11829400,0.00060671,0.00125462,0.000886
 65,-0.00032970,-0.00016369,-0.00025618,-0.00020526,0.00010074,-0.00005
 214,0.00658008,0.00301366,0.01067465,-0.00068997,0.00010992,-0.0002972
 7,0.00276248,-0.00072323,-0.00004827,-0.03879643,-0.07329914,-0.063075
 05,0.04014984,0.08276243,0.00000171,-0.00051582,0.00029088,-0.00010264
 ,0.00075347,0.00005082,0.00022282,0.00034259,0.00012916,0.00053328,0.0
 0043694,0.00035537,-0.00042038,0.00023599,0.00096133,0.00034150,-0.000
 05143,0.00165453,-0.09707198,-0.06308723,-0.21797958,0.10871765,0.0710
 2560,0.23410502,0.00128459,-0.00185604,-0.00058040,-0.00001349,0.00033
 738,0.00025405,0.00001189,0.00002938,-0.00005826,-0.01728300,-0.008973
 29,0.02557974,-0.00595737,0.00265139,0.00025440,0.00118631,-0.00076043
 ,-0.00025352,-0.10834407,-0.04452894,0.09627177,0.00850850,0.00632471,
 -0.01296604,0.11969867,0.00012524,0.00108254,-0.00030233,-0.00010229,-
 0.00006375,-0.00015863,-0.00005802,0.00010572,0.00000380,0.00688421,0.
 00390075,-0.01076621,0.00269381,-0.00077226,-0.00002023,-0.00074731,0.
 00010602,0.00030747,-0.04480882,-0.08098355,0.07103197,0.00576772,0.00
 378375,-0.00846796,0.04658496,0.09074916,-0.00018688,0.00020581,0.0005
 9316,0.00009617,-0.00014969,-0.00032371,-0.00006230,-0.00021346,0.0000
 1028,-0.00065155,-0.00055502,0.00041167,-0.00025551,-0.00004649,0.0015
 2704,0.00042726,-0.00031570,0.00091313,0.09676949,0.07075980,-0.212653
 74,0.01331454,0.00966136,-0.02216270,-0.10774769,-0.07895104,0.2275411
 1,-0.00633035,0.00126824,-0.00136089,0.00012429,0.00022427,0.00036337,
 0.00010426,0.00215459,0.00012870,-0.00034186,0.03473972,0.00208137,0.0
 0113767,0.00030850,-0.00032751,0.00077569,0.00029133,0.00010191,-0.080
 82437,-0.00531287,0.00021809,-0.00046986,-0.01620179,-0.00007503,-0.00
 045809,-0.01618691,-0.00082408,0.51047184,0.00078513,-0.00052573,0.000
 13616,0.00003460,-0.00001559,0.00018308,-0.00019061,0.00021579,-0.0003
 7995,0.00559520,-0.01504468,-0.00030067,-0.00188667,0.00102380,0.00045
 197,-0.00177071,0.00116040,-0.00019314,-0.00442649,-0.18626216,-0.0027
 7979,-0.00035718,-0.01305515,-0.00021476,-0.00034956,-0.01417043,-0.00
 046805,0.03490000,0.48387717,-0.00014188,-0.00012275,0.00017172,0.0001
 3221,0.00018253,-0.00000265,0.00010601,0.00003292,0.00024999,-0.000215
 23,-0.00057104,-0.00036993,0.00066404,-0.00105423,-0.00010649,-0.00059
 588,0.00104222,-0.00003157,0.00021240,-0.00212900,-0.08180045,0.000021
 84,-0.02945899,-0.00063556,-0.00008563,0.02856415,0.00097583,0.0004462
 2,-0.00214772,0.58900784,0.00010555,0.00005749,0.00015433,-0.00008656,
 0.00004944,-0.00004680,-0.00000053,-0.00005595,-0.00000184,0.00062965,
 0.00029092,0.00071902,0.00002232,-0.00001985,0.00007526,0.00037224,-0.
 00003026,-0.00013448,-0.00052707,-0.00032819,0.00005049,0.00048181,0.0
 0023861,0.00005655,-0.00010857,-0.00010586,-0.00017790,-0.10748896,-0.
 03841933,-0.09667773,0.11875770,-0.00000435,-0.00011251,0.00028151,0.0
 0008462,0.00028778,0.00008115,0.00010782,0.00002152,0.00007082,-0.0016
 2712,0.00144165,-0.00069041,0.00014573,-0.00006869,0.00002511,0.000997
 80,-0.00004970,0.00064857,-0.01623968,-0.01297671,-0.02946957,0.000222
 20,-0.00692344,0.00001194,-0.00010574,0.00152906,0.00049614,-0.0384821
 8,-0.07322796,-0.06244058,0.04009943,0.08256023,0.00036609,0.00001651,
 0.00029080,-0.00004986,0.00017164,-0.00002240,0.00001790,-0.00009043,-
 0.00000156,-0.00022796,0.00031903,-0.00001717,-0.00009620,-0.00006181,
 -0.00005348,0.00060049,-0.00038656,0.00033182,-0.00010663,-0.00025955,
 -0.00060090,0.00005857,0.00002833,0.00171368,0.00015707,-0.00047002,0.
 00092782,-0.09683831,-0.06250068,-0.21660246,0.10873943,0.07045979,0.2
 3294806,0.00000623,0.00002655,-0.00006510,-0.00001622,-0.00002584,0.00
 001288,0.00001936,-0.00003974,-0.00000774,0.00065430,0.00042665,-0.000
 78848,0.00035870,-0.00005343,0.00015396,0.00002029,0.00001470,-0.00006
 888,-0.00061299,-0.00037607,0.00004408,-0.00011295,-0.00010141,0.00015
 869,0.00048192,0.00023061,-0.00007294,-0.10835730,-0.04320330,0.095224
 48,0.00849385,0.00628962,-0.01293917,0.11978314,0.00007424,0.00013229,
 -0.00054699,-0.00002934,0.00008767,0.00009030,0.00001393,0.00007300,0.
 00007011,-0.00146997,0.00136037,0.00072657,0.00106938,0.00009771,-0.00
 070392,0.00013995,-0.00004857,-0.00004542,-0.01652828,-0.01453735,0.02
 885924,-0.00010357,0.00152668,-0.00046799,0.00023296,-0.00684313,-0.00
 050118,-0.04325017,-0.07923181,0.06852827,0.00575031,0.00372971,-0.008
 32015,0.04554200,0.08933535,-0.00029326,-0.00009343,0.00016767,0.00002
 989,-0.00005698,-0.00001910,-0.00001672,0.00005245,-0.00003623,0.00010
 141,-0.00018709,0.00009410,-0.00057897,0.00030933,0.00033350,0.0000875
 5,0.00006800,-0.00003367,-0.00055490,-0.00045188,0.00068133,-0.0001739
 1,0.00049480,0.00095039,-0.00004071,-0.00040886,0.00170110,0.09535225,
 0.06861428,-0.20935332,0.01338848,0.00955679,-0.02229023,-0.10725263,-
 0.07680443,0.22485841,0.00087952,-0.00031714,0.00014284,-0.00004012,0.
 00002162,-0.00003557,0.00006804,-0.00038691,0.00004473,-0.00025183,-0.
 00237938,-0.00029107,-0.00009773,0.00016659,-0.00011350,-0.00000603,0.
 00014148,0.00015145,0.00088079,0.00633346,0.00014580,0.00059702,-0.001
 68525,-0.00029712,0.00059033,-0.00168258,0.00018714,-0.17515394,0.0319
 9544,0.00061054,-0.01778142,0.00637641,0.00030042,-0.01785493,0.006422
 39,-0.00010501,0.50711389,0.00194177,0.00004772,0.00037909,-0.00005259
 ,0.00001518,-0.00010724,-0.00000949,-0.00066283,0.00001168,-0.00168348
 ,-0.00624557,-0.00043270,-0.00001263,0.00018850,-0.00033402,0.00011065
 ,0.00000151,0.00031560,0.03440319,-0.01556770,-0.00033888,0.00033574,0
 .00142997,0.00027609,0.00035278,0.00135486,-0.00018356,0.03316564,-0.0
 9116177,-0.00011609,-0.00898891,0.00304708,0.00009133,-0.01025655,0.00
 351753,0.00001222,0.03832576,0.48777029,0.00017077,-0.00001638,0.00045
 050,-0.00000303,0.00002855,0.00000742,-0.00001621,-0.00007389,-0.00001
 789,-0.00010375,-0.00011885,-0.00065175,-0.00026868,-0.00015504,0.0003
 0243,0.00026203,0.00005283,0.00032248,0.00084780,-0.00032635,-0.000700
 03,0.00076259,-0.00086208,-0.00004848,-0.00072069,0.00092594,-0.000021
 70,0.00050208,-0.00008293,-0.08168705,-0.02750384,0.01070126,0.0001060
 3,0.02693005,-0.01052403,-0.00025028,0.00065962,-0.00242452,0.59311060
 ,0.00003515,0.00001746,0.00008992,-0.00000290,0.00006561,-0.00000404,-
 0.00000398,0.00001108,-0.00000446,0.00000179,0.00010689,0.00030491,-0.
 00003409,-0.00004471,-0.00003130,0.00029644,-0.00009135,0.00017196,0.0
 0084626,-0.00183008,-0.00060729,0.00037433,0.00104167,0.00062896,0.000
 03201,0.00014297,0.00008479,-0.01786587,-0.00883649,-0.02753918,-0.005
 84654,0.00278460,0.00028243,0.00124664,-0.00065404,0.00038323,-0.10901
 873,-0.03904934,-0.09806914,0.11976498,-0.00005784,-0.00000244,-0.0000
 3231,0.00000180,-0.00002625,-0.00000348,-0.00000200,0.00001564,-0.0000
 0754,0.00011224,0.00005828,0.00004765,-0.00002590,0.00000405,0.0000138
 3,-0.00007768,-0.00009488,-0.00010319,0.00025629,0.00114073,0.00105872
 ,-0.00002667,-0.00003364,-0.00036252,0.00001840,-0.00003110,0.00004415
 ,0.00634524,0.00311879,0.01074100,0.00269239,-0.00063777,-0.00005432,-
 0.00064510,0.00016354,-0.00034026,-0.03894002,-0.07320028,-0.06285691,
 0.04024859,0.08273452,-0.00010323,0.00000218,-0.00002625,-0.00000377,0
 .00002533,0.00000654,0.00000550,0.00003667,0.00000316,0.00015363,0.000
 34133,0.00034695,0.00002252,-0.00001221,-0.00002608,0.00017662,-0.0001
 0831,-0.00001725,0.00014602,-0.00029845,-0.00001614,-0.00012603,0.0006
 9069,0.00034517,-0.00007019,-0.00005471,-0.00002171,0.00021548,0.00031
 454,0.00019098,0.00026549,-0.00001791,0.00174679,-0.00038644,0.0003029
 4,0.00095684,-0.09834495,-0.06314662,-0.21846495,0.10974710,0.07077558
 ,0.23446350,0.00004398,0.00007212,-0.00010558,-0.00000898,0.00002039,0
 .00001182,-0.00001823,0.00002414,0.00001920,0.00000464,0.00007477,-0.0
 0027670,0.00030887,-0.00003958,-0.00019804,-0.00003568,-0.00003942,0.0
 0001928,0.00082910,-0.00185552,0.00053220,0.00003103,0.00014617,-0.000
 07553,0.00037070,0.00107441,-0.00056761,-0.01798862,-0.01013661,0.0269
 9281,0.00124897,-0.00063857,-0.00040778,-0.00583176,0.00279150,-0.0001
 9035,-0.10997760,-0.04401205,0.09667461,0.00859022,0.00642318,-0.01294
 369,0.12083052,-0.00006891,-0.00002386,0.00003628,0.00000510,-0.000008
 96,-0.00000295,0.00000122,0.00001545,-0.00000931,0.00011372,0.00008741
 ,-0.00004060,-0.00005881,-0.00012561,0.00010289,-0.00002979,0.00000532
 ,-0.00000802,0.00027714,0.00116218,-0.00100362,0.00001269,-0.00003089,
 -0.00004370,-0.00002793,-0.00002293,0.00034647,0.00639154,0.00365500,-
 0.01056439,-0.00066225,0.00016542,0.00029895,0.00269465,-0.00063977,-0
 .00003929,-0.04392442,-0.07947430,0.06927291,0.00585153,0.00379551,-0.
 00829285,0.04580313,0.08977222,0.00007758,-0.00002706,0.00004107,0.000
 00369,-0.00000683,-0.00001985,0.00000625,-0.00003423,-0.00000906,-0.00
 014094,-0.00033117,0.00027721,-0.00019362,0.00009898,0.00000511,-0.000
 01326,0.00000955,-0.00002086,-0.00012440,0.00035941,-0.00006402,0.0000
 7340,0.00005427,-0.00002358,0.00011598,-0.00069669,0.00032599,0.000010
 20,-0.00022309,-0.00017630,0.00035344,-0.00034165,0.00095614,-0.000178
 22,-0.00007997,0.00174154,0.09696739,0.06955501,-0.21137154,0.01337495
 ,0.00953751,-0.02231873,-0.10830033,-0.07742468,0.22650803,-0.00074827
 ,0.00004635,-0.00014870,0.00001912,0.00000811,0.00003532,-0.00003101,0
 .00030390,-0.00000781,0.00075829,0.00224229,0.00020001,0.00008972,-0.0
 0010776,0.00006876,0.00002545,-0.00005416,-0.00008828,-0.00683643,0.00
 054435,0.00002004,0.00011126,0.00005047,0.00036855,0.00011869,0.000080
 59,-0.00036020,0.00013685,0.03507909,0.00081361,0.00112627,0.00024229,
 0.00023360,0.00111487,0.00026081,-0.00021356,-0.08107150,-0.00251468,-
 0.00007472,0.00035089,-0.01669563,0.00043223,0.00036444,-0.01679625,-0
 .00122992,0.57932258,0.00005089,-0.00007206,0.00001932,-0.00000567,0.0
 0001197,0.00000460,-0.00001018,0.00002267,-0.00002332,-0.00041565,0.00
 005786,-0.00001141,0.00003464,-0.00001506,-0.00000549,0.00001089,-0.00
 000423,0.00000819,0.00106154,0.00011767,0.00001677,0.00006421,-0.00005
 720,0.00001152,0.00007030,-0.00004816,-0.00002620,0.00583916,-0.016563
 84,-0.00038321,-0.00158712,0.00112139,-0.00013558,-0.00159974,0.001161
 52,0.00017582,-0.00149465,-0.19448677,-0.00266806,0.00020191,-0.012819
 41,0.00013577,0.00025099,-0.01416959,-0.00081623,-0.00214331,0.4768194
 8,-0.00000201,-0.00001400,-0.00000514,-0.00000820,0.00000398,-0.000002
 35,0.00000061,0.00000317,-0.00000270,0.00000212,0.00000717,0.00063073,
 -0.00007807,0.00002477,-0.00002468,0.00007849,-0.00003113,-0.00003423,
 0.00001159,0.00002891,-0.00063951,0.00014923,0.00026862,0.00033713,-0.
 00014657,-0.00029146,0.00032039,0.00014282,-0.00031486,-0.00012468,-0.
 00037401,0.00106357,0.00010013,0.00029799,-0.00100625,0.00006101,-0.00
 004298,-0.00266642,-0.08169114,0.00095838,-0.02923779,0.00023672,-0.00
 095237,0.02846657,0.00158010,-0.00002168,-0.00224646,0.57169483,0.0000
 1931,0.00000428,0.00000295,-0.00000081,-0.00000523,-0.00000238,0.00000
 831,-0.00001967,0.00000021,-0.00002867,-0.00006190,-0.00000280,-0.0000
 0082,0.00000520,0.00000318,-0.00000026,0.00000312,-0.00000848,0.000111
 93,0.00013371,0.00009827,-0.00010659,0.00005421,-0.00003811,-0.0000219
 2,-0.00004028,0.00000954,0.00070769,0.00029640,0.00099607,0.00036348,-
 0.00009244,-0.00018523,0.00001629,0.00002196,0.00004460,-0.00054534,-0
 .00029125,0.00057030,0.00093069,0.00012036,0.00039851,-0.00017281,-0.0
 0023655,-0.00007802,-0.10599721,-0.03998903,-0.09830623,0.11013882,-0.
 00001379,0.00001246,0.00000410,-0.00000251,0.00000843,0.00000007,0.000
 00190,-0.00000272,-0.00000058,0.00005236,0.00004810,0.00009237,0.00000
 573,-0.00000411,-0.00000338,0.00007269,-0.00002841,0.00001774,0.000000
 03,-0.00009193,0.00022564,0.00007363,0.00029787,0.00020851,-0.00003366
 ,-0.00000478,-0.00002061,-0.00166697,0.00164093,-0.00087003,0.00103575
 ,-0.00001273,0.00068261,0.00016194,-0.00002894,0.00006464,-0.01629833,
 -0.01226562,-0.02969805,0.00047131,-0.00710299,0.00020632,-0.00014463,
 0.00154265,0.00045251,-0.03977095,-0.07749363,-0.07056158,0.04455363,0
 .08567165,0.00002603,0.00000140,0.00000849,0.00000148,0.00000507,-0.00
 000003,0.00000290,-0.00001509,0.00000013,-0.00002383,-0.00007982,-0.00
 003416,-0.00000145,-0.00000045,-0.00000840,0.00001837,-0.00001253,0.00
 002394,0.00032616,0.00002953,0.00029539,-0.00003370,0.00019462,-0.0000
 0502,-0.00000183,0.00001995,-0.00001878,-0.00015438,0.00031965,0.00002
 308,0.00057532,-0.00039792,0.00024700,-0.00006244,-0.00005095,-0.00005
 031,0.00033033,-0.00016856,0.00029963,0.00004907,0.00020947,0.00168567
 ,0.00019921,-0.00047022,0.00086376,-0.09823451,-0.07091180,-0.22522943
 ,0.10942595,0.07875406,0.24206759,-0.00005662,-0.00002231,-0.00001243,
 0.00000658,0.00000433,0.00000239,-0.00001498,0.00003443,0.00000349,0.0
 0011535,0.00006528,0.00000145,-0.00000828,-0.00000872,-0.00000128,-0.0
 0001298,-0.00000729,0.00000031,-0.00003459,-0.00041527,-0.00000744,0.0
 0000843,0.00009527,0.00003067,0.00000859,0.00009508,-0.00002163,0.0011
 0702,0.00054189,0.00001396,0.00022273,-0.00018594,0.00013747,0.0002256
 3,-0.00017819,-0.00014521,0.00220778,-0.00149941,-0.00002689,0.0004749
 8,0.00049571,0.00035376,0.00047823,0.00051209,-0.00032796,-0.28190682,
 0.08462736,0.00144909,-0.01358743,0.00439041,0.00071500,0.30447538,0.0
 0029661,0.00001813,0.00006078,-0.00001163,-0.00001054,-0.00001575,0.00
 001879,-0.00013459,0.00000035,-0.00032440,-0.00082642,-0.00006703,-0.0
 0001661,0.00004007,-0.00002799,0.00001046,0.00001903,0.00003356,0.0023
 8609,0.00016009,-0.00001394,-0.00003925,0.00001279,-0.00011145,-0.0000
 4051,0.00001048,0.00010775,-0.00284109,-0.00704299,-0.00017211,-0.0001
 7598,0.00013580,0.00027354,-0.00014827,0.00014057,-0.00028126,0.033733
 82,-0.01066488,-0.00013424,-0.00030605,0.00137746,-0.00047703,-0.00029
 021,0.00135716,0.00053648,0.08395543,-0.07908063,-0.00048469,-0.010979
 14,0.00370763,0.00133789,-0.09301391,0.08652132,0.00000715,0.00000145,
 -0.00000479,-0.00000058,-0.00000143,0.00000027,-0.00000097,-0.00000254
 ,-0.00000153,-0.00000419,-0.00001679,-0.00000996,-0.00000051,0.0000060
 6,0.00000341,-0.00000051,-0.00000438,0.00000466,0.00005240,-0.00001355
 ,0.00059460,-0.00000375,0.00008920,-0.00002010,0.00000195,-0.00008714,
 -0.00002010,-0.00006528,-0.00017068,0.00022574,0.00046815,-0.00009060,
 0.00026957,-0.00047432,0.00008513,0.00025687,0.00080290,-0.00022766,-0
 .00136972,0.00038983,0.00006708,0.00004234,-0.00040155,-0.00000152,0.0
 0006080,0.00143823,-0.00048390,-0.04996360,-0.02655485,0.01044375,0.00
 110751,-0.00158986,0.00068259,0.04814593,0.00002809,0.00000665,0.00000
 406,-0.00000381,-0.00000636,-0.00000009,0.00000466,-0.00002056,0.00000
 204,-0.00002990,-0.00006237,-0.00000698,-0.00000396,0.00000290,0.00000
 967,0.00000271,0.00000402,-0.00000182,0.00011461,0.00013807,-0.0000951
 4,-0.00002235,-0.00004042,-0.00001353,-0.00010570,0.00005247,0.0000393
 6,0.00071391,0.00034921,-0.00097866,0.00001509,0.00002549,-0.00004233,
 0.00036496,-0.00010588,0.00017781,-0.00053820,-0.00026514,-0.00059293,
 -0.00017225,-0.00024337,0.00006144,0.00093298,0.00014212,-0.00039619,-
 0.10694720,-0.04496653,0.09684180,0.00816533,0.00711145,-0.01315767,-0
 .01370898,-0.01221415,0.02593577,0.11119000,0.,0.00002299,-0.00001900,
 -0.00000506,-0.00000090,0.00000607,-0.00000228,-0.00000342,0.00000636,
 0.00004247,0.00003625,-0.00007531,0.00007529,-0.00002257,-0.00002563,0
 .00000708,-0.00000370,0.00000134,0.00001859,-0.00007949,-0.00024108,-0
 .00003501,-0.00000604,0.00002020,0.00007385,0.00031774,-0.00019048,-0.
 00168625,0.00161022,0.00093904,0.00015937,-0.00003013,-0.00006263,0.00
 106274,0.00000363,-0.00068487,-0.01640828,-0.01364291,0.02895985,-0.00
 013155,0.00154023,-0.00042327,0.00047579,-0.00706242,-0.00062211,-0.04
 473097,-0.08450198,0.07698788,0.00652264,0.00410616,-0.00876430,0.0044
 6920,0.00425953,-0.01027507,0.05009238,0.09345681,-0.00003367,-0.00000
 385,0.00000846,0.00000314,-0.00000145,-0.00000245,0.00000004,0.0000135
 4,-0.00000500,0.00002821,0.00008791,-0.00002938,-0.00001325,0.00000442
 ,0.00002462,-0.00000152,0.00000338,-0.00000737,-0.00032922,-0.00004725
 ,0.00028364,0.00000050,-0.00001881,-0.00001845,0.00003658,-0.00017801,
 -0.00002506,0.00008298,-0.00024337,0.00004529,0.00007064,0.00005198,-0
 .00004962,-0.00052578,0.00038873,0.00023039,-0.00111297,-0.00049473,0.
 00167546,-0.00021013,0.00050334,0.00086645,-0.00002960,-0.00062294,0.0
 0164420,0.09676903,0.07733967,-0.21724357,0.01362650,0.01000191,-0.021
 27605,-0.00057489,-0.00124746,0.00067807,-0.10778661,-0.08553699,0.233
 20039\\0.00000045,0.00000052,0.00000086,0.00000024,-0.00000004,0.00000
 009,-0.00000014,-0.00000033,0.00000038,0.00000065,-0.00000051,0.000000
 88,0.00000053,0.00000009,0.00000032,-0.00000018,0.00000005,0.00000032,
 -0.00000126,0.00000092,-0.00000034,0.00000028,-0.00000006,-0.00000004,
 0.00000005,-0.00000016,-0.00000015,-0.00000009,-0.00000091,0.00000004,
 -0.00000052,0.00000025,0.00000017,0.00000001,0.00000014,0.00000018,-0.
 00000018,0.00000030,-0.00000028,0.00000047,-0.00000022,-0.00000047,-0.
 00000004,-0.00000026,-0.00000052,0.00000006,0.00000013,-0.00000039,-0.
 00000034,0.00000004,-0.00000024,-0.00000011,0.,-0.00000061,0.00000012,
 0.00000006,-0.00000019\\\@


 I am not a vegetarian because I love animals;
 I am a vegetarian because I hate plants.
                               -- A. Whitney Brown
 Job cpu time:       0 days  0 hours 30 minutes 37.3 seconds.
 File lengths (MBytes):  RWF=     64 Int=      0 D2E=      0 Chk=      3 Scr=      1
 Normal termination of Gaussian 09 at Sat Nov  7 02:15:11 2015.
