 Entering Gaussian System, Link 0=/home/hetanjin/apps/g09D01/g09/g09
 Input=C6H14_5_r012_C6_2_opt_B3L.gjf
 Output=C6H14_5_r012_C6_2_opt_B3L.log
 Initial command:
 /home/hetanjin/apps/g09D01/g09/l1.exe "/state/partition1/Gau-8944.inp" -scrdir="/state/partition1/"
 Entering Link 1 = /home/hetanjin/apps/g09D01/g09/l1.exe PID=      8945.
  
 Copyright (c) 1988,1990,1992,1993,1995,1998,2003,2009,2013,
            Gaussian, Inc.  All Rights Reserved.
  
 This is part of the Gaussian(R) 09 program.  It is based on
 the Gaussian(R) 03 system (copyright 2003, Gaussian, Inc.),
 the Gaussian(R) 98 system (copyright 1998, Gaussian, Inc.),
 the Gaussian(R) 94 system (copyright 1995, Gaussian, Inc.),
 the Gaussian 92(TM) system (copyright 1992, Gaussian, Inc.),
 the Gaussian 90(TM) system (copyright 1990, Gaussian, Inc.),
 the Gaussian 88(TM) system (copyright 1988, Gaussian, Inc.),
 the Gaussian 86(TM) system (copyright 1986, Carnegie Mellon
 University), and the Gaussian 82(TM) system (copyright 1983,
 Carnegie Mellon University). Gaussian is a federally registered
 trademark of Gaussian, Inc.
  
 This software contains proprietary and confidential information,
 including trade secrets, belonging to Gaussian, Inc.
  
 This software is provided under written license and may be
 used, copied, transmitted, or stored only in accord with that
 written license.
  
 The following legend is applicable only to US Government
 contracts under FAR:
  
                    RESTRICTED RIGHTS LEGEND
  
 Use, reproduction and disclosure by the US Government is
 subject to restrictions as set forth in subparagraphs (a)
 and (c) of the Commercial Computer Software - Restricted
 Rights clause in FAR 52.227-19.
  
 Gaussian, Inc.
 340 Quinnipiac St., Bldg. 40, Wallingford CT 06492
  
  
 ---------------------------------------------------------------
 Warning -- This program may not be used in any manner that
 competes with the business of Gaussian, Inc. or will provide
 assistance to any competitor of Gaussian, Inc.  The licensee
 of this program is prohibited from giving any competitor of
 Gaussian, Inc. access to this program.  By using this program,
 the user acknowledges that Gaussian, Inc. is engaged in the
 business of creating and licensing software in the field of
 computational chemistry and represents and warrants to the
 licensee that it is not a competitor of Gaussian, Inc. and that
 it will not use this program in any manner prohibited above.
 ---------------------------------------------------------------
  

 Cite this work as:
 Gaussian 09, Revision D.01,
 M. J. Frisch, G. W. Trucks, H. B. Schlegel, G. E. Scuseria, 
 M. A. Robb, J. R. Cheeseman, G. Scalmani, V. Barone, B. Mennucci, 
 G. A. Petersson, H. Nakatsuji, M. Caricato, X. Li, H. P. Hratchian, 
 A. F. Izmaylov, J. Bloino, G. Zheng, J. L. Sonnenberg, M. Hada, 
 M. Ehara, K. Toyota, R. Fukuda, J. Hasegawa, M. Ishida, T. Nakajima, 
 Y. Honda, O. Kitao, H. Nakai, T. Vreven, J. A. Montgomery, Jr., 
 J. E. Peralta, F. Ogliaro, M. Bearpark, J. J. Heyd, E. Brothers, 
 K. N. Kudin, V. N. Staroverov, T. Keith, R. Kobayashi, J. Normand, 
 K. Raghavachari, A. Rendell, J. C. Burant, S. S. Iyengar, J. Tomasi, 
 M. Cossi, N. Rega, J. M. Millam, M. Klene, J. E. Knox, J. B. Cross, 
 V. Bakken, C. Adamo, J. Jaramillo, R. Gomperts, R. E. Stratmann, 
 O. Yazyev, A. J. Austin, R. Cammi, C. Pomelli, J. W. Ochterski, 
 R. L. Martin, K. Morokuma, V. G. Zakrzewski, G. A. Voth, 
 P. Salvador, J. J. Dannenberg, S. Dapprich, A. D. Daniels, 
 O. Farkas, J. B. Foresman, J. V. Ortiz, J. Cioslowski, 
 and D. J. Fox, Gaussian, Inc., Wallingford CT, 2013.
 
 ******************************************
 Gaussian 09:  ES64L-G09RevD.01 24-Apr-2013
                 7-Nov-2015 
 ******************************************
 %mem=6GB
 %nprocshared=4
 Will use up to    4 processors via shared memory.
 ----------------------------------------------
 #p B3LYP/6-31G(d) opt=tight int=ultrafine freq
 ----------------------------------------------
 1/7=10,14=-1,18=20,19=15,26=4,38=1/1,3;
 2/9=110,12=2,17=6,18=5,40=1/2;
 3/5=1,6=6,7=1,11=2,16=1,25=1,30=1,71=1,74=-5,75=-5/1,2,3;
 4//1;
 5/5=2,38=5/2;
 6/7=2,8=2,9=2,10=2,28=1/1;
 7//1,2,3,16;
 1/7=10,14=-1,18=20,19=15,26=4/3(2);
 2/9=110/2;
 99//99;
 2/9=110/2;
 3/5=1,6=6,7=1,11=2,16=1,25=1,30=1,71=1,74=-5,75=-5/1,2,3;
 4/5=5,16=3,69=1/1;
 5/5=2,38=5/2;
 7//1,2,3,16;
 1/7=10,14=-1,18=20,19=15,26=4/3(-5);
 2/9=110/2;
 6/7=2,8=2,9=2,10=2,19=2,28=1/1;
 99/9=1/99;
 Leave Link    1 at Sat Nov  7 02:15:02 2015, MaxMem=   805306368 cpu:         0.2
 (Enter /home/hetanjin/apps/g09D01/g09/l101.exe)
 ---------------------------------------------
 using B3LYP/6-31G(d) to do opt and freq calc.
 ---------------------------------------------
 Symbolic Z-matrix:
 Charge =  0 Multiplicity = 2
 C                     1.61803   0.98966  -0.00005 
 H                     1.59367   1.63643   0.88596 
 H                     1.59367   1.63635  -0.88611 
 H                     2.57832   0.45929  -0.00002 
 C                     0.43635  -0.0005    0. 
 C                    -0.87859   0.82391  -0.00003 
 H                    -0.86571   1.48655   0.87745 
 C                    -2.19348   0.03388  0. 
 H                    -2.28903  -0.60502   0.88496 
 H                    -3.04849   0.71981  -0.00001 
 H                    -2.28904  -0.60506  -0.88493 
 C                     0.5289   -0.88501  -1.25865 
 H                    -0.26244  -1.64248  -1.28525 
 H                     0.44851  -0.28292  -2.17262 
 H                     1.4897   -1.41334  -1.29204 
 C                     0.52891  -0.8849    1.25873 
 H                     1.4897   -1.41324   1.29215 
 H                     0.44854  -0.28273   2.17265 
 H                    -0.26244  -1.64236   1.2854 
 
 NAtoms=     19 NQM=       19 NQMF=       0 NMMI=      0 NMMIF=      0
                NMic=       0 NMicF=      0.
                    Isotopes and Nuclear Properties:
 (Nuclear quadrupole moments (NQMom) in fm**2, nuclear magnetic moments (NMagM)
  in nuclear magnetons)

  Atom         1           2           3           4           5           6           7           8           9          10
 IAtWgt=          12           1           1           1          12          12           1          12           1           1
 AtmWgt=  12.0000000   1.0078250   1.0078250   1.0078250  12.0000000  12.0000000   1.0078250  12.0000000   1.0078250   1.0078250
 NucSpn=           0           1           1           1           0           0           1           0           1           1
 AtZEff=   0.0000000   0.0000000   0.0000000   0.0000000   0.0000000   0.0000000   0.0000000   0.0000000   0.0000000   0.0000000
 NQMom=    0.0000000   0.0000000   0.0000000   0.0000000   0.0000000   0.0000000   0.0000000   0.0000000   0.0000000   0.0000000
 NMagM=    0.0000000   2.7928460   2.7928460   2.7928460   0.0000000   0.0000000   2.7928460   0.0000000   2.7928460   2.7928460
 AtZNuc=   6.0000000   1.0000000   1.0000000   1.0000000   6.0000000   6.0000000   1.0000000   6.0000000   1.0000000   1.0000000

  Atom        11          12          13          14          15          16          17          18          19
 IAtWgt=           1          12           1           1           1          12           1           1           1
 AtmWgt=   1.0078250  12.0000000   1.0078250   1.0078250   1.0078250  12.0000000   1.0078250   1.0078250   1.0078250
 NucSpn=           1           0           1           1           1           0           1           1           1
 AtZEff=   0.0000000   0.0000000   0.0000000   0.0000000   0.0000000   0.0000000   0.0000000   0.0000000   0.0000000
 NQMom=    0.0000000   0.0000000   0.0000000   0.0000000   0.0000000   0.0000000   0.0000000   0.0000000   0.0000000
 NMagM=    2.7928460   0.0000000   2.7928460   2.7928460   2.7928460   0.0000000   2.7928460   2.7928460   2.7928460
 AtZNuc=   1.0000000   6.0000000   1.0000000   1.0000000   1.0000000   6.0000000   1.0000000   1.0000000   1.0000000
 Leave Link  101 at Sat Nov  7 02:15:02 2015, MaxMem=   805306368 cpu:         0.6
 (Enter /home/hetanjin/apps/g09D01/g09/l103.exe)

 GradGradGradGradGradGradGradGradGradGradGradGradGradGradGradGradGradGrad
 Berny optimization.
 Initialization pass.
                           ----------------------------
                           !    Initial Parameters    !
                           ! (Angstroms and Degrees)  !
 --------------------------                            --------------------------
 ! Name  Definition              Value          Derivative Info.                !
 --------------------------------------------------------------------------------
 ! R1    R(1,2)                  1.0972         estimate D2E/DX2                !
 ! R2    R(1,3)                  1.0972         estimate D2E/DX2                !
 ! R3    R(1,4)                  1.097          estimate D2E/DX2                !
 ! R4    R(1,5)                  1.5417         estimate D2E/DX2                !
 ! R5    R(5,6)                  1.552          estimate D2E/DX2                !
 ! R6    R(5,12)                 1.5411         estimate D2E/DX2                !
 ! R7    R(5,16)                 1.5411         estimate D2E/DX2                !
 ! R8    R(6,7)                  1.0996         estimate D2E/DX2                !
 ! R9    R(6,8)                  1.534          estimate D2E/DX2                !
 ! R10   R(8,9)                  1.0957         estimate D2E/DX2                !
 ! R11   R(8,10)                 1.0961         estimate D2E/DX2                !
 ! R12   R(8,11)                 1.0957         estimate D2E/DX2                !
 ! R13   R(12,13)                1.0958         estimate D2E/DX2                !
 ! R14   R(12,14)                1.0974         estimate D2E/DX2                !
 ! R15   R(12,15)                1.097          estimate D2E/DX2                !
 ! R16   R(16,17)                1.097          estimate D2E/DX2                !
 ! R17   R(16,18)                1.0974         estimate D2E/DX2                !
 ! R18   R(16,19)                1.0958         estimate D2E/DX2                !
 ! A1    A(2,1,3)              107.7092         estimate D2E/DX2                !
 ! A2    A(2,1,4)              107.7219         estimate D2E/DX2                !
 ! A3    A(2,1,5)              111.195          estimate D2E/DX2                !
 ! A4    A(3,1,4)              107.722          estimate D2E/DX2                !
 ! A5    A(3,1,5)              111.195          estimate D2E/DX2                !
 ! A6    A(4,1,5)              111.1274         estimate D2E/DX2                !
 ! A7    A(1,5,6)              107.9534         estimate D2E/DX2                !
 ! A8    A(1,5,12)             108.8179         estimate D2E/DX2                !
 ! A9    A(1,5,16)             108.8179         estimate D2E/DX2                !
 ! A10   A(6,5,12)             110.8381         estimate D2E/DX2                !
 ! A11   A(6,5,16)             110.8381         estimate D2E/DX2                !
 ! A12   A(12,5,16)            109.5162         estimate D2E/DX2                !
 ! A13   A(5,6,7)              108.0687         estimate D2E/DX2                !
 ! A14   A(5,6,8)              116.915          estimate D2E/DX2                !
 ! A15   A(7,6,8)              108.6852         estimate D2E/DX2                !
 ! A16   A(6,8,9)              112.0296         estimate D2E/DX2                !
 ! A17   A(6,8,10)             110.2629         estimate D2E/DX2                !
 ! A18   A(6,8,11)             112.0296         estimate D2E/DX2                !
 ! A19   A(9,8,10)             107.27           estimate D2E/DX2                !
 ! A20   A(9,8,11)             107.7399         estimate D2E/DX2                !
 ! A21   A(10,8,11)            107.27           estimate D2E/DX2                !
 ! A22   A(5,12,13)            111.913          estimate D2E/DX2                !
 ! A23   A(5,12,14)            111.1551         estimate D2E/DX2                !
 ! A24   A(5,12,15)            110.724          estimate D2E/DX2                !
 ! A25   A(13,12,14)           107.8276         estimate D2E/DX2                !
 ! A26   A(13,12,15)           107.389          estimate D2E/DX2                !
 ! A27   A(14,12,15)           107.6407         estimate D2E/DX2                !
 ! A28   A(5,16,17)            110.7241         estimate D2E/DX2                !
 ! A29   A(5,16,18)            111.155          estimate D2E/DX2                !
 ! A30   A(5,16,19)            111.913          estimate D2E/DX2                !
 ! A31   A(17,16,18)           107.6408         estimate D2E/DX2                !
 ! A32   A(17,16,19)           107.3889         estimate D2E/DX2                !
 ! A33   A(18,16,19)           107.8276         estimate D2E/DX2                !
 ! D1    D(2,1,5,6)             60.0094         estimate D2E/DX2                !
 ! D2    D(2,1,5,12)          -179.6279         estimate D2E/DX2                !
 ! D3    D(2,1,5,16)           -60.3531         estimate D2E/DX2                !
 ! D4    D(3,1,5,6)            -60.01           estimate D2E/DX2                !
 ! D5    D(3,1,5,12)            60.3526         estimate D2E/DX2                !
 ! D6    D(3,1,5,16)           179.6274         estimate D2E/DX2                !
 ! D7    D(4,1,5,6)            179.9997         estimate D2E/DX2                !
 ! D8    D(4,1,5,12)           -59.6377         estimate D2E/DX2                !
 ! D9    D(4,1,5,16)            59.6371         estimate D2E/DX2                !
 ! D10   D(1,5,6,7)            -57.0751         estimate D2E/DX2                !
 ! D11   D(1,5,6,8)            179.9996         estimate D2E/DX2                !
 ! D12   D(12,5,6,7)          -176.1619         estimate D2E/DX2                !
 ! D13   D(12,5,6,8)            60.9128         estimate D2E/DX2                !
 ! D14   D(16,5,6,7)            62.0117         estimate D2E/DX2                !
 ! D15   D(16,5,6,8)           -60.9136         estimate D2E/DX2                !
 ! D16   D(1,5,12,13)          177.2395         estimate D2E/DX2                !
 ! D17   D(1,5,12,14)          -62.1296         estimate D2E/DX2                !
 ! D18   D(1,5,12,15)           57.4635         estimate D2E/DX2                !
 ! D19   D(6,5,12,13)          -64.1959         estimate D2E/DX2                !
 ! D20   D(6,5,12,14)           56.435          estimate D2E/DX2                !
 ! D21   D(6,5,12,15)          176.0282         estimate D2E/DX2                !
 ! D22   D(16,5,12,13)          58.4016         estimate D2E/DX2                !
 ! D23   D(16,5,12,14)         179.0325         estimate D2E/DX2                !
 ! D24   D(16,5,12,15)         -61.3744         estimate D2E/DX2                !
 ! D25   D(1,5,16,17)          -57.4641         estimate D2E/DX2                !
 ! D26   D(1,5,16,18)           62.129          estimate D2E/DX2                !
 ! D27   D(1,5,16,19)         -177.2401         estimate D2E/DX2                !
 ! D28   D(6,5,16,17)         -176.0287         estimate D2E/DX2                !
 ! D29   D(6,5,16,18)          -56.4356         estimate D2E/DX2                !
 ! D30   D(6,5,16,19)           64.1953         estimate D2E/DX2                !
 ! D31   D(12,5,16,17)          61.3738         estimate D2E/DX2                !
 ! D32   D(12,5,16,18)        -179.0331         estimate D2E/DX2                !
 ! D33   D(12,5,16,19)         -58.4022         estimate D2E/DX2                !
 ! D34   D(5,6,8,9)             60.6085         estimate D2E/DX2                !
 ! D35   D(5,6,8,10)           179.9992         estimate D2E/DX2                !
 ! D36   D(5,6,8,11)           -60.6101         estimate D2E/DX2                !
 ! D37   D(7,6,8,9)            -61.9986         estimate D2E/DX2                !
 ! D38   D(7,6,8,10)            57.3921         estimate D2E/DX2                !
 ! D39   D(7,6,8,11)           176.7828         estimate D2E/DX2                !
 --------------------------------------------------------------------------------
 Trust Radius=3.00D-01 FncErr=1.00D-07 GrdErr=1.00D-06
 Number of steps in this run=    100 maximum allowed number of steps=    114.
 GradGradGradGradGradGradGradGradGradGradGradGradGradGradGradGradGradGrad

 Leave Link  103 at Sat Nov  7 02:15:02 2015, MaxMem=   805306368 cpu:         0.0
 (Enter /home/hetanjin/apps/g09D01/g09/l202.exe)
                          Input orientation:                          
 ---------------------------------------------------------------------
 Center     Atomic      Atomic             Coordinates (Angstroms)
 Number     Number       Type             X           Y           Z
 ---------------------------------------------------------------------
      1          6           0        1.618032    0.989661   -0.000046
      2          1           0        1.593672    1.636429    0.885962
      3          1           0        1.593672    1.636347   -0.886113
      4          1           0        2.578316    0.459293   -0.000021
      5          6           0        0.436353   -0.000500    0.000000
      6          6           0       -0.878586    0.823914   -0.000030
      7          1           0       -0.865712    1.486551    0.877447
      8          6           0       -2.193477    0.033880   -0.000001
      9          1           0       -2.289029   -0.605019    0.884964
     10          1           0       -3.048488    0.719808   -0.000012
     11          1           0       -2.289041   -0.605062   -0.884933
     12          6           0        0.528897   -0.885012   -1.258652
     13          1           0       -0.262439   -1.642476   -1.285245
     14          1           0        0.448512   -0.282917   -2.172624
     15          1           0        1.489696   -1.413344   -1.292039
     16          6           0        0.528906   -0.884904    1.258727
     17          1           0        1.489700   -1.413241    1.292148
     18          1           0        0.448537   -0.282728    2.172647
     19          1           0       -0.262436   -1.642360    1.285396
 ---------------------------------------------------------------------
                    Distance matrix (angstroms):
                    1          2          3          4          5
     1  C    0.000000
     2  H    1.097229   0.000000
     3  H    1.097229   1.772075   0.000000
     4  H    1.097012   1.772044   1.772044   0.000000
     5  C    1.541682   2.191769   2.191769   2.190757   0.000000
     6  C    2.502114   2.749040   2.749045   3.476078   1.552006
     7  H    2.680649   2.463961   3.030042   3.699532   2.162546
     8  C    3.929519   4.206613   4.206613   4.790719   2.630055
     9  H    4.311771   4.483242   4.820353   5.060337   2.928534
    10  H    4.674316   4.814021   4.814028   5.632832   3.558505
    11  H    4.311773   4.820354   4.483233   5.060344   2.928545
    12  C    2.506931   3.477180   2.762206   2.755254   1.541146
    13  H    3.480812   4.348621   3.788817   3.760202   2.199148
    14  H    2.776207   3.788170   2.578774   3.131636   2.190936
    15  H    2.731327   3.749082   3.078344   2.522137   2.185183
    16  C    2.506930   2.762209   3.477179   2.755248   1.541146
    17  H    2.731332   3.078357   3.749082   2.522136   2.185183
    18  H    2.776200   2.578770   3.788165   3.131619   2.190935
    19  H    3.480812   3.788818   4.348621   3.760201   2.199148
                    6          7          8          9         10
     6  C    0.000000
     7  H    1.099645   0.000000
     8  C    1.533979   2.154792   0.000000
     9  H    2.194177   2.529931   1.095667   0.000000
    10  H    2.172398   2.474336   1.096148   1.764972   0.000000
    11  H    2.194176   3.083293   1.095666   1.769897   1.764972
    12  C    2.546677   3.483126   3.136859   3.551646   4.117925
    13  H    2.848595   3.851232   2.861980   3.145344   3.872245
    14  H    2.776046   3.763128   3.435223   4.116640   4.237300
    15  H    3.504764   4.320186   4.162882   4.435256   5.178299
    16  C    2.546677   2.777433   3.136866   2.856360   4.117921
    17  H    3.504763   3.758821   4.162884   3.885591   5.178294
    18  H    2.776047   2.556392   3.435241   3.042411   4.237300
    19  H    2.848591   3.212545   2.861983   2.311601   3.872234
                   11         12         13         14         15
    11  H    0.000000
    12  C    2.856364   0.000000
    13  H    2.311621   1.095752   0.000000
    14  H    3.042388   1.097417   1.772369   0.000000
    15  H    3.885603   1.096989   1.767067   1.771259   0.000000
    16  C    3.551678   2.517379   2.769826   3.484684   2.776468
    17  H    4.435281   2.776463   3.124979   3.790297   2.584187
    18  H    4.116677   3.484683   3.783044   4.345271   3.790297
    19  H    3.145384   2.769831   2.570641   3.783046   3.124994
                   16         17         18         19
    16  C    0.000000
    17  H    1.096988   0.000000
    18  H    1.097417   1.771259   0.000000
    19  H    1.095752   1.767066   1.772370   0.000000
 Stoichiometry    C6H13(2)
 Framework group  C1[X(C6H13)]
 Deg. of freedom    51
 Full point group                 C1      NOp   1
 Largest Abelian subgroup         C1      NOp   1
 Largest concise Abelian subgroup C1      NOp   1
                         Standard orientation:                         
 ---------------------------------------------------------------------
 Center     Atomic      Atomic             Coordinates (Angstroms)
 Number     Number       Type             X           Y           Z
 ---------------------------------------------------------------------
      1          6           0       -1.624842   -0.548684   -0.812846
      2          1           0       -1.603598   -1.644714   -0.859535
      3          1           0       -1.628910   -0.170756   -1.842926
      4          1           0       -2.571816   -0.252683   -0.344809
      5          6           0       -0.419501   -0.000977   -0.022937
      6          6           0        0.874820   -0.460801   -0.745445
      7          1           0        0.858335   -1.558484   -0.809012
      8          6           0        2.208441   -0.024402   -0.125686
      9          1           0        2.332168   -0.405934    0.893926
     10          1           0        3.046393   -0.406601   -0.720077
     11          1           0        2.306899    1.066191   -0.088289
     12          6           0       -0.508430    1.537095    0.016523
     13          1           0        0.300671    1.978420    0.609195
     14          1           0       -0.455807    1.962895   -0.993551
     15          1           0       -1.456446    1.859757    0.464339
     16          6           0       -0.472482   -0.556779    1.413519
     17          1           0       -1.419539   -0.289681    1.898416
     18          1           0       -0.393767   -1.651361    1.417814
     19          1           0        0.337386   -0.159759    2.035743
 ---------------------------------------------------------------------
 Rotational constants (GHZ):      4.3729906      2.5101743      2.4762190
 Leave Link  202 at Sat Nov  7 02:15:02 2015, MaxMem=   805306368 cpu:         0.0
 (Enter /home/hetanjin/apps/g09D01/g09/l301.exe)
 Standard basis: 6-31G(d) (6D, 7F)
 Ernie: Thresh=  0.10000D-02 Tol=  0.10000D-05 Strict=F.
 There are   116 symmetry adapted cartesian basis functions of A   symmetry.
 There are   116 symmetry adapted basis functions of A   symmetry.
   116 basis functions,   220 primitive gaussians,   116 cartesian basis functions
    25 alpha electrons       24 beta electrons
       nuclear repulsion energy       253.4607984540 Hartrees.
 IExCor=  402 DFT=T Ex+Corr=B3LYP ExCW=0 ScaHFX=  0.200000
 ScaDFX=  0.800000  0.720000  1.000000  0.810000 ScalE2=  1.000000  1.000000
 IRadAn=      5 IRanWt=     -1 IRanGd=            0 ICorTp=0 IEmpDi=  4
 NAtoms=   19 NActive=   19 NUniq=   19 SFac= 1.00D+00 NAtFMM=   60 NAOKFM=F Big=F
 Integral buffers will be    131072 words long.
 Raffenetti 2 integral format.
 Two-electron integral symmetry is turned on.
 Leave Link  301 at Sat Nov  7 02:15:02 2015, MaxMem=   805306368 cpu:         0.2
 (Enter /home/hetanjin/apps/g09D01/g09/l302.exe)
 NPDir=0 NMtPBC=     1 NCelOv=     1 NCel=       1 NClECP=     1 NCelD=      1
         NCelK=      1 NCelE2=     1 NClLst=     1 CellRange=     0.0.
 One-electron integrals computed using PRISM.
 NBasis=   116 RedAO= T EigKep=  3.93D-03  NBF=   116
 NBsUse=   116 1.00D-06 EigRej= -1.00D+00 NBFU=   116
 Precomputing XC quadrature grid using
 IXCGrd= 4 IRadAn=           5 IRanWt=          -1 IRanGd=           0 AccXCQ= 0.00D+00.
 Generated NRdTot=       0 NPtTot=           0 NUsed=           0 NTot=          32
 NSgBfM=   116   116   116   116   116 MxSgAt=    19 MxSgA2=    19.
 Leave Link  302 at Sat Nov  7 02:15:03 2015, MaxMem=   805306368 cpu:         2.0
 (Enter /home/hetanjin/apps/g09D01/g09/l303.exe)
 DipDrv:  MaxL=1.
 Leave Link  303 at Sat Nov  7 02:15:03 2015, MaxMem=   805306368 cpu:         0.2
 (Enter /home/hetanjin/apps/g09D01/g09/l401.exe)
 ExpMin= 1.61D-01 ExpMax= 3.05D+03 ExpMxC= 4.57D+02 IAcc=3 IRadAn=         5 AccDes= 0.00D+00
 Harris functional with IExCor=  402 and IRadAn=       5 diagonalized for initial guess.
 HarFok:  IExCor=  402 AccDes= 0.00D+00 IRadAn=         5 IDoV= 1 UseB2=F ITyADJ=14
 ICtDFT=  3500011 ScaDFX=  1.000000  1.000000  1.000000  1.000000
 FoFCou: FMM=F IPFlag=           0 FMFlag=      100000 FMFlg1=           0
         NFxFlg=           0 DoJE=T BraDBF=F KetDBF=T FulRan=T
         wScrn=  0.000000 ICntrl=     500 IOpCl=  0 I1Cent=   200000004 NGrid=           0
         NMat0=    1 NMatS0=      1 NMatT0=    0 NMatD0=    1 NMtDS0=    0 NMtDT0=    0
 Petite list used in FoFCou.
 Harris En= -236.453211049863    
 JPrj=0 DoOrth=F DoCkMO=F.
 Initial guess <Sx>= 0.0000 <Sy>= 0.0000 <Sz>= 0.5000 <S**2>= 0.7500 S= 0.5000
 Leave Link  401 at Sat Nov  7 02:15:05 2015, MaxMem=   805306368 cpu:         7.8
 (Enter /home/hetanjin/apps/g09D01/g09/l502.exe)
 UHF open shell SCF:
 Using DIIS extrapolation, IDIIS=  1040.
 Integral symmetry usage will be decided dynamically.
 Keep R1 and R2 ints in memory in canonical form, NReq=47059932.
 IVT=       60514 IEndB=       60514 NGot=   805306368 MDV=   759189273
 LenX=   759189273 LenY=   759175376
 Requested convergence on RMS density matrix=1.00D-08 within 128 cycles.
 Requested convergence on MAX density matrix=1.00D-06.
 Requested convergence on             energy=1.00D-06.
 No special actions if energy rises.
 FoFCou: FMM=F IPFlag=           0 FMFlag=           0 FMFlg1=           0
         NFxFlg=           0 DoJE=F BraDBF=F KetDBF=F FulRan=T
         wScrn=  0.000000 ICntrl=     600 IOpCl=  0 I1Cent=           0 NGrid=           0
         NMat0=    1 NMatS0=   6786 NMatT0=    0 NMatD0=    1 NMtDS0=    0 NMtDT0=    0
 Symmetry not used in FoFCou.
 Integral accuracy reduced to 1.0D-05 until final iterations.

 Cycle   1  Pass 0  IDiag  1:
 E= -236.141650075497    
 DIIS: error= 5.20D-02 at cycle   1 NSaved=   1.
 NSaved= 1 IEnMin= 1 EnMin= -236.141650075497     IErMin= 1 ErrMin= 5.20D-02
 ErrMax= 5.20D-02  0.00D+00 EMaxC= 1.00D-01 BMatC= 9.60D-01 BMatP= 9.60D-01
 IDIUse=3 WtCom= 4.80D-01 WtEn= 5.20D-01
 Coeff-Com:  0.100D+01
 Coeff-En:   0.100D+01
 Coeff:      0.100D+01
 Gap=     0.257 Goal=   None    Shift=    0.000
 Gap=     0.236 Goal=   None    Shift=    0.000
 GapD=    0.236 DampG=1.000 DampE=0.500 DampFc=0.5000 IDamp=-1.
 Damping current iteration by 5.00D-01
 RMSDP=9.69D-03 MaxDP=1.38D-01              OVMax= 1.77D-01

 Cycle   2  Pass 0  IDiag  1:
 E= -236.260002274031     Delta-E=       -0.118352198534 Rises=F Damp=T
 DIIS: error= 7.57D-03 at cycle   2 NSaved=   2.
 NSaved= 2 IEnMin= 2 EnMin= -236.260002274031     IErMin= 2 ErrMin= 7.57D-03
 ErrMax= 7.57D-03  0.00D+00 EMaxC= 1.00D-01 BMatC= 3.88D-02 BMatP= 9.60D-01
 IDIUse=3 WtCom= 9.24D-01 WtEn= 7.57D-02
 Coeff-Com:  0.741D-01 0.926D+00
 Coeff-En:   0.124D+00 0.876D+00
 Coeff:      0.779D-01 0.922D+00
 Gap=     0.292 Goal=   None    Shift=    0.000
 Gap=     0.263 Goal=   None    Shift=    0.000
 RMSDP=1.68D-03 MaxDP=2.48D-02 DE=-1.18D-01 OVMax= 1.09D-01

 Cycle   3  Pass 0  IDiag  1:
 E= -236.405807145707     Delta-E=       -0.145804871677 Rises=F Damp=F
 DIIS: error= 3.24D-03 at cycle   3 NSaved=   3.
 NSaved= 3 IEnMin= 3 EnMin= -236.405807145707     IErMin= 3 ErrMin= 3.24D-03
 ErrMax= 3.24D-03  0.00D+00 EMaxC= 1.00D-01 BMatC= 5.81D-03 BMatP= 3.88D-02
 IDIUse=3 WtCom= 9.68D-01 WtEn= 3.24D-02
 Coeff-Com:  0.209D-02 0.212D+00 0.786D+00
 Coeff-En:   0.000D+00 0.000D+00 0.100D+01
 Coeff:      0.202D-02 0.205D+00 0.793D+00
 Gap=     0.291 Goal=   None    Shift=    0.000
 Gap=     0.247 Goal=   None    Shift=    0.000
 RMSDP=6.15D-04 MaxDP=1.57D-02 DE=-1.46D-01 OVMax= 1.50D-02

 Cycle   4  Pass 0  IDiag  1:
 E= -236.406507860768     Delta-E=       -0.000700715061 Rises=F Damp=F
 DIIS: error= 2.21D-03 at cycle   4 NSaved=   4.
 NSaved= 4 IEnMin= 4 EnMin= -236.406507860768     IErMin= 4 ErrMin= 2.21D-03
 ErrMax= 2.21D-03  0.00D+00 EMaxC= 1.00D-01 BMatC= 3.25D-03 BMatP= 5.81D-03
 IDIUse=3 WtCom= 9.78D-01 WtEn= 2.21D-02
 Coeff-Com: -0.455D-02 0.272D-01 0.432D+00 0.545D+00
 Coeff-En:   0.000D+00 0.000D+00 0.346D+00 0.654D+00
 Coeff:     -0.445D-02 0.266D-01 0.430D+00 0.548D+00
 Gap=     0.290 Goal=   None    Shift=    0.000
 Gap=     0.252 Goal=   None    Shift=    0.000
 RMSDP=2.51D-04 MaxDP=6.87D-03 DE=-7.01D-04 OVMax= 7.61D-03

 Cycle   5  Pass 0  IDiag  1:
 E= -236.407288221329     Delta-E=       -0.000780360561 Rises=F Damp=F
 DIIS: error= 2.15D-04 at cycle   5 NSaved=   5.
 NSaved= 5 IEnMin= 5 EnMin= -236.407288221329     IErMin= 5 ErrMin= 2.15D-04
 ErrMax= 2.15D-04  0.00D+00 EMaxC= 1.00D-01 BMatC= 4.57D-05 BMatP= 3.25D-03
 IDIUse=3 WtCom= 9.98D-01 WtEn= 2.15D-03
 Coeff-Com: -0.978D-03-0.446D-02 0.791D-01 0.160D+00 0.766D+00
 Coeff-En:   0.000D+00 0.000D+00 0.000D+00 0.000D+00 0.100D+01
 Coeff:     -0.976D-03-0.445D-02 0.790D-01 0.159D+00 0.767D+00
 Gap=     0.290 Goal=   None    Shift=    0.000
 Gap=     0.252 Goal=   None    Shift=    0.000
 RMSDP=3.64D-05 MaxDP=8.38D-04 DE=-7.80D-04 OVMax= 1.02D-03

 Cycle   6  Pass 0  IDiag  1:
 E= -236.407300912861     Delta-E=       -0.000012691532 Rises=F Damp=F
 DIIS: error= 5.68D-05 at cycle   6 NSaved=   6.
 NSaved= 6 IEnMin= 6 EnMin= -236.407300912861     IErMin= 6 ErrMin= 5.68D-05
 ErrMax= 5.68D-05  0.00D+00 EMaxC= 1.00D-01 BMatC= 2.38D-06 BMatP= 4.57D-05
 IDIUse=1 WtCom= 1.00D+00 WtEn= 0.00D+00
 Coeff-Com:  0.986D-04-0.191D-02-0.169D-01-0.150D-01 0.701D-01 0.964D+00
 Coeff:      0.986D-04-0.191D-02-0.169D-01-0.150D-01 0.701D-01 0.964D+00
 Gap=     0.290 Goal=   None    Shift=    0.000
 Gap=     0.252 Goal=   None    Shift=    0.000
 RMSDP=1.51D-05 MaxDP=3.61D-04 DE=-1.27D-05 OVMax= 3.91D-04

 Cycle   7  Pass 0  IDiag  1:
 E= -236.407301923710     Delta-E=       -0.000001010849 Rises=F Damp=F
 DIIS: error= 3.72D-05 at cycle   7 NSaved=   7.
 NSaved= 7 IEnMin= 7 EnMin= -236.407301923710     IErMin= 7 ErrMin= 3.72D-05
 ErrMax= 3.72D-05  0.00D+00 EMaxC= 1.00D-01 BMatC= 1.05D-06 BMatP= 2.38D-06
 IDIUse=1 WtCom= 1.00D+00 WtEn= 0.00D+00
 Coeff-Com:  0.170D-03-0.769D-04-0.206D-01-0.329D-01-0.960D-01 0.450D+00
 Coeff-Com:  0.699D+00
 Coeff:      0.170D-03-0.769D-04-0.206D-01-0.329D-01-0.960D-01 0.450D+00
 Coeff:      0.699D+00
 Gap=     0.290 Goal=   None    Shift=    0.000
 Gap=     0.253 Goal=   None    Shift=    0.000
 RMSDP=6.07D-06 MaxDP=1.57D-04 DE=-1.01D-06 OVMax= 1.75D-04

 Initial convergence to 1.0D-05 achieved.  Increase integral accuracy.
 Cycle   8  Pass 1  IDiag  1:
 E= -236.407291388185     Delta-E=        0.000010535525 Rises=F Damp=F
 DIIS: error= 9.45D-06 at cycle   1 NSaved=   1.
 NSaved= 1 IEnMin= 1 EnMin= -236.407291388185     IErMin= 1 ErrMin= 9.45D-06
 ErrMax= 9.45D-06  0.00D+00 EMaxC= 1.00D-01 BMatC= 9.59D-08 BMatP= 9.59D-08
 IDIUse=1 WtCom= 1.00D+00 WtEn= 0.00D+00
 Coeff-Com:  0.100D+01
 Coeff:      0.100D+01
 Gap=     0.290 Goal=   None    Shift=    0.000
 Gap=     0.253 Goal=   None    Shift=    0.000
 RMSDP=6.07D-06 MaxDP=1.57D-04 DE= 1.05D-05 OVMax= 6.53D-05

 Cycle   9  Pass 1  IDiag  1:
 E= -236.407291398656     Delta-E=       -0.000000010470 Rises=F Damp=F
 DIIS: error= 9.94D-06 at cycle   2 NSaved=   2.
 NSaved= 2 IEnMin= 2 EnMin= -236.407291398656     IErMin= 1 ErrMin= 9.45D-06
 ErrMax= 9.94D-06  0.00D+00 EMaxC= 1.00D-01 BMatC= 9.34D-08 BMatP= 9.59D-08
 IDIUse=1 WtCom= 1.00D+00 WtEn= 0.00D+00
 Coeff-Com:  0.496D+00 0.504D+00
 Coeff:      0.496D+00 0.504D+00
 Gap=     0.290 Goal=   None    Shift=    0.000
 Gap=     0.253 Goal=   None    Shift=    0.000
 RMSDP=1.23D-06 MaxDP=2.63D-05 DE=-1.05D-08 OVMax= 3.12D-05

 Cycle  10  Pass 1  IDiag  1:
 E= -236.407291421691     Delta-E=       -0.000000023035 Rises=F Damp=F
 DIIS: error= 2.07D-06 at cycle   3 NSaved=   3.
 NSaved= 3 IEnMin= 3 EnMin= -236.407291421691     IErMin= 3 ErrMin= 2.07D-06
 ErrMax= 2.07D-06  0.00D+00 EMaxC= 1.00D-01 BMatC= 2.99D-09 BMatP= 9.34D-08
 IDIUse=1 WtCom= 1.00D+00 WtEn= 0.00D+00
 Coeff-Com: -0.509D-01 0.683D-01 0.983D+00
 Coeff:     -0.509D-01 0.683D-01 0.983D+00
 Gap=     0.290 Goal=   None    Shift=    0.000
 Gap=     0.253 Goal=   None    Shift=    0.000
 RMSDP=4.59D-07 MaxDP=1.13D-05 DE=-2.30D-08 OVMax= 1.35D-05

 Cycle  11  Pass 1  IDiag  1:
 E= -236.407291423040     Delta-E=       -0.000000001349 Rises=F Damp=F
 DIIS: error= 1.06D-06 at cycle   4 NSaved=   4.
 NSaved= 4 IEnMin= 4 EnMin= -236.407291423040     IErMin= 4 ErrMin= 1.06D-06
 ErrMax= 1.06D-06  0.00D+00 EMaxC= 1.00D-01 BMatC= 5.69D-10 BMatP= 2.99D-09
 IDIUse=1 WtCom= 1.00D+00 WtEn= 0.00D+00
 Coeff-Com: -0.930D-01-0.604D-01 0.295D+00 0.859D+00
 Coeff:     -0.930D-01-0.604D-01 0.295D+00 0.859D+00
 Gap=     0.290 Goal=   None    Shift=    0.000
 Gap=     0.253 Goal=   None    Shift=    0.000
 RMSDP=2.12D-07 MaxDP=6.12D-06 DE=-1.35D-09 OVMax= 6.53D-06

 Cycle  12  Pass 1  IDiag  1:
 E= -236.407291423304     Delta-E=       -0.000000000264 Rises=F Damp=F
 DIIS: error= 3.04D-07 at cycle   5 NSaved=   5.
 NSaved= 5 IEnMin= 5 EnMin= -236.407291423304     IErMin= 5 ErrMin= 3.04D-07
 ErrMax= 3.04D-07  0.00D+00 EMaxC= 1.00D-01 BMatC= 5.06D-11 BMatP= 5.69D-10
 IDIUse=1 WtCom= 1.00D+00 WtEn= 0.00D+00
 Coeff-Com: -0.172D-01-0.219D-01-0.320D-01 0.208D+00 0.863D+00
 Coeff:     -0.172D-01-0.219D-01-0.320D-01 0.208D+00 0.863D+00
 Gap=     0.290 Goal=   None    Shift=    0.000
 Gap=     0.253 Goal=   None    Shift=    0.000
 RMSDP=5.68D-08 MaxDP=1.65D-06 DE=-2.64D-10 OVMax= 2.43D-06

 Cycle  13  Pass 1  IDiag  1:
 E= -236.407291423316     Delta-E=       -0.000000000012 Rises=F Damp=F
 DIIS: error= 1.70D-07 at cycle   6 NSaved=   6.
 NSaved= 6 IEnMin= 6 EnMin= -236.407291423316     IErMin= 6 ErrMin= 1.70D-07
 ErrMax= 1.70D-07  0.00D+00 EMaxC= 1.00D-01 BMatC= 1.86D-11 BMatP= 5.06D-11
 IDIUse=1 WtCom= 1.00D+00 WtEn= 0.00D+00
 Coeff-Com:  0.401D-02-0.300D-02-0.577D-01-0.995D-02 0.458D+00 0.609D+00
 Coeff:      0.401D-02-0.300D-02-0.577D-01-0.995D-02 0.458D+00 0.609D+00
 Gap=     0.290 Goal=   None    Shift=    0.000
 Gap=     0.253 Goal=   None    Shift=    0.000
 RMSDP=2.22D-08 MaxDP=5.38D-07 DE=-1.24D-11 OVMax= 7.71D-07

 Cycle  14  Pass 1  IDiag  1:
 E= -236.407291423322     Delta-E=       -0.000000000006 Rises=F Damp=F
 DIIS: error= 1.85D-08 at cycle   7 NSaved=   7.
 NSaved= 7 IEnMin= 7 EnMin= -236.407291423322     IErMin= 7 ErrMin= 1.85D-08
 ErrMax= 1.85D-08  0.00D+00 EMaxC= 1.00D-01 BMatC= 2.69D-13 BMatP= 1.86D-11
 IDIUse=1 WtCom= 1.00D+00 WtEn= 0.00D+00
 Coeff-Com:  0.162D-02 0.129D-03-0.125D-01-0.110D-01 0.773D-01 0.149D+00
 Coeff-Com:  0.795D+00
 Coeff:      0.162D-02 0.129D-03-0.125D-01-0.110D-01 0.773D-01 0.149D+00
 Coeff:      0.795D+00
 Gap=     0.290 Goal=   None    Shift=    0.000
 Gap=     0.253 Goal=   None    Shift=    0.000
 RMSDP=4.05D-09 MaxDP=7.09D-08 DE=-5.68D-12 OVMax= 8.40D-08

 SCF Done:  E(UB3LYP) =  -236.407291423     A.U. after   14 cycles
            NFock= 14  Conv=0.40D-08     -V/T= 2.0105
 <Sx>= 0.0000 <Sy>= 0.0000 <Sz>= 0.5000 <S**2>= 0.7529 S= 0.5014
 <L.S>= 0.000000000000E+00
 KE= 2.339592240934D+02 PE=-1.052499281839D+03 EE= 3.286719678681D+02
 Annihilation of the first spin contaminant:
 S**2 before annihilation     0.7529,   after     0.7500
 Leave Link  502 at Sat Nov  7 02:15:45 2015, MaxMem=   805306368 cpu:       152.4
 (Enter /home/hetanjin/apps/g09D01/g09/l601.exe)
 Copying SCF densities to generalized density rwf, IOpCl= 1 IROHF=0.

 **********************************************************************

            Population analysis using the SCF density.

 **********************************************************************

 Orbital symmetries:
 Alpha Orbitals:
       Occupied  (A) (A) (A) (A) (A) (A) (A) (A) (A) (A) (A) (A)
                 (A) (A) (A) (A) (A) (A) (A) (A) (A) (A) (A) (A)
                 (A)
       Virtual   (A) (A) (A) (A) (A) (A) (A) (A) (A) (A) (A) (A)
                 (A) (A) (A) (A) (A) (A) (A) (A) (A) (A) (A) (A)
                 (A) (A) (A) (A) (A) (A) (A) (A) (A) (A) (A) (A)
                 (A) (A) (A) (A) (A) (A) (A) (A) (A) (A) (A) (A)
                 (A) (A) (A) (A) (A) (A) (A) (A) (A) (A) (A) (A)
                 (A) (A) (A) (A) (A) (A) (A) (A) (A) (A) (A) (A)
                 (A) (A) (A) (A) (A) (A) (A) (A) (A) (A) (A) (A)
                 (A) (A) (A) (A) (A) (A) (A)
 Beta  Orbitals:
       Occupied  (A) (A) (A) (A) (A) (A) (A) (A) (A) (A) (A) (A)
                 (A) (A) (A) (A) (A) (A) (A) (A) (A) (A) (A) (A)
       Virtual   (A) (A) (A) (A) (A) (A) (A) (A) (A) (A) (A) (A)
                 (A) (A) (A) (A) (A) (A) (A) (A) (A) (A) (A) (A)
                 (A) (A) (A) (A) (A) (A) (A) (A) (A) (A) (A) (A)
                 (A) (A) (A) (A) (A) (A) (A) (A) (A) (A) (A) (A)
                 (A) (A) (A) (A) (A) (A) (A) (A) (A) (A) (A) (A)
                 (A) (A) (A) (A) (A) (A) (A) (A) (A) (A) (A) (A)
                 (A) (A) (A) (A) (A) (A) (A) (A) (A) (A) (A) (A)
                 (A) (A) (A) (A) (A) (A) (A) (A)
 The electronic state is 2-A.
 Alpha  occ. eigenvalues --  -10.19537 -10.19349 -10.17574 -10.17386 -10.16770
 Alpha  occ. eigenvalues --  -10.16726  -0.81757  -0.73113  -0.68098  -0.67752
 Alpha  occ. eigenvalues --   -0.61299  -0.51702  -0.45467  -0.43608  -0.43313
 Alpha  occ. eigenvalues --   -0.41826  -0.39522  -0.38109  -0.37388  -0.35940
 Alpha  occ. eigenvalues --   -0.35293  -0.32914  -0.31225  -0.30892  -0.21013
 Alpha virt. eigenvalues --    0.08016   0.12280   0.13476   0.13830   0.14187
 Alpha virt. eigenvalues --    0.15764   0.16336   0.17909   0.19273   0.19609
 Alpha virt. eigenvalues --    0.20475   0.21212   0.22448   0.24174   0.25011
 Alpha virt. eigenvalues --    0.25475   0.26312   0.27584   0.49409   0.50785
 Alpha virt. eigenvalues --    0.51195   0.52250   0.54011   0.57035   0.59275
 Alpha virt. eigenvalues --    0.60585   0.62507   0.69113   0.69801   0.71653
 Alpha virt. eigenvalues --    0.73364   0.75495   0.81460   0.82626   0.86315
 Alpha virt. eigenvalues --    0.88780   0.89467   0.90828   0.91018   0.91234
 Alpha virt. eigenvalues --    0.92324   0.92901   0.93885   0.94424   0.96071
 Alpha virt. eigenvalues --    0.97252   0.98426   0.99660   1.01177   1.02850
 Alpha virt. eigenvalues --    1.26894   1.29923   1.39310   1.41693   1.48752
 Alpha virt. eigenvalues --    1.56896   1.62142   1.66005   1.70307   1.72966
 Alpha virt. eigenvalues --    1.80152   1.84214   1.87304   1.88211   1.92527
 Alpha virt. eigenvalues --    1.97216   2.08164   2.09963   2.10215   2.11675
 Alpha virt. eigenvalues --    2.12596   2.16975   2.24476   2.25211   2.25824
 Alpha virt. eigenvalues --    2.27090   2.27565   2.35187   2.36013   2.48772
 Alpha virt. eigenvalues --    2.56510   2.68610   2.71434   2.73784   2.76002
 Alpha virt. eigenvalues --    4.10509   4.23636   4.30140   4.31459   4.39396
 Alpha virt. eigenvalues --    4.66561
  Beta  occ. eigenvalues --  -10.19561 -10.17926 -10.17604 -10.17293 -10.16755
  Beta  occ. eigenvalues --  -10.16707  -0.81128  -0.72161  -0.67927  -0.67663
  Beta  occ. eigenvalues --   -0.59992  -0.50973  -0.45190  -0.43126  -0.42884
  Beta  occ. eigenvalues --   -0.41070  -0.39240  -0.37846  -0.37277  -0.35885
  Beta  occ. eigenvalues --   -0.34861  -0.32456  -0.31028  -0.30271
  Beta virt. eigenvalues --   -0.05019   0.08166   0.12440   0.13677   0.14012
  Beta virt. eigenvalues --    0.14447   0.15814   0.16424   0.18381   0.19390
  Beta virt. eigenvalues --    0.19864   0.20691   0.21601   0.22731   0.24394
  Beta virt. eigenvalues --    0.25231   0.26203   0.27065   0.28630   0.49552
  Beta virt. eigenvalues --    0.50932   0.51381   0.52572   0.55629   0.59262
  Beta virt. eigenvalues --    0.60310   0.62031   0.63067   0.69722   0.70833
  Beta virt. eigenvalues --    0.72114   0.73647   0.75695   0.82046   0.83363
  Beta virt. eigenvalues --    0.86452   0.89086   0.89616   0.90966   0.91097
  Beta virt. eigenvalues --    0.91556   0.92855   0.93404   0.94014   0.94543
  Beta virt. eigenvalues --    0.96551   0.97444   0.99122   0.99891   1.01423
  Beta virt. eigenvalues --    1.03142   1.28069   1.30573   1.40071   1.42627
  Beta virt. eigenvalues --    1.48934   1.57409   1.63238   1.66847   1.70977
  Beta virt. eigenvalues --    1.73103   1.81233   1.85932   1.88020   1.88518
  Beta virt. eigenvalues --    1.93421   1.98411   2.08746   2.10189   2.11261
  Beta virt. eigenvalues --    2.12578   2.13410   2.20609   2.25023   2.25514
  Beta virt. eigenvalues --    2.25960   2.27171   2.27986   2.35842   2.37232
  Beta virt. eigenvalues --    2.49386   2.57206   2.69821   2.71644   2.74391
  Beta virt. eigenvalues --    2.76954   4.11620   4.24051   4.30289   4.31501
  Beta virt. eigenvalues --    4.41358   4.66825
          Condensed to atoms (all electrons):
               1          2          3          4          5          6
     1  C    5.150153   0.365955   0.367614   0.361428   0.385437  -0.056525
     2  H    0.365955   0.585442  -0.030055  -0.031386  -0.029504  -0.005687
     3  H    0.367614  -0.030055   0.575532  -0.030730  -0.029477  -0.000967
     4  H    0.361428  -0.031386  -0.030730   0.591847  -0.028679   0.005284
     5  C    0.385437  -0.029504  -0.029477  -0.028679   4.744319   0.391778
     6  C   -0.056525  -0.005687  -0.000967   0.005284   0.391778   5.268099
     7  H   -0.006378   0.005357  -0.000157  -0.000067  -0.047768   0.346241
     8  C    0.004570   0.000014   0.000013  -0.000177  -0.044379   0.358719
     9  H    0.000044  -0.000007   0.000004   0.000005  -0.003958  -0.033398
    10  H   -0.000124  -0.000003  -0.000004   0.000002   0.004059  -0.027575
    11  H    0.000054   0.000003  -0.000005   0.000000  -0.006669  -0.033852
    12  C   -0.061258   0.005814  -0.004637  -0.005337   0.381283  -0.057142
    13  H    0.005598  -0.000197  -0.000043  -0.000061  -0.028745  -0.005748
    14  H   -0.004395  -0.000056   0.004123  -0.000116  -0.030123  -0.000869
    15  H   -0.006019  -0.000031  -0.000148   0.004698  -0.029217   0.005227
    16  C   -0.062139  -0.004795   0.005872  -0.004492   0.378128  -0.057671
    17  H   -0.005622  -0.000147  -0.000044   0.004239  -0.027632   0.005437
    18  H   -0.004588   0.003993  -0.000067  -0.000150  -0.029959  -0.004014
    19  H    0.005695  -0.000053  -0.000191  -0.000044  -0.028971  -0.005912
               7          8          9         10         11         12
     1  C   -0.006378   0.004570   0.000044  -0.000124   0.000054  -0.061258
     2  H    0.005357   0.000014  -0.000007  -0.000003   0.000003   0.005814
     3  H   -0.000157   0.000013   0.000004  -0.000004  -0.000005  -0.004637
     4  H   -0.000067  -0.000177   0.000005   0.000002   0.000000  -0.005337
     5  C   -0.047768  -0.044379  -0.003958   0.004059  -0.006669   0.381283
     6  C    0.346241   0.358719  -0.033398  -0.027575  -0.033852  -0.057142
     7  H    0.639749  -0.054426  -0.001857  -0.004021   0.005375   0.006274
     8  C   -0.054426   5.122835   0.363754   0.369918   0.372612  -0.007126
     9  H   -0.001857   0.363754   0.578618  -0.032101  -0.033516  -0.000307
    10  H   -0.004021   0.369918  -0.032101   0.570588  -0.030427   0.000091
    11  H    0.005375   0.372612  -0.033516  -0.030427   0.567598   0.003389
    12  C    0.006274  -0.007126  -0.000307   0.000091   0.003389   5.150050
    13  H   -0.000023   0.001676   0.000116  -0.000056   0.002966   0.367210
    14  H    0.000008  -0.000156   0.000062  -0.000032   0.000334   0.368174
    15  H   -0.000206   0.000092  -0.000009   0.000000  -0.000152   0.364824
    16  C   -0.003901  -0.003322   0.002448   0.000076  -0.000217  -0.063597
    17  H   -0.000185   0.000031  -0.000106   0.000001  -0.000024  -0.004356
    18  H    0.004992  -0.000236   0.000224  -0.000030   0.000060   0.005856
    19  H   -0.000112   0.001680   0.003125  -0.000067   0.000169  -0.004802
              13         14         15         16         17         18
     1  C    0.005598  -0.004395  -0.006019  -0.062139  -0.005622  -0.004588
     2  H   -0.000197  -0.000056  -0.000031  -0.004795  -0.000147   0.003993
     3  H   -0.000043   0.004123  -0.000148   0.005872  -0.000044  -0.000067
     4  H   -0.000061  -0.000116   0.004698  -0.004492   0.004239  -0.000150
     5  C   -0.028745  -0.030123  -0.029217   0.378128  -0.027632  -0.029959
     6  C   -0.005748  -0.000869   0.005227  -0.057671   0.005437  -0.004014
     7  H   -0.000023   0.000008  -0.000206  -0.003901  -0.000185   0.004992
     8  C    0.001676  -0.000156   0.000092  -0.003322   0.000031  -0.000236
     9  H    0.000116   0.000062  -0.000009   0.002448  -0.000106   0.000224
    10  H   -0.000056  -0.000032   0.000000   0.000076   0.000001  -0.000030
    11  H    0.002966   0.000334  -0.000152  -0.000217  -0.000024   0.000060
    12  C    0.367210   0.368174   0.364824  -0.063597  -0.004356   0.005856
    13  H    0.581383  -0.030725  -0.031526  -0.004752  -0.000181  -0.000035
    14  H   -0.030725   0.576339  -0.030821   0.005746  -0.000078  -0.000192
    15  H   -0.031526  -0.030821   0.588788  -0.004225   0.003676  -0.000074
    16  C   -0.004752   0.005746  -0.004225   5.163648   0.364844   0.364895
    17  H   -0.000181  -0.000078   0.003676   0.364844   0.578032  -0.030275
    18  H   -0.000035  -0.000192  -0.000074   0.364895  -0.030275   0.581750
    19  H    0.003956  -0.000030  -0.000154   0.367406  -0.031299  -0.031183
              19
     1  C    0.005695
     2  H   -0.000053
     3  H   -0.000191
     4  H   -0.000044
     5  C   -0.028971
     6  C   -0.005912
     7  H   -0.000112
     8  C    0.001680
     9  H    0.003125
    10  H   -0.000067
    11  H    0.000169
    12  C   -0.004802
    13  H    0.003956
    14  H   -0.000030
    15  H   -0.000154
    16  C    0.367406
    17  H   -0.031299
    18  H   -0.031183
    19  H    0.577916
          Atomic-Atomic Spin Densities.
               1          2          3          4          5          6
     1  C    0.013605   0.000023  -0.003731  -0.001321   0.006461  -0.009847
     2  H    0.000023  -0.000656  -0.000072   0.000035   0.000612  -0.000173
     3  H   -0.003731  -0.000072   0.001106   0.000995  -0.000891   0.004207
     4  H   -0.001321   0.000035   0.000995  -0.000279   0.000054   0.000271
     5  C    0.006461   0.000612  -0.000891   0.000054  -0.034402  -0.023077
     6  C   -0.009847  -0.000173   0.004207   0.000271  -0.023077   1.131577
     7  H    0.001134   0.000093  -0.000331  -0.000071   0.005254  -0.013643
     8  C    0.000149   0.000009  -0.000051  -0.000002   0.001989  -0.027091
     9  H   -0.000058  -0.000005   0.000012   0.000004  -0.001306  -0.022928
    10  H    0.000005   0.000001  -0.000003   0.000000   0.000057  -0.005076
    11  H    0.000031   0.000000  -0.000010  -0.000001   0.000824  -0.005148
    12  C    0.003794   0.000020  -0.000996  -0.000449   0.004775  -0.009502
    13  H    0.000004   0.000000  -0.000005   0.000002   0.000450  -0.000074
    14  H   -0.000914  -0.000008   0.000346   0.000132  -0.000207   0.003748
    15  H   -0.000237   0.000003   0.000103  -0.000081   0.000395   0.000175
    16  C   -0.004524  -0.000397   0.000618   0.001389   0.000668  -0.024262
    17  H    0.000708   0.000076  -0.000083  -0.000743  -0.000440   0.001710
    18  H    0.000075  -0.000007  -0.000011  -0.000015   0.000332   0.000594
    19  H   -0.000023   0.000000   0.000001   0.000000   0.001044  -0.000357
               7          8          9         10         11         12
     1  C    0.001134   0.000149  -0.000058   0.000005   0.000031   0.003794
     2  H    0.000093   0.000009  -0.000005   0.000001   0.000000   0.000020
     3  H   -0.000331  -0.000051   0.000012  -0.000003  -0.000010  -0.000996
     4  H   -0.000071  -0.000002   0.000004   0.000000  -0.000001  -0.000449
     5  C    0.005254   0.001989  -0.001306   0.000057   0.000824   0.004775
     6  C   -0.013643  -0.027091  -0.022928  -0.005076  -0.005148  -0.009502
     7  H   -0.024729   0.006190  -0.003164   0.001075   0.000162   0.000252
     8  C    0.006190  -0.048366   0.000734   0.006688   0.006717   0.000965
     9  H   -0.003164   0.000734   0.093205  -0.006168  -0.008199  -0.000367
    10  H    0.001075   0.006688  -0.006168   0.007503   0.001757   0.000029
    11  H    0.000162   0.006717  -0.008199   0.001757   0.010855   0.000407
    12  C    0.000252   0.000965  -0.000367   0.000029   0.000407   0.015680
    13  H   -0.000001   0.000102  -0.000058   0.000003   0.000011  -0.000088
    14  H   -0.000084  -0.000183   0.000078  -0.000012  -0.000264  -0.004238
    15  H   -0.000001  -0.000029   0.000015   0.000000  -0.000009  -0.000725
    16  C   -0.002999  -0.001300   0.003561  -0.000083  -0.000480  -0.005816
    17  H    0.000144   0.000019  -0.000245   0.000002   0.000022   0.000949
    18  H    0.000051   0.000028  -0.000164   0.000003   0.000004   0.000028
    19  H   -0.000021   0.000020   0.000060   0.000000  -0.000004  -0.000033
              13         14         15         16         17         18
     1  C    0.000004  -0.000914  -0.000237  -0.004524   0.000708   0.000075
     2  H    0.000000  -0.000008   0.000003  -0.000397   0.000076  -0.000007
     3  H   -0.000005   0.000346   0.000103   0.000618  -0.000083  -0.000011
     4  H    0.000002   0.000132  -0.000081   0.001389  -0.000743  -0.000015
     5  C    0.000450  -0.000207   0.000395   0.000668  -0.000440   0.000332
     6  C   -0.000074   0.003748   0.000175  -0.024262   0.001710   0.000594
     7  H   -0.000001  -0.000084  -0.000001  -0.002999   0.000144   0.000051
     8  C    0.000102  -0.000183  -0.000029  -0.001300   0.000019   0.000028
     9  H   -0.000058   0.000078   0.000015   0.003561  -0.000245  -0.000164
    10  H    0.000003  -0.000012   0.000000  -0.000083   0.000002   0.000003
    11  H    0.000011  -0.000264  -0.000009  -0.000480   0.000022   0.000004
    12  C   -0.000088  -0.004238  -0.000725  -0.005816   0.000949   0.000028
    13  H   -0.000708  -0.000017   0.000165  -0.000194   0.000048   0.000000
    14  H   -0.000017   0.001557   0.000778   0.000538  -0.000077  -0.000003
    15  H    0.000165   0.000778  -0.001579   0.000811  -0.000489   0.000000
    16  C   -0.000194   0.000538   0.000811   0.078252  -0.009805  -0.000855
    17  H    0.000048  -0.000077  -0.000489  -0.009805   0.018397   0.000423
    18  H    0.000000  -0.000003   0.000000  -0.000855   0.000423  -0.001872
    19  H   -0.000021   0.000003  -0.000003  -0.000110  -0.000185   0.000240
              19
     1  C   -0.000023
     2  H    0.000000
     3  H    0.000001
     4  H    0.000000
     5  C    0.001044
     6  C   -0.000357
     7  H   -0.000021
     8  C    0.000020
     9  H    0.000060
    10  H    0.000000
    11  H   -0.000004
    12  C   -0.000033
    13  H   -0.000021
    14  H    0.000003
    15  H   -0.000003
    16  C   -0.000110
    17  H   -0.000185
    18  H    0.000240
    19  H   -0.002743
 Mulliken charges and spin densities:
               1          2
     1  C   -0.439498   0.005333
     2  H    0.135345  -0.000445
     3  H    0.143367   0.001206
     4  H    0.133736  -0.000082
     5  C    0.080078  -0.037409
     6  C   -0.091425   1.001106
     7  H    0.111107  -0.030688
     8  C   -0.486090  -0.053410
     9  H    0.156861   0.055007
    10  H    0.149705   0.005781
    11  H    0.152303   0.006677
    12  C   -0.444403   0.004684
    13  H    0.139188  -0.000382
    14  H    0.142807   0.001171
    15  H    0.135277  -0.000707
    16  C   -0.443949   0.035010
    17  H    0.143687   0.010431
    18  H    0.139034  -0.001147
    19  H    0.142870  -0.002132
 Sum of Mulliken charges =   0.00000   1.00000
 Mulliken charges and spin densities with hydrogens summed into heavy atoms:
               1          2
     1  C   -0.027050   0.006011
     5  C    0.080078  -0.037409
     6  C    0.019682   0.970417
     8  C   -0.027221   0.014053
    12  C   -0.027131   0.004766
    16  C   -0.018358   0.042161
 Electronic spatial extent (au):  <R**2>=            690.4599
 Charge=              0.0000 electrons
 Dipole moment (field-independent basis, Debye):
    X=              0.0719    Y=             -0.1020    Z=              0.5716  Tot=              0.5851
 Quadrupole moment (field-independent basis, Debye-Ang):
   XX=            -40.4203   YY=            -40.6185   ZZ=            -41.7182
   XY=             -0.2277   XZ=              0.2907   YZ=             -0.1167
 Traceless Quadrupole moment (field-independent basis, Debye-Ang):
   XX=              0.4987   YY=              0.3005   ZZ=             -0.7992
   XY=             -0.2277   XZ=              0.2907   YZ=             -0.1167
 Octapole moment (field-independent basis, Debye-Ang**2):
  XXX=              0.7779  YYY=             -2.1019  ZZZ=              1.6095  XYY=              0.8829
  XXY=              0.4363  XXZ=              1.6238  XZZ=             -0.4914  YZZ=              1.2490
  YYZ=             -0.0764  XYZ=              0.1641
 Hexadecapole moment (field-independent basis, Debye-Ang**3):
 XXXX=           -491.3305 YYYY=           -237.9202 ZZZZ=           -228.8707 XXXY=             -5.0879
 XXXZ=             -6.3513 YYYX=              2.5199 YYYZ=             -0.4045 ZZZX=              4.0627
 ZZZY=             -1.5743 XXYY=           -122.0552 XXZZ=           -118.7996 YYZZ=            -77.8108
 XXYZ=              1.0144 YYXZ=              0.2318 ZZXY=             -1.2087
 N-N= 2.534607984540D+02 E-N=-1.052499286173D+03  KE= 2.339592240934D+02
                          Isotropic Fermi Contact Couplings
        Atom                 a.u.       MegaHertz       Gauss      10(-4) cm-1
     1  C(13)              0.00847       9.52628       3.39921       3.17762
     2  H(1)              -0.00021      -0.95039      -0.33912      -0.31702
     3  H(1)              -0.00015      -0.66592      -0.23762      -0.22213
     4  H(1)              -0.00007      -0.31538      -0.11254      -0.10520
     5  C(13)             -0.00696      -7.82583      -2.79245      -2.61042
     6  C(13)              0.29346     329.90352     117.71778     110.04397
     7  H(1)              -0.00437     -19.52933      -6.96855      -6.51428
     8  C(13)             -0.00816      -9.17854      -3.27513      -3.06163
     9  H(1)               0.02500     111.74024      39.87169      37.27253
    10  H(1)               0.00405      18.12164       6.46625       6.04473
    11  H(1)               0.00424      18.95231       6.76265       6.32181
    12  C(13)              0.00636       7.15153       2.55184       2.38549
    13  H(1)              -0.00018      -0.80835      -0.28844      -0.26964
    14  H(1)              -0.00018      -0.82526      -0.29447      -0.27528
    15  H(1)              -0.00025      -1.11148      -0.39660      -0.37075
    16  C(13)              0.03417      38.41331      13.70682      12.81330
    17  H(1)               0.00416      18.57388       6.62762       6.19558
    18  H(1)              -0.00015      -0.68714      -0.24519      -0.22921
    19  H(1)              -0.00069      -3.07225      -1.09625      -1.02479
 --------------------------------------------------------
       Center         ----  Spin Dipole Couplings  ----
                      3XX-RR        3YY-RR        3ZZ-RR
 --------------------------------------------------------
     1   Atom        0.018789     -0.008577     -0.010211
     2   Atom        0.007088     -0.001854     -0.005233
     3   Atom        0.011990     -0.008059     -0.003931
     4   Atom        0.006254     -0.003546     -0.002708
     5   Atom        0.005719     -0.019051      0.013332
     6   Atom       -0.482415     -0.289367      0.771782
     7   Atom       -0.058713      0.071559     -0.012846
     8   Atom        0.010877     -0.019504      0.008627
     9   Atom        0.001649     -0.007879      0.006229
    10   Atom        0.019626     -0.010874     -0.008752
    11   Atom        0.001173      0.003113     -0.004285
    12   Atom       -0.004391      0.007453     -0.003062
    13   Atom       -0.004474      0.005060     -0.000586
    14   Atom       -0.002330      0.008418     -0.006087
    15   Atom        0.000812      0.000813     -0.001626
    16   Atom       -0.026119     -0.027616      0.053734
    17   Atom        0.003555     -0.004971      0.001416
    18   Atom       -0.004330      0.001893      0.002437
    19   Atom       -0.002128     -0.007236      0.009364
 --------------------------------------------------------
                        XY            XZ            YZ
 --------------------------------------------------------
     1   Atom        0.007012     -0.002435     -0.000850
     2   Atom        0.007239     -0.000419     -0.000195
     3   Atom       -0.001214      0.005764     -0.000582
     4   Atom       -0.000482     -0.001423     -0.000028
     5   Atom       -0.006462     -0.028840      0.004084
     6   Atom       -0.016056      0.038929     -0.484210
     7   Atom        0.001633      0.001500      0.000107
     8   Atom        0.005892      0.029022      0.002874
     9   Atom        0.001923      0.009522     -0.001992
    10   Atom       -0.000889      0.003027     -0.000682
    11   Atom        0.012578      0.007494      0.007100
    12   Atom       -0.009164     -0.005326      0.010622
    13   Atom       -0.002117     -0.001387      0.006461
    14   Atom       -0.008674     -0.000846      0.000059
    15   Atom       -0.004087     -0.002436      0.002117
    16   Atom        0.002119     -0.015344     -0.012620
    17   Atom       -0.002103     -0.005243      0.000196
    18   Atom        0.002146     -0.005451     -0.007583
    19   Atom        0.000885     -0.000638      0.002304
 --------------------------------------------------------


 ---------------------------------------------------------------------------------
              Anisotropic Spin Dipole Couplings in Principal Axis System
 ---------------------------------------------------------------------------------

       Atom             a.u.   MegaHertz   Gauss  10(-4) cm-1        Axes

              Baa    -0.0106    -1.424    -0.508    -0.475 -0.0754  0.5942  0.8008
     1 C(13)  Bbb    -0.0101    -1.353    -0.483    -0.451 -0.2369  0.7694 -0.5932
              Bcc     0.0207     2.777     0.991     0.926  0.9686  0.2344 -0.0828
 
              Baa    -0.0059    -3.144    -1.122    -1.049 -0.4877  0.8715 -0.0521
     2 H(1)   Bbb    -0.0052    -2.798    -0.998    -0.933 -0.0008  0.0592  0.9982
              Bcc     0.0111     5.943     2.120     1.982  0.8730  0.4868 -0.0281
 
              Baa    -0.0082    -4.350    -1.552    -1.451  0.0340  0.9953  0.0907
     3 H(1)   Bbb    -0.0058    -3.087    -1.101    -1.030 -0.3122 -0.0757  0.9470
              Bcc     0.0139     7.437     2.654     2.481  0.9494 -0.0605  0.3082
 
              Baa    -0.0036    -1.912    -0.682    -0.638  0.0691  0.9872  0.1436
     4 H(1)   Bbb    -0.0029    -1.554    -0.555    -0.518  0.1438 -0.1523  0.9778
              Bcc     0.0065     3.466     1.237     1.156  0.9872 -0.0469 -0.1525
 
              Baa    -0.0219    -2.942    -1.050    -0.981  0.5649  0.7340  0.3770
     5 C(13)  Bbb    -0.0176    -2.363    -0.843    -0.788 -0.4986  0.6677 -0.5529
              Bcc     0.0395     5.305     1.893     1.770 -0.6575  0.1243  0.7431
 
              Baa    -0.4838   -64.917   -23.164   -21.654  0.9906  0.1349  0.0213
     6 C(13)  Bbb    -0.4770   -64.006   -22.839   -21.350 -0.1334  0.9226  0.3619
              Bcc     0.9607   128.923    46.003    43.004  0.0292 -0.3614  0.9320
 
              Baa    -0.0588   -31.363   -11.191   -10.462  0.9994 -0.0125 -0.0326
     7 H(1)   Bbb    -0.0128    -6.828    -2.436    -2.278  0.0326 -0.0019  0.9995
              Bcc     0.0716    38.192    13.628    12.739  0.0126  0.9999  0.0015
 
              Baa    -0.0218    -2.922    -1.043    -0.975 -0.4925  0.7745  0.3969
     8 C(13)  Bbb    -0.0177    -2.372    -0.847    -0.791  0.4902  0.6237 -0.6089
              Bcc     0.0395     5.295     1.889     1.766  0.7192  0.1053  0.6868
 
              Baa    -0.0098    -5.226    -1.865    -1.743 -0.4407  0.8206  0.3639
     9 H(1)   Bbb    -0.0039    -2.105    -0.751    -0.702  0.6521  0.5712 -0.4985
              Bcc     0.0137     7.331     2.616     2.445  0.6169 -0.0176  0.7868
 
              Baa    -0.0111    -5.909    -2.108    -1.971  0.0000  0.9594  0.2820
    10 H(1)   Bbb    -0.0089    -4.749    -1.695    -1.584 -0.1099 -0.2803  0.9536
              Bcc     0.0200    10.658     3.803     3.555  0.9939 -0.0310  0.1055
 
              Baa    -0.0107    -5.697    -2.033    -1.900  0.7767 -0.5595 -0.2892
    11 H(1)   Bbb    -0.0086    -4.582    -1.635    -1.528 -0.0318 -0.4933  0.8693
              Bcc     0.0193    10.280     3.668     3.429  0.6290  0.6660  0.4009
 
              Baa    -0.0098    -1.314    -0.469    -0.438 -0.3993 -0.6252  0.6706
    12 C(13)  Bbb    -0.0091    -1.218    -0.435    -0.406  0.8177  0.0878  0.5688
              Bcc     0.0189     2.533     0.904     0.845 -0.4145  0.7755  0.4762
 
              Baa    -0.0049    -2.628    -0.938    -0.876  0.9844  0.1375  0.1100
    13 H(1)   Bbb    -0.0048    -2.568    -0.916    -0.857 -0.0165 -0.5500  0.8350
              Bcc     0.0097     5.196     1.854     1.733 -0.1753  0.8238  0.5391
 
              Baa    -0.0075    -4.010    -1.431    -1.338  0.7860  0.4262  0.4478
    14 H(1)   Bbb    -0.0057    -3.064    -1.093    -1.022 -0.3808 -0.2370  0.8938
              Bcc     0.0133     7.074     2.524     2.360 -0.4871  0.8730  0.0240
 
              Baa    -0.0034    -1.802    -0.643    -0.601  0.7481  0.5240  0.4073
    15 H(1)   Bbb    -0.0028    -1.518    -0.542    -0.506 -0.0648 -0.5531  0.8306
              Bcc     0.0062     3.320     1.185     1.107  0.6605 -0.6477 -0.3798
 
              Baa    -0.0296    -3.971    -1.417    -1.325  0.2958  0.9349  0.1961
    16 C(13)  Bbb    -0.0289    -3.877    -1.383    -1.293  0.9381 -0.3230  0.1249
              Bcc     0.0585     7.848     2.800     2.618 -0.1801 -0.1470  0.9726
 
              Baa    -0.0057    -3.036    -1.083    -1.013  0.3338  0.9164  0.2210
    17 H(1)   Bbb    -0.0024    -1.272    -0.454    -0.424  0.5343 -0.3770  0.7565
              Bcc     0.0081     4.308     1.537     1.437  0.7766 -0.1344 -0.6155
 
              Baa    -0.0080    -4.248    -1.516    -1.417  0.7308  0.3091  0.6086
    18 H(1)   Bbb    -0.0037    -1.954    -0.697    -0.652 -0.5995  0.7170  0.3557
              Bcc     0.0116     6.202     2.213     2.069 -0.3264 -0.6247  0.7093
 
              Baa    -0.0077    -4.117    -1.469    -1.373 -0.1702  0.9757 -0.1380
    19 H(1)   Bbb    -0.0020    -1.059    -0.378    -0.353  0.9845  0.1745  0.0199
              Bcc     0.0097     5.176     1.847     1.726 -0.0435  0.1324  0.9902
 

 ---------------------------------------------------------------------------------

 No NMR shielding tensors so no spin-rotation constants.
 Leave Link  601 at Sat Nov  7 02:15:45 2015, MaxMem=   805306368 cpu:         1.6
 (Enter /home/hetanjin/apps/g09D01/g09/l701.exe)
 Compute integral first derivatives.
 ... and contract with generalized density number  0.
 Leave Link  701 at Sat Nov  7 02:15:45 2015, MaxMem=   805306368 cpu:         0.7
 (Enter /home/hetanjin/apps/g09D01/g09/l702.exe)
 L702 exits ... SP integral derivatives will be done elsewhere.
 Leave Link  702 at Sat Nov  7 02:15:45 2015, MaxMem=   805306368 cpu:         0.1
 (Enter /home/hetanjin/apps/g09D01/g09/l703.exe)
 Compute integral first derivatives, UseDBF=F ICtDFT=           0.
 Integral derivatives from FoFJK, PRISM(SPDF).
 Calling FoFJK, ICntrl=      2127 FMM=F ISym2X=0 I1Cent= 0 IOpClX= 1 NMat=1 NMatS=1 NMatT=0.
 FoFJK:  IHMeth= 1 ICntrl=    2127 DoSepK=F KAlg= 0 I1Cent=   0 FoldK=F
 IRaf=         0 NMat=   1 IRICut=       1 DoRegI=T DoRafI=F ISym2E= 0.
 FoFCou: FMM=F IPFlag=           0 FMFlag=      100000 FMFlg1=         800
         NFxFlg=           0 DoJE=F BraDBF=F KetDBF=F FulRan=T
         wScrn=  0.000000 ICntrl=    2127 IOpCl=  1 I1Cent=           0 NGrid=           0
         NMat0=    1 NMatS0=      1 NMatT0=    0 NMatD0=    1 NMtDS0=    0 NMtDT0=    0
 Symmetry not used in FoFCou.
 Leave Link  703 at Sat Nov  7 02:15:55 2015, MaxMem=   805306368 cpu:        35.1
 (Enter /home/hetanjin/apps/g09D01/g09/l716.exe)
 Dipole        = 2.82909867D-02-4.01467927D-02 2.24888962D-01
 ***** Axes restored to original set *****
 -------------------------------------------------------------------
 Center     Atomic                   Forces (Hartrees/Bohr)
 Number     Number              X              Y              Z
 -------------------------------------------------------------------
      1        6           0.001444074    0.001027350   -0.000560198
      2        1          -0.000107197   -0.000012717   -0.000009553
      3        1          -0.000395207   -0.000398364    0.000577614
      4        1           0.000128719   -0.000201274    0.000232413
      5        6          -0.003773739    0.011796301   -0.015667722
      6        6          -0.001488319   -0.035548173    0.036048807
      7        1           0.000090715    0.011634516   -0.009589821
      8        6           0.006010628    0.014871007   -0.017061552
      9        1           0.001567323   -0.000850459    0.002904302
     10        1          -0.000759408   -0.000443239    0.000662342
     11        1          -0.000654815   -0.001220882    0.000403366
     12        6           0.000680319   -0.000804889   -0.001354197
     13        1          -0.000072452   -0.000040653    0.000048193
     14        1          -0.000095635   -0.000140488    0.000767525
     15        1           0.000031980   -0.000231247    0.000140206
     16        6          -0.003368275    0.000124779    0.003435590
     17        1           0.000575181    0.000620577   -0.000922434
     18        1           0.000177438   -0.000275290    0.000101296
     19        1           0.000008670    0.000093145   -0.000156177
 -------------------------------------------------------------------
 Cartesian Forces:  Max     0.036048807 RMS     0.008151680
 Leave Link  716 at Sat Nov  7 02:15:55 2015, MaxMem=   805306368 cpu:         0.1
 (Enter /home/hetanjin/apps/g09D01/g09/l103.exe)

 GradGradGradGradGradGradGradGradGradGradGradGradGradGradGradGradGradGrad
 Berny optimization.
 FormGI is forming the generalized inverse of G from B-inverse, IUseBI=4.
 Internal  Forces:  Max     0.013951967 RMS     0.003111676
 Search for a local minimum.
 Step number   1 out of a maximum of  100
 All quantities printed in internal units (Hartrees-Bohrs-Radians)
 RMS Force = .31117D-02 SwitMx=.10000D-02 MixMth= 1
 Mixed Optimization -- RFO/linear search
 Second derivative matrix not updated -- first step.
 ITU=  0
     Eigenvalues ---    0.00230   0.00230   0.00230   0.00230   0.00316
     Eigenvalues ---    0.02042   0.04771   0.05029   0.05319   0.05319
     Eigenvalues ---    0.05397   0.05404   0.05418   0.05447   0.05447
     Eigenvalues ---    0.06759   0.07013   0.11509   0.14856   0.15083
     Eigenvalues ---    0.16000   0.16000   0.16000   0.16000   0.16000
     Eigenvalues ---    0.16000   0.16000   0.16000   0.16000   0.16000
     Eigenvalues ---    0.16000   0.16000   0.23406   0.27481   0.28370
     Eigenvalues ---    0.28418   0.28418   0.29059   0.33721   0.33969
     Eigenvalues ---    0.33969   0.33990   0.33990   0.34015   0.34017
     Eigenvalues ---    0.34017   0.34112   0.34156   0.34156   0.34166
     Eigenvalues ---    0.34166
 RFO step:  Lambda=-1.34560360D-02 EMin= 2.30000000D-03
 Linear search not attempted -- first point.
 Iteration  1 RMS(Cart)=  0.07526883 RMS(Int)=  0.00611253
 Iteration  2 RMS(Cart)=  0.00787976 RMS(Int)=  0.00417645
 Iteration  3 RMS(Cart)=  0.00001937 RMS(Int)=  0.00417642
 Iteration  4 RMS(Cart)=  0.00000013 RMS(Int)=  0.00417642
 ITry= 1 IFail=0 DXMaxC= 2.63D-01 DCOld= 1.00D+10 DXMaxT= 3.00D-01 DXLimC= 3.00D+00 Rises=F
 Variable       Old X    -DE/DX   Delta X   Delta X   Delta X     New X
                                 (Linear)    (Quad)   (Total)
    R1        2.07346  -0.00001   0.00000  -0.00004  -0.00004   2.07343
    R2        2.07346  -0.00069   0.00000  -0.00196  -0.00196   2.07150
    R3        2.07305   0.00021   0.00000   0.00059   0.00059   2.07365
    R4        2.91336   0.00109   0.00000   0.00366   0.00366   2.91702
    R5        2.93287  -0.01018   0.00000  -0.03530  -0.03530   2.89756
    R6        2.91234   0.00106   0.00000   0.00355   0.00355   2.91589
    R7        2.91234   0.00153   0.00000   0.00514   0.00514   2.91748
    R8        2.07803  -0.00064   0.00000  -0.00183  -0.00183   2.07620
    R9        2.89880  -0.01165   0.00000  -0.03831  -0.03831   2.86049
   R10        2.07051   0.00270   0.00000   0.00762   0.00762   2.07812
   R11        2.07142   0.00032   0.00000   0.00089   0.00089   2.07231
   R12        2.07051   0.00044   0.00000   0.00125   0.00125   2.07176
   R13        2.07067   0.00008   0.00000   0.00022   0.00022   2.07089
   R14        2.07382  -0.00071   0.00000  -0.00201  -0.00201   2.07181
   R15        2.07301   0.00014   0.00000   0.00038   0.00038   2.07339
   R16        2.07301   0.00018   0.00000   0.00050   0.00050   2.07351
   R17        2.07382  -0.00008   0.00000  -0.00023  -0.00023   2.07359
   R18        2.07067  -0.00007   0.00000  -0.00021  -0.00021   2.07046
    A1        1.87988   0.00014   0.00000  -0.00007  -0.00007   1.87981
    A2        1.88010   0.00005   0.00000   0.00025   0.00025   1.88035
    A3        1.94072  -0.00009   0.00000  -0.00101  -0.00101   1.93971
    A4        1.88010   0.00036   0.00000   0.00303   0.00303   1.88313
    A5        1.94072  -0.00042   0.00000  -0.00238  -0.00238   1.93834
    A6        1.93954  -0.00002   0.00000   0.00037   0.00037   1.93991
    A7        1.88414   0.00064   0.00000   0.00494   0.00486   1.88901
    A8        1.89923  -0.00071   0.00000   0.00263   0.00258   1.90181
    A9        1.89923   0.00058   0.00000   0.00130   0.00128   1.90052
   A10        1.93449   0.00116   0.00000   0.00994   0.00990   1.94439
   A11        1.93449  -0.00218   0.00000  -0.02093  -0.02091   1.91358
   A12        1.91142   0.00052   0.00000   0.00241   0.00243   1.91385
   A13        1.88616   0.00039   0.00000   0.11277   0.08923   1.97538
   A14        2.04055   0.01395   0.00000   0.10202   0.08185   2.12240
   A15        1.89691   0.00059   0.00000   0.11503   0.09168   1.98860
   A16        1.95529  -0.00397   0.00000  -0.02700  -0.02697   1.92832
   A17        1.92445   0.00165   0.00000   0.01152   0.01139   1.93584
   A18        1.95528   0.00220   0.00000   0.01476   0.01465   1.96994
   A19        1.87221   0.00033   0.00000  -0.00213  -0.00211   1.87010
   A20        1.88042   0.00026   0.00000  -0.00214  -0.00209   1.87833
   A21        1.87221  -0.00043   0.00000   0.00534   0.00511   1.87732
   A22        1.95325  -0.00004   0.00000  -0.00055  -0.00055   1.95270
   A23        1.94002  -0.00042   0.00000  -0.00237  -0.00237   1.93765
   A24        1.93250   0.00007   0.00000   0.00067   0.00067   1.93317
   A25        1.88195   0.00017   0.00000   0.00046   0.00046   1.88240
   A26        1.87429  -0.00003   0.00000  -0.00030  -0.00029   1.87400
   A27        1.87869   0.00028   0.00000   0.00226   0.00226   1.88094
   A28        1.93250  -0.00188   0.00000  -0.01225  -0.01225   1.92025
   A29        1.94002   0.00078   0.00000   0.00514   0.00513   1.94515
   A30        1.95325   0.00004   0.00000   0.00101   0.00100   1.95425
   A31        1.87869   0.00038   0.00000   0.00075   0.00076   1.87945
   A32        1.87429   0.00082   0.00000   0.00351   0.00350   1.87779
   A33        1.88195  -0.00008   0.00000   0.00212   0.00210   1.88405
    D1        1.04736  -0.00115   0.00000  -0.01400  -0.01400   1.03336
    D2       -3.13510   0.00021   0.00000   0.00236   0.00236  -3.13274
    D3       -1.05336   0.00076   0.00000   0.00754   0.00756  -1.04580
    D4       -1.04737  -0.00099   0.00000  -0.01163  -0.01164  -1.05901
    D5        1.05335   0.00037   0.00000   0.00472   0.00472   1.05807
    D6        3.13509   0.00092   0.00000   0.00991   0.00992  -3.13818
    D7        3.14159  -0.00116   0.00000  -0.01411  -0.01412   3.12747
    D8       -1.04087   0.00020   0.00000   0.00224   0.00224  -1.03863
    D9        1.04086   0.00075   0.00000   0.00743   0.00744   1.04830
   D10       -0.99615   0.00550   0.00000   0.15423   0.15646  -0.83968
   D11        3.14159  -0.00562   0.00000  -0.16413  -0.16633   2.97526
   D12       -3.07460   0.00530   0.00000   0.14220   0.14437  -2.93023
   D13        1.06313  -0.00582   0.00000  -0.17617  -0.17842   0.88471
   D14        1.08231   0.00533   0.00000   0.14666   0.14889   1.23120
   D15       -1.06314  -0.00579   0.00000  -0.17170  -0.17389  -1.23704
   D16        3.09341  -0.00010   0.00000  -0.00113  -0.00113   3.09228
   D17       -1.08437  -0.00020   0.00000  -0.00257  -0.00258  -1.08694
   D18        1.00293  -0.00008   0.00000  -0.00084  -0.00085   1.00208
   D19       -1.12043   0.00093   0.00000   0.01246   0.01247  -1.10796
   D20        0.98498   0.00084   0.00000   0.01102   0.01103   0.99601
   D21        3.07227   0.00095   0.00000   0.01275   0.01276   3.08503
   D22        1.01930  -0.00068   0.00000  -0.00566  -0.00566   1.01364
   D23        3.12471  -0.00078   0.00000  -0.00710  -0.00710   3.11760
   D24       -1.07118  -0.00066   0.00000  -0.00537  -0.00538  -1.07656
   D25       -1.00294   0.00006   0.00000  -0.00188  -0.00186  -1.00480
   D26        1.08436  -0.00020   0.00000  -0.00566  -0.00565   1.07871
   D27       -3.09342   0.00027   0.00000   0.00133   0.00134  -3.09208
   D28       -3.07228   0.00022   0.00000   0.00372   0.00373  -3.06855
   D29       -0.98499  -0.00004   0.00000  -0.00005  -0.00006  -0.98505
   D30        1.12042   0.00043   0.00000   0.00693   0.00693   1.12735
   D31        1.07117  -0.00016   0.00000   0.00347   0.00347   1.07464
   D32       -3.12472  -0.00041   0.00000  -0.00030  -0.00032  -3.12504
   D33       -1.01931   0.00006   0.00000   0.00668   0.00667  -1.01264
   D34        1.05782   0.00569   0.00000   0.16429   0.16665   1.22447
   D35        3.14158   0.00462   0.00000   0.15176   0.15404  -2.98757
   D36       -1.05785   0.00662   0.00000   0.17585   0.17834  -0.87951
   D37       -1.08208  -0.00545   0.00000  -0.15468  -0.15707  -1.23915
   D38        1.00168  -0.00652   0.00000  -0.16721  -0.16969   0.83199
   D39        3.08544  -0.00452   0.00000  -0.14312  -0.14539   2.94005
         Item               Value     Threshold  Converged?
 Maximum Force            0.013952     0.000015     NO 
 RMS     Force            0.003112     0.000010     NO 
 Maximum Displacement     0.262915     0.000060     NO 
 RMS     Displacement     0.072865     0.000040     NO 
 Predicted change in Energy=-1.014327D-02
 Lowest energy point so far.  Saving SCF results.
 GradGradGradGradGradGradGradGradGradGradGradGradGradGradGradGradGradGrad

 Leave Link  103 at Sat Nov  7 02:15:58 2015, MaxMem=   805306368 cpu:         8.9
 (Enter /home/hetanjin/apps/g09D01/g09/l202.exe)
                          Input orientation:                          
 ---------------------------------------------------------------------
 Center     Atomic      Atomic             Coordinates (Angstroms)
 Number     Number       Type             X           Y           Z
 ---------------------------------------------------------------------
      1          6           0        1.600205    0.995485   -0.000403
      2          1           0        1.593109    1.632636    0.892827
      3          1           0        1.523597    1.649328   -0.876905
      4          1           0        2.572593    0.488656   -0.041770
      5          6           0        0.441754   -0.024107    0.033938
      6          6           0       -0.878323    0.752080    0.111492
      7          1           0       -0.873698    1.537542    0.879686
      8          6           0       -2.215340    0.061682   -0.052958
      9          1           0       -2.428158   -0.577063    0.816551
     10          1           0       -3.028311    0.794342   -0.122668
     11          1           0       -2.261518   -0.569862   -0.947918
     12          6           0        0.506515   -0.899661   -1.234972
     13          1           0       -0.267538   -1.675400   -1.235857
     14          1           0        0.375264   -0.292826   -2.138586
     15          1           0        1.477311   -1.405475   -1.309380
     16          6           0        0.595330   -0.913182    1.286724
     17          1           0        1.571210   -1.414642    1.274183
     18          1           0        0.536685   -0.321005    2.208652
     19          1           0       -0.175601   -1.690210    1.334938
 ---------------------------------------------------------------------
                    Distance matrix (angstroms):
                    1          2          3          4          5
     1  C    0.000000
     2  H    1.097211   0.000000
     3  H    1.096191   1.771175   0.000000
     4  H    1.097327   1.772442   1.773415   0.000000
     5  C    1.543618   2.192739   2.190982   2.192974   0.000000
     6  C    2.492964   2.737487   2.747945   3.464347   1.533324
     7  H    2.681153   2.468674   2.974077   3.718356   2.210080
     8  C    3.928502   4.226900   4.144775   4.806946   2.659898
     9  H    4.400912   4.589027   4.841589   5.184591   3.025663
    10  H    4.634498   4.805360   4.692520   5.609823   3.568716
    11  H    4.273290   4.805985   4.388274   5.030924   2.927383
    12  C    2.512349   3.481486   2.767673   2.760405   1.543024
    13  H    3.485461   4.351598   3.793525   3.765014   2.200510
    14  H    2.780656   3.792099   2.585047   3.136177   2.190089
    15  H    2.737359   3.754096   3.085612   2.528678   2.187477
    16  C    2.511868   2.762590   3.479860   2.763985   1.543864
    17  H    2.726559   3.071126   3.743977   2.521318   2.178869
    18  H    2.782830   2.581499   3.791684   3.140839   2.196939
    19  H    3.485625   3.790131   4.351096   3.767672   2.202187
                    6          7          8          9         10
     6  C    0.000000
     7  H    1.098678   0.000000
     8  C    1.513706   2.201815   0.000000
     9  H    2.160027   2.625240   1.099696   0.000000
    10  H    2.163115   2.489863   1.096619   1.767220   0.000000
    11  H    2.187032   3.115659   1.096327   1.772334   1.769198
    12  C    2.541454   3.509520   3.119268   3.595152   4.074538
    13  H    2.842722   3.894349   2.865421   3.176004   3.867905
    14  H    2.779597   3.744345   3.344659   4.083233   4.102460
    15  H    3.496131   4.356673   4.167351   4.523110   5.152485
[...]
 0937,-0.00052421,0.00106865,-0.00013977,0.00246829,0.00319516,0.000020
 70,-0.02178648,-0.02035395,0.00138080,0.48629230,-0.04954971,-0.118426
 25,0.00214247,-0.01381365,-0.01381492,0.00177959,-0.01374902,-0.012545
 95,-0.00018362,0.01217180,0.00960662,-0.00138696,0.00147576,0.46827342
 ,0.00802256,0.00149985,-0.07676750,-0.02061742,-0.01816254,0.00064805,
 0.02083244,0.01733067,-0.00180689,0.00173749,0.00168718,-0.00138632,-0
 .00871095,0.03359685,0.44133977,-0.03556670,0.00716603,0.00126215,0.00
 119934,0.00174122,0.00063435,0.00142340,0.00138446,-0.00047278,-0.0032
 6815,-0.00238474,0.00066197,-0.16659280,0.04614820,0.00304778,0.498680
 26,-0.01649386,0.01068501,0.00156618,-0.00143137,0.00012670,-0.0002941
 9,-0.00045870,0.00043054,-0.00000351,-0.00473310,-0.00286503,0.0001232
 6,0.04936597,-0.10558687,-0.02141910,0.00059603,0.47876520,0.00029444,
 0.00095055,0.00009572,-0.00112242,0.00025423,0.00007545,0.00007002,-0.
 00055458,0.00064334,-0.00085746,-0.00078722,0.00049858,0.00790695,-0.0
 2328624,-0.05690129,0.03911155,0.20949193,0.22845061,0.00134347,0.0017
 5716,0.00119720,-0.00049884,-0.00035666,-0.00059435,-0.00008677,-0.000
 22181,0.00015376,0.00030523,-0.00026315,-0.00020029,0.00150054,0.01995
 886,0.01486756,-0.05381980,0.00154678,-0.00342446,0.05912373,-0.001430
 31,0.00075058,0.00033668,0.00063112,0.00071157,0.00039512,0.00018667,0
 .00003010,-0.00001215,0.00001923,0.00013666,0.00031034,-0.00261441,-0.
 00932734,-0.01132059,0.00121783,-0.23661089,-0.14347839,-0.00065696,0.
 24843607,-0.00078299,-0.00061392,0.00024390,0.00031796,0.00017996,0.00
 030378,0.00020909,0.00009988,-0.00036987,-0.00004777,0.00042102,0.0000
 1827,-0.00178467,-0.00056107,0.00147265,-0.00391955,-0.15185934,-0.109
 06026,0.00428037,0.15850599,0.10784920,-0.00231933,0.00291395,-0.00002
 059,0.00008924,-0.00020518,-0.00023767,-0.00003039,-0.00013440,0.00017
 801,-0.00049289,-0.00095965,0.00001876,-0.01912024,-0.01032082,-0.0015
 1876,-0.19688781,-0.05107602,-0.03475071,0.00045563,0.00224805,0.00138
 959,0.51180387,0.00244060,-0.00256902,-0.00009982,0.00022859,0.0002122
 4,0.00034322,-0.00001831,0.00003944,-0.00017380,0.00099497,0.00110790,
 -0.00005716,0.01225232,0.01225096,0.00397229,-0.04277279,-0.10399577,-
 0.03155701,-0.02069247,-0.00469530,-0.00379072,-0.04715811,0.52510703,
 0.00120761,-0.00022682,-0.00001319,0.00016045,0.00016220,0.00014617,0.
 00000290,-0.00002486,0.00001723,0.00070873,0.00019353,0.00030254,0.000
 72942,0.00216777,0.00145430,-0.02593936,-0.02928606,-0.06393352,-0.015
 84433,-0.00849109,0.00223684,-0.00809613,0.02544920,0.51197043,0.00000
 796,0.00002789,-0.00007465,0.00009675,0.00005611,0.00006449,0.00013621
 ,0.00009169,-0.00010627,-0.00020350,0.00014764,-0.00002568,0.00150469,
 0.00027631,-0.00104726,-0.00957542,-0.02548693,0.01265234,-0.00140558,
 -0.00043522,-0.00006971,-0.05414384,-0.03725470,0.03176193,0.05874461,
 -0.00019654,0.00025450,-0.00000737,0.00006721,0.00000654,0.00003286,0.
 00009169,0.00006062,-0.00007440,-0.00019871,-0.00000477,-0.00001251,0.
 00080350,-0.00019297,-0.00044977,-0.01118955,-0.01229825,0.00191901,-0
 .00127030,-0.00034334,0.00009675,-0.02825967,-0.19099109,0.11307632,0.
 04226101,0.21224926,0.00015019,-0.00016660,-0.00011076,-0.00002278,-0.
 00002949,0.00000430,-0.00000261,-0.00001310,0.00000942,0.00004809,0.00
 006914,-0.00000495,0.00010689,0.00048673,0.00059387,0.00111536,-0.0070
 5573,0.00767731,-0.00033494,0.00036392,-0.00162128,0.02389965,0.107502
 31,-0.12511969,-0.02860627,-0.12288235,0.13722779,-0.00094146,0.001167
 85,0.00000932,-0.00002671,-0.00005932,-0.00008909,0.00001273,-0.000053
 55,0.00008102,-0.00045450,-0.00039461,0.00002869,-0.00180420,-0.004131
 55,-0.00186127,-0.02347556,0.02034849,0.00536876,0.00151093,-0.0003835
 2,0.00002909,-0.19069293,0.13000498,0.02509328,0.00534390,-0.00401284,
 -0.00169036,0.20898631,-0.00037092,0.00038365,0.00002576,0.00001227,0.
 00000249,-0.00001649,0.00000900,-0.00000307,0.00001563,-0.00018720,-0.
 00012855,0.00000411,-0.00204273,-0.00117195,-0.00070524,-0.01379149,0.
 01075512,0.00263433,0.00025157,0.00104912,0.00032290,0.13180325,-0.166
 59097,-0.02467538,0.01875412,-0.01765680,-0.00438212,-0.14050348,0.180
 06705,-0.00029514,0.00034592,0.00019795,0.00001638,0.00001721,-0.00001
 491,0.00000184,-0.00002516,0.00000378,-0.00013229,-0.00010802,-0.00000
 754,-0.00084956,-0.00151899,0.00047045,-0.00577411,0.00565743,0.000133
 51,0.00003878,0.00072483,-0.00000337,0.02533431,-0.02473602,-0.0542637
 2,-0.01531124,0.01379515,0.00264054,-0.02736450,0.02726506,0.05293609,
 -0.00002846,0.00015407,0.00018679,0.00016364,0.00016878,0.00011798,0.0
 0002544,-0.00003167,-0.00000682,-0.00008325,0.00004499,0.00005467,0.00
 105536,-0.00053822,-0.00047249,-0.00076374,-0.01376344,-0.02554260,-0.
 00369837,-0.00114659,-0.00159068,-0.04881249,0.00022394,-0.01102885,0.
 00083787,0.00261852,0.00532991,0.00133268,0.00592129,0.02369513,0.0516
 2912,0.00001570,0.00004145,-0.00021003,0.00003793,0.00002740,0.0000760
 8,-0.00001247,-0.00002464,0.00002120,-0.00005060,0.00002135,0.00006716
 ,0.00050127,-0.00023663,0.00028501,-0.00503257,-0.00893641,-0.01291019
 ,-0.00277116,-0.00029377,-0.00105279,0.00234269,-0.06970261,-0.0788125
 3,0.00045174,0.00808829,0.02622057,-0.00165453,-0.00687150,-0.02122709
 ,0.00496786,0.07778128,-0.00013384,0.00017639,0.00011452,0.00006900,0.
 00010285,0.00006324,0.00002450,-0.00001763,-0.00000041,-0.00012958,-0.
 00000827,0.00000835,0.00056734,-0.00096383,-0.00046563,-0.00478440,-0.
 00514375,-0.00159751,-0.00074593,0.00137285,-0.00110852,-0.00582193,-0
 .07697842,-0.27323287,0.00088018,-0.00548810,-0.02110648,0.00067684,-0
 .00038763,-0.00248344,0.00843538,0.08713879,0.29937395,-0.00132158,-0.
 01676743,-0.02082737,-0.00395068,-0.00416054,-0.00062269,0.00075517,0.
 00099105,-0.00016778,0.00030656,-0.00051978,-0.00092922,-0.07960430,0.
 00014893,0.00500388,-0.00110766,0.02068777,0.02294776,-0.00469808,0.00
 290615,0.00088635,-0.00019738,0.00067109,0.00043940,-0.00035306,-0.000
 38043,0.00026478,0.00024249,-0.00003807,0.00018865,-0.00065849,0.00059
 653,0.00034675,0.58134815,-0.00427714,-0.01945565,-0.02121741,-0.00280
 140,-0.00292040,0.00002397,0.00078802,0.00052573,-0.00068595,0.0015733
 7,0.00116830,0.00037425,-0.00270145,-0.10530533,-0.04592189,0.00687661
 ,-0.01465524,-0.01442930,0.00193504,-0.00020480,-0.00073681,0.00058351
 ,-0.00015485,0.00133172,-0.00028953,0.00004127,0.00057580,-0.00060262,
 -0.00059028,-0.00045962,0.00052841,0.00039918,-0.00101297,0.00377925,0
 .54140046,-0.00376608,-0.00450257,-0.00057662,0.00115791,0.00174500,0.
 00097040,0.00080054,0.00136243,0.00069000,0.00064711,0.00053577,0.0000
 8298,-0.00044735,-0.04315009,-0.13762369,0.00670521,-0.00565496,-0.004
 02498,-0.00083177,0.00171953,0.00022813,-0.00050658,0.00057383,0.00062
 750,-0.00008065,-0.00024740,-0.00018174,-0.00054055,-0.00015583,0.0000
 2632,-0.00027500,-0.00020809,0.00014363,0.00512329,-0.05876917,0.50038
 654,0.00053824,0.00000546,-0.00076885,0.00024865,-0.00026239,0.0001236
 7,-0.00007852,0.00001425,0.00015644,0.00051314,0.00016886,0.00016985,0
 .00083197,0.00138915,-0.00050313,-0.00003447,0.00020138,-0.00030082,0.
 00010086,-0.00013222,-0.00009368,-0.00079891,0.00063274,0.00002565,-0.
 00007931,0.00006050,-0.00009315,0.00011875,0.00016763,0.00018500,-0.00
 078978,0.00068625,0.00048909,-0.17801050,-0.13113509,0.00918209,0.1927
 3300,0.00156698,-0.00167122,-0.00414122,-0.00126345,-0.00075910,-0.000
 24102,0.00029930,0.00040852,0.00000323,-0.00016564,0.00021341,0.000035
 62,-0.01338663,-0.01380651,0.00253102,-0.00122120,0.00022505,-0.000020
 29,0.00017405,0.00006692,0.00011982,-0.00027208,0.00009391,-0.00066176
 ,0.00030092,0.00008770,-0.00024216,0.00007907,0.00038461,0.00042736,0.
 00080844,-0.00026842,0.00075416,-0.13030457,-0.18150040,0.00946113,0.1
 4442733,0.19563914,0.00099292,-0.00263020,-0.00486138,-0.00126094,-0.0
 0154256,0.00020946,0.00013291,-0.00025838,0.00017461,0.00007508,0.0002
 4301,-0.00010071,-0.02061275,-0.01829862,0.00179171,-0.00048580,0.0005
 9821,0.00080826,-0.00011241,0.00008152,0.00000326,0.00047606,-0.000216
 50,0.00048463,0.00033443,0.00010211,-0.00014806,0.00000747,0.00009119,
 -0.00016344,0.00010155,-0.00001498,-0.00012418,0.00942355,0.01016947,-
 0.05030023,-0.01049269,-0.00851147,0.05222202,-0.00008873,0.00061048,-
 0.00063962,-0.00006394,-0.00006423,0.00022364,0.00013006,-0.00040700,-
 0.00003519,-0.00001527,0.00005643,-0.00010673,-0.00122868,-0.00090245,
 0.00140630,0.00030134,-0.00029052,0.00046943,0.00002867,-0.00009499,-0
 .00001593,0.00005438,-0.00014196,0.00042855,0.00011031,0.00009634,-0.0
 0010104,0.00003339,0.00002017,-0.00020629,-0.00034871,-0.00014317,-0.0
 0006475,-0.05649285,0.02220916,-0.03373563,0.00443334,-0.01254510,0.02
 054655,0.05551763,0.00026899,0.00126411,-0.00042598,0.00019525,0.00021
 441,0.00015131,0.00000827,-0.00008994,0.00018334,-0.00007603,-0.000091
 62,0.00003545,-0.00355618,0.01081192,-0.01604440,-0.00018881,0.0009524
 7,0.00041963,-0.00024051,0.00007741,0.00003710,0.00016215,0.00006134,0
 .00026096,0.00000604,-0.00000232,-0.00015941,-0.00000935,0.00003588,-0
 .00010746,-0.00014377,-0.00009352,-0.00018479,0.02208524,-0.12833257,0
 .11857618,0.00520322,-0.01251318,0.01862851,-0.02468604,0.13703600,0.0
 0044605,0.00156245,0.00060295,0.00024369,-0.00019035,0.00036870,-0.000
 47186,-0.00095402,0.00047905,-0.00001065,-0.00010257,-0.00001424,-0.00
 372686,0.01528813,-0.02135857,-0.00124064,0.00071908,0.00108786,0.0000
 7539,-0.00002962,0.00001445,0.00023291,-0.00016209,-0.00024178,-0.0001
 2312,0.00000700,0.00015363,0.00007015,0.00001828,0.00013632,0.00048736
 ,0.00025626,0.00004413,-0.03362890,0.11778848,-0.22470482,0.00029897,0
 .00042888,-0.00047613,0.03716608,-0.12827667,0.24581344,0.00056028,-0.
 00080400,-0.00054679,0.00029410,-0.00002644,0.00010799,-0.00003929,-0.
 00000524,0.00005520,0.00059101,0.00020883,-0.00004980,-0.00121516,-0.0
 0007208,-0.00058965,0.00073250,-0.00026795,0.00021867,-0.00000624,0.00
 007592,0.00022184,-0.00000078,0.00027012,-0.00031700,0.00003879,-0.000
 02883,-0.00007060,-0.00000795,0.00013823,0.00020960,0.00028813,-0.0000
 3626,0.00037392,-0.25737571,0.10335212,0.01803082,-0.02001206,0.010648
 58,0.00115429,-0.00347615,0.00100635,0.00000255,0.27889582,0.00161241,
 0.00033303,0.00052829,-0.00029225,0.00034306,0.00018958,0.00001495,-0.
 00013465,-0.00000779,-0.00092629,-0.00009844,-0.00032518,0.01756979,-0
 .00981176,-0.00170076,-0.00134599,-0.00215554,-0.00338621,0.00112742,-
 0.00044248,-0.00036674,-0.00068153,0.00013308,-0.00035498,0.00021253,0
 .00005145,-0.00014144,0.00009473,0.00013937,0.00019362,-0.00005979,-0.
 00002928,0.00046216,0.10306021,-0.09968557,-0.00770026,-0.02174466,0.0
 1214686,0.00172795,0.01621742,-0.00810902,-0.00204860,-0.11392882,0.10
 635349,0.00096381,0.00077871,0.00080850,0.00002204,0.00039480,-0.00000
 925,-0.00019693,-0.00000385,-0.00000803,-0.00064005,-0.00010186,0.0001
 6860,0.02517466,-0.01186157,-0.00326895,-0.00152445,-0.00352381,-0.003
 76931,0.00146611,-0.00080730,-0.00014959,-0.00054529,-0.00006803,-0.00
 029728,0.00005927,0.00009217,0.00008358,0.00004562,0.00003020,0.000132
 58,0.00021981,0.00022648,0.00024085,0.01713135,-0.00737667,-0.05036044
 ,0.00193713,-0.00068042,-0.00099662,-0.02543687,0.01101158,0.00322529,
 -0.01893440,0.01179765,0.05312761,0.00237564,-0.01732721,0.02073196,0.
 00057328,0.00072526,0.00018622,-0.00406427,-0.00447650,0.00124283,0.00
 071641,-0.00033074,0.00086945,-0.07243805,0.00862090,-0.01638138,-0.01
 199917,0.02033843,-0.02032722,-0.00014560,-0.00074405,0.00093854,0.000
 88211,-0.00004911,0.00069155,-0.00130446,-0.00052190,0.00013340,-0.000
 18278,-0.00025181,0.00029906,-0.00014733,0.00009455,-0.00018986,0.0013
 5226,-0.00043692,-0.00146445,-0.00008908,0.00029379,-0.00085848,0.0000
 0448,0.00008500,0.00043541,-0.00002475,-0.00028388,0.00123651,0.569514
 71,-0.00209351,-0.01950986,0.02274180,0.00092373,0.00058665,0.00059787
 ,-0.00281218,-0.00298870,0.00037456,0.00154785,0.00118156,-0.00048511,
 -0.00126280,-0.09754284,0.03951718,0.01429882,-0.01424068,0.01103219,-
 0.00029293,0.00053410,-0.00052672,-0.00035515,0.00056281,-0.00039266,-
 0.00037431,-0.00013258,0.00009690,-0.00018270,-0.00019362,0.00001840,0
 .00015382,-0.00013132,0.00019370,-0.00302347,0.01037058,-0.01390507,-0
 .00001906,0.00047739,-0.00078642,0.00006244,-0.00206982,-0.00518163,-0
 .00013395,0.00034659,-0.00044393,0.01822990,0.53221644,0.00257084,0.00
 736783,-0.00543800,-0.00077834,-0.00162373,0.00077173,-0.00041915,-0.0
 0064807,0.00063605,-0.00077507,-0.00041730,-0.00004789,-0.00034719,0.0
 2955331,-0.12409755,-0.01051539,0.00566586,0.00118223,0.00088806,-0.00
 057464,-0.00022798,0.00003282,-0.00056739,-0.00025726,0.00027791,0.000
 35242,-0.00014970,0.00042588,0.00013527,0.00015862,0.00024254,0.000082
 96,0.00014124,-0.00465209,0.01410988,-0.03450415,0.00027583,0.00129899
 ,0.00170715,0.00004194,-0.00276887,-0.00422542,-0.00044127,0.00132464,
 0.00133737,-0.01810991,0.06652007,0.48972677,0.00048388,-0.00078475,0.
 00040777,-0.00000723,-0.00004807,-0.00005743,0.00022563,-0.00004561,-0
 .00014728,0.00065402,0.00018777,0.00001386,-0.00477731,0.00169297,0.00
 103942,0.00019251,0.00142165,-0.00234736,-0.00009045,0.00005784,0.0001
 3135,0.00037977,0.00009569,0.00020658,0.00026547,-0.00009951,0.0001628
 8,-0.00004487,0.00003193,-0.00004794,-0.00007689,0.00001612,-0.0000856
 0,-0.00004807,-0.00009332,0.00064195,-0.00011330,0.00008883,-0.0000400
 8,0.00031930,-0.00023705,-0.00007031,0.00048889,-0.00027159,-0.0006344
 7,-0.24593267,0.10665687,0.01693306,0.26667705,0.00121559,0.00043029,-
 0.00081758,-0.00000092,-0.00009578,0.00006339,-0.00032154,0.00040185,-
 0.00013803,-0.00095220,-0.00015501,0.00041087,0.01646725,-0.01028643,-
 0.00095838,0.00047897,-0.00202279,0.00394141,0.00000326,0.00020381,-0.
 00037253,-0.00046524,-0.00032358,-0.00013687,0.00050348,0.00035978,-0.
 00012746,0.00019289,0.00012034,-0.00006062,0.00011382,0.00011421,0.000
 06759,-0.00040992,0.00045109,-0.00125027,-0.00011088,0.00002591,0.0000
 7608,-0.00027139,-0.00009003,-0.00012325,-0.00028709,0.00063914,0.0003
 6734,0.10712198,-0.10727712,-0.01048366,-0.11933069,0.11400334,-0.0006
 4142,-0.00093200,0.00089870,0.00016291,0.00001632,-0.00003452,-0.00007
 104,-0.00043273,0.00003860,0.00062583,0.00009560,0.00014130,-0.0238005
 6,0.01374119,-0.00025496,-0.00027878,0.00282857,-0.00311338,-0.0003307
 0,0.00018545,0.00020309,0.00023765,0.00013727,0.00031726,-0.00032577,-
 0.00027355,0.00002444,-0.00016147,-0.00008753,0.00004049,-0.00007967,0
 .00000296,-0.00007241,-0.00087795,0.00036289,0.00141376,-0.00001639,-0
 .00007057,-0.00013495,0.00030020,-0.00009207,0.00044435,0.00047637,-0.
 00028569,-0.00051700,0.01656838,-0.01025506,-0.04946017,-0.01843203,0.
 00846809,0.05223369,0.00006446,0.00030228,0.00077550,0.00024108,-0.000
 21692,0.00010523,-0.00014636,-0.00001460,-0.00013057,-0.00000810,0.000
 10531,0.00011820,-0.00179847,-0.00294455,-0.00396021,0.00011444,-0.000
 98658,-0.00054601,0.00007489,0.00025122,-0.00003802,-0.00024313,0.0001
 0544,0.00002690,0.00006036,0.00002021,-0.00012861,-0.00003398,0.000048
 11,-0.00005152,0.00004727,-0.00000680,0.00005435,-0.00013175,0.0006928
 7,-0.00065051,0.00014572,0.00032167,0.00025130,0.00065220,-0.00012956,
 -0.00031310,0.00030609,-0.00024864,-0.00031013,-0.04964074,-0.00145087
 ,-0.00156344,0.00153475,0.01635576,0.02493720,0.04840881,0.00039098,0.
 00126373,0.00039086,-0.00000210,-0.00006468,-0.00012546,0.00018873,0.0
 0020377,-0.00014410,-0.00009841,-0.00008686,-0.00004749,-0.00007907,0.
 01060969,0.01564027,-0.00044409,0.00110157,0.00045039,-0.00004491,-0.0
 0006913,-0.00006048,-0.00003699,-0.00009388,0.00007222,-0.00000647,-0.
 00003386,-0.00009620,0.00000042,0.00005745,-0.00003639,-0.00004227,-0.
 00004279,0.00000328,0.00054001,-0.00200014,0.00282605,0.00025818,0.000
 04707,0.00012340,0.00000610,0.00089471,0.00106312,-0.00020316,-0.00007
 579,0.00011979,-0.00161622,-0.13298141,-0.12300844,-0.00124665,-0.0088
 9104,-0.01196508,0.00111512,0.14245191,-0.00048920,-0.00175893,0.00073
 714,0.00045943,0.00107617,0.00040940,-0.00014671,0.00016496,0.00045385
 ,0.00005572,0.00010497,-0.00006143,-0.00031854,-0.01490675,-0.02143850
 ,0.00138424,-0.00140139,0.00104018,-0.00048270,0.00072412,-0.00000474,
 -0.00028084,0.00020306,-0.00000378,0.00008128,-0.00001275,-0.00008155,
 -0.00007361,0.00000888,-0.00000239,0.00017262,0.00005111,0.00011897,-0
 .00113884,0.00506334,-0.00390256,-0.00008662,0.00002382,0.00034106,0.0
 0001188,-0.00106264,-0.00167660,0.00009324,0.00011615,0.00037584,-0.00
 169927,-0.12256897,-0.22676247,0.00028233,-0.00069804,-0.00114860,0.00
 267221,0.13288685,0.24810344,0.00047623,0.00058100,-0.00020397,-0.0001
 0647,0.00002668,-0.00011652,0.00049166,-0.00002594,-0.00012628,0.00047
 221,0.00011341,-0.00024277,0.00348658,0.00413916,-0.00029492,0.0004474
 9,0.00048197,0.00017915,0.00000578,0.00004427,-0.00006119,0.00007512,0
 .00016698,-0.00025727,-0.00008176,0.00013930,-0.00016080,0.00008375,0.
 00002812,0.00006382,0.00002799,-0.00000309,0.00003854,-0.00005453,0.00
 001912,0.00000966,0.00034226,0.00014969,0.00036704,0.00012923,0.000246
 80,0.00012686,-0.00003752,-0.00012602,-0.00003372,-0.18944999,-0.12987
 250,0.01591299,-0.02013048,-0.02030312,0.00170726,0.00035245,0.0013208
 0,-0.00049661,0.20347000,0.00184428,-0.00183902,0.00400988,0.00028151,
 0.00040942,-0.00004163,-0.00126070,-0.00070681,0.00036008,-0.00014506,
 0.00022593,-0.00004489,-0.01266949,-0.01349687,0.00062234,-0.00153695,
 0.00032580,-0.00068425,0.00005672,-0.00000930,0.00015768,-0.00012875,-
 0.00045164,0.00034912,0.00075767,0.00045659,-0.00001932,0.00009964,0.0
 0021166,-0.00016561,0.00002178,0.00015774,-0.00008639,0.00013797,0.000
 44862,-0.00125621,0.00018937,0.00070233,0.00041770,0.00026831,0.000043
 76,-0.00006288,0.00009365,0.00005645,0.00004872,-0.12947146,-0.1692081
 7,0.01368086,0.01190758,0.01239202,-0.00144403,-0.01331945,-0.01229032
 ,0.00198603,0.14287339,0.18257180,-0.00161431,0.00267218,-0.00476336,-
 0.00009062,0.00026994,0.00022021,0.00125718,0.00153710,0.00009349,-0.0
 0021001,-0.00028726,-0.00006032,0.01974208,0.01736168,-0.00240094,0.00
 101266,-0.00100868,0.00070719,-0.00006535,-0.00000655,-0.00002796,-0.0
 0002127,0.00022578,-0.00019381,-0.00034120,-0.00002559,0.00010934,-0.0
 0005529,-0.00014141,0.00006216,-0.00004763,0.00000711,-0.00005744,0.00
 108910,0.00080998,0.00160997,-0.00048838,-0.00051512,-0.00043647,-0.00
 025253,-0.00018175,0.00032739,0.00000503,-0.00002240,-0.00012374,0.015
 69726,0.01345289,-0.05049057,0.00204330,0.00177191,-0.00101969,-0.0212
 4876,-0.01809259,0.00350273,-0.01641128,-0.01782722,0.05294184\\0.0000
 0022,-0.00000086,-0.00000016,0.00000067,-0.00000049,-0.00000012,0.0000
 0068,-0.00000050,-0.00000018,0.00000019,-0.00000090,-0.00000014,-0.000
 00053,0.00000082,0.00000080,0.00000074,0.00000058,-0.00000112,0.000000
 50,0.00000020,0.00000010,0.00000054,0.00000143,0.00000069,-0.00000057,
 0.00000052,-0.00000001,0.00000044,0.00000102,0.00000011,-0.00000013,0.
 00000049,-0.00000001,-0.00000044,-0.00000085,-0.00000075,-0.00000063,0
 .00000017,0.00000030,-0.00000014,-0.00000020,0.00000008,-0.00000053,-0
 .00000048,0.00000011,0.00000023,-0.00000067,0.00000010,-0.00000059,-0.
 00000039,-0.00000001,-0.00000004,-0.00000009,0.00000008,-0.00000062,0.
 00000019,0.00000013\\\@


 IT WAS A GAME, A VERY INTERESTING GAME ONE COULD
 PLAY.  WHENEVER ONE SOLVED ONE OF THE LITTLE PROBLEMS,
 ONE COULD WRITE A PAPER ABOUT IT.  IT WAS VERY EASY IN
 THOSE DAYS FOR ANY SECOND-RATE PHYSICIST TO DO
 FIRST-RATE WORK.  THERE HAS NOT BEEN SUCH A GLORIOUS
 TIME SINCE.  IT IS VERY DIFFICULT NOW FOR A FIRST-RATE
 PHYSICIST TO DO SECOND-RATE WORK.
     P.A.M. DIRAC, ON THE EARLY DAYS OF QUANTUM MECHANICS
                   DIRECTIONS IN PHYSICS, 1978, P. 7
 Job cpu time:       0 days  0 hours 29 minutes 33.1 seconds.
 File lengths (MBytes):  RWF=     64 Int=      0 D2E=      0 Chk=      3 Scr=      1
 Normal termination of Gaussian 09 at Sat Nov  7 02:34:11 2015.
