 Entering Gaussian System, Link 0=/share/apps/g09/g09
 Input=C6H14_2_2_opt_B3L.gjf
 Output=C6H14_2_2_opt_B3L.log
 Initial command:
 /share/apps/g09/l1.exe /state/partition1/Gau-15949.inp -scrdir=/state/partition1/
 Entering Link 1 = /share/apps/g09/l1.exe PID=     15954.
  
 Copyright (c) 1988,1990,1992,1993,1995,1998,2003,2009, Gaussian, Inc.
                  All Rights Reserved.
  
 This is part of the Gaussian(R) 09 program.  It is based on
 the Gaussian(R) 03 system (copyright 2003, Gaussian, Inc.),
 the Gaussian(R) 98 system (copyright 1998, Gaussian, Inc.),
 the Gaussian(R) 94 system (copyright 1995, Gaussian, Inc.),
 the Gaussian 92(TM) system (copyright 1992, Gaussian, Inc.),
 the Gaussian 90(TM) system (copyright 1990, Gaussian, Inc.),
 the Gaussian 88(TM) system (copyright 1988, Gaussian, Inc.),
 the Gaussian 86(TM) system (copyright 1986, Carnegie Mellon
 University), and the Gaussian 82(TM) system (copyright 1983,
 Carnegie Mellon University). Gaussian is a federally registered
 trademark of Gaussian, Inc.
  
 This software contains proprietary and confidential information,
 including trade secrets, belonging to Gaussian, Inc.
  
 This software is provided under written license and may be
 used, copied, transmitted, or stored only in accord with that
 written license.
  
 The following legend is applicable only to US Government
 contracts under FAR:
  
                    RESTRICTED RIGHTS LEGEND
  
 Use, reproduction and disclosure by the US Government is
 subject to restrictions as set forth in subparagraphs (a)
 and (c) of the Commercial Computer Software - Restricted
 Rights clause in FAR 52.227-19.
  
 Gaussian, Inc.
 340 Quinnipiac St., Bldg. 40, Wallingford CT 06492
  
  
 ---------------------------------------------------------------
 Warning -- This program may not be used in any manner that
 competes with the business of Gaussian, Inc. or will provide
 assistance to any competitor of Gaussian, Inc.  The licensee
 of this program is prohibited from giving any competitor of
 Gaussian, Inc. access to this program.  By using this program,
 the user acknowledges that Gaussian, Inc. is engaged in the
 business of creating and licensing software in the field of
 computational chemistry and represents and warrants to the
 licensee that it is not a competitor of Gaussian, Inc. and that
 it will not use this program in any manner prohibited above.
 ---------------------------------------------------------------
  

 Cite this work as:
 Gaussian 09, Revision A.01,
 M. J. Frisch, G. W. Trucks, H. B. Schlegel, G. E. Scuseria, 
 M. A. Robb, J. R. Cheeseman, G. Scalmani, V. Barone, B. Mennucci, 
 G. A. Petersson, H. Nakatsuji, M. Caricato, X. Li, H. P. Hratchian, 
 A. F. Izmaylov, J. Bloino, G. Zheng, J. L. Sonnenberg, M. Hada, 
 M. Ehara, K. Toyota, R. Fukuda, J. Hasegawa, M. Ishida, T. Nakajima, 
 Y. Honda, O. Kitao, H. Nakai, T. Vreven, J. A. Montgomery, Jr., 
 J. E. Peralta, F. Ogliaro, M. Bearpark, J. J. Heyd, E. Brothers, 
 K. N. Kudin, V. N. Staroverov, R. Kobayashi, J. Normand, 
 K. Raghavachari, A. Rendell, J. C. Burant, S. S. Iyengar, J. Tomasi, 
 M. Cossi, N. Rega, J. M. Millam, M. Klene, J. E. Knox, J. B. Cross, 
 V. Bakken, C. Adamo, J. Jaramillo, R. Gomperts, R. E. Stratmann, 
 O. Yazyev, A. J. Austin, R. Cammi, C. Pomelli, J. W. Ochterski, 
 R. L. Martin, K. Morokuma, V. G. Zakrzewski, G. A. Voth, 
 P. Salvador, J. J. Dannenberg, S. Dapprich, A. D. Daniels, 
 O. Farkas, J. B. Foresman, J. V. Ortiz, J. Cioslowski, 
 and D. J. Fox, Gaussian, Inc., Wallingford CT, 2009.
 
 ******************************************
 Gaussian 09:  EM64L-G09RevA.01  8-May-2009
                 4-Oct-2015 
 ******************************************
 %mem=6GB
 %nprocshared=4
 Will use up to    4 processors via shared memory.
 ----------------------------------------------
 #p B3LYP/6-31G(d) opt=tight int=ultrafine freq
 ----------------------------------------------
 1/7=10,14=-1,18=20,19=15,26=3,38=1/1,3;
 2/9=110,12=2,17=6,18=5,40=1/2;
 3/5=1,6=6,7=1,11=2,16=1,25=1,30=1,71=1,74=-5,75=-5/1,2,3;
 4//1;
 5/5=2,38=5/2;
 6/7=2,8=2,9=2,10=2,28=1/1;
 7//1,2,3,16;
 1/7=10,14=-1,18=20,19=15/3(2);
 2/9=110/2;
 99//99;
 2/9=110/2;
 3/5=1,6=6,7=1,11=2,16=1,25=1,30=1,71=1,74=-5,75=-5/1,2,3;
 4/5=5,16=3/1;
 5/5=2,38=5/2;
 7//1,2,3,16;
 1/7=10,14=-1,18=20,19=15/3(-5);
 2/9=110/2;
 6/7=2,8=2,9=2,10=2,19=2,28=1/1;
 99/9=1/99;
 Leave Link    1 at Sun Oct  4 11:28:17 2015, MaxMem=  805306368 cpu:       0.1
 (Enter /share/apps/g09/l101.exe)
 ---------------------------------------------
 using B3LYP/6-31G(d) to do opt and freq calc.
 ---------------------------------------------
 Symbolic Z-matrix:
 Charge =  0 Multiplicity = 1
 C                     2.15875  -1.03811   0.03363 
 H                     1.92597  -2.02968  -0.37291 
 H                     2.24953  -1.13862   1.12325 
 H                     3.1397   -0.73793  -0.35386 
 C                     1.0752   -0.01314  -0.334 
 H                     1.028     0.04503  -1.43292 
 C                    -0.3052   -0.48304   0.16656 
 H                    -0.29406  -0.51557   1.26738 
 H                    -0.46055  -1.52087  -0.16383 
 C                    -1.49869   0.36007  -0.3032 
 H                    -1.48228   0.42945  -1.40058 
 H                    -1.40231   1.38821   0.06899 
 C                    -2.8461   -0.2126    0.15014 
 H                    -2.90504  -0.2685    1.24422 
 H                    -3.68165   0.40623  -0.19671 
 H                    -2.99801  -1.22671  -0.23995 
 C                     1.45192   1.3795    0.19519 
 H                     0.73886   2.14849  -0.12063 
 H                     1.4838    1.38357   1.29304 
 H                     2.44272   1.68089  -0.16536 
 
 NAtoms=     20 NQM=     20 NQMF=      0 NMic=      0 NMicF=      0 NTot=     20.
                    Isotopes and Nuclear Properties:
 (Nuclear quadrupole moments (NQMom) in fm**2, nuclear magnetic moments (NMagM)
  in nuclear magnetons)

  Atom         1           2           3           4           5           6           7           8           9          10
 IAtWgt=          12           1           1           1          12           1          12           1           1          12
 AtmWgt=  12.0000000   1.0078250   1.0078250   1.0078250  12.0000000   1.0078250  12.0000000   1.0078250   1.0078250  12.0000000
 NucSpn=           0           1           1           1           0           1           0           1           1           0
 AtZEff=   0.0000000   0.0000000   0.0000000   0.0000000   0.0000000   0.0000000   0.0000000   0.0000000   0.0000000   0.0000000
 NQMom=    0.0000000   0.0000000   0.0000000   0.0000000   0.0000000   0.0000000   0.0000000   0.0000000   0.0000000   0.0000000
 NMagM=    0.0000000   2.7928460   2.7928460   2.7928460   0.0000000   2.7928460   0.0000000   2.7928460   2.7928460   0.0000000

  Atom        11          12          13          14          15          16          17          18          19          20
 IAtWgt=           1           1          12           1           1           1          12           1           1           1
 AtmWgt=   1.0078250   1.0078250  12.0000000   1.0078250   1.0078250   1.0078250  12.0000000   1.0078250   1.0078250   1.0078250
 NucSpn=           1           1           0           1           1           1           0           1           1           1
 AtZEff=   0.0000000   0.0000000   0.0000000   0.0000000   0.0000000   0.0000000   0.0000000   0.0000000   0.0000000   0.0000000
 NQMom=    0.0000000   0.0000000   0.0000000   0.0000000   0.0000000   0.0000000   0.0000000   0.0000000   0.0000000   0.0000000
 NMagM=    2.7928460   2.7928460   0.0000000   2.7928460   2.7928460   2.7928460   0.0000000   2.7928460   2.7928460   2.7928460
 Leave Link  101 at Sun Oct  4 11:28:18 2015, MaxMem=  805306368 cpu:       0.3
 (Enter /share/apps/g09/l103.exe)

 GradGradGradGradGradGradGradGradGradGradGradGradGradGradGradGradGradGrad
 Berny optimization.
 Initialization pass.
                           ----------------------------
                           !    Initial Parameters    !
                           ! (Angstroms and Degrees)  !
 --------------------------                            --------------------------
 ! Name  Definition              Value          Derivative Info.                !
 --------------------------------------------------------------------------------
 ! R1    R(1,2)                  1.0967         estimate D2E/DX2                !
 ! R2    R(1,3)                  1.098          estimate D2E/DX2                !
 ! R3    R(1,4)                  1.0966         estimate D2E/DX2                !
 ! R4    R(1,5)                  1.5362         estimate D2E/DX2                !
 ! R5    R(5,6)                  1.1015         estimate D2E/DX2                !
 ! R6    R(5,7)                  1.5417         estimate D2E/DX2                !
 ! R7    R(5,17)                 1.5367         estimate D2E/DX2                !
 ! R8    R(7,8)                  1.1014         estimate D2E/DX2                !
 ! R9    R(7,9)                  1.1002         estimate D2E/DX2                !
 ! R10   R(7,10)                 1.5349         estimate D2E/DX2                !
 ! R11   R(10,11)                1.0997         estimate D2E/DX2                !
 ! R12   R(10,12)                1.0977         estimate D2E/DX2                !
 ! R13   R(10,13)                1.5326         estimate D2E/DX2                !
 ! R14   R(13,14)                1.0971         estimate D2E/DX2                !
 ! R15   R(13,15)                1.0961         estimate D2E/DX2                !
 ! R16   R(13,16)                1.0971         estimate D2E/DX2                !
 ! R17   R(17,18)                1.0952         estimate D2E/DX2                !
 ! R18   R(17,19)                1.0983         estimate D2E/DX2                !
 ! R19   R(17,20)                1.0966         estimate D2E/DX2                !
 ! A1    A(2,1,3)              107.6171         estimate D2E/DX2                !
 ! A2    A(2,1,4)              107.8423         estimate D2E/DX2                !
 ! A3    A(2,1,5)              111.3983         estimate D2E/DX2                !
 ! A4    A(3,1,4)              107.5632         estimate D2E/DX2                !
 ! A5    A(3,1,5)              110.9089         estimate D2E/DX2                !
 ! A6    A(4,1,5)              111.3316         estimate D2E/DX2                !
 ! A7    A(1,5,6)              107.7119         estimate D2E/DX2                !
 ! A8    A(1,5,7)              110.5176         estimate D2E/DX2                !
 ! A9    A(1,5,17)             110.4475         estimate D2E/DX2                !
 ! A10   A(6,5,7)              107.5569         estimate D2E/DX2                !
 ! A11   A(6,5,17)             107.8314         estimate D2E/DX2                !
 ! A12   A(7,5,17)             112.5759         estimate D2E/DX2                !
 ! A13   A(5,7,8)              108.9335         estimate D2E/DX2                !
 ! A14   A(5,7,9)              108.4479         estimate D2E/DX2                !
 ! A15   A(5,7,10)             115.431          estimate D2E/DX2                !
 ! A16   A(8,7,9)              105.8863         estimate D2E/DX2                !
 ! A17   A(8,7,10)             109.2684         estimate D2E/DX2                !
 ! A18   A(9,7,10)             108.4486         estimate D2E/DX2                !
 ! A19   A(7,10,11)            109.1759         estimate D2E/DX2                !
 ! A20   A(7,10,12)            110.0262         estimate D2E/DX2                !
 ! A21   A(7,10,13)            112.8193         estimate D2E/DX2                !
 ! A22   A(11,10,12)           106.1378         estimate D2E/DX2                !
 ! A23   A(11,10,13)           109.3814         estimate D2E/DX2                !
 ! A24   A(12,10,13)           109.0792         estimate D2E/DX2                !
 ! A25   A(10,13,14)           111.1767         estimate D2E/DX2                !
 ! A26   A(10,13,15)           111.446          estimate D2E/DX2                !
 ! A27   A(10,13,16)           111.2191         estimate D2E/DX2                !
 ! A28   A(14,13,15)           107.6609         estimate D2E/DX2                !
 ! A29   A(14,13,16)           107.4607         estimate D2E/DX2                !
 ! A30   A(15,13,16)           107.6861         estimate D2E/DX2                !
 ! A31   A(5,17,18)            112.1724         estimate D2E/DX2                !
 ! A32   A(5,17,19)            110.7748         estimate D2E/DX2                !
 ! A33   A(5,17,20)            110.9377         estimate D2E/DX2                !
 ! A34   A(18,17,19)           107.7297         estimate D2E/DX2                !
 ! A35   A(18,17,20)           107.4856         estimate D2E/DX2                !
 ! A36   A(19,17,20)           107.5425         estimate D2E/DX2                !
 ! D1    D(2,1,5,6)            -60.0954         estimate D2E/DX2                !
 ! D2    D(2,1,5,7)             57.1389         estimate D2E/DX2                !
 ! D3    D(2,1,5,17)          -177.621          estimate D2E/DX2                !
 ! D4    D(3,1,5,6)           -179.9422         estimate D2E/DX2                !
 ! D5    D(3,1,5,7)            -62.7079         estimate D2E/DX2                !
 ! D6    D(3,1,5,17)            62.5322         estimate D2E/DX2                !
 ! D7    D(4,1,5,6)             60.3233         estimate D2E/DX2                !
 ! D8    D(4,1,5,7)            177.5577         estimate D2E/DX2                !
 ! D9    D(4,1,5,17)           -57.2023         estimate D2E/DX2                !
 ! D10   D(1,5,7,8)             64.6161         estimate D2E/DX2                !
 ! D11   D(1,5,7,9)            -50.1864         estimate D2E/DX2                !
 ! D12   D(1,5,7,10)          -172.0573         estimate D2E/DX2                !
 ! D13   D(6,5,7,8)           -178.0541         estimate D2E/DX2                !
 ! D14   D(6,5,7,9)             67.1435         estimate D2E/DX2                !
 ! D15   D(6,5,7,10)           -54.7275         estimate D2E/DX2                !
 ! D16   D(17,5,7,8)           -59.4093         estimate D2E/DX2                !
 ! D17   D(17,5,7,9)          -174.2118         estimate D2E/DX2                !
 ! D18   D(17,5,7,10)           63.9173         estimate D2E/DX2                !
 ! D19   D(1,5,17,18)          175.3693         estimate D2E/DX2                !
 ! D20   D(1,5,17,19)          -64.2122         estimate D2E/DX2                !
 ! D21   D(1,5,17,20)           55.149          estimate D2E/DX2                !
 ! D22   D(6,5,17,18)           57.9173         estimate D2E/DX2                !
 ! D23   D(6,5,17,19)          178.3358         estimate D2E/DX2                !
 ! D24   D(6,5,17,20)          -62.3029         estimate D2E/DX2                !
 ! D25   D(7,5,17,18)          -60.5665         estimate D2E/DX2                !
 ! D26   D(7,5,17,19)           59.852          estimate D2E/DX2                !
 ! D27   D(7,5,17,20)          179.2132         estimate D2E/DX2                !
 ! D28   D(5,7,10,11)           54.31           estimate D2E/DX2                !
 ! D29   D(5,7,10,12)          -61.7921         estimate D2E/DX2                !
 ! D30   D(5,7,10,13)          176.1474         estimate D2E/DX2                !
 ! D31   D(8,7,10,11)          177.4596         estimate D2E/DX2                !
 ! D32   D(8,7,10,12)           61.3575         estimate D2E/DX2                !
 ! D33   D(8,7,10,13)          -60.703          estimate D2E/DX2                !
 ! D34   D(9,7,10,11)          -67.5605         estimate D2E/DX2                !
 ! D35   D(9,7,10,12)          176.3374         estimate D2E/DX2                !
 ! D36   D(9,7,10,13)           54.2768         estimate D2E/DX2                !
 ! D37   D(7,10,13,14)          59.8625         estimate D2E/DX2                !
 ! D38   D(7,10,13,15)         179.9776         estimate D2E/DX2                !
 ! D39   D(7,10,13,16)         -59.8466         estimate D2E/DX2                !
 ! D40   D(11,10,13,14)       -178.4161         estimate D2E/DX2                !
 ! D41   D(11,10,13,15)        -58.3011         estimate D2E/DX2                !
 ! D42   D(11,10,13,16)         61.8747         estimate D2E/DX2                !
 ! D43   D(12,10,13,14)        -62.7295         estimate D2E/DX2                !
 ! D44   D(12,10,13,15)         57.3855         estimate D2E/DX2                !
 ! D45   D(12,10,13,16)        177.5614         estimate D2E/DX2                !
 --------------------------------------------------------------------------------
 Trust Radius=3.00D-01 FncErr=1.00D-07 GrdErr=1.00D-06
 Number of steps in this run= 110 maximum allowed number of steps= 120.
 GradGradGradGradGradGradGradGradGradGradGradGradGradGradGradGradGradGrad

 Leave Link  103 at Sun Oct  4 11:28:18 2015, MaxMem=  805306368 cpu:       0.0
 (Enter /share/apps/g09/l202.exe)
                          Input orientation:                          
 ---------------------------------------------------------------------
 Center     Atomic      Atomic             Coordinates (Angstroms)
 Number     Number       Type             X           Y           Z
 ---------------------------------------------------------------------
      1          6           0        2.158750   -1.038112    0.033626
      2          1           0        1.925968   -2.029678   -0.372908
      3          1           0        2.249530   -1.138623    1.123250
      4          1           0        3.139701   -0.737929   -0.353862
      5          6           0        1.075202   -0.013143   -0.334002
      6          1           0        1.027996    0.045029   -1.432917
      7          6           0       -0.305200   -0.483037    0.166563
      8          1           0       -0.294062   -0.515567    1.267382
      9          1           0       -0.460551   -1.520871   -0.163831
     10          6           0       -1.498686    0.360065   -0.303201
     11          1           0       -1.482283    0.429447   -1.400579
     12          1           0       -1.402309    1.388214    0.068987
     13          6           0       -2.846099   -0.212601    0.150138
     14          1           0       -2.905038   -0.268497    1.244221
     15          1           0       -3.681654    0.406232   -0.196708
     16          1           0       -2.998009   -1.226709   -0.239953
     17          6           0        1.451923    1.379497    0.195189
     18          1           0        0.738857    2.148486   -0.120630
     19          1           0        1.483798    1.383566    1.293035
     20          1           0        2.442719    1.680887   -0.165363
 ---------------------------------------------------------------------
                    Distance matrix (angstroms):
                    1          2          3          4          5
     1  C    0.000000
     2  H    1.096659   0.000000
     3  H    1.098009   1.771203   0.000000
     4  H    1.096595   1.772604   1.770542   0.000000
     5  C    1.536160   2.189002   2.183881   2.188119   0.000000
     6  H    2.145355   2.496874   3.070369   2.497335   1.101466
     7  C    2.529196   2.767894   2.805653   3.493301   1.541712
     8  H    2.794905   3.148272   2.622753   3.803762   2.166044
     9  H    2.670727   2.449096   3.024439   3.689299   2.158875
    10  C    3.930037   4.176600   4.281349   4.766843   2.600987
    11  H    4.179449   4.326613   4.770219   4.880688   2.806101
    12  H    4.309228   4.791105   4.564242   5.032806   2.874763
    13  C    5.073811   5.133027   5.269715   6.029908   3.956106
    14  H    5.263060   5.390314   5.228893   6.270016   4.289324
    15  H    6.020756   6.116382   6.269594   6.918431   4.777280
    16  H    5.167454   4.990790   5.422430   6.158195   4.251192
    17  C    2.523993   3.488542   2.799715   2.762887   1.536687
    18  H    3.492033   4.350854   3.825501   3.761627   2.198021
    19  H    2.811796   3.823757   2.641327   3.155159   2.182887
    20  H    2.741020   3.752119   3.106040   2.524279   2.183639
                    6          7          8          9         10
     6  H    0.000000
     7  C    2.148162   0.000000
     8  H    3.058385   1.101356   0.000000
     9  H    2.505672   1.100179   1.756908   0.000000
    10  C    2.785611   1.534897   2.164389   2.152921   0.000000
    11  H    2.539749   2.161963   3.069680   2.525316   1.099692
    12  H    3.156936   2.171347   2.507737   3.066576   1.097681
    13  C    4.192976   2.555303   2.802305   2.738793   1.532640
    14  H    4.768031   2.822505   2.622742   3.086514   2.183445
    15  H    4.882569   3.510443   3.803821   3.753706   2.186052
    16  H    4.387391   2.823034   3.176336   2.555586   2.183992
    17  C    2.147382   2.560729   2.790937   3.492648   3.161286
    18  H    2.496043   2.845602   3.176583   3.860651   2.870258
    19  H    3.070871   2.820223   2.601567   3.786648   3.534223
    20  H    2.506824   3.513375   3.790401   4.322064   4.159116
                   11         12         13         14         15
    11  H    0.000000
    12  H    1.756489   0.000000
    13  C    2.162624   2.157249   0.000000
    14  H    3.083233   2.526670   1.097094   0.000000
    15  H    2.507404   2.496056   1.096088   1.770499   0.000000
    16  H    2.527317   3.078884   1.097116   1.769064   1.770801
    17  C    3.472555   2.857034   4.583645   4.774878   5.239699
    18  H    3.086556   2.280035   4.301158   4.580676   4.752068
    19  H    4.118681   3.134953   4.754153   4.689731   5.464102
    20  H    4.300872   3.863265   5.626405   5.863918   6.255691
                   16         17         18         19         20
    16  H    0.000000
    17  C    5.175283   0.000000
    18  H    5.036899   1.095239   0.000000
    19  H    5.408344   1.098316   1.771578   0.000000
    20  H    6.169376   1.096590   1.767426   1.770552   0.000000
 Stoichiometry    C6H14
 Framework group  C1[X(C6H14)]
 Deg. of freedom    54
 Full point group                 C1      NOp   1
 Largest Abelian subgroup         C1      NOp   1
 Largest concise Abelian subgroup C1      NOp   1
                         Standard orientation:                         
 ---------------------------------------------------------------------
 Center     Atomic      Atomic             Coordinates (Angstroms)
 Number     Number       Type             X           Y           Z
 ---------------------------------------------------------------------
      1          6           0        2.158750   -1.038112    0.033626
      2          1           0        1.925968   -2.029678   -0.372908
      3          1           0        2.249530   -1.138623    1.123250
      4          1           0        3.139701   -0.737929   -0.353862
      5          6           0        1.075202   -0.013143   -0.334002
      6          1           0        1.027996    0.045029   -1.432917
      7          6           0       -0.305200   -0.483037    0.166563
      8          1           0       -0.294062   -0.515567    1.267382
      9          1           0       -0.460551   -1.520871   -0.163831
     10          6           0       -1.498686    0.360065   -0.303201
     11          1           0       -1.482283    0.429447   -1.400579
     12          1           0       -1.402309    1.388214    0.068987
     13          6           0       -2.846099   -0.212601    0.150138
     14          1           0       -2.905038   -0.268497    1.244221
     15          1           0       -3.681654    0.406232   -0.196708
     16          1           0       -2.998009   -1.226709   -0.239953
     17          6           0        1.451923    1.379497    0.195189
     18          1           0        0.738857    2.148486   -0.120630
     19          1           0        1.483798    1.383566    1.293035
     20          1           0        2.442719    1.680887   -0.165363
 ---------------------------------------------------------------------
 Rotational constants (GHZ):      6.5872546      1.6911375      1.4551773
 Leave Link  202 at Sun Oct  4 11:28:19 2015, MaxMem=  805306368 cpu:       0.0
 (Enter /share/apps/g09/l301.exe)
 Standard basis: 6-31G(d) (6D, 7F)
 Ernie: Thresh=  0.10000D-02 Tol=  0.10000D-05 Strict=F.
 There are   118 symmetry adapted basis functions of A   symmetry.
 Integral buffers will be    131072 words long.
 Raffenetti 2 integral format.
 Two-electron integral symmetry is turned on.
   118 basis functions,   224 primitive gaussians,   118 cartesian basis functions
    25 alpha electrons       25 beta electrons
       nuclear repulsion energy       252.5614023132 Hartrees.
 IExCor=  402 DFT=T Ex+Corr=B3LYP ExCW=0 ScaHFX=  0.200000
 ScaDFX=  0.800000  0.720000  1.000000  0.810000 ScalE2=  1.000000  1.000000
 IRadAn=      5 IRanWt=     -1 IRanGd=            0 ICorTp=0
 NAtoms=   20 NActive=   20 NUniq=   20 SFac= 7.50D-01 NAtFMM=   80 NAOKFM=F Big=F
 Leave Link  301 at Sun Oct  4 11:28:20 2015, MaxMem=  805306368 cpu:       0.2
 (Enter /share/apps/g09/l302.exe)
 NPDir=0 NMtPBC=     1 NCelOv=     1 NCel=       1 NClECP=     1 NCelD=      1
         NCelK=      1 NCelE2=     1 NClLst=     1 CellRange=     0.0.
 One-electron integrals computed using PRISM.
 NBasis=   118 RedAO= T  NBF=   118
 NBsUse=   118 1.00D-06 NBFU=   118
 Precomputing XC quadrature grid using
 IXCGrd= 2 IRadAn=           5 IRanWt=          -1 IRanGd=           0 AccXCQ= 1.00D-10.
 NRdTot=    1649 NPtTot=      440934 NUsed=      452750 NTot=      452782
 NSgBfM=   118   118   118   118   118 NAtAll=    20    20.
 Leave Link  302 at Sun Oct  4 11:28:22 2015, MaxMem=  805306368 cpu:       2.3
 (Enter /share/apps/g09/l303.exe)
 DipDrv:  MaxL=1.
 Leave Link  303 at Sun Oct  4 11:28:23 2015, MaxMem=  805306368 cpu:       0.7
 (Enter /share/apps/g09/l401.exe)
 Harris functional with IExCor=  402 diagonalized for initial guess.
 ExpMin= 1.61D-01 ExpMax= 3.05D+03 ExpMxC= 4.57D+02 IAcc=3 IRadAn=         5 AccDes= 0.00D+00
 HarFok:  IExCor=  402 AccDes= 0.00D+00 IRadAn=         5 IDoV= 1
 ScaDFX=  1.000000  1.000000  1.000000  1.000000
 FoFCou: FMM=F IPFlag=           0 FMFlag=      100000 FMFlg1=           0
         NFxFlg=           0 DoJE=T BraDBF=F KetDBF=T FulRan=T
         Omega=  0.000000  0.000000  1.000000  0.000000  0.000000 ICntrl=     500 IOpCl=  0
         NMat0=    1 NMatS0=    1 NMatT0=    0 NMatD0=    1 NMtDS0=    0 NMtDT0=    0
         I1Cent=           4 NGrid=           0.
 Petite list used in FoFCou.
 Harris En= -237.182204253834    
 Initial guess orbital symmetries:
       Occupied  (A) (A) (A) (A) (A) (A) (A) (A) (A) (A) (A) (A)
                 (A) (A) (A) (A) (A) (A) (A) (A) (A) (A) (A) (A)
                 (A)
       Virtual   (A) (A) (A) (A) (A) (A) (A) (A) (A) (A) (A) (A)
                 (A) (A) (A) (A) (A) (A) (A) (A) (A) (A) (A) (A)
                 (A) (A) (A) (A) (A) (A) (A) (A) (A) (A) (A) (A)
                 (A) (A) (A) (A) (A) (A) (A) (A) (A) (A) (A) (A)
                 (A) (A) (A) (A) (A) (A) (A) (A) (A) (A) (A) (A)
                 (A) (A) (A) (A) (A) (A) (A) (A) (A) (A) (A) (A)
                 (A) (A) (A) (A) (A) (A) (A) (A) (A) (A) (A) (A)
                 (A) (A) (A) (A) (A) (A) (A) (A) (A)
 The electronic state of the initial guess is 1-A.
 Leave Link  401 at Sun Oct  4 11:28:27 2015, MaxMem=  805306368 cpu:      12.2
 (Enter /share/apps/g09/l502.exe)
 Closed shell SCF:
 Requested convergence on RMS density matrix=1.00D-08 within 128 cycles.
 Requested convergence on MAX density matrix=1.00D-06.
 Requested convergence on             energy=1.00D-06.
 No special actions if energy rises.
 Using DIIS extrapolation, IDIIS=  1040.
 Integral symmetry usage will be decided dynamically.
       452557 words used for storage of precomputed grid.
 Keep R1 ints in memory in canonical form, NReq=26106612.
 IEnd=      514101 IEndB=      514101 NGot=   805306368 MDV=   780172191
 LenX=   780172191 LenY=   780157826
 Symmetry not used in FoFDir.
 MinBra= 0 MaxBra= 2 Meth= 1.
 IRaf=       0 NMat=   1 IRICut=       1 DoRegI=T DoRafI=F ISym2E= 0 JSym2E=0.
 Integral accuracy reduced to 1.0D-05 until final iterations.

 Cycle   1  Pass 0  IDiag  1:
 E= -236.794201992387    
 DIIS: error= 5.62D-02 at cycle   1 NSaved=   1.
 NSaved= 1 IEnMin= 1 EnMin= -236.794201992387     IErMin= 1 ErrMin= 5.62D-02
 ErrMax= 5.62D-02 EMaxC= 1.00D-01 BMatC= 2.57D-01 BMatP= 2.57D-01
 IDIUse=3 WtCom= 4.38D-01 WtEn= 5.62D-01
 Coeff-Com:  0.100D+01
 Coeff-En:   0.100D+01
 Coeff:      0.100D+01
 Gap=     0.356 Goal=   None    Shift=    0.000
 GapD=    0.356 DampG=1.000 DampE=0.500 DampFc=0.5000 IDamp=-1.
 Damping current iteration by 5.00D-01
 RMSDP=1.01D-02 MaxDP=1.44D-01              OVMax= 1.87D-01

 Cycle   2  Pass 0  IDiag  1:
 E= -236.923169178998     Delta-E=       -0.128967186611 Rises=F Damp=T
 DIIS: error= 9.50D-03 at cycle   2 NSaved=   2.
 NSaved= 2 IEnMin= 2 EnMin= -236.923169178998     IErMin= 2 ErrMin= 9.50D-03
 ErrMax= 9.50D-03 EMaxC= 1.00D-01 BMatC= 9.38D-03 BMatP= 2.57D-01
 IDIUse=3 WtCom= 9.05D-01 WtEn= 9.50D-02
 Coeff-Com:  0.810D-01 0.919D+00
 Coeff-En:   0.132D+00 0.868D+00
 Coeff:      0.858D-01 0.914D+00
 Gap=     0.398 Goal=   None    Shift=    0.000
 RMSDP=1.56D-03 MaxDP=2.30D-02 DE=-1.29D-01 OVMax= 1.01D-01

 Cycle   3  Pass 0  IDiag  1:
 E= -237.083985045981     Delta-E=       -0.160815866983 Rises=F Damp=F
 DIIS: error= 1.79D-03 at cycle   3 NSaved=   3.
 NSaved= 3 IEnMin= 3 EnMin= -237.083985045981     IErMin= 3 ErrMin= 1.79D-03
 ErrMax= 1.79D-03 EMaxC= 1.00D-01 BMatC= 7.67D-04 BMatP= 9.38D-03
 IDIUse=3 WtCom= 9.82D-01 WtEn= 1.79D-02
 Coeff-Com:  0.645D-02 0.159D+00 0.834D+00
 Coeff-En:   0.000D+00 0.000D+00 0.100D+01
 Coeff:      0.633D-02 0.157D+00 0.837D+00
 Gap=     0.390 Goal=   None    Shift=    0.000
 RMSDP=4.44D-04 MaxDP=7.60D-03 DE=-1.61D-01 OVMax= 7.44D-03

 Cycle   4  Pass 0  IDiag  1:
 E= -237.084378282608     Delta-E=       -0.000393236627 Rises=F Damp=F
 DIIS: error= 1.36D-03 at cycle   4 NSaved=   4.
 NSaved= 4 IEnMin= 4 EnMin= -237.084378282608     IErMin= 4 ErrMin= 1.36D-03
 ErrMax= 1.36D-03 EMaxC= 1.00D-01 BMatC= 3.88D-04 BMatP= 7.67D-04
 IDIUse=3 WtCom= 9.86D-01 WtEn= 1.36D-02
 Coeff-Com:  0.719D-04 0.272D-01 0.418D+00 0.554D+00
 Coeff-En:   0.000D+00 0.000D+00 0.316D+00 0.684D+00
 Coeff:      0.709D-04 0.268D-01 0.417D+00 0.556D+00
 Gap=     0.392 Goal=   None    Shift=    0.000
 RMSDP=1.83D-04 MaxDP=3.75D-03 DE=-3.93D-04 OVMax= 4.02D-03

 Cycle   5  Pass 0  IDiag  1:
 E= -237.084745749583     Delta-E=       -0.000367466975 Rises=F Damp=F
 DIIS: error= 2.13D-04 at cycle   5 NSaved=   5.
 NSaved= 5 IEnMin= 5 EnMin= -237.084745749583     IErMin= 5 ErrMin= 2.13D-04
 ErrMax= 2.13D-04 EMaxC= 1.00D-01 BMatC= 1.40D-05 BMatP= 3.88D-04
 IDIUse=3 WtCom= 9.98D-01 WtEn= 2.13D-03
 Coeff-Com:  0.166D-03-0.130D-02 0.107D+00 0.224D+00 0.670D+00
 Coeff-En:   0.000D+00 0.000D+00 0.000D+00 0.000D+00 0.100D+01
 Coeff:      0.166D-03-0.130D-02 0.107D+00 0.224D+00 0.670D+00
 Gap=     0.392 Goal=   None    Shift=    0.000
 RMSDP=3.18D-05 MaxDP=5.88D-04 DE=-3.67D-04 OVMax= 6.75D-04

 Cycle   6  Pass 0  IDiag  1:
 E= -237.084758755240     Delta-E=       -0.000013005657 Rises=F Damp=F
 DIIS: error= 3.14D-05 at cycle   6 NSaved=   6.
 NSaved= 6 IEnMin= 6 EnMin= -237.084758755240     IErMin= 6 ErrMin= 3.14D-05
 ErrMax= 3.14D-05 EMaxC= 1.00D-01 BMatC= 2.71D-07 BMatP= 1.40D-05
 IDIUse=1 WtCom= 1.00D+00 WtEn= 0.00D+00
 Coeff-Com:  0.157D-03-0.113D-02 0.317D-01 0.721D-01 0.253D+00 0.644D+00
 Coeff:      0.157D-03-0.113D-02 0.317D-01 0.721D-01 0.253D+00 0.644D+00
 Gap=     0.392 Goal=   None    Shift=    0.000
 RMSDP=6.45D-06 MaxDP=1.03D-04 DE=-1.30D-05 OVMax= 1.54D-04

 Initial convergence to 1.0D-05 achieved.  Increase integral accuracy.
 Cycle   7  Pass 1  IDiag  1:
 E= -237.084739539314     Delta-E=        0.000019215926 Rises=F Damp=F
 DIIS: error= 6.84D-06 at cycle   1 NSaved=   1.
 NSaved= 1 IEnMin= 1 EnMin= -237.084739539314     IErMin= 1 ErrMin= 6.84D-06
 ErrMax= 6.84D-06 EMaxC= 1.00D-01 BMatC= 1.79D-08 BMatP= 1.79D-08
 IDIUse=1 WtCom= 1.00D+00 WtEn= 0.00D+00
 Coeff-Com:  0.100D+01
 Coeff:      0.100D+01
 Gap=     0.392 Goal=   None    Shift=    0.000
 RMSDP=6.45D-06 MaxDP=1.03D-04 DE= 1.92D-05 OVMax= 5.06D-05

 Cycle   8  Pass 1  IDiag  1:
 E= -237.084739536536     Delta-E=        0.000000002777 Rises=F Damp=F
 DIIS: error= 8.74D-06 at cycle   2 NSaved=   2.
 NSaved= 2 IEnMin= 1 EnMin= -237.084739539314     IErMin= 1 ErrMin= 6.84D-06
 ErrMax= 8.74D-06 EMaxC= 1.00D-01 BMatC= 2.21D-08 BMatP= 1.79D-08
 IDIUse=1 WtCom= 1.00D+00 WtEn= 0.00D+00
 Coeff-Com:  0.528D+00 0.472D+00
 Coeff:      0.528D+00 0.472D+00
 Gap=     0.392 Goal=   None    Shift=    0.000
 RMSDP=1.18D-06 MaxDP=2.94D-05 DE= 2.78D-09 OVMax= 2.92D-05

 Cycle   9  Pass 1  IDiag  1:
 E= -237.084739558090     Delta-E=       -0.000000021554 Rises=F Damp=F
 DIIS: error= 7.77D-07 at cycle   3 NSaved=   3.
 NSaved= 3 IEnMin= 3 EnMin= -237.084739558090     IErMin= 3 ErrMin= 7.77D-07
 ErrMax= 7.77D-07 EMaxC= 1.00D-01 BMatC= 1.30D-10 BMatP= 1.79D-08
 IDIUse=1 WtCom= 1.00D+00 WtEn= 0.00D+00
 Coeff-Com:  0.389D-01 0.838D-01 0.877D+00
 Coeff:      0.389D-01 0.838D-01 0.877D+00
 Gap=     0.392 Goal=   None    Shift=    0.000
 RMSDP=1.46D-07 MaxDP=2.13D-06 DE=-2.16D-08 OVMax= 3.23D-06

 Cycle  10  Pass 1  IDiag  1:
 E= -237.084739558199     Delta-E=       -0.000000000109 Rises=F Damp=F
 DIIS: error= 4.10D-07 at cycle   4 NSaved=   4.
 NSaved= 4 IEnMin= 4 EnMin= -237.084739558199     IErMin= 4 ErrMin= 4.10D-07
 ErrMax= 4.10D-07 EMaxC= 1.00D-01 BMatC= 2.67D-11 BMatP= 1.30D-10
 IDIUse=1 WtCom= 1.00D+00 WtEn= 0.00D+00
 Coeff-Com: -0.902D-02 0.137D-01 0.387D+00 0.608D+00
 Coeff:     -0.902D-02 0.137D-01 0.387D+00 0.608D+00
 Gap=     0.392 Goal=   None    Shift=    0.000
 RMSDP=5.34D-08 MaxDP=1.37D-06 DE=-1.09D-10 OVMax= 1.18D-06

 Cycle  11  Pass 1  IDiag  1:
 E= -237.084739558223     Delta-E=       -0.000000000023 Rises=F Damp=F
 DIIS: error= 1.06D-07 at cycle   5 NSaved=   5.
 NSaved= 5 IEnMin= 5 EnMin= -237.084739558223     IErMin= 5 ErrMin= 1.06D-07
 ErrMax= 1.06D-07 EMaxC= 1.00D-01 BMatC= 2.01D-12 BMatP= 2.67D-11
 IDIUse=1 WtCom= 1.00D+00 WtEn= 0.00D+00
 Coeff-Com: -0.629D-02 0.184D-02 0.133D+00 0.294D+00 0.577D+00
 Coeff:     -0.629D-02 0.184D-02 0.133D+00 0.294D+00 0.577D+00
 Gap=     0.392 Goal=   None    Shift=    0.000
 RMSDP=1.33D-08 MaxDP=3.00D-07 DE=-2.32D-11 OVMax= 2.99D-07

 Cycle  12  Pass 1  IDiag  1:
 E= -237.084739558224     Delta-E=       -0.000000000002 Rises=F Damp=F
 DIIS: error= 1.17D-08 at cycle   6 NSaved=   6.
 NSaved= 6 IEnMin= 6 EnMin= -237.084739558224     IErMin= 6 ErrMin= 1.17D-08
 ErrMax= 1.17D-08 EMaxC= 1.00D-01 BMatC= 2.58D-14 BMatP= 2.01D-12
 IDIUse=1 WtCom= 1.00D+00 WtEn= 0.00D+00
 Coeff-Com: -0.163D-02 0.445D-04 0.269D-01 0.674D-01 0.172D+00 0.736D+00
 Coeff:     -0.163D-02 0.445D-04 0.269D-01 0.674D-01 0.172D+00 0.736D+00
 Gap=     0.392 Goal=   None    Shift=    0.000
 RMSDP=2.28D-09 MaxDP=3.05D-08 DE=-1.76D-12 OVMax= 4.32D-08

 SCF Done:  E(RB3LYP) =  -237.084739558     A.U. after   12 cycles
             Convg  =    0.2282D-08             -V/T =  2.0105
 KE= 2.346283496562D+02 PE=-1.052042186583D+03 EE= 3.277676950556D+02
 Leave Link  502 at Sun Oct  4 11:29:06 2015, MaxMem=  805306368 cpu:     133.3
 (Enter /share/apps/g09/l601.exe)
 Copying SCF densities to generalized density rwf, IOpCl= 0 IROHF=0.

 **********************************************************************

            Population analysis using the SCF density.

 **********************************************************************

 Orbital symmetries:
       Occupied  (A) (A) (A) (A) (A) (A) (A) (A) (A) (A) (A) (A)
                 (A) (A) (A) (A) (A) (A) (A) (A) (A) (A) (A) (A)
                 (A)
       Virtual   (A) (A) (A) (A) (A) (A) (A) (A) (A) (A) (A) (A)
                 (A) (A) (A) (A) (A) (A) (A) (A) (A) (A) (A) (A)
                 (A) (A) (A) (A) (A) (A) (A) (A) (A) (A) (A) (A)
                 (A) (A) (A) (A) (A) (A) (A) (A) (A) (A) (A) (A)
                 (A) (A) (A) (A) (A) (A) (A) (A) (A) (A) (A) (A)
                 (A) (A) (A) (A) (A) (A) (A) (A) (A) (A) (A) (A)
                 (A) (A) (A) (A) (A) (A) (A) (A) (A) (A) (A) (A)
                 (A) (A) (A) (A) (A) (A) (A) (A) (A)
 The electronic state is 1-A.
 Alpha  occ. eigenvalues --  -10.18307 -10.17578 -10.17246 -10.17016 -10.16811
 Alpha  occ. eigenvalues --  -10.16809  -0.80550  -0.75519  -0.67622  -0.66929
 Alpha  occ. eigenvalues --   -0.58797  -0.55160  -0.46603  -0.43951  -0.43382
 Alpha  occ. eigenvalues --   -0.41203  -0.39199  -0.37764  -0.37399  -0.35934
 Alpha  occ. eigenvalues --   -0.34333  -0.32924  -0.31444  -0.31138  -0.30444
 Alpha virt. eigenvalues --    0.08741   0.11080   0.12372   0.13037   0.14993
 Alpha virt. eigenvalues --    0.15867   0.16476   0.16979   0.17941   0.18663
 Alpha virt. eigenvalues --    0.19453   0.19901   0.21725   0.22058   0.23744
 Alpha virt. eigenvalues --    0.25188   0.26764   0.27448   0.28684   0.49573
 Alpha virt. eigenvalues --    0.51293   0.52154   0.52451   0.53659   0.56104
 Alpha virt. eigenvalues --    0.58361   0.63041   0.65727   0.67818   0.69169
 Alpha virt. eigenvalues --    0.71864   0.72985   0.74488   0.80750   0.81560
 Alpha virt. eigenvalues --    0.85669   0.86924   0.88636   0.89956   0.90312
 Alpha virt. eigenvalues --    0.90746   0.91673   0.92243   0.94286   0.95319
 Alpha virt. eigenvalues --    0.96873   0.97031   0.97270   0.99829   1.01125
 Alpha virt. eigenvalues --    1.03444   1.10313   1.27655   1.40884   1.43315
 Alpha virt. eigenvalues --    1.44487   1.46322   1.54726   1.61240   1.69317
 Alpha virt. eigenvalues --    1.73433   1.79061   1.83987   1.84506   1.91005
 Alpha virt. eigenvalues --    1.93411   1.96620   1.98392   2.00318   2.02058
 Alpha virt. eigenvalues --    2.04078   2.10145   2.13971   2.21125   2.24158
 Alpha virt. eigenvalues --    2.24921   2.26297   2.33369   2.35731   2.37878
 Alpha virt. eigenvalues --    2.44824   2.51804   2.53294   2.59275   2.68787
 Alpha virt. eigenvalues --    2.76859   2.80165   4.12372   4.21507   4.29134
 Alpha virt. eigenvalues --    4.33821   4.46886   4.59381
          Condensed to atoms (all electrons):
              1          2          3          4          5          6
     1  C    5.110828   0.369588   0.371729   0.367907   0.378432  -0.046108
     2  H    0.369588   0.581150  -0.031671  -0.030314  -0.029790  -0.003338
     3  H    0.371729  -0.031671   0.584713  -0.032059  -0.033990   0.005884
     4  H    0.367907  -0.030314  -0.032059   0.583120  -0.028374  -0.003426
     5  C    0.378432  -0.029790  -0.033990  -0.028374   4.835301   0.378600
     6  H   -0.046108  -0.003338   0.005884  -0.003426   0.378600   0.644441
     7  C   -0.046644  -0.004296  -0.006006   0.004711   0.390305  -0.048835
     8  H   -0.003941  -0.000270   0.004836  -0.000087  -0.037628   0.006606
     9  H   -0.004859   0.005362  -0.000290   0.000029  -0.037504  -0.003557
    10  C    0.004018   0.000006   0.000016  -0.000140  -0.032845  -0.005548
    11  H    0.000073  -0.000004   0.000009   0.000000  -0.003605   0.006208
    12  H    0.000014   0.000001   0.000002   0.000003  -0.004660  -0.000272
    13  C   -0.000134  -0.000003   0.000000   0.000002   0.003572   0.000029
    14  H    0.000001   0.000000  -0.000001   0.000000   0.000058   0.000009
    15  H    0.000002   0.000000   0.000000   0.000000  -0.000125   0.000000
    16  H   -0.000005   0.000000   0.000000   0.000000  -0.000018   0.000002
    17  C   -0.054431   0.005298  -0.005534  -0.003679   0.380996  -0.048673
    18  H    0.005124  -0.000185  -0.000038  -0.000045  -0.028852  -0.003416
    19  H   -0.005184  -0.000049   0.004872  -0.000224  -0.034873   0.005947
    20  H   -0.004510  -0.000016  -0.000223   0.004377  -0.029958  -0.003170
              7          8          9         10         11         12
     1  C   -0.046644  -0.003941  -0.004859   0.004018   0.000073   0.000014
     2  H   -0.004296  -0.000270   0.005362   0.000006  -0.000004   0.000001
     3  H   -0.006006   0.004836  -0.000290   0.000016   0.000009   0.000002
     4  H    0.004711  -0.000087   0.000029  -0.000140   0.000000   0.000003
     5  C    0.390305  -0.037628  -0.037504  -0.032845  -0.003605  -0.004660
     6  H   -0.048835   0.006606  -0.003557  -0.005548   0.006208  -0.000272
     7  C    5.008641   0.364767   0.369067   0.386884  -0.041820  -0.037848
     8  H    0.364767   0.624728  -0.039701  -0.040518   0.006070  -0.005701
     9  H    0.369067  -0.039701   0.622488  -0.042114  -0.004922   0.005898
    10  C    0.386884  -0.040518  -0.042114   4.959457   0.376305   0.376793
    11  H   -0.041820   0.006070  -0.004922   0.376305   0.614113  -0.040378
    12  H   -0.037848  -0.005701   0.005898   0.376793  -0.040378   0.605805
    13  C   -0.041781  -0.002851  -0.003841   0.370598  -0.038744  -0.038308
    14  H   -0.004292   0.004692  -0.000400  -0.034887   0.005277  -0.004521
    15  H    0.004068  -0.000048   0.000009  -0.027667  -0.002680  -0.002536
    16  H   -0.004657  -0.000378   0.005434  -0.034717  -0.004561   0.005194
    17  C   -0.048045  -0.008248   0.005680  -0.004310  -0.000691   0.002448
    18  H   -0.004600  -0.000021  -0.000044   0.001948   0.000453   0.003131
    19  H   -0.005931   0.005748  -0.000008  -0.000362   0.000079   0.000308
    20  H    0.004898  -0.000037  -0.000170   0.000107  -0.000030  -0.000091
             13         14         15         16         17         18
     1  C   -0.000134   0.000001   0.000002  -0.000005  -0.054431   0.005124
     2  H   -0.000003   0.000000   0.000000   0.000000   0.005298  -0.000185
     3  H    0.000000  -0.000001   0.000000   0.000000  -0.005534  -0.000038
     4  H    0.000002   0.000000   0.000000   0.000000  -0.003679  -0.000045
     5  C    0.003572   0.000058  -0.000125  -0.000018   0.380996  -0.028852
     6  H    0.000029   0.000009   0.000000   0.000002  -0.048673  -0.003416
     7  C   -0.041781  -0.004292   0.004068  -0.004657  -0.048045  -0.004600
     8  H   -0.002851   0.004692  -0.000048  -0.000378  -0.008248  -0.000021
     9  H   -0.003841  -0.000400   0.000009   0.005434   0.005680  -0.000044
    10  C    0.370598  -0.034887  -0.027667  -0.034717  -0.004310   0.001948
    11  H   -0.038744   0.005277  -0.002680  -0.004561  -0.000691   0.000453
    12  H   -0.038308  -0.004521  -0.002536   0.005194   0.002448   0.003131
    13  C    5.067167   0.377403   0.371478   0.377162   0.000146  -0.000095
    14  H    0.377403   0.579791  -0.031420  -0.032924  -0.000012   0.000008
    15  H    0.371478  -0.031420   0.579534  -0.031380   0.000004   0.000005
    16  H    0.377162  -0.032924  -0.031380   0.580051   0.000001   0.000001
    17  C    0.000146  -0.000012   0.000004   0.000001   5.111831   0.370409
    18  H   -0.000095   0.000008   0.000005   0.000001   0.370409   0.574249
    19  H   -0.000027   0.000001   0.000000   0.000000   0.371263  -0.031808
    20  H    0.000000   0.000000   0.000000   0.000000   0.370006  -0.030442
             19         20
     1  C   -0.005184  -0.004510
     2  H   -0.000049  -0.000016
     3  H    0.004872  -0.000223
     4  H   -0.000224   0.004377
     5  C   -0.034873  -0.029958
     6  H    0.005947  -0.003170
     7  C   -0.005931   0.004898
     8  H    0.005748  -0.000037
     9  H   -0.000008  -0.000170
    10  C   -0.000362   0.000107
    11  H    0.000079  -0.000030
    12  H    0.000308  -0.000091
    13  C   -0.000027   0.000000
    14  H    0.000001   0.000000
    15  H    0.000000   0.000000
    16  H    0.000000   0.000000
    17  C    0.371263   0.370006
    18  H   -0.031808  -0.030442
    19  H    0.585208  -0.031874
    20  H   -0.031874   0.582335
 Mulliken atomic charges:
              1
     1  C   -0.441900
     2  H    0.138533
     3  H    0.137751
     4  H    0.138200
     5  C   -0.065041
     6  H    0.118616
     7  C   -0.238586
     8  H    0.121981
     9  H    0.123443
    10  C   -0.253024
    11  H    0.128847
    12  H    0.134716
    13  C   -0.441772
    14  H    0.141216
    15  H    0.140757
    16  H    0.140794
    17  C   -0.444461
    18  H    0.144218
    19  H    0.136915
    20  H    0.138798
 Sum of Mulliken atomic charges =   0.00000
 Mulliken charges with hydrogens summed into heavy atoms:
              1
     1  C   -0.027416
     5  C    0.053575
     7  C    0.006838
    10  C    0.010539
    13  C   -0.019004
    17  C   -0.024531
 Sum of Mulliken charges with hydrogens summed into heavy atoms =   0.00000
 Electronic spatial extent (au):  <R**2>=            908.5732
 Charge=              0.0000 electrons
 Dipole moment (field-independent basis, Debye):
    X=             -0.0157    Y=              0.0332    Z=             -0.0785  Tot=              0.0866
 Quadrupole moment (field-independent basis, Debye-Ang):
   XX=            -42.1048   YY=            -41.7332   ZZ=            -41.1461
   XY=             -0.0404   XZ=             -0.0416   YZ=              0.1561
 Traceless Quadrupole moment (field-independent basis, Debye-Ang):
   XX=             -0.4435   YY=             -0.0718   ZZ=              0.5153
   XY=             -0.0404   XZ=             -0.0416   YZ=              0.1561
 Octapole moment (field-independent basis, Debye-Ang**2):
  XXX=              1.6541  YYY=             -0.7579  ZZZ=              0.8670  XYY=             -1.5389
  XXY=              1.9079  XXZ=             -1.5422  XZZ=             -0.0314  YZZ=             -0.1044
  YYZ=             -1.1235  XYZ=             -0.3622
 Hexadecapole moment (field-independent basis, Debye-Ang**3):
 XXXX=           -914.2661 YYYY=           -249.7045 ZZZZ=            -96.9892 XXXY=              0.0796
 XXXZ=             -0.9937 YYYX=             -0.8434 YYYZ=              1.4511 ZZZX=              0.3744
 ZZZY=             -0.2542 XXYY=           -195.5406 XXZZ=           -168.0348 YYZZ=            -59.5493
 XXYZ=             -0.6027 YYXZ=             -0.2230 ZZXY=             -0.1403
 N-N= 2.525614023132D+02 E-N=-1.052042187793D+03  KE= 2.346283496562D+02
 No NMR shielding tensors so no spin-rotation constants.
 Leave Link  601 at Sun Oct  4 11:29:06 2015, MaxMem=  805306368 cpu:       0.8
 (Enter /share/apps/g09/l701.exe)
 Compute integral first derivatives.
 ... and contract with generalized density number  0.
 Leave Link  701 at Sun Oct  4 11:29:06 2015, MaxMem=  805306368 cpu:       0.8
 (Enter /share/apps/g09/l702.exe)
 L702 exits ... SP integral derivatives will be done elsewhere.
 Leave Link  702 at Sun Oct  4 11:29:06 2015, MaxMem=  805306368 cpu:       0.1
 (Enter /share/apps/g09/l703.exe)
 Compute integral first derivatives, UseDBF=F ICtDFT=           0.
 Integral derivatives from FoFDir, PRISM(SPDF).
 Calling FoFJK, ICntrl=      2127 FMM=F ISym2X=0 I1Cent= 0 IOpClX= 0 NMat=1 NMatS=1 NMatT=0.
 FoFCou: FMM=F IPFlag=           0 FMFlag=      100000 FMFlg1=         800
         NFxFlg=           0 DoJE=F BraDBF=F KetDBF=F FulRan=T
         Omega=  0.000000  0.000000  1.000000  0.000000  0.000000 ICntrl=    2127 IOpCl=  0
         NMat0=    1 NMatS0=    1 NMatT0=    0 NMatD0=    1 NMtDS0=    0 NMtDT0=    0
         I1Cent=           0 NGrid=           0.
 Symmetry not used in FoFCou.
 Leave Link  703 at Sun Oct  4 11:29:14 2015, MaxMem=  805306368 cpu:      32.1
 (Enter /share/apps/g09/l716.exe)
 Dipole        =-6.18265990D-03 1.30616774D-02-3.08696273D-02
 ***** Axes restored to original set *****
 -------------------------------------------------------------------
 Center     Atomic                   Forces (Hartrees/Bohr)
 Number     Number              X              Y              Z
 -------------------------------------------------------------------
      1        6          -0.000005549   -0.000037745   -0.000016204
      2        1           0.000018041   -0.000002370   -0.000006104
      3        1          -0.000003539   -0.000004161    0.000029796
      4        1          -0.000005313    0.000020202    0.000005498
      5        6           0.000046805    0.000064745    0.000018229
      6        1          -0.000010976   -0.000000063   -0.000003366
      7        6           0.000044473   -0.000024883   -0.000025907
      8        1           0.000001221   -0.000006566    0.000013793
      9        1          -0.000033037   -0.000030242    0.000018583
     10        6           0.000013047    0.000049676   -0.000012663
     11        1           0.000011914    0.000011609    0.000005801
     12        1          -0.000043668   -0.000002120   -0.000003420
     13        6          -0.000035592   -0.000021579   -0.000013732
     14        1           0.000001741    0.000015684    0.000005529
     15        1          -0.000003746    0.000010131    0.000011153
     16        1           0.000031557    0.000015767    0.000007964
     17        6          -0.000006026   -0.000013799   -0.000019248
     18        1          -0.000019932   -0.000022716    0.000008596
     19        1           0.000000701   -0.000007450   -0.000000188
     20        1          -0.000002124   -0.000014119   -0.000024110
 -------------------------------------------------------------------
 Cartesian Forces:  Max     0.000064745 RMS     0.000021361
 Leave Link  716 at Sun Oct  4 11:29:15 2015, MaxMem=  805306368 cpu:       0.1
 (Enter /share/apps/g09/l103.exe)

 GradGradGradGradGradGradGradGradGradGradGradGradGradGradGradGradGradGrad
 Berny optimization.
 Internal  Forces:  Max     0.000068294 RMS     0.000017659
 Search for a local minimum.
 Step number   1 out of a maximum of  110
 All quantities printed in internal units (Hartrees-Bohrs-Radians)
 RMS Force = .17659D-04 SwitMx=.10000D-02 MixMth= 2
 Mixed Optimization -- En-DIIS/RFO-DIIS
 Second derivative matrix not updated -- first step.
     Eigenvalues ---    0.00230   0.00281   0.00288   0.00304   0.00334
     Eigenvalues ---    0.03185   0.03394   0.03462   0.04646   0.04697
     Eigenvalues ---    0.04785   0.04880   0.05334   0.05398   0.05431
     Eigenvalues ---    0.05465   0.05470   0.05488   0.08358   0.08768
     Eigenvalues ---    0.12227   0.12525   0.16000   0.16000   0.16000
     Eigenvalues ---    0.16000   0.16000   0.16000   0.16000   0.16000
     Eigenvalues ---    0.16000   0.16668   0.17068   0.21893   0.21945
     Eigenvalues ---    0.28368   0.28814   0.28862   0.28976   0.29181
     Eigenvalues ---    0.33521   0.33533   0.33662   0.33716   0.33869
     Eigenvalues ---    0.33903   0.33940   0.34003   0.34006   0.34054
     Eigenvalues ---    0.34061   0.34062   0.34118   0.342141000.00000
     Eigenvalues --- 1000.000001000.000001000.000001000.000001000.00000
     Eigenvalues --- 1000.000001000.000001000.000001000.000001000.00000
     Eigenvalues --- 1000.000001000.000001000.000001000.000001000.00000
     Eigenvalues --- 1000.000001000.000001000.000001000.000001000.00000
     Eigenvalues --- 1000.000001000.000001000.000001000.000001000.00000
     Eigenvalues --- 1000.000001000.000001000.000001000.000001000.00000
     Eigenvalues --- 1000.000001000.000001000.000001000.000001000.00000
     Eigenvalues --- 1000.000001000.000001000.000001000.000001000.00000
     Eigenvalues --- 1000.000001000.000001000.000001000.000001000.00000
 RFO step:  Lambda=-7.39393227D-07 EMin= 2.30000000D-03
 Linear search not attempted -- first point.
 Iteration  1 RMS(Cart)=  0.00180498 RMS(Int)=  0.00000176
 Iteration  2 RMS(Cart)=  0.00000216 RMS(Int)=  0.00000001
 Iteration  3 RMS(Cart)=  0.00000000 RMS(Int)=  0.00000001
 Variable       Old X    -DE/DX   Delta X   Delta X   Delta X     New X
                                 (Linear)    (Quad)   (Total)
    R1        2.07238   0.00000   0.00000   0.00000   0.00000   2.07238
    R2        2.07494   0.00003   0.00000   0.00009   0.00009   2.07502
    R3        2.07227   0.00000   0.00000   0.00000   0.00000   2.07226
    R4        2.90292   0.00002   0.00000   0.00007   0.00007   2.90299
    R5        2.08147   0.00000   0.00000   0.00001   0.00001   2.08148
    R6        2.91341   0.00001   0.00000   0.00003   0.00003   2.91344
    R7        2.90392  -0.00007   0.00000  -0.00024  -0.00024   2.90368
    R8        2.08126   0.00001   0.00000   0.00004   0.00004   2.08130
    R9        2.07904   0.00003   0.00000   0.00008   0.00008   2.07912
   R10        2.90053   0.00006   0.00000   0.00021   0.00021   2.90074
   R11        2.07812   0.00000   0.00000  -0.00001  -0.00001   2.07810
   R12        2.07432  -0.00001   0.00000  -0.00002  -0.00002   2.07429
   R13        2.89627   0.00000   0.00000   0.00001   0.00001   2.89627
   R14        2.07321   0.00000   0.00000   0.00001   0.00001   2.07322
   R15        2.07131   0.00000   0.00000   0.00001   0.00001   2.07132
   R16        2.07325  -0.00002   0.00000  -0.00006  -0.00006   2.07319
   R17        2.06970  -0.00001   0.00000  -0.00001  -0.00001   2.06969
   R18        2.07552   0.00000   0.00000   0.00000   0.00000   2.07552
   R19        2.07226   0.00000   0.00000   0.00000   0.00000   2.07226
    A1        1.87827   0.00000   0.00000   0.00006   0.00006   1.87833
    A2        1.88220   0.00000   0.00000   0.00002   0.00002   1.88222
    A3        1.94427   0.00003   0.00000   0.00022   0.00022   1.94449
    A4        1.87733   0.00001   0.00000  -0.00003  -0.00003   1.87730
    A5        1.93573   0.00000   0.00000  -0.00003  -0.00003   1.93570
    A6        1.94310  -0.00003   0.00000  -0.00023  -0.00023   1.94287
    A7        1.87993   0.00000   0.00000   0.00017   0.00017   1.88010
    A8        1.92890   0.00003   0.00000   0.00023   0.00023   1.92913
    A9        1.92767   0.00000   0.00000   0.00006   0.00006   1.92773
   A10        1.87722   0.00000   0.00000  -0.00012  -0.00012   1.87710
   A11        1.88201   0.00000   0.00000  -0.00014  -0.00014   1.88187
   A12        1.96482  -0.00003   0.00000  -0.00019  -0.00019   1.96463
   A13        1.90125   0.00001   0.00000   0.00000   0.00000   1.90125
   A14        1.89277   0.00004   0.00000   0.00035   0.00035   1.89312
   A15        2.01465  -0.00005   0.00000  -0.00019  -0.00019   2.01446
   A16        1.84806  -0.00002   0.00000  -0.00014  -0.00014   1.84792
   A17        1.90709   0.00001   0.00000  -0.00006  -0.00006   1.90703
   A18        1.89279   0.00000   0.00000   0.00004   0.00004   1.89282
   A19        1.90548  -0.00001   0.00000  -0.00008  -0.00008   1.90540
   A20        1.92032   0.00004   0.00000   0.00039   0.00039   1.92071
   A21        1.96907  -0.00002   0.00000  -0.00009  -0.00009   1.96898
   A22        1.85245  -0.00001   0.00000  -0.00005  -0.00005   1.85240
   A23        1.90907   0.00002   0.00000   0.00006   0.00006   1.90912
   A24        1.90379  -0.00002   0.00000  -0.00022  -0.00022   1.90357
   A25        1.94040  -0.00001   0.00000  -0.00009  -0.00009   1.94031
   A26        1.94510   0.00001   0.00000   0.00009   0.00009   1.94519
   A27        1.94114  -0.00003   0.00000  -0.00020  -0.00020   1.94094
   A28        1.87904   0.00000   0.00000  -0.00006  -0.00006   1.87898
   A29        1.87554   0.00002   0.00000   0.00006   0.00006   1.87561
   A30        1.87948   0.00002   0.00000   0.00020   0.00020   1.87968
   A31        1.95778  -0.00003   0.00000  -0.00019  -0.00019   1.95759
   A32        1.93339   0.00000   0.00000  -0.00001  -0.00001   1.93338
   A33        1.93623  -0.00002   0.00000  -0.00011  -0.00011   1.93612
   A34        1.88024   0.00001   0.00000   0.00000   0.00000   1.88024
   A35        1.87598   0.00003   0.00000   0.00016   0.00016   1.87614
   A36        1.87697   0.00002   0.00000   0.00017   0.00017   1.87714
    D1       -1.04886   0.00001   0.00000   0.00262   0.00262  -1.04624
    D2        0.99726   0.00002   0.00000   0.00270   0.00270   0.99996
    D3       -3.10007   0.00001   0.00000   0.00266   0.00266  -3.09741
    D4       -3.14058   0.00000   0.00000   0.00242   0.00242  -3.13817
    D5       -1.09446   0.00001   0.00000   0.00250   0.00250  -1.09196
    D6        1.09139  -0.00001   0.00000   0.00246   0.00246   1.09385
    D7        1.05284   0.00001   0.00000   0.00263   0.00263   1.05547
    D8        3.09897   0.00002   0.00000   0.00271   0.00271   3.10168
    D9       -0.99837   0.00001   0.00000   0.00267   0.00267  -0.99570
   D10        1.12776   0.00000   0.00000  -0.00166  -0.00166   1.12611
   D11       -0.87592  -0.00001   0.00000  -0.00168  -0.00168  -0.87760
   D12       -3.00297  -0.00001   0.00000  -0.00187  -0.00187  -3.00484
   D13       -3.10763   0.00001   0.00000  -0.00140  -0.00140  -3.10903
   D14        1.17187   0.00000   0.00000  -0.00142  -0.00142   1.17045
   D15       -0.95517   0.00000   0.00000  -0.00161  -0.00161  -0.95679
   D16       -1.03689  -0.00001   0.00000  -0.00177  -0.00177  -1.03865
   D17       -3.04057  -0.00001   0.00000  -0.00179  -0.00179  -3.04236
   D18        1.11557  -0.00001   0.00000  -0.00198  -0.00198   1.11359
   D19        3.06077   0.00001   0.00000   0.00296   0.00296   3.06373
   D20       -1.12071   0.00000   0.00000   0.00283   0.00283  -1.11788
   D21        0.96253   0.00001   0.00000   0.00296   0.00296   0.96550
   D22        1.01085   0.00000   0.00000   0.00281   0.00281   1.01366
   D23        3.11255   0.00000   0.00000   0.00268   0.00268   3.11522
   D24       -1.08739   0.00000   0.00000   0.00281   0.00281  -1.08458
   D25       -1.05709   0.00002   0.00000   0.00316   0.00316  -1.05392
   D26        1.04461   0.00002   0.00000   0.00303   0.00303   1.04765
   D27        3.12786   0.00002   0.00000   0.00316   0.00316   3.13103
   D28        0.94789   0.00001   0.00000  -0.00142  -0.00142   0.94647
   D29       -1.07847  -0.00001   0.00000  -0.00153  -0.00153  -1.08001
   D30        3.07435   0.00001   0.00000  -0.00147  -0.00147   3.07288
   D31        3.09726   0.00000   0.00000  -0.00160  -0.00160   3.09565
   D32        1.07089  -0.00001   0.00000  -0.00171  -0.00171   1.06918
   D33       -1.05947   0.00000   0.00000  -0.00165  -0.00165  -1.06112
   D34       -1.17915  -0.00001   0.00000  -0.00178  -0.00178  -1.18093
   D35        3.07767  -0.00002   0.00000  -0.00189  -0.00189   3.07578
   D36        0.94731  -0.00001   0.00000  -0.00183  -0.00183   0.94548
   D37        1.04480   0.00001   0.00000   0.00094   0.00094   1.04574
   D38        3.14120   0.00001   0.00000   0.00087   0.00087  -3.14111
   D39       -1.04452   0.00002   0.00000   0.00105   0.00105  -1.04347
   D40       -3.11395   0.00000   0.00000   0.00081   0.00081  -3.11313
   D41       -1.01755   0.00000   0.00000   0.00075   0.00075  -1.01680
   D42        1.07992   0.00001   0.00000   0.00093   0.00093   1.08084
   D43       -1.09484  -0.00001   0.00000   0.00066   0.00066  -1.09418
   D44        1.00157  -0.00001   0.00000   0.00059   0.00059   1.00216
   D45        3.09903   0.00000   0.00000   0.00077   0.00077   3.09980
         Item               Value     Threshold  Converged?
 Maximum Force            0.000068     0.000015     NO 
 RMS     Force            0.000018     0.000010     NO 
 Maximum Displacement     0.007720     0.000060     NO 
 RMS     Displacement     0.001805     0.000040     NO 
 Predicted change in Energy=-3.696913D-07
 GradGradGradGradGradGradGradGradGradGradGradGradGradGradGradGradGradGrad

 Leave Link  103 at Sun Oct  4 11:29:15 2015, MaxMem=  805306368 cpu:       0.1
 (Enter /share/apps/g09/l202.exe)
                          Input orientation:                          
 ---------------------------------------------------------------------
 Center     Atomic      Atomic             Coordinates (Angstroms)
 Number     Number       Type             X           Y           Z
 ---------------------------------------------------------------------
      1          6           0        2.159062   -1.038282    0.034475
      2          1           0        1.928116   -2.029734   -0.373380
      3          1           0        2.248081   -1.139639    1.124213
      4          1           0        3.140339   -0.736608   -0.351022
      5          6           0        1.075230   -0.013895   -0.334093
      6          1           0        1.027943    0.043470   -1.433053
      7          6           0       -0.305217   -0.483403    0.166750
      8          1           0       -0.293671   -0.516546    1.267568
      9          1           0       -0.461559   -1.521015   -0.164019
     10          6           0       -1.498356    0.360940   -0.302029
     11          1           0       -1.481376    0.432274   -1.399266
     12          1           0       -1.402292    1.388446    0.071979
     13          6           0       -2.846064   -0.212329    0.149676
     14          1           0       -2.905753   -0.269338    1.243667
     15          1           0       -3.681481    0.406762   -0.197064
     16          1           0       -2.997325   -1.226049   -0.241587
     17          6           0        1.451455    1.379224    0.193825
     18          1           0        0.736429    2.147057   -0.120344
     19          1           0        1.486084    1.383550    1.291588
     20          1           0        2.440906    1.681769   -0.169448
 ---------------------------------------------------------------------
                    Distance matrix (angstroms):
                    1          2          3          4          5
     1  C    0.000000
     2  H    1.096658   0.000000
     3  H    1.098055   1.771279   0.000000
     4  H    1.096595   1.772614   1.770558   0.000000
     5  C    1.536198   2.189193   2.183927   2.187984   0.000000
     6  H    2.145520   2.496276   3.070520   2.498305   1.101471
     7  C    2.529439   2.769595   2.804767   3.493431   1.541725
     8  H    2.794391   3.149410   2.620934   3.802720   2.166072
     9  H    2.672094   2.452177   3.024424   3.691062   2.159180
    10  C    3.930365   4.178651   4.280385   4.767023   2.600937
    11  H    4.179825   4.328805   4.769455   4.881122   2.805333
    12  H    4.309717   4.793111   4.563292   5.032920   2.875686
    13  C    5.074126   5.135108   5.268770   6.030140   3.956003
    14  H    5.263627   5.392598   5.228164   6.270295   4.289849
    15  H    6.021105   6.118429   6.268719   6.918687   4.777241
    16  H    5.167185   4.992318   5.420993   6.158121   4.250127
    17  C    2.523972   3.488541   2.800876   2.761509   1.536562
    18  H    3.492025   4.350830   3.825753   3.761318   2.197768
    19  H    2.810428   3.823352   2.641049   3.151158   2.182772
    20  H    2.742207   3.752306   3.109837   2.524029   2.183450
                    6          7          8          9         10
     6  H    0.000000
     7  C    2.148088   0.000000
     8  H    3.058371   1.101377   0.000000
     9  H    2.505330   1.100223   1.756868   0.000000
    10  C    2.786071   1.535007   2.164459   2.153079   0.000000
    11  H    2.539487   2.161994   3.069675   2.526104   1.099684
    12  H    3.159134   2.171721   2.507482   3.066861   1.097669
    13  C    4.192660   2.555323   2.803024   2.738051   1.532642
    14  H    4.768295   2.822828   2.623863   3.085832   2.183390
    15  H    4.882451   3.510542   3.804590   3.753040   2.186127
    16  H    4.385665   2.822358   3.176585   2.554042   2.183826
    17  C    2.147168   2.560470   2.791475   3.492716   3.159772
    18  H    2.496650   2.843724   3.175245   3.858994   2.866616
    19  H    3.070729   2.821265   2.603549   3.787955   3.534435
    20  H    2.505431   3.513146   3.791506   4.322287   4.156916
                   11         12         13         14         15
    11  H    0.000000
    12  H    1.756439   0.000000
    13  C    2.162662   2.157080   0.000000
    14  H    3.083213   2.526161   1.097100   0.000000
    15  H    2.507270   2.496154   1.096095   1.770472   0.000000
    16  H    2.527520   3.078641   1.097084   1.769085   1.770910
    17  C    3.469315   2.856362   4.582975   4.775477   5.238846
    18  H    3.081360   2.277413   4.298124   4.578752   4.748941
    19  H    4.117212   3.135313   4.755870   4.692821   5.465705
    20  H    4.296275   3.861930   5.625078   5.864339   6.253801
                   16         17         18         19         20
    16  H    0.000000
    17  C    5.173845   0.000000
    18  H    5.033235   1.095231   0.000000
    19  H    5.409398   1.098318   1.771575   0.000000
    20  H    6.167250   1.096592   1.767525   1.770663   0.000000
 Stoichiometry    C6H14
 Framework group  C1[X(C6H14)]
 Deg. of freedom    54
 Full point group                 C1      NOp   1
 Largest Abelian subgroup         C1      NOp   1
 Largest concise Abelian subgroup C1      NOp   1
                         Standard orientation:                         
 ---------------------------------------------------------------------
 Center     Atomic      Atomic             Coordinates (Angstroms)
 Number     Number       Type             X           Y           Z
 ---------------------------------------------------------------------
      1          6           0        2.159337   -1.037648    0.033699
      2          1           0        1.928691   -2.028838   -0.374962
      3          1           0        2.248341   -1.139855    1.123358
      4          1           0        3.140543   -0.735382   -0.351516
      5          6           0        1.075225   -0.013276   -0.334090
      6          1           0        1.027966    0.044958   -1.433005
      7          6           0       -0.305107   -0.483583    0.166320
      8          1           0       -0.293595   -0.517607    1.267111
      9          1           0       -0.461138   -1.520974   -0.165288
     10          6           0       -1.498470    0.360794   -0.301828
     11          1           0       -1.481466    0.433014   -1.399007
     12          1           0       -1.402716    1.388026    0.073009
     13          6           0       -2.846031   -0.213226    0.149362
     14          1           0       -2.905747   -0.271130    1.243304
     15          1           0       -3.681612    0.405904   -0.196914
     16          1           0       -2.996985   -1.226674   -0.242722
     17          6           0        1.451029    1.379526    0.194962
     18          1           0        0.735795    2.147405   -0.118618
     19          1           0        1.485613    1.382980    1.292730
     20          1           0        2.440408    1.682647   -0.168028
 ---------------------------------------------------------------------
 Rotational constants (GHZ):      6.5883143      1.6913389      1.4552192
 Leave Link  202 at Sun Oct  4 11:29:15 2015, MaxMem=  805306368 cpu:       0.0
 (Enter /share/apps/g09/l301.exe)
 Standard basis: 6-31G(d) (6D, 7F)
 Ernie: Thresh=  0.10000D-02 Tol=  0.10000D-05 Strict=F.
 There are   118 symmetry adapted basis functions of A   symmetry.
 Integral buffers will be    131072 words long.
 Raffenetti 2 integral format.
 Two-electron integral symmetry is turned on.
   118 basis functions,   224 primitive gaussians,   118 cartesian basis functions
    25 alpha electrons       25 beta electrons
       nuclear repulsion energy       252.5668673534 Hartrees.
 IExCor=  402 DFT=T Ex+Corr=B3LYP ExCW=0 ScaHFX=  0.200000
 ScaDFX=  0.800000  0.720000  1.000000  0.810000 ScalE2=  1.000000  1.000000
 IRadAn=      5 IRanWt=     -1 IRanGd=            0 ICorTp=0
 NAtoms=   20 NActive=   20 NUniq=   20 SFac= 7.50D-01 NAtFMM=   80 NAOKFM=F Big=F
 Leave Link  301 at Sun Oct  4 11:29:15 2015, MaxMem=  805306368 cpu:       0.2
 (Enter /share/apps/g09/l302.exe)
 NPDir=0 NMtPBC=     1 NCelOv=     1 NCel=       1 NClECP=     1 NCelD=      1
         NCelK=      1 NCelE2=     1 NClLst=     1 CellRange=     0.0.
 One-electron integrals computed using PRISM.
 NBasis=   118 RedAO= T  NBF=   118
 NBsUse=   118 1.00D-06 NBFU=   118
 Precomputing XC quadrature grid using
 IXCGrd= 2 IRadAn=           5 IRanWt=          -1 IRanGd=           0 AccXCQ= 1.00D-10.
 NRdTot=    1649 NPtTot=      440934 NUsed=      452750 NTot=      452782
 NSgBfM=   118   118   118   118   118 NAtAll=    20    20.
 Leave Link  302 at Sun Oct  4 11:29:16 2015, MaxMem=  805306368 cpu:       2.6
 (Enter /share/apps/g09/l303.exe)
 DipDrv:  MaxL=1.
 Leave Link  303 at Sun Oct  4 11:29:16 2015, MaxMem=  805306368 cpu:       0.1
 (Enter /share/apps/g09/l401.exe)
 Initial guess read from the read-write file.
 B after Tr=     0.000000    0.000000    0.000000
         Rot=    1.000000    0.000000    0.000000    0.000000 Ang=   0.00 deg.
 Guess basis will be translated and rotated to current coordinates.
 Initial guess orbital symmetries:
       Occupied  (A) (A) (A) (A) (A) (A) (A) (A) (A) (A) (A) (A)
                 (A) (A) (A) (A) (A) (A) (A) (A) (A) (A) (A) (A)
                 (A)
       Virtual   (A) (A) (A) (A) (A) (A) (A) (A) (A) (A) (A) (A)
                 (A) (A) (A) (A) (A) (A) (A) (A) (A) (A) (A) (A)
                 (A) (A) (A) (A) (A) (A) (A) (A) (A) (A) (A) (A)
                 (A) (A) (A) (A) (A) (A) (A) (A) (A) (A) (A) (A)
                 (A) (A) (A) (A) (A) (A) (A) (A) (A) (A) (A) (A)
                 (A) (A) (A) (A) (A) (A) (A) (A) (A) (A) (A) (A)
                 (A) (A) (A) (A) (A) (A) (A) (A) (A) (A) (A) (A)
                 (A) (A) (A) (A) (A) (A) (A) (A) (A)
 The electronic state of the initial guess is 1-A.
 Leave Link  401 at Sun Oct  4 11:29:16 2015, MaxMem=  805306368 cpu:       0.6
 (Enter /share/apps/g09/l502.exe)
 Closed shell SCF:
 Requested convergence on RMS density matrix=1.00D-08 within 128 cycles.
 Requested convergence on MAX density matrix=1.00D-06.
 Requested convergence on             energy=1.00D-06.
 No special actions if energy rises.
 Using DIIS extrapolation, IDIIS=  1040.
 Integral symmetry usage will be decided dynamically.
       452557 words used for storage of precomputed grid.
 Keep R1 ints in memory in canonical form, NReq=26106612.
 IEnd=      514101 IEndB=      514101 NGot=   805306368 MDV=   780172191
 LenX=   780172191 LenY=   780157826
 Symmetry not used in FoFDir.
 MinBra= 0 MaxBra= 2 Meth= 1.
 IRaf=       0 NMat=   1 IRICut=       1 DoRegI=T DoRafI=F ISym2E= 0 JSym2E=0.

 Cycle   1  Pass 1  IDiag  1:
 E= -237.084733127001    
 DIIS: error= 1.41D-04 at cycle   1 NSaved=   1.
 NSaved= 1 IEnMin= 1 EnMin= -237.084733127001     IErMin= 1 ErrMin= 1.41D-04
 ErrMax= 1.41D-04 EMaxC= 1.00D-01 BMatC= 3.15D-06 BMatP= 3.15D-06
 IDIUse=3 WtCom= 9.99D-01 WtEn= 1.41D-03
 Coeff-Com:  0.100D+01
 Coeff-En:   0.100D+01
 Coeff:      0.100D+01
 Gap=     0.392 Goal=   None    Shift=    0.000
 RMSDP=2.09D-05 MaxDP=3.15D-04              OVMax= 6.86D-04

 Cycle   2  Pass 1  IDiag  1:
 E= -237.084739764848     Delta-E=       -0.000006637847 Rises=F Damp=F
 DIIS: error= 1.76D-05 at cycle   2 NSaved=   2.
 NSaved= 2 IEnMin= 2 EnMin= -237.084739764848     IErMin= 2 ErrMin= 1.76D-05
 ErrMax= 1.76D-05 EMaxC= 1.00D-01 BMatC= 2.99D-08 BMatP= 3.15D-06
 IDIUse=1 WtCom= 1.00D+00 WtEn= 0.00D+00
 Coeff-Com: -0.912D-01 0.109D+01
 Coeff:     -0.912D-01 0.109D+01
 Gap=     0.392 Goal=   None    Shift=    0.000
 RMSDP=3.15D-06 MaxDP=4.67D-05 DE=-6.64D-06 OVMax= 8.86D-05

 Cycle   3  Pass 1  IDiag  1:
 E= -237.084739834250     Delta-E=       -0.000000069402 Rises=F Damp=F
 DIIS: error= 2.24D-06 at cycle   3 NSaved=   3.
 NSaved= 3 IEnMin= 3 EnMin= -237.084739834250     IErMin= 3 ErrMin= 2.24D-06
 ErrMax= 2.24D-06 EMaxC= 1.00D-01 BMatC= 1.61D-09 BMatP= 2.99D-08
 IDIUse=1 WtCom= 1.00D+00 WtEn= 0.00D+00
 Coeff-Com: -0.262D-01 0.289D+00 0.737D+00
 Coeff:     -0.262D-01 0.289D+00 0.737D+00
 Gap=     0.392 Goal=   None    Shift=    0.000
 RMSDP=5.35D-07 MaxDP=1.15D-05 DE=-6.94D-08 OVMax= 1.33D-05

 Cycle   4  Pass 1  IDiag  1:
 E= -237.084739835430     Delta-E=       -0.000000001181 Rises=F Damp=F
 DIIS: error= 1.24D-06 at cycle   4 NSaved=   4.
 NSaved= 4 IEnMin= 4 EnMin= -237.084739835430     IErMin= 4 ErrMin= 1.24D-06
 ErrMax= 1.24D-06 EMaxC= 1.00D-01 BMatC= 4.79D-10 BMatP= 1.61D-09
 IDIUse=1 WtCom= 1.00D+00 WtEn= 0.00D+00
 Coeff-Com: -0.532D-02 0.520D-01 0.362D+00 0.592D+00
 Coeff:     -0.532D-02 0.520D-01 0.362D+00 0.592D+00
 Gap=     0.392 Goal=   None    Shift=    0.000
 RMSDP=1.89D-07 MaxDP=5.22D-06 DE=-1.18D-09 OVMax= 5.58D-06

 Cycle   5  Pass 1  IDiag  1:
 E= -237.084739835887     Delta-E=       -0.000000000457 Rises=F Damp=F
 DIIS: error= 1.91D-07 at cycle   5 NSaved=   5.
 NSaved= 5 IEnMin= 5 EnMin= -237.084739835887     IErMin= 5 ErrMin= 1.91D-07
 ErrMax= 1.91D-07 EMaxC= 1.00D-01 BMatC= 1.22D-11 BMatP= 4.79D-10
 IDIUse=1 WtCom= 1.00D+00 WtEn= 0.00D+00
 Coeff-Com:  0.180D-03-0.460D-02 0.592D-01 0.186D+00 0.759D+00
 Coeff:      0.180D-03-0.460D-02 0.592D-01 0.186D+00 0.759D+00
 Gap=     0.392 Goal=   None    Shift=    0.000
 RMSDP=3.90D-08 MaxDP=7.35D-07 DE=-4.57D-10 OVMax= 9.41D-07

 Cycle   6  Pass 1  IDiag  1:
 E= -237.084739835900     Delta-E=       -0.000000000013 Rises=F Damp=F
 DIIS: error= 5.98D-08 at cycle   6 NSaved=   6.
 NSaved= 6 IEnMin= 6 EnMin= -237.084739835900     IErMin= 6 ErrMin= 5.98D-08
 ErrMax= 5.98D-08 EMaxC= 1.00D-01 BMatC= 6.53D-13 BMatP= 1.22D-11
 IDIUse=1 WtCom= 1.00D+00 WtEn= 0.00D+00
 Coeff-Com:  0.247D-03-0.349D-02 0.784D-02 0.460D-01 0.280D+00 0.669D+00
 Coeff:      0.247D-03-0.349D-02 0.784D-02 0.460D-01 0.280D+00 0.669D+00
 Gap=     0.392 Goal=   None    Shift=    0.000
 RMSDP=9.39D-09 MaxDP=1.37D-07 DE=-1.31D-11 OVMax= 1.95D-07

 SCF Done:  E(RB3LYP) =  -237.084739836     A.U. after    6 cycles
             Convg  =    0.9390D-08             -V/T =  2.0105
 KE= 2.346282310968D+02 PE=-1.052053038847D+03 EE= 3.277732005605D+02
 Leave Link  502 at Sun Oct  4 11:29:42 2015, MaxMem=  805306368 cpu:     103.7
 (Enter /share/apps/g09/l701.exe)
 Compute integral first derivatives.
 ... and contract with generalized density number  0.
 Leave Link  701 at Sun Oct  4 11:29:43 2015, MaxMem=  805306368 cpu:       1.0
 (Enter /share/apps/g09/l702.exe)
 L702 exits ... SP integral derivatives will be done elsewhere.
 Leave Link  702 at Sun Oct  4 11:29:43 2015, MaxMem=  805306368 cpu:       0.1
 (Enter /share/apps/g09/l703.exe)
 Compute integral first derivatives, UseDBF=F ICtDFT=           0.
 Integral derivatives from FoFDir, PRISM(SPDF).
 Calling FoFJK, ICntrl=      2127 FMM=F ISym2X=0 I1Cent= 0 IOpClX= 0 NMat=1 NMatS=1 NMatT=0.
 FoFCou: FMM=F IPFlag=           0 FMFlag=      100000 FMFlg1=         800
         NFxFlg=           0 DoJE=F BraDBF=F KetDBF=F FulRan=T
         Omega=  0.000000  0.000000  1.000000  0.000000  0.000000 ICntrl=    2127 IOpCl=  0
         NMat0=    1 NMatS0=    1 NMatT0=    0 NMatD0=    1 NMtDS0=    0 NMtDT0=    0
         I1Cent=           0 NGrid=           0.
 Symmetry not used in FoFCou.
 Leave Link  703 at Sun Oct  4 11:29:51 2015, MaxMem=  805306368 cpu:      32.7
 (Enter /share/apps/g09/l716.exe)
 Dipole        =-6.22939941D-03 1.30717403D-02-3.08286659D-02
 ***** Axes restored to original set *****
 -------------------------------------------------------------------
 Center     Atomic                   Forces (Hartrees/Bohr)
 Number     Number              X              Y              Z
 -------------------------------------------------------------------
      1        6          -0.000015257   -0.000008246   -0.000009349
      2        1          -0.000000197    0.000001855    0.000000554
      3        1          -0.000004729    0.000003569   -0.000002168
      4        1           0.000001591    0.000000454   -0.000002287
      5        6           0.000001130    0.000012530    0.000007348
      6        1          -0.000000015   -0.000011003   -0.000002937
      7        6           0.000016288    0.000007992    0.000010252
      8        1           0.000000836   -0.000000635    0.000004326
      9        1          -0.000006882    0.000001377    0.000003804
     10        6          -0.000001303    0.000003478   -0.000019653
     11        1           0.000002058    0.000005021   -0.000003646
     12        1          -0.000006775   -0.000013333    0.000003058
     13        6          -0.000015117   -0.000014536   -0.000001201
     14        1           0.000000729    0.000004756    0.000002623
     15        1           0.000002808    0.000002443    0.000004498
     16        1           0.000000506    0.000002691    0.000003755
     17        6           0.000013531    0.000008344   -0.000001150
     18        1           0.000009741   -0.000006772    0.000002456
     19        1           0.000002063    0.000004165    0.000000436
     20        1          -0.000001007   -0.000004153   -0.000000718
 -------------------------------------------------------------------
 Cartesian Forces:  Max     0.000019653 RMS     0.000007004
 Leave Link  716 at Sun Oct  4 11:29:51 2015, MaxMem=  805306368 cpu:       0.1
 (Enter /share/apps/g09/l103.exe)

 GradGradGradGradGradGradGradGradGradGradGradGradGradGradGradGradGradGrad
 Berny optimization.
 Using GEDIIS/GDIIS optimizer.
 Internal  Forces:  Max     0.000034178 RMS     0.000007934
 Search for a local minimum.
 Step number   2 out of a maximum of  110
 All quantities printed in internal units (Hartrees-Bohrs-Radians)
 RMS Force = .79340D-05 SwitMx=.10000D-02 MixMth= 2
 Mixed Optimization -- En-DIIS/RFO-DIIS
 Swaping is turned off.
 Update second derivatives using D2CorX and points    1    2
 DE= -2.78D-07 DEPred=-3.70D-07 R= 7.51D-01
 Trust test= 7.51D-01 RLast= 1.40D-02 DXMaxT set to 3.00D-01
     Eigenvalues ---    0.00204   0.00273   0.00286   0.00329   0.00347
     Eigenvalues ---    0.03283   0.03388   0.03474   0.04678   0.04774
     Eigenvalues ---    0.04809   0.04951   0.05339   0.05398   0.05413
     Eigenvalues ---    0.05465   0.05475   0.05497   0.08323   0.08737
     Eigenvalues ---    0.12127   0.12504   0.15795   0.16000   0.16000
     Eigenvalues ---    0.16000   0.16000   0.16000   0.16000   0.16000
     Eigenvalues ---    0.16039   0.16996   0.17364   0.21829   0.22749
     Eigenvalues ---    0.28339   0.28719   0.28884   0.29051   0.29395
     Eigenvalues ---    0.33511   0.33523   0.33655   0.33725   0.33865
     Eigenvalues ---    0.33877   0.33974   0.34001   0.34007   0.34056
     Eigenvalues ---    0.34062   0.34071   0.34124   0.342461000.00000
     Eigenvalues --- 1000.000001000.000001000.000001000.000001000.00000
     Eigenvalues --- 1000.000001000.000001000.000001000.000001000.00000
     Eigenvalues --- 1000.000001000.000001000.000001000.000001000.00000
     Eigenvalues --- 1000.000001000.000001000.000001000.000001000.00000
     Eigenvalues --- 1000.000001000.000001000.000001000.000001000.00000
     Eigenvalues --- 1000.000001000.000001000.000001000.000001000.00000
     Eigenvalues --- 1000.000001000.000001000.000001000.000001000.00000
     Eigenvalues --- 1000.000001000.000001000.000001000.000001000.00000
     Eigenvalues --- 1000.000001000.000001000.000001000.000001000.00000
 En-DIIS/RFO-DIIS IScMMF=        0 using points:     2    1
 RFO step:  Lambda=-2.04001046D-08.
 DIIS coeffs:      0.92017      0.07983
 Iteration  1 RMS(Cart)=  0.00118179 RMS(Int)=  0.00000043
 Iteration  2 RMS(Cart)=  0.00000096 RMS(Int)=  0.00000000
 Variable       Old X    -DE/DX   Delta X   Delta X   Delta X     New X
                                  (DIIS)     (GDIIS)  (Total)
    R1        2.07238   0.00000   0.00000  -0.00001  -0.00001   2.07238
    R2        2.07502   0.00000  -0.00001   0.00002   0.00001   2.07503
    R3        2.07226   0.00000   0.00000   0.00001   0.00001   2.07227
    R4        2.90299  -0.00002  -0.00001  -0.00003  -0.00004   2.90296
    R5        2.08148   0.00000   0.00000   0.00001   0.00001   2.08149
    R6        2.91344   0.00001   0.00000   0.00003   0.00003   2.91347
    R7        2.90368   0.00001   0.00002  -0.00003  -0.00001   2.90367
    R8        2.08130   0.00000   0.00000   0.00002   0.00002   2.08132
    R9        2.07912   0.00000  -0.00001   0.00002   0.00001   2.07913
   R10        2.90074   0.00001  -0.00002   0.00009   0.00007   2.90081
[...]
 126,0.03159771,0.01095309,-0.01343850,0.00863509,0.02910060,0.56697649
 ,0.00162605,-0.00050632,0.00104271,-0.00009085,0.00002454,-0.00002186,
 -0.00029816,0.00022956,-0.00076722,0.00022811,-0.00011951,-0.00040952,
 -0.00159313,-0.00066347,0.03109344,-0.00532296,-0.00193472,0.00224313,
 -0.04868997,-0.00044803,-0.00307240,0.05647248,0.00037465,-0.00004183,
 -0.00062806,-0.00006188,0.00006915,-0.00012568,0.00013959,0.00030896,-
 0.00008432,0.00004032,-0.00011996,0.00005121,-0.00069217,-0.00106921,0
 .01158123,-0.00192550,-0.00013890,0.00124452,-0.00042092,-0.05076896,0
 .00251120,-0.00090492,0.05158781,-0.00079930,0.00015402,0.00014611,0.0
 0000640,0.00006815,0.00001399,0.00071896,-0.00046090,0.00060714,0.0001
 8285,-0.00001904,0.00046916,0.00056604,0.00038940,-0.01366040,0.002466
 35,0.00084903,0.00045014,-0.00345354,0.00267979,-0.29453959,0.00304554
 ,-0.00541658,0.32369323,0.00086977,-0.00185898,-0.00071057,-0.00048012
 ,0.00087874,0.00032317,-0.00008813,0.00009556,-0.00006840,0.00045464,0
 .00020861,0.00013925,-0.00655717,-0.02808775,-0.01072994,0.00101949,0.
 00056579,0.00017845,-0.05211201,-0.03281625,-0.01072892,-0.00043279,-0
 .00016151,-0.00020334,0.06378834,0.00157398,0.00051334,-0.00025805,-0.
 00043261,0.00101632,0.00002692,-0.00007589,0.00003241,0.00004140,0.000
 14096,0.00037173,0.00031610,-0.00219284,-0.01147078,-0.00423826,0.0001
 4726,0.00017581,0.00047719,-0.03345513,-0.26762757,-0.07323870,0.00018
 288,0.00097910,-0.00043932,0.03468503,0.29421911,-0.00043613,-0.000014
 91,0.00021813,-0.00016102,-0.00002577,0.00024093,0.00000148,-0.0001910
 4,-0.00005775,-0.00014197,0.00025926,-0.00013991,0.00295999,0.01176790
 ,0.00321752,-0.00074662,0.00008434,0.00054649,-0.01123754,-0.07290507,
 -0.07636129,-0.00480844,-0.03195859,-0.01043425,0.01203575,0.07968890,
 0.07741461,-0.00349463,-0.00277022,0.00150714,0.00017458,0.00020640,0.
 00020109,-0.00013558,-0.00002092,-0.00014485,-0.00064238,0.00114868,-0
 .00047146,-0.02574243,0.01528961,-0.00817326,0.00189887,0.00056160,-0.
 00111965,-0.13626211,0.04627928,-0.02610486,-0.00186666,0.00144866,-0.
 00044786,0.00115711,-0.00103874,0.00078594,0.45549788,-0.00283428,-0.0
 0163022,0.00120571,-0.00008143,0.00034871,0.00020736,0.00008588,-0.000
 09772,-0.00005071,-0.00116130,0.00108918,0.00005809,-0.00504870,0.0095
 2943,-0.00664601,-0.00024066,0.00002975,0.00013042,0.04240281,-0.11814
 700,0.02031821,0.00023717,-0.00111180,0.00036476,0.02588352,-0.0203458
 6,0.01124887,0.01225853,0.55591231,0.00261734,0.00134953,-0.00175629,-
 0.00019725,0.00024948,0.00001837,0.00005540,0.00000647,0.00045929,0.00
 115296,-0.00046493,0.00066418,0.00675605,-0.00855734,0.00392880,0.0014
 6205,-0.00054112,0.00007622,-0.02574847,0.02020748,-0.09318496,-0.0270
 5305,0.02102117,-0.01139504,0.00870398,-0.00654546,0.00352570,-0.00214
 218,0.02768369,0.57508877,0.00002159,0.00016723,0.00007046,0.00000705,
 -0.00000497,-0.00001833,0.00008782,-0.00009432,0.00023916,-0.00000349,
 -0.00003410,0.00010909,0.00169614,-0.00005897,-0.00180692,-0.00028719,
 -0.00005328,0.00088519,-0.00169672,0.00118862,-0.02753536,-0.00407477,
 0.00342205,-0.00161841,0.00087167,-0.00035348,0.00082361,-0.04793479,-
 0.00037061,0.00289151,0.05670002,-0.00010138,-0.00008724,-0.00003036,0
 .00000854,-0.00005295,0.00002045,-0.00009768,0.00002721,-0.00011369,-0
 .00000776,0.00001867,-0.00007713,-0.00098253,0.00051099,0.00002408,0.0
 0020662,0.00023255,-0.00047737,0.00086013,-0.00129629,0.02030919,0.003
 21944,-0.00151328,0.00159526,-0.00086625,0.00057933,0.00001404,-0.0002
 8174,-0.05300892,0.01120005,-0.00039611,0.05287682,-0.00013150,-0.0000
 7955,0.00054842,0.00002051,0.00000416,-0.00004527,0.00026339,-0.000129
 74,0.00007198,-0.00011125,0.00003609,0.00001932,0.00110388,-0.00002642
 ,-0.00002473,-0.00089756,-0.00017716,0.00084662,-0.00103237,0.00064614
 ,-0.01162839,-0.00160327,0.00182272,0.00076882,0.00004340,0.00044300,0
 .00066350,0.00331498,0.01141571,-0.29869070,-0.00381143,-0.01517333,0.
 32625181,-0.00002038,-0.00006881,-0.00012179,0.00012693,-0.00024743,-0
 .00004568,0.00003379,0.00001472,-0.00000384,-0.00010322,-0.00013191,-0
 .00000865,0.00119356,0.00025584,0.00048210,-0.00012175,-0.00002452,0.0
 0002327,0.00233924,0.02570757,0.00999283,0.00106608,-0.00099124,0.0000
 4617,-0.00417556,0.00322289,-0.00180166,-0.04955903,-0.02009651,-0.008
 12828,-0.00036051,0.00069826,0.00014787,0.05976426,0.00022802,0.000131
 92,-0.00004960,-0.00007572,0.00024485,0.00005499,-0.00002635,-0.000028
 13,0.00001337,0.00019723,0.00002309,0.00001282,-0.00082128,-0.00059018
 ,0.00016109,0.00007065,0.00006303,0.00002163,-0.00059643,-0.01838600,-
 0.00679438,-0.00033645,0.00074814,0.00042587,0.00320439,-0.00105489,0.
 00177129,-0.01984074,-0.26970393,-0.08346836,0.00026344,0.00236310,-0.
 00011500,0.02360214,0.29572438,0.00015404,0.00012299,0.00004290,0.0000
 2065,0.00001013,-0.00003306,0.00000251,0.00000314,0.00000277,0.0000230
 9,-0.00008952,-0.00001386,0.00014689,-0.00064431,-0.00001108,-0.000028
 70,-0.00006983,0.00008911,0.00106228,0.01138237,0.00371657,0.00084125,
 0.00006172,0.00078910,-0.00190134,0.00204329,0.00046865,-0.00794565,-0
 .08384974,-0.08443077,-0.00310716,-0.03185833,-0.01183546,0.00871321,0
 .09088452,0.08601892,-0.00074528,-0.00067338,0.00056405,0.00001913,0.0
 0000536,0.00001799,0.00001400,-0.00001596,-0.00004474,-0.00031194,0.00
 026330,-0.00009067,-0.00149895,0.00290783,-0.00205800,-0.00003466,0.00
 004762,0.00016907,-0.03072771,-0.00774027,0.00727548,0.00159129,-0.000
 94331,0.00072508,0.00166817,-0.00145321,0.00042503,-0.16515524,-0.0385
 0581,0.02982183,-0.00200105,-0.00092039,0.00071185,-0.00470298,-0.0019
 6531,0.00154275,0.50219343,0.00124118,0.00096203,-0.00048038,-0.000075
 17,-0.00000516,-0.00005409,-0.00002269,-0.00001232,0.00007418,0.000549
 04,-0.00036231,0.00008400,0.00278396,-0.00367000,0.00209775,-0.0001759
 3,-0.00003913,-0.00003617,0.01672945,0.00905529,-0.00721067,-0.0001318
 0,0.00019724,-0.00017250,0.00130449,0.00068887,-0.00024123,-0.03941262
 ,-0.09818156,0.01359100,-0.00164850,-0.00105709,0.00041239,-0.02967279
 ,-0.01171699,0.01062715,-0.03588724,0.56116409,-0.00067719,-0.00031231
 ,0.00075556,0.00003913,0.00002106,-0.00001047,0.00008052,-0.00008660,-
 0.00003268,-0.00030203,0.00022517,-0.00007522,-0.00127097,0.00157827,-
 0.00182904,-0.00005527,0.00000500,0.00056316,-0.00874838,-0.00556802,0
 .00426494,-0.00121482,-0.00025391,0.00031481,0.00052416,-0.00014618,0.
 00014891,0.02996715,0.01349081,-0.09195643,0.03191318,0.01379918,-0.00
 926093,-0.01108064,-0.00430309,0.00369423,0.02731029,0.00939797,0.5635
 4616,0.00002741,0.00002484,-0.00010808,-0.00000496,0.00000398,0.000006
 31,-0.00005192,0.00002675,-0.00002620,0.00002261,-0.00001505,-0.000000
 65,-0.00013386,-0.00016658,0.00000794,0.00012240,0.00005690,-0.0003089
 8,0.00208933,-0.00017126,0.00143012,-0.00034550,0.00013209,-0.00085267
 ,-0.00008941,0.00009734,-0.00007439,-0.00163240,-0.00076986,0.03149430
 ,-0.00547957,-0.00251687,0.00183755,0.00131351,0.00035497,-0.00072736,
 -0.04965034,0.00015698,0.01007382,0.05282083,0.00000227,-0.00001969,-0
 .00005314,0.00000397,0.00000005,-0.00000574,-0.00000534,0.00001795,0.0
 0000377,-0.00001523,-0.00000545,0.00001274,0.00006278,-0.00008496,0.00
 002455,0.00005900,-0.00003086,-0.00005499,0.00062744,0.00003296,-0.000
 45033,-0.00007634,0.00033806,-0.00021136,-0.00004973,0.00003908,-0.000
 15644,-0.00058335,-0.00112848,0.01420581,-0.00286215,-0.00020881,0.000
 84181,0.00076040,0.00024459,0.00024033,0.00014839,-0.05092027,0.010992
 41,0.00241415,0.04979091,0.00006626,0.00004645,-0.00001971,-0.00000708
 ,-0.00000045,-0.00000903,0.00002989,-0.00000499,0.00002305,0.00003681,
 -0.00001872,0.00000441,0.00010505,-0.00005092,0.00045553,-0.00026087,-
 0.00002507,0.00010046,-0.00094972,0.00000079,0.00032424,0.00079823,-0.
 00036227,0.00056007,0.00006623,-0.00000779,-0.00004137,0.00088665,0.00
 070978,-0.00963489,0.00186666,0.00114152,0.00116931,0.00009019,0.00041
 330,0.00068417,0.01043610,0.01105297,-0.30804284,-0.01326304,-0.013494
 31,0.33516172,-0.00054125,-0.00047041,0.00034480,0.00004254,0.00001829
 ,0.00000822,0.00002102,0.00000390,-0.00004447,-0.00026588,0.00017530,-
 0.00005268,-0.00048049,0.00164470,-0.00119867,0.00000897,-0.00000729,0
 .00011117,-0.00433412,-0.00464297,0.00343073,0.00027266,-0.00019551,-0
 .00011552,0.00032156,-0.00004768,0.00020787,-0.02122800,0.01775521,-0.
 01032518,0.00111009,0.00031464,0.00045444,0.00103795,-0.00029932,-0.00
 057456,-0.19759968,0.11347754,-0.06408276,0.00171773,-0.00173858,0.000
 08477,0.21597161,-0.00022008,-0.00013845,0.00010359,0.00000117,0.00000
 233,0.00001619,0.00000360,-0.00000773,-0.00000778,-0.00007789,0.000064
 89,-0.00002033,-0.00063992,0.00078838,-0.00007099,0.00003818,0.0000079
 3,-0.00000146,-0.00182647,-0.00114180,0.00090602,0.00005183,-0.0001465
 7,0.00003029,-0.00023332,0.00047433,0.00017888,-0.01169590,0.00843394,
 -0.00566489,0.00075849,0.00032518,-0.00030424,0.00056689,0.00077111,-0
 .00040165,0.11401770,-0.13601285,0.04834176,-0.00045118,-0.00091302,0.
 00002169,-0.12358155,0.14422149,0.00014024,0.00008365,-0.00008928,-0.0
 0000865,-0.00000159,-0.00000342,0.00000275,0.00001175,0.00000566,0.000
 05841,-0.00004279,0.00000554,0.00049404,-0.00018683,0.00069831,-0.0001
 1660,-0.00003984,0.00000942,0.00146877,0.00101210,-0.00049160,0.000367
 20,-0.00007211,0.00045470,-0.00014540,0.00029688,-0.00012420,0.0086971
 4,-0.00740487,0.00293100,-0.00036586,-0.00058144,0.00044210,-0.0006380
 2,-0.00008237,0.00012649,-0.06443614,0.04838978,-0.07717457,-0.0256686
 7,0.01997641,-0.00959253,0.06933689,-0.05426245,0.07882020,0.00001181,
 0.00004793,-0.00001576,-0.00003486,0.00005419,0.00001258,-0.00000731,-
 0.00000189,0.00000358,0.00003250,0.00000496,0.00000199,0.00007607,0.00
 004720,0.00028216,0.00001548,-0.00001687,-0.00001600,0.00191998,-0.001
 84255,-0.00058395,-0.00008092,0.00010254,0.00000787,-0.00028428,0.0010
 7220,0.00019963,-0.00447039,-0.02850637,-0.01195258,0.00131067,0.00078
 802,-0.00003897,-0.00537913,-0.00229506,0.00205540,-0.05316804,-0.0288
 0310,-0.01220081,-0.00075241,0.00127376,-0.00002658,0.00401902,0.02313
 396,0.01078285,0.05684347,-0.00005622,-0.00005552,0.00003283,-0.000008
 87,0.00003701,0.00000790,0.00000100,0.00000122,-0.00000408,-0.00003842
 ,0.00001981,-0.00000477,-0.00007600,0.00031787,0.00012509,-0.00000676,
 -0.00003086,0.00001586,0.00118431,0.00048110,0.00014823,-0.00000523,0.
 00003524,0.00002282,-0.00067094,0.00081739,-0.00016526,-0.00202578,-0.
 01231174,-0.00423950,0.00019764,0.00034292,0.00048012,-0.00246837,0.00
 048232,0.00147865,-0.02923349,-0.27027677,-0.08735850,0.00078555,0.002
 84116,0.00061730,-0.00245203,-0.01678833,-0.00711057,0.03472164,0.2939
 6579,-0.00003690,-0.00004335,-0.00001069,-0.00000454,0.00000598,0.0000
 1696,-0.00000623,-0.00000411,-0.00000858,-0.00000205,0.00001864,-0.000
 00270,-0.00013754,0.00022400,0.00002072,0.00001539,0.00001511,-0.00004
 199,-0.00041659,-0.00016005,-0.00010239,0.00001054,-0.00013027,0.00000
 935,-0.00026912,-0.00005941,0.00015798,0.00142810,0.01094710,0.0040225
 7,-0.00077408,0.00026784,0.00063377,0.00239880,0.00111757,0.00043373,-
 0.01243511,-0.08746645,-0.08503538,-0.00379843,-0.03187811,-0.01112036
 ,0.00236395,0.01117104,0.00401005,0.01153537,0.09597327,0.08705028,0.0
 0575803,0.02256673,0.00872015,-0.00365842,0.00479649,-0.00104546,0.000
 54534,-0.00047430,0.00030566,0.00050463,0.00101969,0.00036406,-0.08595
 735,-0.02348490,-0.00916354,-0.00055141,-0.00199697,-0.00071310,-0.009
 38861,-0.03048667,-0.01054617,0.00146171,0.00072484,-0.00081738,-0.005
 67975,-0.00206568,0.00163793,0.00040837,-0.00073196,0.00012763,-0.0001
 0882,-0.00001688,-0.00033000,-0.00105759,-0.00039303,0.00006075,0.0000
 5429,-0.00016562,-0.00016596,0.00007616,0.00000336,-0.00001282,-0.0000
 7137,0.00013620,0.00001633,0.00004988,0.00020324,0.00008120,0.57395516
 ,-0.00103374,-0.03013483,-0.00822175,0.00232089,-0.00212640,0.00093633
 ,-0.00128676,0.00147190,-0.00069664,-0.00153285,0.00137923,-0.00014302
 ,-0.02040297,-0.16286685,-0.03357973,-0.00017375,-0.00108305,-0.000519
 04,-0.00940187,-0.01236017,-0.00190793,0.00122704,0.00056128,-0.000705
 06,-0.00041084,0.00095581,0.00004413,-0.00033681,0.00178320,0.00035832
 ,-0.00008961,0.00001428,-0.00006252,0.00004810,-0.00077563,-0.00061100
 ,0.00051048,-0.00076997,-0.00001805,-0.00004815,0.00000524,0.00004421,
 0.00020991,0.00009610,-0.00003144,-0.00021033,-0.00011543,0.00008432,-
 0.02872046,0.49466127,0.00271897,0.00650126,0.00371180,-0.00136558,0.0
 0257651,0.00005541,0.00001407,0.00145225,0.00059044,0.00022292,-0.0004
 3148,-0.00009019,-0.00940465,-0.03483171,-0.09559877,-0.00850602,-0.03
 293123,-0.01235993,0.00120480,0.00988014,0.00434967,0.00061587,0.00140
 242,0.00063268,0.00308612,0.00193237,-0.00037513,0.00022310,-0.0000798
 5,-0.00047352,0.00010421,0.00000598,0.00015894,-0.00016411,0.00028871,
 0.00048585,0.00001502,0.00013544,0.00041278,0.00000539,0.00001745,-0.0
 0007220,0.00009652,-0.00005650,-0.00003973,0.00005087,0.00002837,-0.00
 009236,-0.01055842,-0.03633081,0.55634291,-0.00012355,-0.00109903,-0.0
 0010226,0.00049922,-0.00032052,-0.00015373,-0.00011717,-0.00006763,-0.
 00002312,0.00041894,-0.00021189,-0.00019351,0.00673795,-0.00639196,0.0
 0383068,0.00032122,0.00062728,0.00040984,0.00024235,0.00039717,0.00050
 501,-0.00005848,-0.00007026,0.00002398,0.00016546,0.00016414,-0.000118
 22,-0.00103318,-0.00038477,0.00002479,0.00002819,0.00007953,-0.0000185
 1,-0.00157322,-0.00105257,-0.00009738,0.00000595,-0.00012983,0.0000257
 8,0.00000195,0.00000689,-0.00001302,0.00005750,-0.00000106,-0.00000284
 ,-0.00001944,-0.00001371,0.00000307,-0.16402377,0.12083374,-0.05128967
 ,0.17789103,-0.00353956,-0.00511083,-0.00338530,0.00150657,-0.00151876
 ,0.00044776,-0.00025032,0.00026176,0.00008852,-0.00002390,0.00031077,-
 0.00016358,0.02094446,-0.01896407,0.01038602,0.00002253,0.00131381,-0.
 00033122,0.00121644,0.00053326,0.00033559,-0.00013727,-0.00004964,-0.0
 0000533,-0.00001675,0.00017080,-0.00014047,0.00018501,-0.00081595,-0.0
 0037855,-0.00008731,-0.00001089,-0.00006572,-0.00093141,0.00092926,0.0
 0042807,-0.00034780,0.00058810,0.00017096,0.00006865,0.00000641,-0.000
 07768,-0.00004640,-0.00004262,0.00001585,0.00027834,0.00014445,-0.0000
 6269,0.11978112,-0.17515582,0.05354799,-0.13205873,0.19030156,-0.00090
 286,-0.00209366,-0.00057142,0.00032871,-0.00074230,0.00061028,0.000136
 05,-0.00038244,0.00039292,-0.00032772,0.00012971,-0.00009944,0.0097960
 8,-0.00852993,0.00306562,0.00057599,0.00054940,0.00055396,-0.00019013,
 0.00072228,0.00008045,-0.00006818,0.00004456,0.00001871,0.00016868,-0.
 00000880,-0.00006580,-0.00029798,0.00050601,0.00055591,-0.00005056,-0.
 00012573,-0.00023472,0.00014521,-0.00040043,0.00008780,0.00003107,-0.0
 0018857,-0.00018020,0.00003278,0.00003675,-0.00001711,0.00000326,0.000
 01085,0.00000611,-0.00006941,-0.00005769,0.00002009,-0.05099097,0.0539
 8165,-0.07275725,0.05696289,-0.05756246,0.07379071,0.00002565,0.000256
 55,0.00087171,-0.00014672,0.00000633,-0.00009499,0.00031914,0.00010885
 ,0.00004527,0.00003650,-0.00003838,0.00013504,-0.00140511,-0.00008922,
 -0.00910584,0.00024165,-0.00186467,-0.00069078,0.00064195,0.00050407,-
 0.00156320,0.00002475,-0.00016074,0.00045211,0.00006870,0.00011297,0.0
 0025091,-0.00019027,0.00000266,0.00006250,0.00014068,0.00005527,0.0001
 7280,-0.00002176,0.00008975,-0.00010961,0.00000641,0.00000653,0.000010
 47,-0.00004632,-0.00002747,0.00003572,0.00000676,-0.00000574,0.0000082
 2,0.00000428,-0.00000179,0.00000455,-0.05023759,0.00072215,-0.00723029
 ,-0.00024586,-0.00076504,-0.02305322,0.04850040,-0.00051447,0.00188965
 ,-0.00105747,-0.00014840,0.00026989,0.00040253,0.00024252,-0.00022448,
 0.00081421,0.00007629,-0.00011181,0.00005797,-0.00091007,-0.00022214,-
 0.03224283,-0.00165769,-0.00572641,-0.00243518,0.00109602,0.00158461,-
 0.00089881,-0.00024912,0.00002304,0.00087750,0.00037108,0.00018267,0.0
 0030619,-0.00004114,0.00000875,0.00005362,0.00012009,-0.00011110,0.000
 05432,-0.00005234,0.00001341,0.00006373,-0.00004723,0.00005407,0.00002
 101,-0.00001227,0.00000794,-0.00000378,-0.00001258,-0.00000844,0.00000
 648,0.00001204,0.00001119,-0.00000953,0.00061313,-0.04924571,0.0032507
 4,-0.00111611,0.00013680,0.02334766,0.00106310,0.05238080,-0.00016107,
 0.00089402,0.00044901,0.00002148,-0.00011880,0.00043225,0.00051623,-0.
 00074569,0.00053345,-0.00003029,-0.00002035,-0.00002938,-0.00073900,-0
 .00043546,-0.01333852,-0.00060528,-0.00277801,0.00068688,0.00075046,0.
 00079384,0.00043707,-0.00079269,-0.00044246,0.00065530,-0.00000967,-0.
 00004263,0.00041996,-0.00020739,-0.00016666,0.00008313,0.00015022,0.00
 003404,0.00014135,-0.00007023,0.00004207,-0.00017771,0.00000100,0.0000
 2988,-0.00003978,-0.00004311,-0.00003062,0.00004664,-0.00003639,-0.000
 00256,0.00000103,-0.00000793,-0.00000291,0.00001208,-0.00711394,0.0033
 1541,-0.30513517,0.00018225,0.00033641,-0.00856183,0.00871523,-0.00111
 371,0.33359615,0.00056271,0.00118400,0.00010890,0.00025171,0.00004798,
 -0.00024638,0.00001546,-0.00002224,-0.00003416,0.00076488,-0.00032138,
 0.00004282,-0.00765476,-0.00146541,0.00269408,0.00010508,0.00004013,-0
 .00049226,0.00100441,-0.00122753,-0.00163907,0.00011108,0.00014322,0.0
 0006668,-0.00048570,-0.00028441,0.00019786,0.00021030,0.00010649,0.000
 37664,-0.00002701,-0.00004288,-0.00009581,0.00019979,-0.00030835,-0.00
 013106,0.00004320,-0.00012385,-0.00014568,-0.00000524,-0.00000423,0.00
 003057,-0.00006661,0.00002510,0.00000936,-0.00008636,-0.00003576,0.000
 03963,-0.26207888,-0.06222418,0.08016089,-0.01917510,-0.00579863,0.007
 77030,0.00227677,0.00116716,-0.00051989,0.28403429,-0.00159407,0.00127
 101,0.00076913,0.00019626,0.00048849,-0.00020296,0.00010404,-0.0001069
 8,0.00002314,0.00097886,-0.00038249,-0.00026310,-0.02790382,-0.0084993
 9,0.01211361,0.00052016,0.00118860,-0.00013510,0.00040165,-0.00582709,
 -0.00332505,0.00034072,0.00011213,-0.00002681,-0.00202488,-0.00071702,
 0.00043498,0.00067018,-0.00065207,-0.00006646,-0.00006413,0.00005553,-
 0.00002277,-0.00019149,0.00051657,0.00017828,-0.00016729,0.00031472,0.
 00000305,0.00002902,-0.00001282,-0.00000203,-0.00010519,0.00001415,0.0
 0002340,0.00013941,0.00008119,-0.00001090,-0.06130832,-0.06629445,0.02
 364195,0.02080931,0.00697161,-0.00923685,0.00002481,-0.00091271,0.0004
 5419,0.06914476,0.07239103,0.00002014,0.00045465,0.00011270,-0.0002439
 8,0.00011436,-0.00012771,0.00017407,0.00002602,-0.00004925,0.00002820,
 0.00015496,0.00024104,-0.01212830,-0.00348638,0.00379807,-0.00019433,0
 .00074070,0.00052254,-0.00005553,-0.00199942,-0.00068693,-0.00024646,-
 0.00026650,0.00044596,-0.00050251,-0.00028146,0.00057731,0.00004385,-0
 .00008869,0.00016868,0.00003482,0.00002576,0.00000426,0.00002327,0.000
 00600,-0.00013836,0.00001806,-0.00004244,-0.00006300,-0.00001662,-0.00
 001700,0.00002043,-0.00001237,0.00001253,0.00000472,-0.00002030,0.0000
 1285,0.00002688,0.08014406,0.02406261,-0.07974624,-0.00995603,-0.00358
 418,0.00330522,0.03108339,0.00850535,-0.01021189,-0.08819343,-0.024349
 72,0.08179558\\0.00000056,0.00000104,0.00000009,0.00000097,0.00000117,
 -0.00000045,0.00000005,0.00000027,0.00000005,0.00000058,0.00000147,0.0
 0000060,0.00000019,0.00000039,0.00000051,0.00000054,0.00000146,0.00000
 041,-0.00000047,0.00000005,-0.00000063,-0.00000018,-0.00000090,-0.0000
 0040,0.00000078,-0.00000014,-0.00000103,-0.00000009,-0.00000094,0.0000
 0015,0.00000029,0.00000033,-0.00000030,-0.00000059,-0.00000047,0.00000
 039,0.00000033,-0.00000089,-0.00000129,-0.00000037,-0.00000192,-0.0000
 0119,-0.00000021,-0.00000141,-0.00000102,0.00000057,-0.00000117,-0.000
 00173,-0.00000053,0.00000046,0.00000139,-0.00000086,0.00000029,0.00000
 143,-0.00000104,-0.00000020,0.00000118,-0.00000051,0.00000111,0.000001
 85\\\@


 EVERYTHING'S GOT A MORAL, IF ONLY YOU CAN FIND IT.

                                    -- LEWIS CARROL, ALICE IN WONDERLAND
 Job cpu time:  0 days  0 hours 23 minutes 37.1 seconds.
 File lengths (MBytes):  RWF=     41 Int=      0 D2E=      0 Chk=      2 Scr=      1
 Normal termination of Gaussian 09 at Sun Oct  4 11:37:59 2015.
