 Entering Gaussian System, Link 0=/share/apps/g09/g09
 Input=C6H14_5_2_opt_B3L.gjf
 Output=C6H14_5_2_opt_B3L.log
 Initial command:
 /share/apps/g09/l1.exe /state/partition1/Gau-15941.inp -scrdir=/state/partition1/
 Entering Link 1 = /share/apps/g09/l1.exe PID=     15955.
  
 Copyright (c) 1988,1990,1992,1993,1995,1998,2003,2009, Gaussian, Inc.
                  All Rights Reserved.
  
 This is part of the Gaussian(R) 09 program.  It is based on
 the Gaussian(R) 03 system (copyright 2003, Gaussian, Inc.),
 the Gaussian(R) 98 system (copyright 1998, Gaussian, Inc.),
 the Gaussian(R) 94 system (copyright 1995, Gaussian, Inc.),
 the Gaussian 92(TM) system (copyright 1992, Gaussian, Inc.),
 the Gaussian 90(TM) system (copyright 1990, Gaussian, Inc.),
 the Gaussian 88(TM) system (copyright 1988, Gaussian, Inc.),
 the Gaussian 86(TM) system (copyright 1986, Carnegie Mellon
 University), and the Gaussian 82(TM) system (copyright 1983,
 Carnegie Mellon University). Gaussian is a federally registered
 trademark of Gaussian, Inc.
  
 This software contains proprietary and confidential information,
 including trade secrets, belonging to Gaussian, Inc.
  
 This software is provided under written license and may be
 used, copied, transmitted, or stored only in accord with that
 written license.
  
 The following legend is applicable only to US Government
 contracts under FAR:
  
                    RESTRICTED RIGHTS LEGEND
  
 Use, reproduction and disclosure by the US Government is
 subject to restrictions as set forth in subparagraphs (a)
 and (c) of the Commercial Computer Software - Restricted
 Rights clause in FAR 52.227-19.
  
 Gaussian, Inc.
 340 Quinnipiac St., Bldg. 40, Wallingford CT 06492
  
  
 ---------------------------------------------------------------
 Warning -- This program may not be used in any manner that
 competes with the business of Gaussian, Inc. or will provide
 assistance to any competitor of Gaussian, Inc.  The licensee
 of this program is prohibited from giving any competitor of
 Gaussian, Inc. access to this program.  By using this program,
 the user acknowledges that Gaussian, Inc. is engaged in the
 business of creating and licensing software in the field of
 computational chemistry and represents and warrants to the
 licensee that it is not a competitor of Gaussian, Inc. and that
 it will not use this program in any manner prohibited above.
 ---------------------------------------------------------------
  

 Cite this work as:
 Gaussian 09, Revision A.01,
 M. J. Frisch, G. W. Trucks, H. B. Schlegel, G. E. Scuseria, 
 M. A. Robb, J. R. Cheeseman, G. Scalmani, V. Barone, B. Mennucci, 
 G. A. Petersson, H. Nakatsuji, M. Caricato, X. Li, H. P. Hratchian, 
 A. F. Izmaylov, J. Bloino, G. Zheng, J. L. Sonnenberg, M. Hada, 
 M. Ehara, K. Toyota, R. Fukuda, J. Hasegawa, M. Ishida, T. Nakajima, 
 Y. Honda, O. Kitao, H. Nakai, T. Vreven, J. A. Montgomery, Jr., 
 J. E. Peralta, F. Ogliaro, M. Bearpark, J. J. Heyd, E. Brothers, 
 K. N. Kudin, V. N. Staroverov, R. Kobayashi, J. Normand, 
 K. Raghavachari, A. Rendell, J. C. Burant, S. S. Iyengar, J. Tomasi, 
 M. Cossi, N. Rega, J. M. Millam, M. Klene, J. E. Knox, J. B. Cross, 
 V. Bakken, C. Adamo, J. Jaramillo, R. Gomperts, R. E. Stratmann, 
 O. Yazyev, A. J. Austin, R. Cammi, C. Pomelli, J. W. Ochterski, 
 R. L. Martin, K. Morokuma, V. G. Zakrzewski, G. A. Voth, 
 P. Salvador, J. J. Dannenberg, S. Dapprich, A. D. Daniels, 
 O. Farkas, J. B. Foresman, J. V. Ortiz, J. Cioslowski, 
 and D. J. Fox, Gaussian, Inc., Wallingford CT, 2009.
 
 ******************************************
 Gaussian 09:  EM64L-G09RevA.01  8-May-2009
                 4-Oct-2015 
 ******************************************
 %mem=6GB
 %nprocshared=4
 Will use up to    4 processors via shared memory.
 ----------------------------------------------
 #p B3LYP/6-31G(d) opt=tight int=ultrafine freq
 ----------------------------------------------
 1/7=10,14=-1,18=20,19=15,26=3,38=1/1,3;
 2/9=110,12=2,17=6,18=5,40=1/2;
 3/5=1,6=6,7=1,11=2,16=1,25=1,30=1,71=1,74=-5,75=-5/1,2,3;
 4//1;
 5/5=2,38=5/2;
 6/7=2,8=2,9=2,10=2,28=1/1;
 7//1,2,3,16;
 1/7=10,14=-1,18=20,19=15/3(2);
 2/9=110/2;
 99//99;
 2/9=110/2;
 3/5=1,6=6,7=1,11=2,16=1,25=1,30=1,71=1,74=-5,75=-5/1,2,3;
 4/5=5,16=3/1;
 5/5=2,38=5/2;
 7//1,2,3,16;
 1/7=10,14=-1,18=20,19=15/3(-5);
 2/9=110/2;
 6/7=2,8=2,9=2,10=2,19=2,28=1/1;
 99/9=1/99;
 Leave Link    1 at Sun Oct  4 11:28:17 2015, MaxMem=  805306368 cpu:       0.1
 (Enter /share/apps/g09/l101.exe)
 ---------------------------------------------
 using B3LYP/6-31G(d) to do opt and freq calc.
 ---------------------------------------------
 Symbolic Z-matrix:
 Charge =  0 Multiplicity = 1
 C                     1.61781   0.99016  -0.00083 
 H                     1.59339   1.63766   0.88469 
 H                     1.59326   1.63638  -0.88728 
 H                     2.57835   0.46018  -0.00052 
 C                     0.43646  -0.00065  -0.00001 
 C                    -0.87867   0.82338  -0.0005 
 H                    -0.86565   1.48555  -0.87833 
 H                    -0.8656    1.48663   0.87651 
 C                    -2.19395   0.03391  -0.00001 
 H                    -2.28997  -0.60447   0.88526 
 H                    -3.04845   0.72047  -0.00023 
 H                    -2.29013  -0.60522  -0.88472 
 C                     0.52923  -0.88603  -1.25798 
 H                    -0.26089  -1.64477  -1.28216 
 H                     0.44593  -0.28491  -2.17232 
 H                     1.49102  -1.4124   -1.29237 
 C                     0.52944  -0.88413   1.25928 
 H                     1.49118  -1.41056   1.2942 
 H                     0.44642  -0.28164   2.17274 
 H                    -0.26075  -1.64277   1.28481 
 
 NAtoms=     20 NQM=     20 NQMF=      0 NMic=      0 NMicF=      0 NTot=     20.
                    Isotopes and Nuclear Properties:
 (Nuclear quadrupole moments (NQMom) in fm**2, nuclear magnetic moments (NMagM)
  in nuclear magnetons)

  Atom         1           2           3           4           5           6           7           8           9          10
 IAtWgt=          12           1           1           1          12          12           1           1          12           1
 AtmWgt=  12.0000000   1.0078250   1.0078250   1.0078250  12.0000000  12.0000000   1.0078250   1.0078250  12.0000000   1.0078250
 NucSpn=           0           1           1           1           0           0           1           1           0           1
 AtZEff=   0.0000000   0.0000000   0.0000000   0.0000000   0.0000000   0.0000000   0.0000000   0.0000000   0.0000000   0.0000000
 NQMom=    0.0000000   0.0000000   0.0000000   0.0000000   0.0000000   0.0000000   0.0000000   0.0000000   0.0000000   0.0000000
 NMagM=    0.0000000   2.7928460   2.7928460   2.7928460   0.0000000   0.0000000   2.7928460   2.7928460   0.0000000   2.7928460

  Atom        11          12          13          14          15          16          17          18          19          20
 IAtWgt=           1           1          12           1           1           1          12           1           1           1
 AtmWgt=   1.0078250   1.0078250  12.0000000   1.0078250   1.0078250   1.0078250  12.0000000   1.0078250   1.0078250   1.0078250
 NucSpn=           1           1           0           1           1           1           0           1           1           1
 AtZEff=   0.0000000   0.0000000   0.0000000   0.0000000   0.0000000   0.0000000   0.0000000   0.0000000   0.0000000   0.0000000
 NQMom=    0.0000000   0.0000000   0.0000000   0.0000000   0.0000000   0.0000000   0.0000000   0.0000000   0.0000000   0.0000000
 NMagM=    2.7928460   2.7928460   0.0000000   2.7928460   2.7928460   2.7928460   0.0000000   2.7928460   2.7928460   2.7928460
 Leave Link  101 at Sun Oct  4 11:28:18 2015, MaxMem=  805306368 cpu:       0.2
 (Enter /share/apps/g09/l103.exe)

 GradGradGradGradGradGradGradGradGradGradGradGradGradGradGradGradGradGrad
 Berny optimization.
 Initialization pass.
                           ----------------------------
                           !    Initial Parameters    !
                           ! (Angstroms and Degrees)  !
 --------------------------                            --------------------------
 ! Name  Definition              Value          Derivative Info.                !
 --------------------------------------------------------------------------------
 ! R1    R(1,2)                  1.0973         estimate D2E/DX2                !
 ! R2    R(1,3)                  1.0973         estimate D2E/DX2                !
 ! R3    R(1,4)                  1.0971         estimate D2E/DX2                !
 ! R4    R(1,5)                  1.5418         estimate D2E/DX2                !
 ! R5    R(5,6)                  1.552          estimate D2E/DX2                !
 ! R6    R(5,13)                 1.5411         estimate D2E/DX2                !
 ! R7    R(5,17)                 1.5411         estimate D2E/DX2                !
 ! R8    R(6,7)                  1.0996         estimate D2E/DX2                !
 ! R9    R(6,8)                  1.0996         estimate D2E/DX2                !
 ! R10   R(6,9)                  1.534          estimate D2E/DX2                !
 ! R11   R(9,10)                 1.0957         estimate D2E/DX2                !
 ! R12   R(9,11)                 1.0962         estimate D2E/DX2                !
 ! R13   R(9,12)                 1.0956         estimate D2E/DX2                !
 ! R14   R(13,14)                1.0957         estimate D2E/DX2                !
 ! R15   R(13,15)                1.0974         estimate D2E/DX2                !
 ! R16   R(13,16)                1.0969         estimate D2E/DX2                !
 ! R17   R(17,18)                1.0969         estimate D2E/DX2                !
 ! R18   R(17,19)                1.0974         estimate D2E/DX2                !
 ! R19   R(17,20)                1.0957         estimate D2E/DX2                !
 ! A1    A(2,1,3)              107.6944         estimate D2E/DX2                !
 ! A2    A(2,1,4)              107.7179         estimate D2E/DX2                !
 ! A3    A(2,1,5)              111.2065         estimate D2E/DX2                !
 ! A4    A(3,1,4)              107.7178         estimate D2E/DX2                !
 ! A5    A(3,1,5)              111.2074         estimate D2E/DX2                !
 ! A6    A(4,1,5)              111.1252         estimate D2E/DX2                !
 ! A7    A(1,5,6)              107.9428         estimate D2E/DX2                !
 ! A8    A(1,5,13)             108.8222         estimate D2E/DX2                !
 ! A9    A(1,5,17)             108.8208         estimate D2E/DX2                !
 ! A10   A(6,5,13)             110.8418         estimate D2E/DX2                !
 ! A11   A(6,5,17)             110.8407         estimate D2E/DX2                !
 ! A12   A(13,5,17)            109.5133         estimate D2E/DX2                !
 ! A13   A(5,6,7)              108.056          estimate D2E/DX2                !
 ! A14   A(5,6,8)              108.0545         estimate D2E/DX2                !
 ! A15   A(5,6,9)              116.9563         estimate D2E/DX2                !
 ! A16   A(7,6,8)              105.8621         estimate D2E/DX2                !
 ! A17   A(7,6,9)              108.6816         estimate D2E/DX2                !
 ! A18   A(8,6,9)              108.6836         estimate D2E/DX2                !
 ! A19   A(6,9,10)             112.0403         estimate D2E/DX2                !
 ! A20   A(6,9,11)             110.2461         estimate D2E/DX2                !
 ! A21   A(6,9,12)             112.0377         estimate D2E/DX2                !
 ! A22   A(10,9,11)            107.2641         estimate D2E/DX2                !
 ! A23   A(10,9,12)            107.7492         estimate D2E/DX2                !
 ! A24   A(11,9,12)            107.2639         estimate D2E/DX2                !
 ! A25   A(5,13,14)            111.8658         estimate D2E/DX2                !
 ! A26   A(5,13,15)            111.1524         estimate D2E/DX2                !
 ! A27   A(5,13,16)            110.735          estimate D2E/DX2                !
 ! A28   A(14,13,15)           107.8301         estimate D2E/DX2                !
 ! A29   A(14,13,16)           107.4145         estimate D2E/DX2                !
 ! A30   A(15,13,16)           107.6546         estimate D2E/DX2                !
 ! A31   A(5,17,18)            110.7337         estimate D2E/DX2                !
 ! A32   A(5,17,19)            111.1534         estimate D2E/DX2                !
 ! A33   A(5,17,20)            111.8671         estimate D2E/DX2                !
 ! A34   A(18,17,19)           107.6556         estimate D2E/DX2                !
 ! A35   A(18,17,20)           107.4139         estimate D2E/DX2                !
 ! A36   A(19,17,20)           107.8286         estimate D2E/DX2                !
 ! D1    D(2,1,5,6)             60.0084         estimate D2E/DX2                !
 ! D2    D(2,1,5,13)          -179.6282         estimate D2E/DX2                !
 ! D3    D(2,1,5,17)           -60.3528         estimate D2E/DX2                !
 ! D4    D(3,1,5,6)            -60.0084         estimate D2E/DX2                !
 ! D5    D(3,1,5,13)            60.355          estimate D2E/DX2                !
 ! D6    D(3,1,5,17)           179.6304         estimate D2E/DX2                !
 ! D7    D(4,1,5,6)            179.9997         estimate D2E/DX2                !
 ! D8    D(4,1,5,13)           -59.6369         estimate D2E/DX2                !
 ! D9    D(4,1,5,17)            59.6385         estimate D2E/DX2                !
 ! D10   D(1,5,6,7)             57.0522         estimate D2E/DX2                !
 ! D11   D(1,5,6,8)            -57.0669         estimate D2E/DX2                !
 ! D12   D(1,5,6,9)            179.9919         estimate D2E/DX2                !
 ! D13   D(13,5,6,7)           -62.0354         estimate D2E/DX2                !
 ! D14   D(13,5,6,8)          -176.1545         estimate D2E/DX2                !
 ! D15   D(13,5,6,9)            60.9043         estimate D2E/DX2                !
 ! D16   D(17,5,6,7)           176.1375         estimate D2E/DX2                !
 ! D17   D(17,5,6,8)            62.0184         estimate D2E/DX2                !
 ! D18   D(17,5,6,9)           -60.9228         estimate D2E/DX2                !
 ! D19   D(1,5,13,14)          177.1274         estimate D2E/DX2                !
 ! D20   D(1,5,13,15)          -62.2728         estimate D2E/DX2                !
 ! D21   D(1,5,13,16)           57.3431         estimate D2E/DX2                !
 ! D22   D(6,5,13,14)          -64.3161         estimate D2E/DX2                !
 ! D23   D(6,5,13,15)           56.2837         estimate D2E/DX2                !
 ! D24   D(6,5,13,16)          175.8996         estimate D2E/DX2                !
 ! D25   D(17,5,13,14)          58.2852         estimate D2E/DX2                !
 ! D26   D(17,5,13,15)         178.885          estimate D2E/DX2                !
 ! D27   D(17,5,13,16)         -61.4991         estimate D2E/DX2                !
 ! D28   D(1,5,17,18)          -57.3523         estimate D2E/DX2                !
 ! D29   D(1,5,17,19)           62.2647         estimate D2E/DX2                !
 ! D30   D(1,5,17,20)         -177.1358         estimate D2E/DX2                !
 ! D31   D(6,5,17,18)         -175.9072         estimate D2E/DX2                !
 ! D32   D(6,5,17,19)          -56.2902         estimate D2E/DX2                !
 ! D33   D(6,5,17,20)           64.3093         estimate D2E/DX2                !
 ! D34   D(13,5,17,18)          61.4908         estimate D2E/DX2                !
 ! D35   D(13,5,17,19)        -178.8922         estimate D2E/DX2                !
 ! D36   D(13,5,17,20)         -58.2927         estimate D2E/DX2                !
 ! D37   D(5,6,9,10)            60.6102         estimate D2E/DX2                !
 ! D38   D(5,6,9,11)           179.9891         estimate D2E/DX2                !
 ! D39   D(5,6,9,12)           -60.634          estimate D2E/DX2                !
 ! D40   D(7,6,9,10)          -176.7727         estimate D2E/DX2                !
 ! D41   D(7,6,9,11)           -57.3938         estimate D2E/DX2                !
 ! D42   D(7,6,9,12)            61.9831         estimate D2E/DX2                !
 ! D43   D(8,6,9,10)           -62.0065         estimate D2E/DX2                !
 ! D44   D(8,6,9,11)            57.3724         estimate D2E/DX2                !
 ! D45   D(8,6,9,12)           176.7493         estimate D2E/DX2                !
 --------------------------------------------------------------------------------
 Trust Radius=3.00D-01 FncErr=1.00D-07 GrdErr=1.00D-06
 Number of steps in this run= 110 maximum allowed number of steps= 120.
 GradGradGradGradGradGradGradGradGradGradGradGradGradGradGradGradGradGrad

 Leave Link  103 at Sun Oct  4 11:28:18 2015, MaxMem=  805306368 cpu:       0.0
 (Enter /share/apps/g09/l202.exe)
                          Input orientation:                          
 ---------------------------------------------------------------------
 Center     Atomic      Atomic             Coordinates (Angstroms)
 Number     Number       Type             X           Y           Z
 ---------------------------------------------------------------------
      1          6           0        1.617807    0.990163   -0.000828
      2          1           0        1.593389    1.637664    0.884687
      3          1           0        1.593258    1.636378   -0.887278
      4          1           0        2.578354    0.460182   -0.000515
      5          6           0        0.436462   -0.000649   -0.000008
      6          6           0       -0.878674    0.823379   -0.000502
      7          1           0       -0.865654    1.485552   -0.878332
      8          1           0       -0.865604    1.486630    0.876508
      9          6           0       -2.193946    0.033909   -0.000011
     10          1           0       -2.289969   -0.604473    0.885256
     11          1           0       -3.048453    0.720468   -0.000229
     12          1           0       -2.290125   -0.605222   -0.884718
     13          6           0        0.529229   -0.886025   -1.257981
     14          1           0       -0.260891   -1.644769   -1.282155
     15          1           0        0.445934   -0.284905   -2.172325
     16          1           0        1.491018   -1.412398   -1.292366
     17          6           0        0.529437   -0.884134    1.259281
     18          1           0        1.491180   -1.410557    1.294202
     19          1           0        0.446423   -0.281643    2.172744
     20          1           0       -0.260752   -1.642768    1.284813
 ---------------------------------------------------------------------
                    Distance matrix (angstroms):
                    1          2          3          4          5
     1  C    0.000000
     2  H    1.097265   0.000000
     3  H    1.097265   1.771965   0.000000
     4  H    1.097055   1.772062   1.772061   0.000000
     5  C    1.541845   2.192085   2.192095   2.190905   0.000000
     6  C    2.502046   2.749130   2.749143   3.476054   1.551968
     7  H    2.680112   3.029565   2.463550   3.699073   2.162349
     8  H    2.680210   2.463641   3.029747   3.699137   2.162326
     9  C    3.929871   4.206974   4.206907   4.791300   2.630635
    10  H    4.312624   4.484155   4.821073   5.061487   2.929458
    11  H    4.674047   4.813629   4.813650   5.632824   3.558742
    12  H    4.312592   4.821101   4.483909   5.061520   2.929590
    13  C    2.507093   3.477423   2.762625   2.755432   1.541101
    14  H    3.480542   4.348324   3.789422   3.759619   2.198484
    15  H    2.777496   3.789228   2.580509   3.133549   2.190857
    16  H    2.730649   3.748722   3.077269   2.521455   2.185249
    17  C    2.507073   2.762568   3.477414   2.755419   1.541103
    18  H    2.730676   3.077304   3.748745   2.521488   2.185235
    19  H    2.777417   2.580380   3.789165   3.133447   2.190869
    20  H    3.480543   3.789350   4.348348   3.759653   2.198506
                    6          7          8          9         10
     6  C    0.000000
     7  H    1.099649   0.000000
     8  H    1.099645   1.754840   0.000000
     9  C    1.534016   2.154780   2.154803   0.000000
    10  H    2.194330   3.083362   2.530139   1.095650   0.000000
    11  H    2.172218   2.474072   2.473965   1.096150   1.764894
    12  H    2.194295   2.529920   3.083346   1.095648   1.769974
    13  C    2.546666   2.777447   3.482972   3.137587   3.552550
    14  H    2.848867   3.213677   3.851125   2.863312   3.145957
    15  H    2.774832   2.555230   3.762160   3.433592   4.115348
    16  H    3.504718   3.758117   4.319959   4.164246   4.437414
    17  C    2.546651   3.482970   2.777261   3.137743   2.857824
    18  H    3.504702   4.319956   3.758004   4.164327   3.887685
    19  H    2.774879   3.762126   2.555080   3.433946   3.041330
    20  H    2.848814   3.851167   3.213361   2.863435   2.314179
                   11         12         13         14         15
    11  H    0.000000
    12  H    1.764890   0.000000
    13  C    4.118564   2.857785   0.000000
    14  H    3.874040   2.314391   1.095704   0.000000
    15  H    4.235507   3.040815   1.097410   1.772353   0.000000
    16  H    5.179337   3.887770   1.096945   1.767282   1.771375
    17  C    4.118545   3.553091   2.517263   2.768046   3.484533
    18  H    5.179294   4.437851   2.777431   3.124456   3.791628
    19  H    4.235587   4.116002   3.484538   3.780838   4.345070
    20  H    3.873951   3.146700   2.768128   2.566969   3.780873
                   16         17         18         19         20
    16  H    0.000000
    17  C    2.777517   0.000000
    18  H    2.586569   1.096946   0.000000
    19  H    3.791672   1.097407   1.771384   0.000000
    20  H    3.124679   1.095708   1.767279   1.772337   0.000000
 Stoichiometry    C6H14
 Framework group  C1[X(C6H14)]
 Deg. of freedom    54
 Full point group                 C1      NOp   1
 Largest Abelian subgroup         C1      NOp   1
 Largest concise Abelian subgroup C1      NOp   1
                         Standard orientation:                         
 ---------------------------------------------------------------------
 Center     Atomic      Atomic             Coordinates (Angstroms)
 Number     Number       Type             X           Y           Z
 ---------------------------------------------------------------------
      1          6           0        1.617807    0.990163   -0.000828
      2          1           0        1.593389    1.637664    0.884687
      3          1           0        1.593258    1.636378   -0.887278
      4          1           0        2.578354    0.460181   -0.000515
      5          6           0        0.436462   -0.000649   -0.000008
      6          6           0       -0.878674    0.823379   -0.000502
      7          1           0       -0.865654    1.485552   -0.878332
      8          1           0       -0.865604    1.486630    0.876508
      9          6           0       -2.193946    0.033910   -0.000011
     10          1           0       -2.289969   -0.604472    0.885256
     11          1           0       -3.048453    0.720469   -0.000229
     12          1           0       -2.290125   -0.605221   -0.884718
     13          6           0        0.529229   -0.886025   -1.257981
     14          1           0       -0.260891   -1.644769   -1.282155
     15          1           0        0.445934   -0.284905   -2.172325
     16          1           0        1.491018   -1.412398   -1.292366
     17          6           0        0.529437   -0.884134    1.259281
     18          1           0        1.491180   -1.410557    1.294202
     19          1           0        0.446423   -0.281643    2.172744
     20          1           0       -0.260752   -1.642768    1.284813
 ---------------------------------------------------------------------
 Rotational constants (GHZ):      4.2614234      2.4692130      2.4605771
 Leave Link  202 at Sun Oct  4 11:28:19 2015, MaxMem=  805306368 cpu:       0.0
 (Enter /share/apps/g09/l301.exe)
 Standard basis: 6-31G(d) (6D, 7F)
 Ernie: Thresh=  0.10000D-02 Tol=  0.10000D-05 Strict=F.
 There are   118 symmetry adapted basis functions of A   symmetry.
 Integral buffers will be    131072 words long.
 Raffenetti 2 integral format.
 Two-electron integral symmetry is turned on.
   118 basis functions,   224 primitive gaussians,   118 cartesian basis functions
    25 alpha electrons       25 beta electrons
       nuclear repulsion energy       264.8621111517 Hartrees.
 IExCor=  402 DFT=T Ex+Corr=B3LYP ExCW=0 ScaHFX=  0.200000
 ScaDFX=  0.800000  0.720000  1.000000  0.810000 ScalE2=  1.000000  1.000000
 IRadAn=      5 IRanWt=     -1 IRanGd=            0 ICorTp=0
 NAtoms=   20 NActive=   20 NUniq=   20 SFac= 7.50D-01 NAtFMM=   80 NAOKFM=F Big=F
 Leave Link  301 at Sun Oct  4 11:28:20 2015, MaxMem=  805306368 cpu:       0.2
 (Enter /share/apps/g09/l302.exe)
 NPDir=0 NMtPBC=     1 NCelOv=     1 NCel=       1 NClECP=     1 NCelD=      1
         NCelK=      1 NCelE2=     1 NClLst=     1 CellRange=     0.0.
 One-electron integrals computed using PRISM.
 NBasis=   118 RedAO= T  NBF=   118
 NBsUse=   118 1.00D-06 NBFU=   118
 Precomputing XC quadrature grid using
 IXCGrd= 2 IRadAn=           5 IRanWt=          -1 IRanGd=           0 AccXCQ= 1.00D-10.
 NRdTot=    1640 NPtTot=      438820 NUsed=      450573 NTot=      450605
 NSgBfM=   118   118   118   118   118 NAtAll=    20    20.
 Leave Link  302 at Sun Oct  4 11:28:22 2015, MaxMem=  805306368 cpu:       2.5
 (Enter /share/apps/g09/l303.exe)
 DipDrv:  MaxL=1.
 Leave Link  303 at Sun Oct  4 11:28:23 2015, MaxMem=  805306368 cpu:       0.7
 (Enter /share/apps/g09/l401.exe)
 Harris functional with IExCor=  402 diagonalized for initial guess.
 ExpMin= 1.61D-01 ExpMax= 3.05D+03 ExpMxC= 4.57D+02 IAcc=3 IRadAn=         5 AccDes= 0.00D+00
 HarFok:  IExCor=  402 AccDes= 0.00D+00 IRadAn=         5 IDoV= 1
 ScaDFX=  1.000000  1.000000  1.000000  1.000000
 FoFCou: FMM=F IPFlag=           0 FMFlag=      100000 FMFlg1=           0
         NFxFlg=           0 DoJE=T BraDBF=F KetDBF=T FulRan=T
         Omega=  0.000000  0.000000  1.000000  0.000000  0.000000 ICntrl=     500 IOpCl=  0
         NMat0=    1 NMatS0=    1 NMatT0=    0 NMatD0=    1 NMtDS0=    0 NMtDT0=    0
         I1Cent=           4 NGrid=           0.
 Petite list used in FoFCou.
 Harris En= -237.179065385418    
 Initial guess orbital symmetries:
       Occupied  (A) (A) (A) (A) (A) (A) (A) (A) (A) (A) (A) (A)
                 (A) (A) (A) (A) (A) (A) (A) (A) (A) (A) (A) (A)
                 (A)
       Virtual   (A) (A) (A) (A) (A) (A) (A) (A) (A) (A) (A) (A)
                 (A) (A) (A) (A) (A) (A) (A) (A) (A) (A) (A) (A)
                 (A) (A) (A) (A) (A) (A) (A) (A) (A) (A) (A) (A)
                 (A) (A) (A) (A) (A) (A) (A) (A) (A) (A) (A) (A)
                 (A) (A) (A) (A) (A) (A) (A) (A) (A) (A) (A) (A)
                 (A) (A) (A) (A) (A) (A) (A) (A) (A) (A) (A) (A)
                 (A) (A) (A) (A) (A) (A) (A) (A) (A) (A) (A) (A)
                 (A) (A) (A) (A) (A) (A) (A) (A) (A)
 The electronic state of the initial guess is 1-A.
 Leave Link  401 at Sun Oct  4 11:28:27 2015, MaxMem=  805306368 cpu:      13.2
 (Enter /share/apps/g09/l502.exe)
 Closed shell SCF:
 Requested convergence on RMS density matrix=1.00D-08 within 128 cycles.
 Requested convergence on MAX density matrix=1.00D-06.
 Requested convergence on             energy=1.00D-06.
 No special actions if energy rises.
 Using DIIS extrapolation, IDIIS=  1040.
 Integral symmetry usage will be decided dynamically.
       450380 words used for storage of precomputed grid.
 Keep R1 ints in memory in canonical form, NReq=26104435.
 IEnd=      511924 IEndB=      511924 NGot=   805306368 MDV=   780174368
 LenX=   780174368 LenY=   780160003
 Symmetry not used in FoFDir.
 MinBra= 0 MaxBra= 2 Meth= 1.
 IRaf=       0 NMat=   1 IRICut=       1 DoRegI=T DoRafI=F ISym2E= 0 JSym2E=0.
 Integral accuracy reduced to 1.0D-05 until final iterations.

 Cycle   1  Pass 0  IDiag  1:
 E= -236.788938308774    
 DIIS: error= 5.83D-02 at cycle   1 NSaved=   1.
 NSaved= 1 IEnMin= 1 EnMin= -236.788938308774     IErMin= 1 ErrMin= 5.83D-02
 ErrMax= 5.83D-02 EMaxC= 1.00D-01 BMatC= 2.64D-01 BMatP= 2.64D-01
 IDIUse=3 WtCom= 4.17D-01 WtEn= 5.83D-01
 Coeff-Com:  0.100D+01
 Coeff-En:   0.100D+01
 Coeff:      0.100D+01
 Gap=     0.306 Goal=   None    Shift=    0.000
 GapD=    0.306 DampG=1.000 DampE=0.500 DampFc=0.5000 IDamp=-1.
 Damping current iteration by 5.00D-01
 RMSDP=1.04D-02 MaxDP=1.44D-01              OVMax= 1.81D-01

 Cycle   2  Pass 0  IDiag  1:
 E= -236.917222663973     Delta-E=       -0.128284355199 Rises=F Damp=T
 DIIS: error= 8.95D-03 at cycle   2 NSaved=   2.
 NSaved= 2 IEnMin= 2 EnMin= -236.917222663973     IErMin= 2 ErrMin= 8.95D-03
 ErrMax= 8.95D-03 EMaxC= 1.00D-01 BMatC= 1.04D-02 BMatP= 2.64D-01
 IDIUse=3 WtCom= 9.10D-01 WtEn= 8.95D-02
 Coeff-Com:  0.895D-01 0.910D+00
 Coeff-En:   0.152D+00 0.848D+00
 Coeff:      0.951D-01 0.905D+00
 Gap=     0.392 Goal=   None    Shift=    0.000
 RMSDP=1.83D-03 MaxDP=2.72D-02 DE=-1.28D-01 OVMax= 1.08D-01

 Cycle   3  Pass 0  IDiag  1:
 E= -237.082127693251     Delta-E=       -0.164905029278 Rises=F Damp=F
 DIIS: error= 4.04D-03 at cycle   3 NSaved=   3.
 NSaved= 3 IEnMin= 3 EnMin= -237.082127693251     IErMin= 3 ErrMin= 4.04D-03
 ErrMax= 4.04D-03 EMaxC= 1.00D-01 BMatC= 1.60D-03 BMatP= 1.04D-02
 IDIUse=3 WtCom= 9.60D-01 WtEn= 4.04D-02
 Coeff-Com:  0.138D-01 0.229D+00 0.757D+00
 Coeff-En:   0.000D+00 0.000D+00 0.100D+01
 Coeff:      0.132D-01 0.220D+00 0.767D+00
 Gap=     0.376 Goal=   None    Shift=    0.000
 RMSDP=6.27D-04 MaxDP=1.57D-02 DE=-1.65D-01 OVMax= 1.36D-02

 Cycle   4  Pass 0  IDiag  1:
 E= -237.082944876279     Delta-E=       -0.000817183029 Rises=F Damp=F
 DIIS: error= 2.48D-03 at cycle   4 NSaved=   4.
 NSaved= 4 IEnMin= 4 EnMin= -237.082944876279     IErMin= 4 ErrMin= 2.48D-03
 ErrMax= 2.48D-03 EMaxC= 1.00D-01 BMatC= 7.97D-04 BMatP= 1.60D-03
 IDIUse=3 WtCom= 9.75D-01 WtEn= 2.48D-02
 Coeff-Com:  0.127D-03 0.309D-01 0.415D+00 0.554D+00
 Coeff-En:   0.000D+00 0.000D+00 0.329D+00 0.671D+00
 Coeff:      0.124D-03 0.301D-01 0.412D+00 0.557D+00
 Gap=     0.380 Goal=   None    Shift=    0.000
 RMSDP=2.46D-04 MaxDP=5.95D-03 DE=-8.17D-04 OVMax= 6.48D-03

 Cycle   5  Pass 0  IDiag  1:
 E= -237.083693155204     Delta-E=       -0.000748278924 Rises=F Damp=F
 DIIS: error= 2.08D-04 at cycle   5 NSaved=   5.
 NSaved= 5 IEnMin= 5 EnMin= -237.083693155204     IErMin= 5 ErrMin= 2.08D-04
 ErrMax= 2.08D-04 EMaxC= 1.00D-01 BMatC= 9.88D-06 BMatP= 7.97D-04
 IDIUse=3 WtCom= 9.98D-01 WtEn= 2.08D-03
 Coeff-Com:  0.148D-03-0.182D-02 0.946D-01 0.178D+00 0.729D+00
 Coeff-En:   0.000D+00 0.000D+00 0.000D+00 0.000D+00 0.100D+01
 Coeff:      0.147D-03-0.181D-02 0.945D-01 0.178D+00 0.729D+00
 Gap=     0.380 Goal=   None    Shift=    0.000
 RMSDP=2.80D-05 MaxDP=6.44D-04 DE=-7.48D-04 OVMax= 5.91D-04

 Cycle   6  Pass 0  IDiag  1:
 E= -237.083702005214     Delta-E=       -0.000008850011 Rises=F Damp=F
 DIIS: error= 4.77D-05 at cycle   6 NSaved=   6.
 NSaved= 6 IEnMin= 6 EnMin= -237.083702005214     IErMin= 6 ErrMin= 4.77D-05
 ErrMax= 4.77D-05 EMaxC= 1.00D-01 BMatC= 1.88D-07 BMatP= 9.88D-06
 IDIUse=1 WtCom= 1.00D+00 WtEn= 0.00D+00
 Coeff-Com:  0.149D-03-0.111D-02 0.271D-01 0.533D-01 0.252D+00 0.669D+00
 Coeff:      0.149D-03-0.111D-02 0.271D-01 0.533D-01 0.252D+00 0.669D+00
 Gap=     0.380 Goal=   None    Shift=    0.000
 RMSDP=6.12D-06 MaxDP=7.78D-05 DE=-8.85D-06 OVMax= 1.43D-04

 Initial convergence to 1.0D-05 achieved.  Increase integral accuracy.
 Cycle   7  Pass 1  IDiag  1:
 E= -237.083671296095     Delta-E=        0.000030709119 Rises=F Damp=F
 DIIS: error= 1.24D-05 at cycle   1 NSaved=   1.
 NSaved= 1 IEnMin= 1 EnMin= -237.083671296095     IErMin= 1 ErrMin= 1.24D-05
 ErrMax= 1.24D-05 EMaxC= 1.00D-01 BMatC= 2.91D-08 BMatP= 2.91D-08
 IDIUse=1 WtCom= 1.00D+00 WtEn= 0.00D+00
 Coeff-Com:  0.100D+01
 Coeff:      0.100D+01
 Gap=     0.380 Goal=   None    Shift=    0.000
 RMSDP=6.12D-06 MaxDP=7.78D-05 DE= 3.07D-05 OVMax= 7.25D-05

 Cycle   8  Pass 1  IDiag  1:
 E= -237.083671286870     Delta-E=        0.000000009225 Rises=F Damp=F
 DIIS: error= 1.61D-05 at cycle   2 NSaved=   2.
 NSaved= 2 IEnMin= 1 EnMin= -237.083671296095     IErMin= 1 ErrMin= 1.24D-05
 ErrMax= 1.61D-05 EMaxC= 1.00D-01 BMatC= 4.10D-08 BMatP= 2.91D-08
 IDIUse=1 WtCom= 1.00D+00 WtEn= 0.00D+00
 Coeff-Com:  0.545D+00 0.455D+00
 Coeff:      0.545D+00 0.455D+00
 Gap=     0.380 Goal=   None    Shift=    0.000
 RMSDP=1.64D-06 MaxDP=3.27D-05 DE= 9.22D-09 OVMax= 4.31D-05

 Cycle   9  Pass 1  IDiag  1:
 E= -237.083671327696     Delta-E=       -0.000000040826 Rises=F Damp=F
 DIIS: error= 6.69D-07 at cycle   3 NSaved=   3.
 NSaved= 3 IEnMin= 3 EnMin= -237.083671327696     IErMin= 3 ErrMin= 6.69D-07
 ErrMax= 6.69D-07 EMaxC= 1.00D-01 BMatC= 1.11D-10 BMatP= 2.91D-08
 IDIUse=1 WtCom= 1.00D+00 WtEn= 0.00D+00
 Coeff-Com:  0.208D-02 0.433D-01 0.955D+00
 Coeff:      0.208D-02 0.433D-01 0.955D+00
 Gap=     0.380 Goal=   None    Shift=    0.000
 RMSDP=1.53D-07 MaxDP=3.26D-06 DE=-4.08D-08 OVMax= 3.29D-06

 Cycle  10  Pass 1  IDiag  1:
 E= -237.083671327797     Delta-E=       -0.000000000101 Rises=F Damp=F
 DIIS: error= 2.84D-07 at cycle   4 NSaved=   4.
 NSaved= 4 IEnMin= 4 EnMin= -237.083671327797     IErMin= 4 ErrMin= 2.84D-07
 ErrMax= 2.84D-07 EMaxC= 1.00D-01 BMatC= 1.82D-11 BMatP= 1.11D-10
 IDIUse=1 WtCom= 1.00D+00 WtEn= 0.00D+00
 Coeff-Com: -0.102D-01 0.890D-02 0.404D+00 0.597D+00
 Coeff:     -0.102D-01 0.890D-02 0.404D+00 0.597D+00
 Gap=     0.380 Goal=   None    Shift=    0.000
 RMSDP=4.11D-08 MaxDP=9.77D-07 DE=-1.01D-10 OVMax= 1.23D-06

 Cycle  11  Pass 1  IDiag  1:
 E= -237.083671327813     Delta-E=       -0.000000000016 Rises=F Damp=F
 DIIS: error= 9.20D-08 at cycle   5 NSaved=   5.
 NSaved= 5 IEnMin= 5 EnMin= -237.083671327813     IErMin= 5 ErrMin= 9.20D-08
 ErrMax= 9.20D-08 EMaxC= 1.00D-01 BMatC= 1.54D-12 BMatP= 1.82D-11
 IDIUse=1 WtCom= 1.00D+00 WtEn= 0.00D+00
 Coeff-Com: -0.474D-02 0.114D-02 0.120D+00 0.278D+00 0.606D+00
 Coeff:     -0.474D-02 0.114D-02 0.120D+00 0.278D+00 0.606D+00
 Gap=     0.380 Goal=   None    Shift=    0.000
 RMSDP=1.07D-08 MaxDP=2.35D-07 DE=-1.63D-11 OVMax= 2.98D-07

 Cycle  12  Pass 1  IDiag  1:
 E= -237.083671327815     Delta-E=       -0.000000000002 Rises=F Damp=F
 DIIS: error= 1.10D-08 at cycle   6 NSaved=   6.
 NSaved= 6 IEnMin= 6 EnMin= -237.083671327815     IErMin= 6 ErrMin= 1.10D-08
 ErrMax= 1.10D-08 EMaxC= 1.00D-01 BMatC= 1.91D-14 BMatP= 1.54D-12
 IDIUse=1 WtCom= 1.00D+00 WtEn= 0.00D+00
 Coeff-Com: -0.815D-03-0.455D-05 0.161D-01 0.445D-01 0.150D+00 0.791D+00
 Coeff:     -0.815D-03-0.455D-05 0.161D-01 0.445D-01 0.150D+00 0.791D+00
 Gap=     0.380 Goal=   None    Shift=    0.000
 RMSDP=1.96D-09 MaxDP=3.17D-08 DE=-1.65D-12 OVMax= 4.30D-08

 SCF Done:  E(RB3LYP) =  -237.083671328     A.U. after   12 cycles
             Convg  =    0.1963D-08             -V/T =  2.0104
 KE= 2.346367751075D+02 PE=-1.076648282744D+03 EE= 3.400657251568D+02
 Leave Link  502 at Sun Oct  4 11:29:13 2015, MaxMem=  805306368 cpu:     157.3
 (Enter /share/apps/g09/l601.exe)
 Copying SCF densities to generalized density rwf, IOpCl= 0 IROHF=0.

 **********************************************************************

            Population analysis using the SCF density.

 **********************************************************************

 Orbital symmetries:
       Occupied  (A) (A) (A) (A) (A) (A) (A) (A) (A) (A) (A) (A)
                 (A) (A) (A) (A) (A) (A) (A) (A) (A) (A) (A) (A)
                 (A)
       Virtual   (A) (A) (A) (A) (A) (A) (A) (A) (A) (A) (A) (A)
                 (A) (A) (A) (A) (A) (A) (A) (A) (A) (A) (A) (A)
                 (A) (A) (A) (A) (A) (A) (A) (A) (A) (A) (A) (A)
                 (A) (A) (A) (A) (A) (A) (A) (A) (A) (A) (A) (A)
                 (A) (A) (A) (A) (A) (A) (A) (A) (A) (A) (A) (A)
                 (A) (A) (A) (A) (A) (A) (A) (A) (A) (A) (A) (A)
                 (A) (A) (A) (A) (A) (A) (A) (A) (A) (A) (A) (A)
                 (A) (A) (A) (A) (A) (A) (A) (A) (A)
 The electronic state is 1-A.
 Alpha  occ. eigenvalues --  -10.19075 -10.17436 -10.16951 -10.16702 -10.16701
 Alpha  occ. eigenvalues --  -10.16692  -0.81595  -0.73038  -0.67745  -0.67728
 Alpha  occ. eigenvalues --   -0.61748  -0.52181  -0.45194  -0.45089  -0.43037
 Alpha  occ. eigenvalues --   -0.41743  -0.39345  -0.37700  -0.37176  -0.35835
 Alpha  occ. eigenvalues --   -0.35234  -0.33907  -0.31105  -0.30913  -0.30319
 Alpha virt. eigenvalues --    0.07664   0.12427   0.13493   0.13724   0.14291
 Alpha virt. eigenvalues --    0.14612   0.16119   0.17673   0.17808   0.19651
 Alpha virt. eigenvalues --    0.20519   0.20861   0.22602   0.22712   0.24407
 Alpha virt. eigenvalues --    0.25056   0.25961   0.26372   0.27389   0.49449
 Alpha virt. eigenvalues --    0.50730   0.51525   0.51939   0.52583   0.58821
 Alpha virt. eigenvalues --    0.60662   0.62256   0.63821   0.69670   0.71234
 Alpha virt. eigenvalues --    0.71577   0.75123   0.76599   0.82122   0.86410
 Alpha virt. eigenvalues --    0.88204   0.89106   0.90618   0.90802   0.91109
 Alpha virt. eigenvalues --    0.91182   0.91725   0.93374   0.93885   0.95725
 Alpha virt. eigenvalues --    0.96238   0.96906   0.98223   1.00075   1.00115
 Alpha virt. eigenvalues --    1.02868   1.04086   1.29472   1.39602   1.40799
 Alpha virt. eigenvalues --    1.48808   1.51245   1.60973   1.64385   1.68254
 Alpha virt. eigenvalues --    1.73252   1.73296   1.80627   1.87338   1.88265
 Alpha virt. eigenvalues --    1.93326   1.93687   1.97866   2.09243   2.10358
 Alpha virt. eigenvalues --    2.10536   2.12008   2.13120   2.24762   2.25217
 Alpha virt. eigenvalues --    2.25542   2.27366   2.27565   2.30836   2.35838
 Alpha virt. eigenvalues --    2.36668   2.49107   2.58393   2.69386   2.71794
 Alpha virt. eigenvalues --    2.74314   2.76380   4.13249   4.25485   4.31455
 Alpha virt. eigenvalues --    4.31517   4.44981   4.67751
          Condensed to atoms (all electrons):
              1          2          3          4          5          6
     1  C    5.152634   0.365873   0.365873   0.363992   0.388776  -0.057147
     2  H    0.365873   0.584653  -0.030925  -0.030793  -0.029287  -0.005346
     3  H    0.365873  -0.030925   0.584653  -0.030793  -0.029286  -0.005347
     4  H    0.363992  -0.030793  -0.030793   0.586090  -0.028116   0.005371
     5  C    0.388776  -0.029287  -0.029286  -0.028116   4.705981   0.398769
     6  C   -0.057147  -0.005346  -0.005347   0.005371   0.398769   5.019630
     7  H   -0.005449  -0.000242   0.005316  -0.000041  -0.035364   0.367314
     8  H   -0.005447   0.005314  -0.000242  -0.000041  -0.035364   0.367317
     9  C    0.004652  -0.000003  -0.000003  -0.000163  -0.036747   0.369560
    10  H    0.000061  -0.000004   0.000002   0.000001  -0.005641  -0.033896
    11  H   -0.000132  -0.000003  -0.000003   0.000002   0.004081  -0.026919
    12  H    0.000061   0.000002  -0.000004   0.000001  -0.005641  -0.033893
    13  C   -0.061872   0.005889  -0.004903  -0.004934   0.387366  -0.057423
    14  H    0.005661  -0.000196  -0.000049  -0.000056  -0.028095  -0.005671
    15  H   -0.004585  -0.000066   0.003955  -0.000137  -0.029655  -0.004817
    16  H   -0.005822  -0.000025  -0.000150   0.004469  -0.029205   0.005485
    17  C   -0.061873  -0.004904   0.005890  -0.004934   0.387366  -0.057422
    18  H   -0.005821  -0.000150  -0.000025   0.004468  -0.029207   0.005485
    19  H   -0.004587   0.003956  -0.000066  -0.000137  -0.029653  -0.004817
    20  H    0.005661  -0.000049  -0.000195  -0.000056  -0.028095  -0.005670
              7          8          9         10         11         12
     1  C   -0.005449  -0.005447   0.004652   0.000061  -0.000132   0.000061
     2  H   -0.000242   0.005314  -0.000003  -0.000004  -0.000003   0.000002
     3  H    0.005316  -0.000242  -0.000003   0.000002  -0.000003  -0.000004
     4  H   -0.000041  -0.000041  -0.000163   0.000001   0.000002   0.000001
     5  C   -0.035364  -0.035364  -0.036747  -0.005641   0.004081  -0.005641
     6  C    0.367314   0.367317   0.369560  -0.033896  -0.026919  -0.033893
     7  H    0.620404  -0.037926  -0.040137   0.005239  -0.003288  -0.004146
     8  H   -0.037926   0.620401  -0.040136  -0.004141  -0.003292   0.005239
     9  C   -0.040137  -0.040136   5.078404   0.377361   0.371489   0.377363
    10  H    0.005239  -0.004141   0.377361   0.574130  -0.031508  -0.032851
    11  H   -0.003288  -0.003292   0.371489  -0.031508   0.579516  -0.031509
    12  H   -0.004146   0.005239   0.377363  -0.032851  -0.031509   0.574130
    13  C   -0.006980   0.006305  -0.005525  -0.000429   0.000089   0.003350
    14  H   -0.000085  -0.000053   0.001792   0.000197  -0.000062   0.002788
    15  H    0.004708  -0.000035  -0.000224   0.000053  -0.000031   0.000290
    16  H   -0.000076  -0.000184   0.000086  -0.000021   0.000000  -0.000117
    17  C    0.006305  -0.006983  -0.005527   0.003349   0.000089  -0.000428
    18  H   -0.000184  -0.000076   0.000086  -0.000117   0.000000  -0.000021
    19  H   -0.000035   0.004709  -0.000223   0.000289  -0.000031   0.000053
    20  H   -0.000053  -0.000085   0.001790   0.002792  -0.000062   0.000197
             13         14         15         16         17         18
     1  C   -0.061872   0.005661  -0.004585  -0.005822  -0.061873  -0.005821
     2  H    0.005889  -0.000196  -0.000066  -0.000025  -0.004904  -0.000150
     3  H   -0.004903  -0.000049   0.003955  -0.000150   0.005890  -0.000025
     4  H   -0.004934  -0.000056  -0.000137   0.004469  -0.004934   0.004468
     5  C    0.387366  -0.028095  -0.029655  -0.029205   0.387366  -0.029207
     6  C   -0.057423  -0.005671  -0.004817   0.005485  -0.057422   0.005485
     7  H   -0.006980  -0.000085   0.004708  -0.000076   0.006305  -0.000184
     8  H    0.006305  -0.000053  -0.000035  -0.000184  -0.006983  -0.000076
     9  C   -0.005525   0.001792  -0.000224   0.000086  -0.005527   0.000086
    10  H   -0.000429   0.000197   0.000053  -0.000021   0.003349  -0.000117
    11  H    0.000089  -0.000062  -0.000031   0.000000   0.000089   0.000000
    12  H    0.003350   0.002788   0.000290  -0.000117  -0.000428  -0.000021
    13  C    5.151255   0.367360   0.366071   0.366932  -0.064486  -0.004413
    14  H    0.367360   0.578797  -0.031238  -0.031102  -0.004851  -0.000185
    15  H    0.366071  -0.031238   0.585301  -0.030959   0.005799  -0.000070
    16  H    0.366932  -0.031102  -0.030959   0.584783  -0.004413   0.003829
    17  C   -0.064486  -0.004851   0.005799  -0.004413   5.151263   0.366931
    18  H   -0.004413  -0.000185  -0.000070   0.003829   0.366931   0.584784
    19  H    0.005799  -0.000032  -0.000196  -0.000070   0.366071  -0.030957
    20  H   -0.004850   0.003964  -0.000032  -0.000185   0.367357  -0.031102
             19         20
     1  C   -0.004587   0.005661
     2  H    0.003956  -0.000049
     3  H   -0.000066  -0.000195
     4  H   -0.000137  -0.000056
     5  C   -0.029653  -0.028095
     6  C   -0.004817  -0.005670
     7  H   -0.000035  -0.000053
     8  H    0.004709  -0.000085
     9  C   -0.000223   0.001790
    10  H    0.000289   0.002792
    11  H   -0.000031  -0.000062
    12  H    0.000053   0.000197
    13  C    0.005799  -0.004850
    14  H   -0.000032   0.003964
    15  H   -0.000196  -0.000032
    16  H   -0.000070  -0.000185
    17  C    0.366071   0.367357
    18  H   -0.030957  -0.031102
    19  H    0.585298  -0.031240
    20  H   -0.031240   0.578803
 Mulliken atomic charges:
              1
     1  C   -0.440506
     2  H    0.136304
     3  H    0.136304
     4  H    0.135806
     5  C    0.107017
     6  C   -0.240563
     7  H    0.124721
     8  H    0.124722
     9  C   -0.453895
    10  H    0.145133
    11  H    0.141574
    12  H    0.145136
    13  C   -0.444600
    14  H    0.141114
    15  H    0.135866
    16  H    0.136745
    17  C   -0.444598
    18  H    0.136745
    19  H    0.135867
    20  H    0.141109
 Sum of Mulliken atomic charges =   0.00000
 Mulliken charges with hydrogens summed into heavy atoms:
              1
     1  C   -0.032093
     5  C    0.107017
     6  C    0.008879
     9  C   -0.022051
    13  C   -0.030875
    17  C   -0.030877
 Sum of Mulliken charges with hydrogens summed into heavy atoms =   0.00000
 Electronic spatial extent (au):  <R**2>=            705.8325
 Charge=              0.0000 electrons
 Dipole moment (field-independent basis, Debye):
    X=             -0.0379    Y=              0.0167    Z=              0.0000  Tot=              0.0414
 Quadrupole moment (field-independent basis, Debye-Ang):
   XX=            -41.7845   YY=            -41.6722   ZZ=            -41.5876
   XY=             -0.2731   XZ=              0.0001   YZ=              0.0000
 Traceless Quadrupole moment (field-independent basis, Debye-Ang):
   XX=             -0.1031   YY=              0.0093   ZZ=              0.0938
   XY=             -0.2731   XZ=              0.0001   YZ=              0.0000
 Octapole moment (field-independent basis, Debye-Ang**2):
  XXX=              0.8845  YYY=             -0.2556  ZZZ=             -0.0044  XYY=             -0.9011
  XXY=             -1.1202  XXZ=              0.0008  XZZ=             -0.7152  YZZ=              1.9088
  YYZ=              0.0033  XYZ=              0.0005
 Hexadecapole moment (field-independent basis, Debye-Ang**3):
 XXXX=           -499.8500 YYYY=           -243.1730 ZZZZ=           -239.3563 XXXY=             -8.8266
 XXXZ=              0.0046 YYYX=              0.1469 YYYZ=              0.0020 ZZZX=             -0.0034
 ZZZY=             -0.0011 XXYY=           -122.0187 XXZZ=           -123.9907 YYZZ=            -79.4988
 XXYZ=             -0.0005 YYXZ=              0.0021 ZZXY=              2.1409
 N-N= 2.648621111517D+02 E-N=-1.076648284901D+03  KE= 2.346367751075D+02
 No NMR shielding tensors so no spin-rotation constants.
 Leave Link  601 at Sun Oct  4 11:29:13 2015, MaxMem=  805306368 cpu:       0.8
 (Enter /share/apps/g09/l701.exe)
 Compute integral first derivatives.
 ... and contract with generalized density number  0.
 Leave Link  701 at Sun Oct  4 11:29:14 2015, MaxMem=  805306368 cpu:       1.2
 (Enter /share/apps/g09/l702.exe)
 L702 exits ... SP integral derivatives will be done elsewhere.
 Leave Link  702 at Sun Oct  4 11:29:14 2015, MaxMem=  805306368 cpu:       0.1
 (Enter /share/apps/g09/l703.exe)
 Compute integral first derivatives, UseDBF=F ICtDFT=           0.
 Integral derivatives from FoFDir, PRISM(SPDF).
 Calling FoFJK, ICntrl=      2127 FMM=F ISym2X=0 I1Cent= 0 IOpClX= 0 NMat=1 NMatS=1 NMatT=0.
 FoFCou: FMM=F IPFlag=           0 FMFlag=      100000 FMFlg1=         800
         NFxFlg=           0 DoJE=F BraDBF=F KetDBF=F FulRan=T
         Omega=  0.000000  0.000000  1.000000  0.000000  0.000000 ICntrl=    2127 IOpCl=  0
         NMat0=    1 NMatS0=    1 NMatT0=    0 NMatD0=    1 NMtDS0=    0 NMtDT0=    0
         I1Cent=           0 NGrid=           0.
 Symmetry not used in FoFCou.
 Leave Link  703 at Sun Oct  4 11:29:23 2015, MaxMem=  805306368 cpu:      35.4
 (Enter /share/apps/g09/l716.exe)
 Dipole        =-1.49143768D-02 6.56144315D-03-9.44368477D-06
 ***** Axes restored to original set *****
 -------------------------------------------------------------------
 Center     Atomic                   Forces (Hartrees/Bohr)
 Number     Number              X              Y              Z
 -------------------------------------------------------------------
      1        6          -0.000000168   -0.000002657    0.000000087
      2        1          -0.000014935   -0.000030165   -0.000003152
      3        1          -0.000015551   -0.000030832    0.000002588
      4        1          -0.000027651    0.000006445    0.000000299
      5        6           0.000113416    0.000092610    0.000001720
      6        6           0.000006524    0.000066041   -0.000000876
      7        1          -0.000014968   -0.000008086   -0.000010036
      8        1          -0.000016806   -0.000006787    0.000011996
      9        6           0.000029927    0.000020136   -0.000000838
     10        1           0.000019949   -0.000019278    0.000007167
     11        1          -0.000004779   -0.000002775   -0.000000079
     12        1           0.000018668   -0.000021903   -0.000006912
     13        6          -0.000075607    0.000060628    0.000037708
     14        1          -0.000000262   -0.000054818   -0.000055710
     15        1           0.000026830   -0.000007658   -0.000010390
     16        1           0.000000982   -0.000028273    0.000000072
     17        6          -0.000076433    0.000053758   -0.000039801
     18        1           0.000000902   -0.000027887    0.000002539
     19        1           0.000028417   -0.000005040    0.000010545
     20        1           0.000001546   -0.000053460    0.000053074
 -------------------------------------------------------------------
 Cartesian Forces:  Max     0.000113416 RMS     0.000033967
 Leave Link  716 at Sun Oct  4 11:29:23 2015, MaxMem=  805306368 cpu:       0.1
 (Enter /share/apps/g09/l103.exe)

 GradGradGradGradGradGradGradGradGradGradGradGradGradGradGradGradGradGrad
 Berny optimization.
 Internal  Forces:  Max     0.000167626 RMS     0.000030746
 Search for a local minimum.
 Step number   1 out of a maximum of  110
 All quantities printed in internal units (Hartrees-Bohrs-Radians)
 RMS Force = .30746D-04 SwitMx=.10000D-02 MixMth= 2
 Mixed Optimization -- En-DIIS/RFO-DIIS
 Second derivative matrix not updated -- first step.
     Eigenvalues ---    0.00230   0.00230   0.00230   0.00230   0.00316
     Eigenvalues ---    0.03064   0.04397   0.04673   0.04897   0.04922
     Eigenvalues ---    0.05290   0.05324   0.05325   0.05395   0.05403
     Eigenvalues ---    0.05446   0.05446   0.05523   0.09021   0.12696
     Eigenvalues ---    0.14243   0.14514   0.16000   0.16000   0.16000
     Eigenvalues ---    0.16000   0.16000   0.16000   0.16000   0.16000
     Eigenvalues ---    0.16000   0.16000   0.16000   0.16000   0.21978
     Eigenvalues ---    0.27485   0.28356   0.28421   0.28422   0.29056
     Eigenvalues ---    0.33721   0.33721   0.33970   0.33971   0.33986
     Eigenvalues ---    0.33986   0.34010   0.34022   0.34022   0.34111
     Eigenvalues ---    0.34161   0.34162   0.34168   0.341681000.00000
     Eigenvalues --- 1000.000001000.000001000.000001000.000001000.00000
     Eigenvalues --- 1000.000001000.000001000.000001000.000001000.00000
     Eigenvalues --- 1000.000001000.000001000.000001000.000001000.00000
     Eigenvalues --- 1000.000001000.000001000.000001000.000001000.00000
     Eigenvalues --- 1000.000001000.000001000.000001000.000001000.00000
     Eigenvalues --- 1000.000001000.000001000.000001000.000001000.00000
     Eigenvalues --- 1000.000001000.000001000.000001000.000001000.00000
     Eigenvalues --- 1000.000001000.000001000.000001000.000001000.00000
     Eigenvalues --- 1000.000001000.000001000.000001000.000001000.00000
 RFO step:  Lambda=-1.11091598D-06 EMin= 2.30000000D-03
 Linear search not attempted -- first point.
 Iteration  1 RMS(Cart)=  0.00189409 RMS(Int)=  0.00000314
 Iteration  2 RMS(Cart)=  0.00000326 RMS(Int)=  0.00000003
 Iteration  3 RMS(Cart)=  0.00000000 RMS(Int)=  0.00000003
 Variable       Old X    -DE/DX   Delta X   Delta X   Delta X     New X
                                 (Linear)    (Quad)   (Total)
    R1        2.07353  -0.00002   0.00000  -0.00006  -0.00006   2.07347
    R2        2.07353  -0.00002   0.00000  -0.00006  -0.00006   2.07347
    R3        2.07313  -0.00003   0.00000  -0.00008  -0.00008   2.07305
    R4        2.91366  -0.00008   0.00000  -0.00029  -0.00029   2.91338
    R5        2.93279  -0.00002   0.00000  -0.00007  -0.00007   2.93273
    R6        2.91226   0.00004   0.00000   0.00013   0.00013   2.91239
    R7        2.91226   0.00004   0.00000   0.00013   0.00013   2.91239
    R8        2.07804   0.00000   0.00000   0.00001   0.00001   2.07804
    R9        2.07803   0.00001   0.00000   0.00002   0.00002   2.07804
   R10        2.89887  -0.00004   0.00000  -0.00014  -0.00014   2.89873
   R11        2.07048   0.00002   0.00000   0.00005   0.00005   2.07052
   R12        2.07142   0.00000   0.00000   0.00000   0.00000   2.07143
   R13        2.07048   0.00002   0.00000   0.00005   0.00005   2.07053
   R14        2.07058   0.00004   0.00000   0.00011   0.00011   2.07069
   R15        2.07380   0.00000   0.00000   0.00001   0.00001   2.07381
   R16        2.07293   0.00001   0.00000   0.00004   0.00004   2.07297
   R17        2.07293   0.00001   0.00000   0.00004   0.00004   2.07297
   R18        2.07380   0.00000   0.00000   0.00001   0.00001   2.07381
   R19        2.07059   0.00004   0.00000   0.00011   0.00011   2.07070
    A1        1.87962   0.00003   0.00000   0.00023   0.00023   1.87985
    A2        1.88003   0.00001   0.00000   0.00008   0.00008   1.88011
    A3        1.94092  -0.00003   0.00000  -0.00017  -0.00017   1.94075
    A4        1.88003   0.00001   0.00000   0.00008   0.00008   1.88011
    A5        1.94093  -0.00003   0.00000  -0.00018  -0.00018   1.94075
    A6        1.93950   0.00000   0.00000  -0.00001  -0.00001   1.93949
    A7        1.88396   0.00002   0.00000   0.00021   0.00021   1.88416
    A8        1.89931   0.00000   0.00000   0.00007   0.00007   1.89937
    A9        1.89928   0.00000   0.00000   0.00008   0.00008   1.89936
   A10        1.93455  -0.00001   0.00000  -0.00020  -0.00020   1.93436
   A11        1.93454  -0.00001   0.00000  -0.00018  -0.00018   1.93436
   A12        1.91137   0.00001   0.00000   0.00003   0.00003   1.91140
   A13        1.88593   0.00006   0.00000   0.00027   0.00027   1.88621
   A14        1.88591   0.00006   0.00000   0.00030   0.00030   1.88620
   A15        2.04127  -0.00017   0.00000  -0.00086  -0.00086   2.04041
   A16        1.84764  -0.00002   0.00000   0.00029   0.00029   1.84793
   A17        1.89685   0.00004   0.00000   0.00006   0.00006   1.89691
   A18        1.89689   0.00004   0.00000   0.00005   0.00005   1.89693
   A19        1.95547  -0.00002   0.00000  -0.00019  -0.00019   1.95528
   A20        1.92416   0.00002   0.00000   0.00023   0.00023   1.92439
   A21        1.95543  -0.00002   0.00000  -0.00016  -0.00016   1.95526
   A22        1.87211   0.00001   0.00000   0.00015   0.00015   1.87226
   A23        1.88058   0.00000   0.00000  -0.00016  -0.00016   1.88042
   A24        1.87211   0.00001   0.00000   0.00015   0.00015   1.87226
   A25        1.95243   0.00009   0.00000   0.00067   0.00067   1.95309
   A26        1.93998   0.00000   0.00000   0.00005   0.00005   1.94003
   A27        1.93269  -0.00001   0.00000  -0.00015  -0.00015   1.93254
   A28        1.88199  -0.00003   0.00000  -0.00004  -0.00004   1.88195
   A29        1.87474  -0.00005   0.00000  -0.00035  -0.00035   1.87439
   A30        1.87893  -0.00001   0.00000  -0.00022  -0.00022   1.87871
   A31        1.93267  -0.00001   0.00000  -0.00013  -0.00013   1.93254
   A32        1.93999   0.00000   0.00000   0.00003   0.00003   1.94002
   A33        1.95245   0.00009   0.00000   0.00065   0.00065   1.95310
   A34        1.87894  -0.00001   0.00000  -0.00023  -0.00023   1.87871
   A35        1.87473  -0.00005   0.00000  -0.00034  -0.00034   1.87438
   A36        1.88196  -0.00003   0.00000  -0.00002  -0.00002   1.88194
    D1        1.04734   0.00000   0.00000  -0.00003  -0.00003   1.04731
    D2       -3.13510  -0.00001   0.00000  -0.00011  -0.00011  -3.13521
    D3       -1.05336   0.00001   0.00000   0.00001   0.00001  -1.05334
    D4       -1.04734   0.00000   0.00000  -0.00009  -0.00009  -1.04743
    D5        1.05339  -0.00001   0.00000  -0.00016  -0.00016   1.05323
    D6        3.13514   0.00000   0.00000  -0.00004  -0.00004   3.13510
    D7        3.14159   0.00000   0.00000  -0.00006  -0.00006   3.14153
    D8       -1.04086  -0.00001   0.00000  -0.00013  -0.00013  -1.04099
    D9        1.04089   0.00001   0.00000  -0.00001  -0.00001   1.04088
   D10        0.99575   0.00002   0.00000   0.00039   0.00039   0.99613
   D11       -0.99600  -0.00002   0.00000  -0.00024  -0.00024  -0.99625
   D12        3.14145   0.00000   0.00000   0.00007   0.00007   3.14152
   D13       -1.08272   0.00002   0.00000   0.00029   0.00029  -1.08243
   D14       -3.07448  -0.00002   0.00000  -0.00034  -0.00034  -3.07481
   D15        1.06298   0.00000   0.00000  -0.00002  -0.00002   1.06296
   D16        3.07418   0.00002   0.00000   0.00051   0.00051   3.07468
   D17        1.08242  -0.00002   0.00000  -0.00012  -0.00012   1.08230
   D18       -1.06330   0.00000   0.00000   0.00019   0.00019  -1.06311
   D19        3.09146   0.00000   0.00000   0.00348   0.00348   3.09494
   D20       -1.08687   0.00002   0.00000   0.00392   0.00392  -1.08294
   D21        1.00083   0.00000   0.00000   0.00358   0.00358   1.00441
   D22       -1.12253   0.00001   0.00000   0.00366   0.00366  -1.11887
   D23        0.98234   0.00003   0.00000   0.00410   0.00410   0.98644
   D24        3.07003   0.00001   0.00000   0.00376   0.00376   3.07379
   D25        1.01727  -0.00001   0.00000   0.00333   0.00333   1.02060
   D26        3.12213   0.00002   0.00000   0.00377   0.00377   3.12590
   D27       -1.07336   0.00000   0.00000   0.00342   0.00342  -1.06994
   D28       -1.00099   0.00000   0.00000  -0.00345  -0.00345  -1.00443
   D29        1.08672  -0.00002   0.00000  -0.00380  -0.00380   1.08292
   D30       -3.09160   0.00001   0.00000  -0.00336  -0.00336  -3.09496
   D31       -3.07016  -0.00001   0.00000  -0.00364  -0.00364  -3.07380
   D32       -0.98245  -0.00003   0.00000  -0.00400  -0.00400  -0.98645
   D33        1.12241  -0.00001   0.00000  -0.00355  -0.00355   1.11885
   D34        1.07322   0.00000   0.00000  -0.00330  -0.00330   1.06992
   D35       -3.12226  -0.00002   0.00000  -0.00366  -0.00366  -3.12591
   D36       -1.01740   0.00001   0.00000  -0.00321  -0.00321  -1.02061
   D37        1.05785  -0.00001   0.00000  -0.00011  -0.00011   1.05774
   D38        3.14140   0.00000   0.00000   0.00011   0.00011   3.14151
   D39       -1.05826   0.00001   0.00000   0.00035   0.00035  -1.05791
   D40       -3.08527  -0.00002   0.00000  -0.00032  -0.00032  -3.08559
   D41       -1.00171  -0.00001   0.00000  -0.00010  -0.00010  -1.00182
   D42        1.08181   0.00000   0.00000   0.00014   0.00014   1.08195
   D43       -1.08222   0.00000   0.00000   0.00008   0.00008  -1.08214
   D44        1.00134   0.00001   0.00000   0.00030   0.00030   1.00163
   D45        3.08486   0.00002   0.00000   0.00054   0.00054   3.08540
         Item               Value     Threshold  Converged?
 Maximum Force            0.000168     0.000015     NO 
 RMS     Force            0.000031     0.000010     NO 
 Maximum Displacement     0.006972     0.000060     NO 
 RMS     Displacement     0.001894     0.000040     NO 
 Predicted change in Energy=-5.554692D-07
 GradGradGradGradGradGradGradGradGradGradGradGradGradGradGradGradGradGrad

 Leave Link  103 at Sun Oct  4 11:29:23 2015, MaxMem=  805306368 cpu:       0.1
 (Enter /share/apps/g09/l202.exe)
                          Input orientation:                          
 ---------------------------------------------------------------------
 Center     Atomic      Atomic             Coordinates (Angstroms)
 Number     Number       Type             X           Y           Z
 ---------------------------------------------------------------------
      1          6           0        1.617711    0.990431   -0.000812
      2          1           0        1.593182    1.637845    0.884725
      3          1           0        1.593128    1.636490   -0.887338
      4          1           0        2.578156    0.460355   -0.000436
      5          6           0        0.436374   -0.000155   -0.000017
      6          6           0       -0.878811    0.823727   -0.000517
      7          1           0       -0.866294    1.485735   -0.878484
      8          1           0       -0.866219    1.486912    0.876559
      9          6           0       -2.193260    0.033034    0.000050
     10          1           0       -2.288412   -0.605425    0.885385
     11          1           0       -3.048587    0.718574   -0.000288
     12          1           0       -2.288536   -0.606456   -0.884528
     13          6           0        0.528916   -0.885545   -1.258081
     14          1           0       -0.263203   -1.642212   -1.284592
     15          1           0        0.449623   -0.283953   -2.172476
     16          1           0        1.489217   -1.414795   -1.290557
     17          6           0        0.529101   -0.883716    1.259321
     18          1           0        1.489400   -1.412932    1.292415
     19          1           0        0.449958   -0.280793    2.172850
     20          1           0       -0.263020   -1.640339    1.287064
 ---------------------------------------------------------------------
                    Distance matrix (angstroms):
                    1          2          3          4          5
     1  C    0.000000
     2  H    1.097234   0.000000
     3  H    1.097234   1.772063   0.000000
     4  H    1.097012   1.772052   1.772052   0.000000
     5  C    1.541693   2.191807   2.191808   2.190730   0.000000
     6  C    2.502082   2.749035   2.749094   3.476012   1.551932
     7  H    2.680655   3.030027   2.464054   3.699542   2.162526
     8  H    2.680706   2.464042   3.030197   3.699549   2.162523
     9  C    3.929391   4.206568   4.206574   4.790513   2.629844
    10  H    4.311601   4.483195   4.820278   5.060045   2.928267
    11  H    4.674211   4.813972   4.814037   5.632665   3.558304
    12  H    4.311585   4.820257   4.483094   5.060079   2.928327
    13  C    2.507088   3.477324   2.762365   2.755450   1.541171
    14  H    3.480910   4.348664   3.788623   3.760740   2.199066
    15  H    2.775718   3.787811   2.578233   3.130879   2.190958
    16  H    2.732228   3.749837   3.079566   2.523171   2.185218
    17  C    2.507078   2.762402   3.477318   2.755385   1.541173
    18  H    2.732226   3.079647   3.749808   2.523105   2.185220
    19  H    2.775693   2.578256   3.787818   3.130767   2.190957
    20  H    3.480909   3.788648   4.348668   3.760698   2.199075
                    6          7          8          9         10
     6  C    0.000000
     7  H    1.099654   0.000000
     8  H    1.099653   1.755044   0.000000
     9  C    1.533940   2.154763   2.154778   0.000000
    10  H    2.194145   3.083278   2.529938   1.095674   0.000000
    11  H    2.172323   2.474302   2.474254   1.096153   1.765010
    12  H    2.194134   2.529837   3.083279   1.095675   1.769914
    13  C    2.546521   2.777350   3.483051   3.136386   3.551091
    14  H    2.847573   3.211338   3.850405   2.860397   3.144073
    15  H    2.776526   2.556922   3.763512   3.435867   4.117122
    16  H    3.504674   3.759163   4.320229   4.162032   4.433991
    17  C    2.546521   3.483050   2.777284   3.136470   2.855810
    18  H    3.504674   4.320228   3.759119   4.162092   3.884534
    19  H    2.776529   3.763480   2.556849   3.436008   3.043291
    20  H    2.847575   3.850438   3.211240   2.860491   2.309676
                   11         12         13         14         15
    11  H    0.000000
    12  H    1.765012   0.000000
    13  C    4.117496   2.855778   0.000000
    14  H    3.870544   2.309722   1.095764   0.000000
    15  H    4.238035   3.043079   1.097414   1.772378   0.000000
    16  H    5.177618   3.884544   1.096968   1.767124   1.771253
    17  C    4.117500   3.551344   2.517404   2.770299   3.484719
    18  H    5.177618   4.434218   2.775915   3.124925   3.789618
    19  H    4.238052   4.117398   3.484717   3.783644   4.345327
    20  H    3.870547   3.144430   2.770314   2.571657   3.783657
                   16         17         18         19         20
    16  H    0.000000
    17  C    2.775923   0.000000
    18  H    2.582973   1.096968   0.000000
    19  H    3.789619   1.097413   1.771255   0.000000
    20  H    3.124953   1.095765   1.767121   1.772376   0.000000
 Stoichiometry    C6H14
 Framework group  C1[X(C6H14)]
 Deg. of freedom    54
 Full point group                 C1      NOp   1
 Largest Abelian subgroup         C1      NOp   1
 Largest concise Abelian subgroup C1      NOp   1
                         Standard orientation:                         
 ---------------------------------------------------------------------
 Center     Atomic      Atomic             Coordinates (Angstroms)
 Number     Number       Type             X           Y           Z
 ---------------------------------------------------------------------
      1          6           0        1.618287    0.989424   -0.000295
      2          1           0        1.594090    1.636431    0.885549
      3          1           0        1.594087    1.635916   -0.886514
      4          1           0        2.578439    0.458816   -0.000142
      5          6           0        0.436402   -0.000509   -0.000004
      6          6           0       -0.878327    0.824099   -0.000151
      7          1           0       -0.865418    1.486517   -0.877803
      8          1           0       -0.865394    1.486862    0.877240
      9          6           0       -2.193213    0.034133    0.000003
     10          1           0       -2.288744   -0.604693    0.885032
     11          1           0       -3.048161    0.720147   -0.000035
     12          1           0       -2.288817   -0.604884   -0.884881
     13          6           0        0.528491   -0.885353   -1.258485
     14          1           0       -0.264045   -1.641569   -1.285378
     15          1           0        0.449558   -0.283284   -2.172597
     16          1           0        1.488500   -1.415119   -1.291184
     17          6           0        0.528604   -0.884720    1.258918
     18          1           0        1.488609   -1.414482    1.291789
     19          1           0        0.449767   -0.282186    2.172731
     20          1           0       -0.263936   -1.640917    1.286279
 ---------------------------------------------------------------------
 Rotational constants (GHZ):      4.2613779      2.4698622      2.4614123
 Leave Link  202 at Sun Oct  4 11:29:23 2015, MaxMem=  805306368 cpu:       0.0
 (Enter /share/apps/g09/l301.exe)
 Standard basis: 6-31G(d) (6D, 7F)
 Ernie: Thresh=  0.10000D-02 Tol=  0.10000D-05 Strict=F.
 There are   118 symmetry adapted basis functions of A   symmetry.
 Integral buffers will be    131072 words long.
 Raffenetti 2 integral format.
 Two-electron integral symmetry is turned on.
   118 basis functions,   224 primitive gaussians,   118 cartesian basis functions
    25 alpha electrons       25 beta electrons
       nuclear repulsion energy       264.8761730876 Hartrees.
 IExCor=  402 DFT=T Ex+Corr=B3LYP ExCW=0 ScaHFX=  0.200000
 ScaDFX=  0.800000  0.720000  1.000000  0.810000 ScalE2=  1.000000  1.000000
 IRadAn=      5 IRanWt=     -1 IRanGd=            0 ICorTp=0
 NAtoms=   20 NActive=   20 NUniq=   20 SFac= 7.50D-01 NAtFMM=   80 NAOKFM=F Big=F
 Leave Link  301 at Sun Oct  4 11:29:23 2015, MaxMem=  805306368 cpu:       0.2
 (Enter /share/apps/g09/l302.exe)
 NPDir=0 NMtPBC=     1 NCelOv=     1 NCel=       1 NClECP=     1 NCelD=      1
         NCelK=      1 NCelE2=     1 NClLst=     1 CellRange=     0.0.
 One-electron integrals computed using PRISM.
 NBasis=   118 RedAO= T  NBF=   118
 NBsUse=   118 1.00D-06 NBFU=   118
 Precomputing XC quadrature grid using
 IXCGrd= 2 IRadAn=           5 IRanWt=          -1 IRanGd=           0 AccXCQ= 1.00D-10.
 NRdTot=    1640 NPtTot=      438820 NUsed=      450573 NTot=      450605
 NSgBfM=   118   118   118   118   118 NAtAll=    20    20.
 Leave Link  302 at Sun Oct  4 11:29:24 2015, MaxMem=  805306368 cpu:       3.1
 (Enter /share/apps/g09/l303.exe)
 DipDrv:  MaxL=1.
 Leave Link  303 at Sun Oct  4 11:29:24 2015, MaxMem=  805306368 cpu:       0.2
 (Enter /share/apps/g09/l401.exe)
 Initial guess read from the read-write file.
 B after Tr=     0.000000    0.000000    0.000000
         Rot=    1.000000    0.000000    0.000000    0.000000 Ang=   0.00 deg.
 Guess basis will be translated and rotated to current coordinates.
 Initial guess orbital symmetries:
       Occupied  (A) (A) (A) (A) (A) (A) (A) (A) (A) (A) (A) (A)
                 (A) (A) (A) (A) (A) (A) (A) (A) (A) (A) (A) (A)
                 (A)
       Virtual   (A) (A) (A) (A) (A) (A) (A) (A) (A) (A) (A) (A)
                 (A) (A) (A) (A) (A) (A) (A) (A) (A) (A) (A) (A)
                 (A) (A) (A) (A) (A) (A) (A) (A) (A) (A) (A) (A)
                 (A) (A) (A) (A) (A) (A) (A) (A) (A) (A) (A) (A)
                 (A) (A) (A) (A) (A) (A) (A) (A) (A) (A) (A) (A)
                 (A) (A) (A) (A) (A) (A) (A) (A) (A) (A) (A) (A)
                 (A) (A) (A) (A) (A) (A) (A) (A) (A) (A) (A) (A)
                 (A) (A) (A) (A) (A) (A) (A) (A) (A)
 The electronic state of the initial guess is 1-A.
 Leave Link  401 at Sun Oct  4 11:29:24 2015, MaxMem=  805306368 cpu:       0.5
 (Enter /share/apps/g09/l502.exe)
 Closed shell SCF:
 Requested convergence on RMS density matrix=1.00D-08 within 128 cycles.
 Requested convergence on MAX density matrix=1.00D-06.
 Requested convergence on             energy=1.00D-06.
 No special actions if energy rises.
 Using DIIS extrapolation, IDIIS=  1040.
 Integral symmetry usage will be decided dynamically.
       450380 words used for storage of precomputed grid.
 Keep R1 ints in memory in canonical form, NReq=26104435.
 IEnd=      511924 IEndB=      511924 NGot=   805306368 MDV=   780174368
 LenX=   780174368 LenY=   780160003
 Symmetry not used in FoFDir.
 MinBra= 0 MaxBra= 2 Meth= 1.
 IRaf=       0 NMat=   1 IRICut=       1 DoRegI=T DoRafI=F ISym2E= 0 JSym2E=0.

 Cycle   1  Pass 1  IDiag  1:
 E= -237.083664110212    
 DIIS: error= 1.80D-04 at cycle   1 NSaved=   1.
 NSaved= 1 IEnMin= 1 EnMin= -237.083664110212     IErMin= 1 ErrMin= 1.80D-04
 ErrMax= 1.80D-04 EMaxC= 1.00D-01 BMatC= 3.52D-06 BMatP= 3.52D-06
 IDIUse=3 WtCom= 9.98D-01 WtEn= 1.80D-03
 Coeff-Com:  0.100D+01
 Coeff-En:   0.100D+01
 Coeff:      0.100D+01
 Gap=     0.380 Goal=   None    Shift=    0.000
 RMSDP=2.20D-05 MaxDP=4.76D-04              OVMax= 8.35D-04

 Cycle   2  Pass 1  IDiag  1:
 E= -237.083671592895     Delta-E=       -0.000007482683 Rises=F Damp=F
 DIIS: error= 1.78D-05 at cycle   2 NSaved=   2.
 NSaved= 2 IEnMin= 2 EnMin= -237.083671592895     IErMin= 2 ErrMin= 1.78D-05
 ErrMax= 1.78D-05 EMaxC= 1.00D-01 BMatC= 3.55D-08 BMatP= 3.52D-06
 IDIUse=1 WtCom= 1.00D+00 WtEn= 0.00D+00
 Coeff-Com: -0.922D-01 0.109D+01
 Coeff:     -0.922D-01 0.109D+01
 Gap=     0.380 Goal=   None    Shift=    0.000
 RMSDP=3.50D-06 MaxDP=6.84D-05 DE=-7.48D-06 OVMax= 1.06D-04

 Cycle   3  Pass 1  IDiag  1:
 E= -237.083671670086     Delta-E=       -0.000000077191 Rises=F Damp=F
 DIIS: error= 8.31D-06 at cycle   3 NSaved=   3.
 NSaved= 3 IEnMin= 3 EnMin= -237.083671670086     IErMin= 3 ErrMin= 8.31D-06
 ErrMax= 8.31D-06 EMaxC= 1.00D-01 BMatC= 7.28D-09 BMatP= 3.55D-08
 IDIUse=1 WtCom= 1.00D+00 WtEn= 0.00D+00
 Coeff-Com: -0.440D-01 0.490D+00 0.554D+00
 Coeff:     -0.440D-01 0.490D+00 0.554D+00
 Gap=     0.380 Goal=   None    Shift=    0.000
 RMSDP=7.33D-07 MaxDP=1.61D-05 DE=-7.72D-08 OVMax= 1.84D-05

 Cycle   4  Pass 1  IDiag  1:
 E= -237.083671676785     Delta-E=       -0.000000006700 Rises=F Damp=F
 DIIS: error= 1.89D-06 at cycle   4 NSaved=   4.
 NSaved= 4 IEnMin= 4 EnMin= -237.083671676785     IErMin= 4 ErrMin= 1.89D-06
 ErrMax= 1.89D-06 EMaxC= 1.00D-01 BMatC= 4.31D-10 BMatP= 7.28D-09
 IDIUse=1 WtCom= 1.00D+00 WtEn= 0.00D+00
 Coeff-Com: -0.513D-02 0.480D-01 0.206D+00 0.751D+00
 Coeff:     -0.513D-02 0.480D-01 0.206D+00 0.751D+00
 Gap=     0.380 Goal=   None    Shift=    0.000
 RMSDP=2.22D-07 MaxDP=3.69D-06 DE=-6.70D-09 OVMax= 4.62D-06

 Cycle   5  Pass 1  IDiag  1:
 E= -237.083671677216     Delta-E=       -0.000000000430 Rises=F Damp=F
 DIIS: error= 2.50D-07 at cycle   5 NSaved=   5.
 NSaved= 5 IEnMin= 5 EnMin= -237.083671677216     IErMin= 5 ErrMin= 2.50D-07
 ErrMax= 2.50D-07 EMaxC= 1.00D-01 BMatC= 1.20D-11 BMatP= 4.31D-10
 IDIUse=1 WtCom= 1.00D+00 WtEn= 0.00D+00
 Coeff-Com:  0.688D-03-0.103D-01 0.307D-01 0.220D+00 0.759D+00
 Coeff:      0.688D-03-0.103D-01 0.307D-01 0.220D+00 0.759D+00
 Gap=     0.380 Goal=   None    Shift=    0.000
 RMSDP=4.94D-08 MaxDP=6.22D-07 DE=-4.30D-10 OVMax= 9.34D-07

 Cycle   6  Pass 1  IDiag  1:
 E= -237.083671677230     Delta-E=       -0.000000000015 Rises=F Damp=F
 DIIS: error= 6.47D-08 at cycle   6 NSaved=   6.
 NSaved= 6 IEnMin= 6 EnMin= -237.083671677230     IErMin= 6 ErrMin= 6.47D-08
 ErrMax= 6.47D-08 EMaxC= 1.00D-01 BMatC= 5.20D-13 BMatP= 1.20D-11
 IDIUse=1 WtCom= 1.00D+00 WtEn= 0.00D+00
 Coeff-Com:  0.368D-03-0.505D-02 0.876D-02 0.756D-01 0.308D+00 0.612D+00
 Coeff:      0.368D-03-0.505D-02 0.876D-02 0.756D-01 0.308D+00 0.612D+00
 Gap=     0.380 Goal=   None    Shift=    0.000
 RMSDP=7.42D-09 MaxDP=1.53D-07 DE=-1.46D-11 OVMax= 1.67D-07

 SCF Done:  E(RB3LYP) =  -237.083671677     A.U. after    6 cycles
             Convg  =    0.7417D-08             -V/T =  2.0104
 KE= 2.346368988893D+02 PE=-1.076676456093D+03 EE= 3.400797124388D+02
 Leave Link  502 at Sun Oct  4 11:29:54 2015, MaxMem=  805306368 cpu:     114.4
 (Enter /share/apps/g09/l701.exe)
 Compute integral first derivatives.
 ... and contract with generalized density number  0.
 Leave Link  701 at Sun Oct  4 11:29:55 2015, MaxMem=  805306368 cpu:       1.2
 (Enter /share/apps/g09/l702.exe)
 L702 exits ... SP integral derivatives will be done elsewhere.
 Leave Link  702 at Sun Oct  4 11:29:55 2015, MaxMem=  805306368 cpu:       0.0
 (Enter /share/apps/g09/l703.exe)
 Compute integral first derivatives, UseDBF=F ICtDFT=           0.
 Integral derivatives from FoFDir, PRISM(SPDF).
 Calling FoFJK, ICntrl=      2127 FMM=F ISym2X=0 I1Cent= 0 IOpClX= 0 NMat=1 NMatS=1 NMatT=0.
 FoFCou: FMM=F IPFlag=           0 FMFlag=      100000 FMFlg1=         800
         NFxFlg=           0 DoJE=F BraDBF=F KetDBF=F FulRan=T
         Omega=  0.000000  0.000000  1.000000  0.000000  0.000000 ICntrl=    2127 IOpCl=  0
         NMat0=    1 NMatS0=    1 NMatT0=    0 NMatD0=    1 NMtDS0=    0 NMtDT0=    0
         I1Cent=           0 NGrid=           0.
 Symmetry not used in FoFCou.
 Leave Link  703 at Sun Oct  4 11:30:04 2015, MaxMem=  805306368 cpu:      34.6
 (Enter /share/apps/g09/l716.exe)
 Dipole        =-1.47551906D-02 6.51239767D-03-3.54163158D-06
 ***** Axes restored to original set *****
 -------------------------------------------------------------------
 Center     Atomic                   Forces (Hartrees/Bohr)
 Number     Number              X              Y              Z
 -------------------------------------------------------------------
      1        6           0.000008734   -0.000025734   -0.000000417
      2        1          -0.000002533   -0.000007879   -0.000000114
      3        1          -0.000002876   -0.000007611    0.000000309
      4        1           0.000006192    0.000003577   -0.000000202
      5        6           0.000009897   -0.000006561    0.000000887
      6        6          -0.000010391    0.000022285   -0.000000805
      7        1           0.000000989    0.000001144    0.000005944
      8        1           0.000000154    0.000000536   -0.000005539
      9        6          -0.000027658    0.000007619    0.000000022
     10        1          -0.000008073    0.000008199   -0.000007180
     11        1          -0.000003692   -0.000009513   -0.000000287
     12        1          -0.000008568    0.000007949    0.000007878
     13        6          -0.000008560    0.000010938    0.000020970
     14        1           0.000024750   -0.000005873   -0.000005393
     15        1          -0.000006779    0.000001508   -0.000000794
     16        1           0.000009977   -0.000003656   -0.000002742
     17        6          -0.000009611    0.000009866   -0.000021386
     18        1           0.000009913   -0.000003249    0.000002824
     19        1          -0.000006406    0.000001740    0.000001154
     20        1           0.000024543   -0.000005284    0.000004871
 -------------------------------------------------------------------
 Cartesian Forces:  Max     0.000027658 RMS     0.000009993
 Leave Link  716 at Sun Oct  4 11:30:04 2015, MaxMem=  805306368 cpu:       0.1
 (Enter /share/apps/g09/l103.exe)

 GradGradGradGradGradGradGradGradGradGradGradGradGradGradGradGradGradGrad
 Berny optimization.
 Using GEDIIS/GDIIS optimizer.
 Internal  Forces:  Max     0.000070997 RMS     0.000014174
 Search for a local minimum.
 Step number   2 out of a maximum of  110
 All quantities printed in internal units (Hartrees-Bohrs-Radians)
 RMS Force = .14174D-04 SwitMx=.10000D-02 MixMth= 2
 Mixed Optimization -- En-DIIS/RFO-DIIS
 Swaping is turned off.
 Update second derivatives using D2CorX and points    1    2
 DE= -3.49D-07 DEPred=-5.55D-07 R= 6.29D-01
 Trust test= 6.29D-01 RLast= 1.55D-02 DXMaxT set to 3.00D-01
     Eigenvalues ---    0.00230   0.00230   0.00230   0.00315   0.00316
     Eigenvalues ---    0.03068   0.04486   0.04718   0.04896   0.05007
     Eigenvalues ---    0.05205   0.05320   0.05340   0.05399   0.05404
     Eigenvalues ---    0.05430   0.05446   0.05522   0.08990   0.12689
     Eigenvalues ---    0.14243   0.14295   0.14685   0.16000   0.16000
     Eigenvalues ---    0.16000   0.16000   0.16000   0.16000   0.16000
     Eigenvalues ---    0.16000   0.16000   0.16000   0.16075   0.23265
     Eigenvalues ---    0.27816   0.28187   0.28422   0.28554   0.29585
     Eigenvalues ---    0.33721   0.33726   0.33905   0.33970   0.33972
     Eigenvalues ---    0.33986   0.34001   0.34022   0.34025   0.34112
     Eigenvalues ---    0.34161   0.34164   0.34168   0.344031000.00000
     Eigenvalues --- 1000.000001000.000001000.000001000.000001000.00000
     Eigenvalues --- 1000.000001000.000001000.000001000.000001000.00000
     Eigenvalues --- 1000.000001000.000001000.000001000.000001000.00000
     Eigenvalues --- 1000.000001000.000001000.000001000.000001000.00000
     Eigenvalues --- 1000.000001000.000001000.000001000.000001000.00000
     Eigenvalues --- 1000.000001000.000001000.000001000.000001000.00000
     Eigenvalues --- 1000.000001000.000001000.000001000.000001000.00000
     Eigenvalues --- 1000.000001000.000001000.000001000.000001000.00000
     Eigenvalues --- 1000.000001000.000001000.000001000.000001000.00000
 En-DIIS/RFO-DIIS IScMMF=        0 using points:     2    1
 RFO step:  Lambda=-5.11130162D-08.
 DIIS coeffs:      0.71479      0.28521
 Iteration  1 RMS(Cart)=  0.00070834 RMS(Int)=  0.00000042
 Iteration  2 RMS(Cart)=  0.00000044 RMS(Int)=  0.00000001
 Variable       Old X    -DE/DX   Delta X   Delta X   Delta X     New X
                                  (DIIS)     (GDIIS)  (Total)
    R1        2.07347   0.00000   0.00002  -0.00003  -0.00001   2.07346
    R2        2.07347   0.00000   0.00002  -0.00003  -0.00001   2.07346
    R3        2.07305   0.00000   0.00002  -0.00002   0.00000   2.07305
    R4        2.91338  -0.00002   0.00008  -0.00015  -0.00007   2.91331
    R5        2.93273   0.00007   0.00002   0.00015   0.00017   2.93290
    R6        2.91239  -0.00001  -0.00004   0.00002  -0.00002   2.91238
    R7        2.91239  -0.00001  -0.00004   0.00002  -0.00002   2.91238
    R8        2.07804   0.00000   0.00000  -0.00001  -0.00001   2.07804
    R9        2.07804   0.00000   0.00000   0.00000  -0.00001   2.07804
   R10        2.89873   0.00003   0.00004   0.00003   0.00007   2.89880
[...]
 -0.00015703,-0.00177416,0.00203754,0.11818305,-0.21278954,-0.00276017,
 -0.13171501,0.22939704,0.00091169,0.00123024,0.00135104,-0.00051770,-0
 .00036331,-0.00052032,-0.00007952,-0.00006491,-0.00000191,0.00036752,-
 0.00015051,-0.00023451,-0.00187846,0.01637406,0.02269850,-0.04746406,-
 0.00150070,-0.00264087,-0.00044793,0.00020311,0.00017470,0.05897122,-0
 .00145640,0.00039221,0.00015287,0.00032519,0.00077909,0.00030306,0.000
 07934,0.00004739,0.00013031,-0.00010575,0.00000224,0.00038415,0.001102
 52,-0.01298110,-0.01650259,-0.00141961,-0.13770773,-0.11819615,0.00020
 455,0.01274373,0.01584957,0.00236207,0.14898278,-0.00053029,-0.0000121
 4,-0.00012121,0.00057108,0.00035583,0.00052300,0.00000092,-0.00011870,
 -0.00007331,0.00010692,0.00032933,0.00030442,-0.00027859,0.00017119,-0
 .00175333,-0.00205319,-0.11828965,-0.21245321,-0.00017728,-0.01589894,
 -0.02197595,0.00277520,0.13182913,0.22902205,-0.00276951,0.00350456,-0
 .00000239,0.00013000,-0.00009570,-0.00026232,0.00012999,-0.00009536,0.
 00026248,-0.00066705,-0.00111544,0.00000088,-0.02503044,-0.01180635,0.
 00000978,-0.15820327,-0.05135658,0.00004040,-0.00265925,-0.00159651,0.
 00007090,-0.00266200,-0.00159816,-0.00006830,0.49750632,0.00362139,-0.
 00301833,0.00000174,0.00011129,0.00005434,0.00028549,0.00011090,0.0000
 5353,-0.00028518,0.00166777,0.00116610,-0.00000040,0.01162440,0.015193
 07,-0.00001172,-0.04745055,-0.11552433,0.00002606,-0.01856988,-0.01144
 874,-0.00082850,-0.01860488,-0.01146877,0.00084811,-0.04264991,0.55367
 941,-0.00000243,0.00000168,-0.00033555,0.00025704,0.00027456,0.0002793
 5,-0.00025719,-0.00027421,0.00028015,-0.00000110,-0.00000023,0.0007446
 4,-0.00000684,-0.00001045,-0.00037614,0.00003763,0.00002609,-0.0824768
 7,0.02483013,0.01505049,0.00093973,-0.02480344,-0.01503269,0.00096258,
 0.00003441,0.00001841,0.57633421,0.00001961,-0.00000560,-0.00017764,0.
 00002071,-0.00002680,0.00001930,0.00018812,0.00020201,-0.00016981,-0.0
 0008456,0.00012907,-0.00011521,0.00129841,-0.00023270,0.00090509,-0.00
 103039,-0.01719748,0.02545222,-0.00517202,-0.00347947,-0.00016263,0.00
 122142,0.00073314,-0.00046841,-0.05023844,-0.01096941,0.01549298,0.053
 86213,-0.00001667,0.00006677,0.00009036,0.00001097,-0.00003378,-0.0000
 0282,0.00006473,0.00008486,-0.00011867,-0.00011380,0.00004440,-0.00006
 548,0.00076014,-0.00003674,-0.00008393,-0.00111992,-0.01056211,0.01422
 804,-0.00354227,-0.00100967,-0.00056515,0.00055117,0.00015675,-0.00017
 446,-0.01132298,-0.13703612,0.12213153,0.01385032,0.14707581,0.0002144
 3,-0.00017189,0.00005732,-0.00002215,-0.00000202,-0.00001533,-0.000023
 46,-0.00007804,0.00005808,0.00011298,0.00002995,-0.00000830,-0.0003794
 1,0.00084411,-0.00031471,0.00104531,-0.00110645,0.00135934,-0.00045232
 ,-0.00027394,0.00166449,0.00055429,0.00009709,0.00081477,0.01602203,0.
 12209618,-0.22392871,-0.01637922,-0.13659622,0.24047968,-0.00131017,0.
 00142699,-0.00000094,0.00001697,-0.00002947,-0.00008606,0.00001698,-0.
 00002935,0.00008610,-0.00060529,-0.00043728,0.00000035,-0.00203962,-0.
 00552404,0.00000406,-0.02312118,0.01920555,-0.00001219,0.00105037,0.00
 009262,0.00064134,0.00105032,0.00009178,-0.00064159,-0.20428940,0.1297
 0819,-0.00008129,0.00254765,-0.00199490,-0.00083025,0.22361652,-0.0007
 1122,0.00069131,-0.00000030,0.00002305,0.00001086,-0.00002624,0.000023
 04,0.00001084,0.00002622,-0.00035135,-0.00019619,0.00000016,-0.0024679
 2,-0.00258054,0.00000197,-0.01681519,0.01267320,-0.00000867,0.00074520
 ,0.00086786,-0.00004528,0.00074485,0.00086851,0.00004410,0.13036006,-0
 .15488654,0.00006590,0.01402574,-0.01236152,-0.00108545,-0.13999448,0.
 16710881,0.00000058,-0.00000040,0.00022628,0.00000949,0.00004196,-0.00
 000021,-0.00000952,-0.00004197,-0.00000020,0.00000028,0.00000017,0.000
 00938,0.00000182,0.00000211,-0.00002767,0.00001302,-0.00001076,-0.0010
 7549,0.00023707,-0.00037701,0.00008620,-0.00023825,0.00037591,0.000085
 74,-0.00008172,0.00006592,-0.04938075,-0.02230198,0.01766201,0.0007256
 4,0.00008729,-0.00007466,0.04817408,0.00001959,-0.00000532,0.00017765,
 0.00018814,0.00020226,0.00016951,0.00002070,-0.00002683,-0.00001926,-0
 .00008456,0.00012923,0.00011503,0.00129832,-0.00023413,-0.00090494,-0.
 00103358,-0.01723300,-0.02542781,0.00122148,0.00073382,0.00046731,-0.0
 0517193,-0.00347917,0.00016830,-0.05024220,-0.01100551,-0.01549824,-0.
 00085022,0.00162055,0.00118938,0.00255040,0.01405698,0.02228217,0.0538
 6597,-0.00001698,0.00006687,-0.00009039,0.00006478,0.00008514,0.000118
 63,0.00001100,-0.00003377,0.00000285,-0.00011395,0.00004445,0.00006542
 ,0.00076067,-0.00003782,0.00008350,-0.00112311,-0.01058059,-0.01421121
 ,0.00055043,0.00015689,0.00017531,-0.00354163,-0.00100847,0.00056928,-
 0.01135981,-0.13737718,-0.12225113,0.00162083,0.01325241,0.01636270,-0
 .00199584,-0.01238462,-0.01764345,0.01388950,0.14745748,-0.00021440,0.
 00017188,0.00005722,0.00002336,0.00007798,0.00005778,0.00002212,0.0000
 0204,-0.00001534,-0.00011281,-0.00003004,-0.00000835,0.00037814,-0.000
 84443,-0.00031358,-0.00104331,0.00112524,0.00138083,-0.00055511,-0.000
 09625,0.00081473,0.00045809,0.00027814,0.00166323,-0.01602684,-0.12221
 592,-0.22358410,-0.00119405,-0.01641084,-0.02109802,0.00083282,0.00110
 209,0.00074600,0.01638203,0.13672444,0.24009432,-0.00062294,-0.0175037
 6,-0.02189861,-0.00417473,-0.00425827,-0.00101704,0.00072906,0.0008017
 0,-0.00019475,0.00043866,-0.00055936,-0.00092057,-0.07882980,0.0041006
 8,0.00493384,-0.00337179,0.01899313,0.02468740,0.00079990,-0.00080585,
 0.00023740,-0.00525139,0.00369623,0.00078291,0.00045215,0.00059799,0.0
 0050860,-0.00017817,-0.00004330,0.00026867,0.00019112,-0.00013942,0.00
 001530,-0.00079540,0.00043605,0.00011891,0.57938475,-0.00388734,-0.019
 20579,-0.02143120,-0.00277632,-0.00274052,-0.00019718,0.00076253,0.000
 56013,-0.00070552,0.00155450,0.00113980,0.00053625,0.00190087,-0.10876
 776,-0.04424070,0.00624200,-0.01384183,-0.01566347,-0.00062411,0.00019
 067,-0.00068922,0.00245879,-0.00106724,0.00008882,0.00058736,0.0006467
 3,0.00122428,0.00007894,0.00000044,-0.00006124,-0.00043719,-0.00055185
 ,-0.00038361,-0.00015805,-0.00011557,-0.00104231,0.00733355,0.54404597
 ,-0.00391129,-0.00610374,-0.00297371,0.00081718,0.00137821,0.00101512,
 0.00081033,0.00146507,0.00066685,0.00068824,0.00046558,0.00008803,0.00
 329604,-0.04418734,-0.14087907,0.00543476,-0.00470869,-0.00215362,-0.0
 0092231,0.00144989,0.00068056,-0.00099230,0.00161515,0.00102027,-0.000
 12545,0.00062012,0.00011205,-0.00001874,-0.00009383,0.00003542,-0.0004
 7143,-0.00019253,0.00014581,0.00014922,-0.00024652,0.00004926,0.008481
 79,-0.05483342,0.50024401,0.00057201,0.00014407,-0.00058094,0.00025647
 ,-0.00019055,0.00013734,-0.00007898,0.00004743,0.00014542,0.00049485,0
 .00013264,0.00020647,0.00188605,0.00207735,-0.00047574,-0.00004241,0.0
 0014892,-0.00052147,-0.00004323,0.00007896,0.00001940,0.00013036,-0.00
 019616,-0.00003583,-0.00096860,0.00045512,0.00014782,0.00002428,-0.000
 04602,-0.00004420,0.00010953,0.00016345,0.00009599,-0.00117656,0.00096
 747,0.00082169,-0.18762371,-0.13115508,-0.00228258,0.20398432,0.001694
 46,-0.00170958,-0.00403861,-0.00126608,-0.00069501,-0.00034173,0.00032
 384,0.00038430,0.00002998,-0.00016855,0.00022109,0.00002780,-0.0138675
 6,-0.01320616,0.00140632,-0.00120532,-0.00003505,0.00037222,0.00002917
 ,-0.00000320,-0.00011159,0.00016330,0.00017322,-0.00002225,-0.00032668
 ,-0.00029222,-0.00088554,0.00006299,0.00006801,0.00008830,0.00008271,0
 .00041060,0.00043278,0.00113284,0.00036825,0.00058965,-0.13043167,-0.1
 7259512,-0.00185584,0.14448115,0.18564598,0.00126428,-0.00268614,-0.00
 489375,-0.00131261,-0.00154499,0.00011242,0.00011144,-0.00027554,0.000
 21669,0.00015212,0.00025342,-0.00009094,-0.02147450,-0.01745189,0.0002
 2913,-0.00040074,0.00064402,0.00074786,0.00009674,-0.00004249,-0.00000
 926,-0.00012200,0.00014767,-0.00001248,0.00040996,-0.00001008,0.000200
 64,0.00012550,-0.00001698,-0.00016740,0.00001492,0.00013536,-0.0000196
 1,0.00043856,-0.00017775,0.00013513,-0.00194983,-0.00118065,-0.0497295
 7,0.00175588,0.00394844,0.05145859,0.00000325,0.00054351,-0.00071881,-
 0.00010553,-0.00004026,0.00019260,0.00016219,-0.00034991,-0.00006524,-
 0.00000535,0.00007298,-0.00011353,-0.00155087,-0.00139165,0.00207762,0
 .00032191,-0.00063727,0.00095844,0.00011304,0.00026913,-0.00002435,-0.
 00002238,-0.00003402,-0.00016193,-0.00004115,0.00009025,0.00000671,0.0
 0009949,-0.00001520,-0.00016231,-0.00001682,0.00002873,-0.00003734,-0.
 00007006,-0.00017551,0.00001598,-0.05129619,0.01047560,-0.01613584,0.0
 0269070,-0.01333418,0.02132953,0.04971034,0.00029017,0.00112980,-0.000
 40729,0.00019947,0.00022747,0.00015838,0.00000473,-0.00003855,0.000145
 04,-0.00008469,-0.00009669,0.00003732,-0.00175241,0.01073408,-0.015621
 31,-0.00016356,0.00111152,-0.00029726,-0.00004605,-0.00002313,0.000230
 45,-0.00028265,0.00018802,0.00012417,-0.00004192,0.00008109,0.00009280
 ,-0.00002523,-0.00007279,-0.00010266,-0.00000470,0.00005295,0.00001497
 ,-0.00000938,-0.00011865,0.00006950,0.01054028,-0.13075216,0.11990121,
 0.00331421,-0.01244280,0.01809134,-0.01214386,0.14005910,0.00055725,0.
 00160576,0.00057762,0.00018458,-0.00020911,0.00041020,-0.00050162,-0.0
 0098654,0.00048545,-0.00000195,-0.00009895,-0.00002340,-0.00206368,0.0
 1646988,-0.02254276,-0.00086265,0.00165585,0.00045692,0.00058620,-0.00
 104079,0.00052671,-0.00020809,-0.00016581,0.00047659,0.00030823,-0.000
 21410,-0.00000008,-0.00021037,-0.00005136,0.00015408,0.00008418,0.0000
 0356,0.00002490,0.00013846,0.00015799,-0.00011293,-0.01614442,0.119377
 30,-0.22463659,0.00063903,-0.00066719,0.00124083,0.01748619,-0.1303845
 3,0.24646084,0.00062366,-0.00089259,-0.00055366,0.00026859,-0.00006414
 ,0.00014187,-0.00003069,-0.00001419,0.00006041,0.00062875,0.00019043,-
 0.00002993,-0.00256718,0.00067798,-0.00020643,0.00101721,-0.00050465,0
 .00071097,0.00003531,-0.00007240,-0.00013101,-0.00006215,0.00022476,0.
 00011077,0.00005526,0.00005999,-0.00035030,-0.00001902,-0.00001406,0.0
 0010967,-0.00002561,0.00012803,0.00015087,0.00033332,0.00014486,0.0002
 6503,-0.25040146,0.10879103,0.00430460,-0.02063717,0.01180171,-0.00007
 740,-0.00109328,0.00000662,-0.00041139,0.27131199,0.00157106,0.0003031
 2,0.00066823,-0.00029872,0.00035400,0.00016478,0.00001724,-0.00012347,
 -0.00001628,-0.00093426,-0.00007785,-0.00039783,0.01702723,-0.01062092
 ,0.00041827,-0.00128127,-0.00183366,-0.00408858,-0.00032529,0.00038329
 ,-0.00000442,0.00138677,-0.00064896,-0.00041998,-0.00065258,-0.0001286
 1,-0.00025256,0.00008337,0.00004936,-0.00003784,0.00009908,0.00017749,
 0.00017596,0.00018605,0.00017985,0.00038544,0.10829340,-0.10715682,-0.
 00145192,-0.02071563,0.01250575,0.00031249,0.01640658,-0.00896980,-0.0
 0092681,-0.12004190,0.11472525,0.00097532,0.00069068,0.00086240,0.0000
 6292,0.00040208,0.00000064,-0.00020139,0.00001118,-0.00002654,-0.00063
 292,-0.00007412,0.00012622,0.02483526,-0.01295139,-0.00089331,-0.00096
 900,-0.00243896,-0.00482209,-0.00003634,-0.00028584,0.00020926,0.00147
 273,-0.00118630,0.00011029,-0.00048231,-0.00028779,-0.00004210,0.00002
 559,0.00005256,0.00001129,0.00006580,0.00007494,0.00006421,0.00009486,
 0.00025072,0.00010073,0.00376452,-0.00123833,-0.04884446,0.00029247,0.
 00023428,-0.00085627,-0.02525065,0.01207410,0.00136833,-0.00428185,0.0
 0471324,0.05145030,-0.00062010,-0.01747164,0.02192339,0.00072896,0.000
 80181,0.00019359,-0.00417470,-0.00425700,0.00102371,0.00043871,-0.0005
 5812,0.00092134,-0.07883073,0.00409828,-0.00494654,-0.00337520,0.01895
 840,-0.02471440,-0.00525137,0.00369490,-0.00078751,0.00080000,-0.00080
 636,-0.00023631,0.00045214,0.00059717,-0.00050951,-0.00079548,0.000435
 92,-0.00011946,0.00019116,-0.00013943,-0.00001510,-0.00017820,-0.00004
 364,-0.00026858,0.00056752,-0.00125179,0.00105158,0.00002487,0.0002268
 1,-0.00103773,0.00002618,0.00019623,0.00056848,-0.00006856,-0.00021880
 ,0.00108918,0.57938270,-0.00387938,-0.01916617,0.02145474,0.00076144,0
 .00055899,0.00070560,-0.00277744,-0.00274221,0.00020286,0.00155347,0.0
 0113835,-0.00053789,0.00190091,-0.10864108,0.04419413,0.00623608,-0.01
 381278,0.01567952,0.00246022,-0.00106968,-0.00008609,-0.00062269,0.000
 18959,0.00069001,0.00058738,0.00064416,-0.00122505,-0.00015821,-0.0001
 1378,0.00104252,-0.00043646,-0.00055102,0.00038464,0.00007898,0.000000
 62,0.00006134,-0.00125486,0.01131086,-0.01379026,-0.00003351,0.0004473
 4,-0.00079497,0.00022374,-0.00189591,-0.00542638,-0.00008598,0.0003381
 9,-0.00049303,0.00732768,0.54420307,0.00391662,0.00612893,-0.00301612,
 -0.00081143,-0.00146502,0.00066800,-0.00081261,-0.00137234,0.00101677,
 -0.00069050,-0.00046701,0.00008945,-0.00330573,0.04414062,-0.14100457,
 -0.00544354,0.00472328,-0.00217940,0.00098950,-0.00161260,0.00102267,0
 .00092320,-0.00144910,0.00068156,0.00012455,-0.00062093,0.00011473,-0.
 00014893,0.00024672,0.00004743,0.00047206,0.00019354,0.00014494,0.0000
 1866,0.00009387,0.00003524,-0.00105378,0.01372534,-0.03408159,0.000242
 45,0.00125013,0.00162360,0.00040996,-0.00285471,-0.00376473,-0.0004787
 9,0.00103622,0.00139271,-0.00850135,0.05476987,0.50008867,0.00062361,-
 0.00089187,0.00055496,-0.00003068,-0.00001428,-0.00006039,0.00026856,-
 0.00006438,-0.00014180,0.00062882,0.00019047,0.00002961,-0.00256996,0.
 00067972,0.00020564,0.00101722,-0.00050539,-0.00071091,-0.00006233,0.0
 0022473,-0.00011107,0.00003533,-0.00007219,0.00013114,0.00005536,0.000
 06051,0.00035018,0.00033329,0.00014447,-0.00026524,-0.00002564,0.00012
 781,-0.00015104,-0.00001904,-0.00001421,-0.00010966,-0.00006861,-0.000
 08524,0.00047908,-0.00009625,0.00010064,-0.00001351,0.00027614,-0.0002
 0386,-0.00012500,0.00045117,-0.00023327,-0.00052768,-0.25040068,0.1087
 8603,-0.00443675,0.27131109,0.00156961,0.00030119,-0.00066762,0.000017
 52,-0.00012345,0.00001643,-0.00029884,0.00035319,-0.00016524,-0.000933
 32,-0.00007715,0.00039820,0.01699145,-0.01060308,-0.00040632,-0.001279
 43,-0.00182434,0.00408440,0.00138471,-0.00064665,0.00042091,-0.0003252
 5,0.00038372,0.00000422,-0.00065186,-0.00012786,0.00025274,0.00018589,
 0.00017896,-0.00038556,0.00009896,0.00017713,-0.00017613,0.00008333,0.
 00004935,0.00003776,-0.00022046,0.00033744,-0.00103469,-0.00012088,0.0
 0004218,0.00004092,-0.00024779,-0.00007252,-0.00007137,-0.00023249,0.0
 0057385,0.00030788,0.10828923,-0.10715457,0.00152277,-0.12003742,0.114
 71350,-0.00097755,-0.00068979,0.00086438,0.00020136,-0.00001104,-0.000
 02656,-0.00006252,-0.00040257,0.00000148,0.00063420,0.00007437,0.00012
 549,-0.02485933,0.01296544,-0.00090843,0.00097016,0.00243474,-0.004831
 47,-0.00147471,0.00118736,0.00010817,0.00003683,0.00028559,0.00020883,
 0.00048321,0.00028793,-0.00004295,-0.00009514,-0.00025086,0.00010168,-
 0.00006594,-0.00007512,0.00006458,-0.00002570,-0.00005261,0.00001132,-
 0.00108870,0.00049455,0.00139355,-0.00000217,-0.00004274,-0.00011528,0
 .00029920,-0.00010098,0.00034041,0.00052790,-0.00030929,-0.00043651,-0
 .00389596,0.00130911,-0.04884745,0.00442797,-0.00478980,0.05146292,0.0
 0000328,0.00054434,0.00071811,0.00016227,-0.00034971,0.00006578,-0.000
 10558,-0.00004051,-0.00019248,-0.00000535,0.00007316,0.00011342,-0.001
 55090,-0.00139643,-0.00207793,0.00032193,-0.00063884,-0.00095749,-0.00
 002234,-0.00003376,0.00016204,0.00011294,0.00026929,0.00002399,-0.0000
 4122,0.00009028,-0.00000679,-0.00007007,-0.00017555,-0.00001575,-0.000
 01683,0.00002878,0.00003728,0.00009953,-0.00001497,0.00016233,0.000026
 08,0.00022374,-0.00041068,0.00015132,0.00029820,0.00024296,0.00064706,
 -0.00003901,-0.00013733,0.00027612,-0.00024820,-0.00029885,-0.05129217
 ,0.01048396,0.01609942,-0.00109011,0.01644283,0.02522729,0.04970599,0.
 00028940,0.00112807,0.00040651,0.00000544,-0.00003732,-0.00014430,0.00
 019919,0.00022755,-0.00015814,-0.00008469,-0.00009660,-0.00003722,-0.0
 0174748,0.01073281,0.01557382,-0.00016232,0.00110956,0.00029634,-0.000
 28237,0.00018809,-0.00012372,-0.00004688,-0.00002199,-0.00022963,-0.00
 004239,0.00008126,-0.00009288,-0.00000958,-0.00011896,-0.00006951,-0.0
 0000482,0.00005292,-0.00001502,-0.00002492,-0.00007257,0.00010298,0.00
 019574,-0.00188405,0.00285200,0.00024545,0.00002835,0.00014941,-0.0000
 3870,0.00087089,0.00101775,-0.00020366,-0.00007227,0.00010159,0.010548
 63,-0.13109568,-0.12003686,0.00000572,-0.00898588,-0.01205945,-0.01215
 280,0.14043352,-0.00055760,-0.00160664,0.00057935,0.00050165,0.0009873
 7,0.00048418,-0.00018481,0.00020937,0.00041018,0.00000208,0.00009905,-
 0.00002350,0.00206360,-0.01651745,-0.02254150,0.00086291,-0.00165672,0
 .00045887,0.00020854,0.00016623,0.00047649,-0.00058611,0.00104152,0.00
 052563,-0.00030816,0.00021398,-0.00000020,-0.00013843,-0.00015796,-0.0
 0011260,-0.00008417,-0.00000361,0.00002493,0.00021041,0.00005169,0.000
 15381,-0.00056922,0.00542366,-0.00377648,-0.00011423,0.00004558,0.0003
 5005,0.00013712,-0.00102156,-0.00179273,0.00012531,0.00007199,0.000340
 18,0.01610796,-0.11951290,-0.22429719,0.00041168,0.00093972,0.00138127
 ,-0.01744461,0.13053824,0.24609092,0.00057192,0.00014522,0.00058012,-0
 .00007901,0.00004725,-0.00014545,0.00025660,-0.00019057,-0.00013709,0.
 00049481,0.00013232,-0.00020672,0.00188855,0.00207997,0.00047253,-0.00
 004233,0.00014958,0.00052134,0.00013038,-0.00019612,0.00003610,-0.0000
 4324,0.00007893,-0.00001950,-0.00096869,0.00045491,-0.00014839,-0.0011
 7676,0.00096637,-0.00082298,0.00010952,0.00016330,-0.00009623,0.000024
 28,-0.00004594,0.00004424,0.00002494,-0.00003378,-0.00024221,0.0003421
 3,0.00020220,0.00044644,0.00015131,0.00024560,0.00011390,-0.00009624,-
 0.00012088,0.00000233,-0.18762506,-0.13115135,0.00248701,-0.02063729,-
 0.02071581,-0.00026043,0.00268804,0.00331104,-0.00064394,0.20398612,0.
 00169309,-0.00169995,0.00403388,0.00032367,0.00038465,-0.00003026,-0.0
 0126416,-0.00069231,0.00034302,-0.00016877,0.00022069,-0.00002824,-0.0
 1383699,-0.01318312,-0.00138544,-0.00120478,-0.00003647,-0.00037098,0.
 00016348,0.00017304,0.00002195,0.00002904,-0.00000299,0.00011157,-0.00
 032715,-0.00029098,0.00088627,0.00113217,0.00036770,-0.00059005,0.0000
 8263,0.00040979,-0.00043340,0.00006278,0.00006792,-0.00008868,0.000228
 17,0.00044667,-0.00124845,0.00020159,0.00068407,0.00045841,0.00029784,
 0.00002807,-0.00004515,0.00010067,0.00004218,0.00004250,-0.13042829,-0
 .17258832,0.00204729,0.01180203,0.01250500,-0.00025483,-0.01336480,-0.
 01246768,0.00068843,0.14447777,0.18563203,-0.00126731,0.00268153,-0.00
 490329,-0.00011187,0.00027530,0.00021637,0.00131439,0.00154617,0.00010
 959,-0.00015195,-0.00025389,-0.00009050,0.02149430,0.01747066,0.000203
 56,0.00040256,-0.00064291,0.00074924,0.00012176,-0.00014792,-0.0000123
 2,-0.00009678,0.00004247,-0.00000947,-0.00040934,0.00001071,0.00019937
 ,-0.00044011,0.00017735,0.00013587,-0.00001505,-0.00013600,-0.00001876
 ,-0.00012561,0.00001666,-0.00016728,0.00103758,0.00079665,0.00162416,-
 0.00044681,-0.00046000,-0.00042038,-0.00024337,-0.00014897,0.00035033,
 0.00001336,-0.00004113,-0.00011529,0.00215321,0.00137225,-0.04973471,0
 .00006281,-0.00032920,-0.00085544,-0.02131070,-0.01807190,0.00126838,-
 0.00198106,-0.00415783,0.05147057\\-0.00000074,-0.00000025,0.00000004,
 -0.00000026,0.00000039,0.,-0.00000025,0.00000037,0.,-0.00000006,0.0000
 0060,0.00000002,-0.00000031,0.00000137,-0.00000012,0.00000051,-0.00000
 077,0.00000003,-0.00000037,-0.00000010,-0.00000004,-0.00000033,-0.0000
 0008,-0.00000002,-0.00000007,-0.00000041,0.,0.00000007,-0.00000060,0.,
 -0.00000004,-0.00000055,0.00000005,0.00000011,-0.00000047,0.00000002,-
 0.00000008,-0.00000053,-0.00000049,0.00000050,0.00000031,0.00000018,0.
 ,0.00000018,-0.00000007,0.00000050,0.00000028,0.00000009,-0.00000011,-
 0.00000046,0.00000057,0.00000048,0.00000024,-0.00000011,0.,0.00000019,
 0.00000002,0.00000045,0.00000028,-0.00000015\\\@


 I DON'T PRETEND TO UNDERSTAND THE UNIVERSE --
 IT'S A GREAT DEAL BIGGER THAN I AM.
       -- ATTR. TO WILLIAM ALLINGHAM (1828-89)
 Job cpu time:  0 days  0 hours 24 minutes  4.1 seconds.
 File lengths (MBytes):  RWF=     41 Int=      0 D2E=      0 Chk=      2 Scr=      1
 Normal termination of Gaussian 09 at Sun Oct  4 11:38:14 2015.
