 Entering Gaussian System, Link 0=/home/hetanjin/apps/g09D01/g09/g09
 Input=C6H14_2_r009_C13_2_opt_B3L.gjf
 Output=C6H14_2_r009_C13_2_opt_B3L.log
 Initial command:
 /home/hetanjin/apps/g09D01/g09/l1.exe "/state/partition1/Gau-1634.inp" -scrdir="/state/partition1/"
 Entering Link 1 = /home/hetanjin/apps/g09D01/g09/l1.exe PID=      1635.
  
 Copyright (c) 1988,1990,1992,1993,1995,1998,2003,2009,2013,
            Gaussian, Inc.  All Rights Reserved.
  
 This is part of the Gaussian(R) 09 program.  It is based on
 the Gaussian(R) 03 system (copyright 2003, Gaussian, Inc.),
 the Gaussian(R) 98 system (copyright 1998, Gaussian, Inc.),
 the Gaussian(R) 94 system (copyright 1995, Gaussian, Inc.),
 the Gaussian 92(TM) system (copyright 1992, Gaussian, Inc.),
 the Gaussian 90(TM) system (copyright 1990, Gaussian, Inc.),
 the Gaussian 88(TM) system (copyright 1988, Gaussian, Inc.),
 the Gaussian 86(TM) system (copyright 1986, Carnegie Mellon
 University), and the Gaussian 82(TM) system (copyright 1983,
 Carnegie Mellon University). Gaussian is a federally registered
 trademark of Gaussian, Inc.
  
 This software contains proprietary and confidential information,
 including trade secrets, belonging to Gaussian, Inc.
  
 This software is provided under written license and may be
 used, copied, transmitted, or stored only in accord with that
 written license.
  
 The following legend is applicable only to US Government
 contracts under FAR:
  
                    RESTRICTED RIGHTS LEGEND
  
 Use, reproduction and disclosure by the US Government is
 subject to restrictions as set forth in subparagraphs (a)
 and (c) of the Commercial Computer Software - Restricted
 Rights clause in FAR 52.227-19.
  
 Gaussian, Inc.
 340 Quinnipiac St., Bldg. 40, Wallingford CT 06492
  
  
 ---------------------------------------------------------------
 Warning -- This program may not be used in any manner that
 competes with the business of Gaussian, Inc. or will provide
 assistance to any competitor of Gaussian, Inc.  The licensee
 of this program is prohibited from giving any competitor of
 Gaussian, Inc. access to this program.  By using this program,
 the user acknowledges that Gaussian, Inc. is engaged in the
 business of creating and licensing software in the field of
 computational chemistry and represents and warrants to the
 licensee that it is not a competitor of Gaussian, Inc. and that
 it will not use this program in any manner prohibited above.
 ---------------------------------------------------------------
  

 Cite this work as:
 Gaussian 09, Revision D.01,
 M. J. Frisch, G. W. Trucks, H. B. Schlegel, G. E. Scuseria, 
 M. A. Robb, J. R. Cheeseman, G. Scalmani, V. Barone, B. Mennucci, 
 G. A. Petersson, H. Nakatsuji, M. Caricato, X. Li, H. P. Hratchian, 
 A. F. Izmaylov, J. Bloino, G. Zheng, J. L. Sonnenberg, M. Hada, 
 M. Ehara, K. Toyota, R. Fukuda, J. Hasegawa, M. Ishida, T. Nakajima, 
 Y. Honda, O. Kitao, H. Nakai, T. Vreven, J. A. Montgomery, Jr., 
 J. E. Peralta, F. Ogliaro, M. Bearpark, J. J. Heyd, E. Brothers, 
 K. N. Kudin, V. N. Staroverov, T. Keith, R. Kobayashi, J. Normand, 
 K. Raghavachari, A. Rendell, J. C. Burant, S. S. Iyengar, J. Tomasi, 
 M. Cossi, N. Rega, J. M. Millam, M. Klene, J. E. Knox, J. B. Cross, 
 V. Bakken, C. Adamo, J. Jaramillo, R. Gomperts, R. E. Stratmann, 
 O. Yazyev, A. J. Austin, R. Cammi, C. Pomelli, J. W. Ochterski, 
 R. L. Martin, K. Morokuma, V. G. Zakrzewski, G. A. Voth, 
 P. Salvador, J. J. Dannenberg, S. Dapprich, A. D. Daniels, 
 O. Farkas, J. B. Foresman, J. V. Ortiz, J. Cioslowski, 
 and D. J. Fox, Gaussian, Inc., Wallingford CT, 2013.
 
 ******************************************
 Gaussian 09:  ES64L-G09RevD.01 24-Apr-2013
                 7-Nov-2015 
 ******************************************
 %mem=6GB
 %nprocshared=4
 Will use up to    4 processors via shared memory.
 ----------------------------------------------
 #p B3LYP/6-31G(d) opt=tight int=ultrafine freq
 ----------------------------------------------
 1/7=10,14=-1,18=20,19=15,26=4,38=1/1,3;
 2/9=110,12=2,17=6,18=5,40=1/2;
 3/5=1,6=6,7=1,11=2,16=1,25=1,30=1,71=1,74=-5,75=-5/1,2,3;
 4//1;
 5/5=2,38=5/2;
 6/7=2,8=2,9=2,10=2,28=1/1;
 7//1,2,3,16;
 1/7=10,14=-1,18=20,19=15,26=4/3(2);
 2/9=110/2;
 99//99;
 2/9=110/2;
 3/5=1,6=6,7=1,11=2,16=1,25=1,30=1,71=1,74=-5,75=-5/1,2,3;
 4/5=5,16=3,69=1/1;
 5/5=2,38=5/2;
 7//1,2,3,16;
 1/7=10,14=-1,18=20,19=15,26=4/3(-5);
 2/9=110/2;
 6/7=2,8=2,9=2,10=2,19=2,28=1/1;
 99/9=1/99;
 Leave Link    1 at Sat Nov  7 02:02:17 2015, MaxMem=   805306368 cpu:         0.2
 (Enter /home/hetanjin/apps/g09D01/g09/l101.exe)
 ---------------------------------------------
 using B3LYP/6-31G(d) to do opt and freq calc.
 ---------------------------------------------
 Symbolic Z-matrix:
 Charge =  0 Multiplicity = 2
 C                     2.1588   -1.03826   0.03329 
 H                     1.92753  -2.02922  -0.37555 
 H                     2.248    -1.14076   1.12291 
 H                     3.14007  -0.7364   -0.35209 
 C                     1.07513  -0.01325  -0.33394 
 H                     1.02737   0.04492  -1.43284 
 C                    -0.30521  -0.48286   0.1671 
 H                    -0.29365  -0.5158    1.26793 
 H                    -0.46137  -1.52058  -0.16344 
 C                    -1.49862   0.36099  -0.30192 
 H                    -1.48122   0.43273  -1.39913 
 H                    -1.40332   1.3884    0.07251 
 C                    -2.84619  -0.21322   0.1491 
 H                    -2.90621  -0.27062   1.24305 
 H                    -3.68183   0.40554  -0.19769 
 C                     1.45204   1.37934   0.1949 
 H                     0.73689   2.14756  -0.118 
 H                     1.48756   1.38271   1.29264 
 H                     2.44125   1.682    -0.16891 
 
 NAtoms=     19 NQM=       19 NQMF=       0 NMMI=      0 NMMIF=      0
                NMic=       0 NMicF=      0.
                    Isotopes and Nuclear Properties:
 (Nuclear quadrupole moments (NQMom) in fm**2, nuclear magnetic moments (NMagM)
  in nuclear magnetons)

  Atom         1           2           3           4           5           6           7           8           9          10
 IAtWgt=          12           1           1           1          12           1          12           1           1          12
 AtmWgt=  12.0000000   1.0078250   1.0078250   1.0078250  12.0000000   1.0078250  12.0000000   1.0078250   1.0078250  12.0000000
 NucSpn=           0           1           1           1           0           1           0           1           1           0
 AtZEff=   0.0000000   0.0000000   0.0000000   0.0000000   0.0000000   0.0000000   0.0000000   0.0000000   0.0000000   0.0000000
 NQMom=    0.0000000   0.0000000   0.0000000   0.0000000   0.0000000   0.0000000   0.0000000   0.0000000   0.0000000   0.0000000
 NMagM=    0.0000000   2.7928460   2.7928460   2.7928460   0.0000000   2.7928460   0.0000000   2.7928460   2.7928460   0.0000000
 AtZNuc=   6.0000000   1.0000000   1.0000000   1.0000000   6.0000000   1.0000000   6.0000000   1.0000000   1.0000000   6.0000000

  Atom        11          12          13          14          15          16          17          18          19
 IAtWgt=           1           1          12           1           1          12           1           1           1
 AtmWgt=   1.0078250   1.0078250  12.0000000   1.0078250   1.0078250  12.0000000   1.0078250   1.0078250   1.0078250
 NucSpn=           1           1           0           1           1           0           1           1           1
 AtZEff=   0.0000000   0.0000000   0.0000000   0.0000000   0.0000000   0.0000000   0.0000000   0.0000000   0.0000000
 NQMom=    0.0000000   0.0000000   0.0000000   0.0000000   0.0000000   0.0000000   0.0000000   0.0000000   0.0000000
 NMagM=    2.7928460   2.7928460   0.0000000   2.7928460   2.7928460   0.0000000   2.7928460   2.7928460   2.7928460
 AtZNuc=   1.0000000   1.0000000   6.0000000   1.0000000   1.0000000   6.0000000   1.0000000   1.0000000   1.0000000
 Leave Link  101 at Sat Nov  7 02:02:17 2015, MaxMem=   805306368 cpu:         0.7
 (Enter /home/hetanjin/apps/g09D01/g09/l103.exe)

 GradGradGradGradGradGradGradGradGradGradGradGradGradGradGradGradGradGrad
 Berny optimization.
 Initialization pass.
                           ----------------------------
                           !    Initial Parameters    !
                           ! (Angstroms and Degrees)  !
 --------------------------                            --------------------------
 ! Name  Definition              Value          Derivative Info.                !
 --------------------------------------------------------------------------------
 ! R1    R(1,2)                  1.0967         estimate D2E/DX2                !
 ! R2    R(1,3)                  1.0981         estimate D2E/DX2                !
 ! R3    R(1,4)                  1.0966         estimate D2E/DX2                !
 ! R4    R(1,5)                  1.5362         estimate D2E/DX2                !
 ! R5    R(5,6)                  1.1015         estimate D2E/DX2                !
 ! R6    R(5,7)                  1.5417         estimate D2E/DX2                !
 ! R7    R(5,16)                 1.5366         estimate D2E/DX2                !
 ! R8    R(7,8)                  1.1014         estimate D2E/DX2                !
 ! R9    R(7,9)                  1.1002         estimate D2E/DX2                !
 ! R10   R(7,10)                 1.535          estimate D2E/DX2                !
 ! R11   R(10,11)                1.0997         estimate D2E/DX2                !
 ! R12   R(10,12)                1.0977         estimate D2E/DX2                !
 ! R13   R(10,13)                1.5327         estimate D2E/DX2                !
 ! R14   R(13,14)                1.0971         estimate D2E/DX2                !
 ! R15   R(13,15)                1.0961         estimate D2E/DX2                !
 ! R16   R(16,17)                1.0952         estimate D2E/DX2                !
 ! R17   R(16,18)                1.0983         estimate D2E/DX2                !
 ! R18   R(16,19)                1.0966         estimate D2E/DX2                !
 ! A1    A(2,1,3)              107.6218         estimate D2E/DX2                !
 ! A2    A(2,1,4)              107.8439         estimate D2E/DX2                !
 ! A3    A(2,1,5)              111.411          estimate D2E/DX2                !
 ! A4    A(3,1,4)              107.5616         estimate D2E/DX2                !
 ! A5    A(3,1,5)              110.9048         estimate D2E/DX2                !
 ! A6    A(4,1,5)              111.3185         estimate D2E/DX2                !
 ! A7    A(1,5,6)              107.7173         estimate D2E/DX2                !
 ! A8    A(1,5,7)              110.5269         estimate D2E/DX2                !
 ! A9    A(1,5,16)             110.4513         estimate D2E/DX2                !
 ! A10   A(6,5,7)              107.5475         estimate D2E/DX2                !
 ! A11   A(6,5,16)             107.8272         estimate D2E/DX2                !
 ! A12   A(7,5,16)             112.5709         estimate D2E/DX2                !
 ! A13   A(5,7,8)              108.9373         estimate D2E/DX2                !
 ! A14   A(5,7,9)              108.4663         estimate D2E/DX2                !
 ! A15   A(5,7,10)             115.4245         estimate D2E/DX2                !
 ! A16   A(8,7,9)              105.8761         estimate D2E/DX2                !
 ! A17   A(8,7,10)             109.2684         estimate D2E/DX2                !
 ! A18   A(9,7,10)             108.4426         estimate D2E/DX2                !
 ! A19   A(7,10,11)            109.1727         estimate D2E/DX2                !
 ! A20   A(7,10,12)            110.049          estimate D2E/DX2                !
 ! A21   A(7,10,13)            112.8109         estimate D2E/DX2                !
 ! A22   A(11,10,12)           106.1361         estimate D2E/DX2                !
 ! A23   A(11,10,13)           109.3876         estimate D2E/DX2                !
 ! A24   A(12,10,13)           109.064          estimate D2E/DX2                !
 ! A25   A(10,13,14)           111.1695         estimate D2E/DX2                !
 ! A26   A(10,13,15)           111.4511         estimate D2E/DX2                !
 ! A27   A(14,13,15)           107.6561         estimate D2E/DX2                !
 ! A28   A(5,16,17)            112.1608         estimate D2E/DX2                !
 ! A29   A(5,16,18)            110.7757         estimate D2E/DX2                !
 ! A30   A(5,16,19)            110.9303         estimate D2E/DX2                !
 ! A31   A(17,16,18)           107.7288         estimate D2E/DX2                !
 ! A32   A(17,16,19)           107.4963         estimate D2E/DX2                !
 ! A33   A(18,16,19)           107.5521         estimate D2E/DX2                !
 ! D1    D(2,1,5,6)            -59.9218         estimate D2E/DX2                !
 ! D2    D(2,1,5,7)             57.3095         estimate D2E/DX2                !
 ! D3    D(2,1,5,16)          -177.4475         estimate D2E/DX2                !
 ! D4    D(3,1,5,6)           -179.7802         estimate D2E/DX2                !
 ! D5    D(3,1,5,7)            -62.549          estimate D2E/DX2                !
 ! D6    D(3,1,5,16)            62.6941         estimate D2E/DX2                !
 ! D7    D(4,1,5,6)             60.4987         estimate D2E/DX2                !
 ! D8    D(4,1,5,7)            177.7299         estimate D2E/DX2                !
 ! D9    D(4,1,5,16)           -57.027          estimate D2E/DX2                !
 ! D10   D(1,5,7,8)             64.5902         estimate D2E/DX2                !
 ! D11   D(1,5,7,9)            -50.2121         estimate D2E/DX2                !
 ! D12   D(1,5,7,10)          -172.0848         estimate D2E/DX2                !
 ! D13   D(6,5,7,8)           -178.0739         estimate D2E/DX2                !
 ! D14   D(6,5,7,9)             67.1238         estimate D2E/DX2                !
 ! D15   D(6,5,7,10)           -54.749          estimate D2E/DX2                !
 ! D16   D(16,5,7,8)           -59.4435         estimate D2E/DX2                !
 ! D17   D(16,5,7,9)          -174.2457         estimate D2E/DX2                !
 ! D18   D(16,5,7,10)           63.8815         estimate D2E/DX2                !
 ! D19   D(1,5,16,17)          175.5612         estimate D2E/DX2                !
 ! D20   D(1,5,16,18)          -64.0287         estimate D2E/DX2                !
 ! D21   D(1,5,16,19)           55.3403         estimate D2E/DX2                !
 ! D22   D(6,5,16,17)           58.1032         estimate D2E/DX2                !
 ! D23   D(6,5,16,18)          178.5133         estimate D2E/DX2                !
 ! D24   D(6,5,16,19)          -62.1177         estimate D2E/DX2                !
 ! D25   D(7,5,16,17)          -60.3633         estimate D2E/DX2                !
 ! D26   D(7,5,16,18)           60.0468         estimate D2E/DX2                !
 ! D27   D(7,5,16,19)          179.4158         estimate D2E/DX2                !
 ! D28   D(5,7,10,11)           54.1765         estimate D2E/DX2                !
 ! D29   D(5,7,10,12)          -61.9346         estimate D2E/DX2                !
 ! D30   D(5,7,10,13)          176.0138         estimate D2E/DX2                !
 ! D31   D(8,7,10,11)          177.3265         estimate D2E/DX2                !
 ! D32   D(8,7,10,12)           61.2154         estimate D2E/DX2                !
 ! D33   D(8,7,10,13)          -60.8362         estimate D2E/DX2                !
 ! D34   D(9,7,10,11)          -67.709          estimate D2E/DX2                !
 ! D35   D(9,7,10,12)          176.1799         estimate D2E/DX2                !
 ! D36   D(9,7,10,13)           54.1283         estimate D2E/DX2                !
 ! D37   D(7,10,13,14)          59.9145         estimate D2E/DX2                !
 ! D38   D(7,10,13,15)        -179.978          estimate D2E/DX2                !
 ! D39   D(11,10,13,14)       -178.3696         estimate D2E/DX2                !
 ! D40   D(11,10,13,15)        -58.2621         estimate D2E/DX2                !
 ! D41   D(12,10,13,14)        -62.6901         estimate D2E/DX2                !
 ! D42   D(12,10,13,15)         57.4174         estimate D2E/DX2                !
 --------------------------------------------------------------------------------
 Trust Radius=3.00D-01 FncErr=1.00D-07 GrdErr=1.00D-06
 Number of steps in this run=    103 maximum allowed number of steps=    114.
 GradGradGradGradGradGradGradGradGradGradGradGradGradGradGradGradGradGrad

 Leave Link  103 at Sat Nov  7 02:02:17 2015, MaxMem=   805306368 cpu:         0.0
 (Enter /home/hetanjin/apps/g09D01/g09/l202.exe)
                          Input orientation:                          
 ---------------------------------------------------------------------
 Center     Atomic      Atomic             Coordinates (Angstroms)
 Number     Number       Type             X           Y           Z
 ---------------------------------------------------------------------
      1          6           0        2.158797   -1.038262    0.033294
      2          1           0        1.927533   -2.029222   -0.375554
      3          1           0        2.248004   -1.140761    1.122907
      4          1           0        3.140068   -0.736400   -0.352089
      5          6           0        1.075129   -0.013247   -0.333943
      6          1           0        1.027373    0.044919   -1.432844
      7          6           0       -0.305208   -0.482864    0.167098
      8          1           0       -0.293645   -0.515801    1.267925
      9          1           0       -0.461374   -1.520579   -0.163436
     10          6           0       -1.498621    0.360991   -0.301923
     11          1           0       -1.481223    0.432726   -1.399129
     12          1           0       -1.403322    1.388403    0.072512
     13          6           0       -2.846192   -0.213221    0.149098
     14          1           0       -2.906213   -0.270618    1.243053
     15          1           0       -3.681827    0.405542   -0.197689
     16          6           0        1.452038    1.379337    0.194904
     17          1           0        0.736890    2.147561   -0.117998
     18          1           0        1.487561    1.382710    1.292643
     19          1           0        2.441246    1.682004   -0.168912
 ---------------------------------------------------------------------
                    Distance matrix (angstroms):
                    1          2          3          4          5
     1  C    0.000000
     2  H    1.096650   0.000000
     3  H    1.098053   1.771285   0.000000
     4  H    1.096601   1.772620   1.770565   0.000000
     5  C    1.536182   2.189173   2.183881   2.187979   0.000000
     6  H    2.145451   2.496039   3.070446   2.498394   1.101475
     7  C    2.529366   2.769626   2.804513   3.493388   1.541724
     8  H    2.794951   3.150412   2.621371   3.803090   2.166122
     9  H    2.671447   2.451650   3.023189   3.690652   2.159158
    10  C    3.930265   4.178166   4.280490   4.766993   2.601013
    11  H    4.179161   4.327645   4.769031   4.880520   2.805076
    12  H    4.310329   4.793279   4.564228   5.033634   2.876204
    13  C    5.073856   5.134352   5.268725   6.029943   3.956018
    14  H    5.263755   5.392372   5.228531   6.270482   4.290016
    15  H    6.020865   6.117567   6.268806   6.918535   4.777298
    16  C    2.523967   3.488523   2.801008   2.761338   1.536564
    17  H    3.492016   4.350802   3.825751   3.761289   2.197755
    18  H    2.810271   3.823315   2.641021   3.150643   2.182791
    19  H    2.742355   3.752306   3.110328   2.524002   2.183435
                    6          7          8          9         10
     6  H    0.000000
     7  C    2.148055   0.000000
     8  H    3.058374   1.101380   0.000000
     9  H    2.505703   1.100224   1.756846   0.000000
    10  C    2.785593   1.535027   2.164522   2.152990   0.000000
    11  H    2.538619   2.162032   3.069727   2.526347   1.099686
    12  H    3.159007   2.171737   2.507267   3.066776   1.097661
    13  C    4.192098   2.555314   2.803360   2.737557   1.532673
    14  H    4.767923   2.822757   2.624166   3.085102   2.183391
    15  H    4.881826   3.510540   3.804823   3.752657   2.186147
    16  C    2.147225   2.560562   2.791116   3.492716   3.160736
    17  H    2.496859   2.843657   3.174316   3.859165   2.867607
    18  H    3.070788   2.821567   2.603392   3.787823   3.536076
    19  H    2.505316   3.513199   3.791369   4.322241   4.157562
                   11         12         13         14         15
    11  H    0.000000
    12  H    1.756449   0.000000
    13  C    2.162729   2.157067   0.000000
    14  H    3.083247   2.526103   1.097103   0.000000
    15  H    2.507360   2.496119   1.096091   1.770454   0.000000
    16  C    3.470019   2.857996   4.584007   4.776538   5.240131
    17  H    3.082528   2.278842   4.299199   4.579547   4.750373
    18  H    4.118469   3.137827   4.757742   4.694806   5.467954
    19  H    4.296498   3.863313   5.625834   5.865296   6.254775
                   16         17         18         19
    16  C    0.000000
    17  H    1.095223   0.000000
    18  H    1.098319   1.771556   0.000000
    19  H    1.096586   1.767531   1.770659   0.000000
 Stoichiometry    C6H13(2)
 Framework group  C1[X(C6H13)]
 Deg. of freedom    51
 Full point group                 C1      NOp   1
 Largest Abelian subgroup         C1      NOp   1
 Largest concise Abelian subgroup C1      NOp   1
                         Standard orientation:                         
 ---------------------------------------------------------------------
 Center     Atomic      Atomic             Coordinates (Angstroms)
 Number     Number       Type             X           Y           Z
 ---------------------------------------------------------------------
      1          6           0        2.128559   -1.000004    0.027004
      2          1           0        1.929216   -1.992683   -0.394293
      3          1           0        2.215590   -1.112347    1.115822
      4          1           0        3.102127   -0.664344   -0.349867
      5          6           0        1.016277   -0.003865   -0.334093
      6          1           0        0.972058    0.065522   -1.432490
      7          6           0       -0.351672   -0.520527    0.154465
      8          1           0       -0.344399   -0.565808    1.254890
      9          1           0       -0.474919   -1.558583   -0.188671
     10          6           0       -1.567703    0.292421   -0.311036
     11          1           0       -1.547214    0.377309   -1.407249
     12          1           0       -1.505194    1.317843    0.075567
     13          6           0       -2.899510   -0.327219    0.126482
     14          1           0       -2.963018   -0.399020    1.219389
     15          1           0       -3.751734    0.270101   -0.217521
     16          6           0        1.348524    1.393224    0.212519
     17          1           0        0.612066    2.143159   -0.095280
     18          1           0        1.378667    1.384990    1.310393
     19          1           0        2.329898    1.729678   -0.142737
 ---------------------------------------------------------------------
 Rotational constants (GHZ):      6.7342802      1.7446345      1.5013600
 Leave Link  202 at Sat Nov  7 02:02:17 2015, MaxMem=   805306368 cpu:         0.0
 (Enter /home/hetanjin/apps/g09D01/g09/l301.exe)
 Standard basis: 6-31G(d) (6D, 7F)
 Ernie: Thresh=  0.10000D-02 Tol=  0.10000D-05 Strict=F.
 There are   116 symmetry adapted cartesian basis functions of A   symmetry.
 There are   116 symmetry adapted basis functions of A   symmetry.
   116 basis functions,   220 primitive gaussians,   116 cartesian basis functions
    25 alpha electrons       24 beta electrons
       nuclear repulsion energy       243.0615992946 Hartrees.
 IExCor=  402 DFT=T Ex+Corr=B3LYP ExCW=0 ScaHFX=  0.200000
 ScaDFX=  0.800000  0.720000  1.000000  0.810000 ScalE2=  1.000000  1.000000
 IRadAn=      5 IRanWt=     -1 IRanGd=            0 ICorTp=0 IEmpDi=  4
 NAtoms=   19 NActive=   19 NUniq=   19 SFac= 1.00D+00 NAtFMM=   60 NAOKFM=F Big=F
 Integral buffers will be    131072 words long.
 Raffenetti 2 integral format.
 Two-electron integral symmetry is turned on.
 Leave Link  301 at Sat Nov  7 02:02:17 2015, MaxMem=   805306368 cpu:         0.2
 (Enter /home/hetanjin/apps/g09D01/g09/l302.exe)
 NPDir=0 NMtPBC=     1 NCelOv=     1 NCel=       1 NClECP=     1 NCelD=      1
         NCelK=      1 NCelE2=     1 NClLst=     1 CellRange=     0.0.
 One-electron integrals computed using PRISM.
 NBasis=   116 RedAO= T EigKep=  3.72D-03  NBF=   116
 NBsUse=   116 1.00D-06 EigRej= -1.00D+00 NBFU=   116
 Precomputing XC quadrature grid using
 IXCGrd= 4 IRadAn=           5 IRanWt=          -1 IRanGd=           0 AccXCQ= 0.00D+00.
 Generated NRdTot=       0 NPtTot=           0 NUsed=           0 NTot=          32
 NSgBfM=   116   116   116   116   116 MxSgAt=    19 MxSgA2=    19.
 Leave Link  302 at Sat Nov  7 02:02:18 2015, MaxMem=   805306368 cpu:         1.7
 (Enter /home/hetanjin/apps/g09D01/g09/l303.exe)
 DipDrv:  MaxL=1.
 Leave Link  303 at Sat Nov  7 02:02:18 2015, MaxMem=   805306368 cpu:         0.3
 (Enter /home/hetanjin/apps/g09D01/g09/l401.exe)
 ExpMin= 1.61D-01 ExpMax= 3.05D+03 ExpMxC= 4.57D+02 IAcc=3 IRadAn=         5 AccDes= 0.00D+00
 Harris functional with IExCor=  402 and IRadAn=       5 diagonalized for initial guess.
 HarFok:  IExCor=  402 AccDes= 0.00D+00 IRadAn=         5 IDoV= 1 UseB2=F ITyADJ=14
 ICtDFT=  3500011 ScaDFX=  1.000000  1.000000  1.000000  1.000000
 FoFCou: FMM=F IPFlag=           0 FMFlag=      100000 FMFlg1=           0
         NFxFlg=           0 DoJE=T BraDBF=F KetDBF=T FulRan=T
         wScrn=  0.000000 ICntrl=     500 IOpCl=  0 I1Cent=   200000004 NGrid=           0
         NMat0=    1 NMatS0=      1 NMatT0=    0 NMatD0=    1 NMtDS0=    0 NMtDT0=    0
 Petite list used in FoFCou.
 Harris En= -236.440618430550    
 JPrj=0 DoOrth=F DoCkMO=F.
 Initial guess <Sx>= 0.0000 <Sy>= 0.0000 <Sz>= 0.5000 <S**2>= 0.7500 S= 0.5000
 Leave Link  401 at Sat Nov  7 02:02:21 2015, MaxMem=   805306368 cpu:         8.8
 (Enter /home/hetanjin/apps/g09D01/g09/l502.exe)
 UHF open shell SCF:
 Using DIIS extrapolation, IDIIS=  1040.
 Integral symmetry usage will be decided dynamically.
 Keep R1 and R2 ints in memory in canonical form, NReq=47059932.
 IVT=       60514 IEndB=       60514 NGot=   805306368 MDV=   759189273
 LenX=   759189273 LenY=   759175376
 Requested convergence on RMS density matrix=1.00D-08 within 128 cycles.
 Requested convergence on MAX density matrix=1.00D-06.
 Requested convergence on             energy=1.00D-06.
 No special actions if energy rises.
 FoFCou: FMM=F IPFlag=           0 FMFlag=           0 FMFlg1=           0
         NFxFlg=           0 DoJE=F BraDBF=F KetDBF=F FulRan=T
         wScrn=  0.000000 ICntrl=     600 IOpCl=  0 I1Cent=           0 NGrid=           0
         NMat0=    1 NMatS0=   6786 NMatT0=    0 NMatD0=    1 NMtDS0=    0 NMtDT0=    0
 Symmetry not used in FoFCou.
 Integral accuracy reduced to 1.0D-05 until final iterations.

 Cycle   1  Pass 0  IDiag  1:
 E= -236.152659251333    
 DIIS: error= 4.51D-02 at cycle   1 NSaved=   1.
 NSaved= 1 IEnMin= 1 EnMin= -236.152659251333     IErMin= 1 ErrMin= 4.51D-02
 ErrMax= 4.51D-02  0.00D+00 EMaxC= 1.00D-01 BMatC= 8.77D-01 BMatP= 8.77D-01
 IDIUse=3 WtCom= 5.49D-01 WtEn= 4.51D-01
 Coeff-Com:  0.100D+01
 Coeff-En:   0.100D+01
 Coeff:      0.100D+01
 Gap=     0.291 Goal=   None    Shift=    0.000
 Gap=     0.236 Goal=   None    Shift=    0.000
 GapD=    0.236 DampG=1.000 DampE=0.500 DampFc=0.5000 IDamp=-1.
 Damping current iteration by 5.00D-01
 RMSDP=9.55D-03 MaxDP=1.36D-01              OVMax= 1.84D-01

 Cycle   2  Pass 0  IDiag  1:
 E= -236.264508014562     Delta-E=       -0.111848763229 Rises=F Damp=T
 DIIS: error= 7.56D-03 at cycle   2 NSaved=   2.
 NSaved= 2 IEnMin= 2 EnMin= -236.264508014562     IErMin= 2 ErrMin= 7.56D-03
 ErrMax= 7.56D-03  0.00D+00 EMaxC= 1.00D-01 BMatC= 3.76D-02 BMatP= 8.77D-01
 IDIUse=3 WtCom= 9.24D-01 WtEn= 7.56D-02
 Coeff-Com:  0.673D-01 0.933D+00
 Coeff-En:   0.109D+00 0.891D+00
 Coeff:      0.704D-01 0.930D+00
 Gap=     0.315 Goal=   None    Shift=    0.000
 Gap=     0.261 Goal=   None    Shift=    0.000
 RMSDP=1.56D-03 MaxDP=2.20D-02 DE=-1.12D-01 OVMax= 9.93D-02

 Cycle   3  Pass 0  IDiag  1:
 E= -236.400360818344     Delta-E=       -0.135852803782 Rises=F Damp=F
 DIIS: error= 2.46D-03 at cycle   3 NSaved=   3.
 NSaved= 3 IEnMin= 3 EnMin= -236.400360818344     IErMin= 3 ErrMin= 2.46D-03
 ErrMax= 2.46D-03  0.00D+00 EMaxC= 1.00D-01 BMatC= 4.97D-03 BMatP= 3.76D-02
 IDIUse=3 WtCom= 9.75D-01 WtEn= 2.46D-02
 Coeff-Com: -0.467D-02 0.201D+00 0.803D+00
 Coeff-En:   0.000D+00 0.000D+00 0.100D+01
 Coeff:     -0.455D-02 0.196D+00 0.808D+00
 Gap=     0.320 Goal=   None    Shift=    0.000
 Gap=     0.240 Goal=   None    Shift=    0.000
 RMSDP=5.60D-04 MaxDP=1.18D-02 DE=-1.36D-01 OVMax= 1.18D-02

 Cycle   4  Pass 0  IDiag  1:
 E= -236.401107187158     Delta-E=       -0.000746368814 Rises=F Damp=F
 DIIS: error= 1.57D-03 at cycle   4 NSaved=   4.
 NSaved= 4 IEnMin= 4 EnMin= -236.401107187158     IErMin= 4 ErrMin= 1.57D-03
 ErrMax= 1.57D-03  0.00D+00 EMaxC= 1.00D-01 BMatC= 2.26D-03 BMatP= 4.97D-03
 IDIUse=3 WtCom= 9.84D-01 WtEn= 1.57D-02
 Coeff-Com: -0.562D-02 0.337D-01 0.413D+00 0.559D+00
 Coeff-En:   0.000D+00 0.000D+00 0.287D+00 0.713D+00
 Coeff:     -0.553D-02 0.331D-01 0.411D+00 0.561D+00
 Gap=     0.314 Goal=   None    Shift=    0.000
 Gap=     0.248 Goal=   None    Shift=    0.000
 RMSDP=2.20D-04 MaxDP=4.32D-03 DE=-7.46D-04 OVMax= 5.47D-03

 Cycle   5  Pass 0  IDiag  1:
 E= -236.401668266301     Delta-E=       -0.000561079143 Rises=F Damp=F
 DIIS: error= 2.83D-04 at cycle   5 NSaved=   5.
 NSaved= 5 IEnMin= 5 EnMin= -236.401668266301     IErMin= 5 ErrMin= 2.83D-04
 ErrMax= 2.83D-04  0.00D+00 EMaxC= 1.00D-01 BMatC= 5.99D-05 BMatP= 2.26D-03
 IDIUse=3 WtCom= 9.97D-01 WtEn= 2.83D-03
 Coeff-Com: -0.113D-02-0.325D-02 0.851D-01 0.194D+00 0.725D+00
 Coeff-En:   0.000D+00 0.000D+00 0.000D+00 0.000D+00 0.100D+01
 Coeff:     -0.113D-02-0.324D-02 0.849D-01 0.193D+00 0.726D+00
 Gap=     0.315 Goal=   None    Shift=    0.000
 Gap=     0.248 Goal=   None    Shift=    0.000
 RMSDP=3.95D-05 MaxDP=8.48D-04 DE=-5.61D-04 OVMax= 9.12D-04

 Cycle   6  Pass 0  IDiag  1:
 E= -236.401684238745     Delta-E=       -0.000015972444 Rises=F Damp=F
 DIIS: error= 6.51D-05 at cycle   6 NSaved=   6.
 NSaved= 6 IEnMin= 6 EnMin= -236.401684238745     IErMin= 6 ErrMin= 6.51D-05
 ErrMax= 6.51D-05  0.00D+00 EMaxC= 1.00D-01 BMatC= 2.49D-06 BMatP= 5.99D-05
 IDIUse=1 WtCom= 1.00D+00 WtEn= 0.00D+00
 Coeff-Com:  0.144D-03-0.230D-02-0.113D-01-0.533D-02 0.931D-01 0.926D+00
 Coeff:      0.144D-03-0.230D-02-0.113D-01-0.533D-02 0.931D-01 0.926D+00
 Gap=     0.315 Goal=   None    Shift=    0.000
 Gap=     0.248 Goal=   None    Shift=    0.000
 RMSDP=1.31D-05 MaxDP=4.29D-04 DE=-1.60D-05 OVMax= 3.69D-04

 Cycle   7  Pass 0  IDiag  1:
 E= -236.401685274390     Delta-E=       -0.000001035646 Rises=F Damp=F
 DIIS: error= 3.82D-05 at cycle   7 NSaved=   7.
 NSaved= 7 IEnMin= 7 EnMin= -236.401685274390     IErMin= 7 ErrMin= 3.82D-05
 ErrMax= 3.82D-05  0.00D+00 EMaxC= 1.00D-01 BMatC= 8.38D-07 BMatP= 2.49D-06
 IDIUse=1 WtCom= 1.00D+00 WtEn= 0.00D+00
 Coeff-Com:  0.234D-03-0.240D-03-0.190D-01-0.359D-01-0.934D-01 0.377D+00
 Coeff-Com:  0.772D+00
 Coeff:      0.234D-03-0.240D-03-0.190D-01-0.359D-01-0.934D-01 0.377D+00
 Coeff:      0.772D+00
 Gap=     0.315 Goal=   None    Shift=    0.000
 Gap=     0.248 Goal=   None    Shift=    0.000
 RMSDP=5.58D-06 MaxDP=2.11D-04 DE=-1.04D-06 OVMax= 2.10D-04

 Initial convergence to 1.0D-05 achieved.  Increase integral accuracy.
 Cycle   8  Pass 1  IDiag  1:
 E= -236.401687739741     Delta-E=       -0.000002465350 Rises=F Damp=F
 DIIS: error= 1.03D-05 at cycle   1 NSaved=   1.
 NSaved= 1 IEnMin= 1 EnMin= -236.401687739741     IErMin= 1 ErrMin= 1.03D-05
 ErrMax= 1.03D-05  0.00D+00 EMaxC= 1.00D-01 BMatC= 7.95D-08 BMatP= 7.95D-08
 IDIUse=1 WtCom= 1.00D+00 WtEn= 0.00D+00
 Coeff-Com:  0.100D+01
 Coeff:      0.100D+01
 Gap=     0.315 Goal=   None    Shift=    0.000
 Gap=     0.248 Goal=   None    Shift=    0.000
 RMSDP=5.58D-06 MaxDP=2.11D-04 DE=-2.47D-06 OVMax= 7.48D-05

 Cycle   9  Pass 1  IDiag  1:
 E= -236.401687750365     Delta-E=       -0.000000010624 Rises=F Damp=F
 DIIS: error= 1.00D-05 at cycle   2 NSaved=   2.
 NSaved= 2 IEnMin= 2 EnMin= -236.401687750365     IErMin= 2 ErrMin= 1.00D-05
 ErrMax= 1.00D-05  0.00D+00 EMaxC= 1.00D-01 BMatC= 7.27D-08 BMatP= 7.95D-08
 IDIUse=1 WtCom= 1.00D+00 WtEn= 0.00D+00
 Coeff-Com:  0.487D+00 0.513D+00
 Coeff:      0.487D+00 0.513D+00
 Gap=     0.315 Goal=   None    Shift=    0.000
 Gap=     0.248 Goal=   None    Shift=    0.000
 RMSDP=1.18D-06 MaxDP=3.32D-05 DE=-1.06D-08 OVMax= 3.36D-05

 Cycle  10  Pass 1  IDiag  1:
 E= -236.401687768974     Delta-E=       -0.000000018610 Rises=F Damp=F
 DIIS: error= 2.03D-06 at cycle   3 NSaved=   3.
 NSaved= 3 IEnMin= 3 EnMin= -236.401687768974     IErMin= 3 ErrMin= 2.03D-06
 ErrMax= 2.03D-06  0.00D+00 EMaxC= 1.00D-01 BMatC= 2.12D-09 BMatP= 7.27D-08
 IDIUse=1 WtCom= 1.00D+00 WtEn= 0.00D+00
 Coeff-Com: -0.722D-01 0.390D-01 0.103D+01
 Coeff:     -0.722D-01 0.390D-01 0.103D+01
 Gap=     0.315 Goal=   None    Shift=    0.000
 Gap=     0.248 Goal=   None    Shift=    0.000
 RMSDP=3.76D-07 MaxDP=1.18D-05 DE=-1.86D-08 OVMax= 1.12D-05

 Cycle  11  Pass 1  IDiag  1:
 E= -236.401687770014     Delta-E=       -0.000000001040 Rises=F Damp=F
 DIIS: error= 6.61D-07 at cycle   4 NSaved=   4.
 NSaved= 4 IEnMin= 4 EnMin= -236.401687770014     IErMin= 4 ErrMin= 6.61D-07
 ErrMax= 6.61D-07  0.00D+00 EMaxC= 1.00D-01 BMatC= 4.56D-10 BMatP= 2.12D-09
 IDIUse=1 WtCom= 1.00D+00 WtEn= 0.00D+00
 Coeff-Com: -0.926D-01-0.605D-01 0.327D+00 0.826D+00
 Coeff:     -0.926D-01-0.605D-01 0.327D+00 0.826D+00
 Gap=     0.315 Goal=   None    Shift=    0.000
 Gap=     0.248 Goal=   None    Shift=    0.000
 RMSDP=1.67D-07 MaxDP=3.94D-06 DE=-1.04D-09 OVMax= 4.98D-06

 Cycle  12  Pass 1  IDiag  1:
 E= -236.401687770200     Delta-E=       -0.000000000186 Rises=F Damp=F
 DIIS: error= 2.30D-07 at cycle   5 NSaved=   5.
 NSaved= 5 IEnMin= 5 EnMin= -236.401687770200     IErMin= 5 ErrMin= 2.30D-07
 ErrMax= 2.30D-07  0.00D+00 EMaxC= 1.00D-01 BMatC= 5.36D-11 BMatP= 4.56D-10
 IDIUse=1 WtCom= 1.00D+00 WtEn= 0.00D+00
 Coeff-Com: -0.221D-01-0.235D-01-0.106D-01 0.271D+00 0.785D+00
 Coeff:     -0.221D-01-0.235D-01-0.106D-01 0.271D+00 0.785D+00
 Gap=     0.315 Goal=   None    Shift=    0.000
 Gap=     0.248 Goal=   None    Shift=    0.000
 RMSDP=4.89D-08 MaxDP=1.41D-06 DE=-1.86D-10 OVMax= 1.55D-06

 Cycle  13  Pass 1  IDiag  1:
 E= -236.401687770218     Delta-E=       -0.000000000018 Rises=F Damp=F
 DIIS: error= 1.44D-07 at cycle   6 NSaved=   6.
 NSaved= 6 IEnMin= 6 EnMin= -236.401687770218     IErMin= 6 ErrMin= 1.44D-07
 ErrMax= 1.44D-07  0.00D+00 EMaxC= 1.00D-01 BMatC= 8.70D-12 BMatP= 5.36D-11
 IDIUse=1 WtCom= 1.00D+00 WtEn= 0.00D+00
 Coeff-Com:  0.278D-02-0.188D-02-0.483D-01 0.646D-02 0.335D+00 0.706D+00
 Coeff:      0.278D-02-0.188D-02-0.483D-01 0.646D-02 0.335D+00 0.706D+00
 Gap=     0.315 Goal=   None    Shift=    0.000
 Gap=     0.248 Goal=   None    Shift=    0.000
 RMSDP=1.78D-08 MaxDP=5.07D-07 DE=-1.78D-11 OVMax= 4.84D-07

 Cycle  14  Pass 1  IDiag  1:
 E= -236.401687770221     Delta-E=       -0.000000000003 Rises=F Damp=F
 DIIS: error= 2.01D-08 at cycle   7 NSaved=   7.
 NSaved= 7 IEnMin= 7 EnMin= -236.401687770221     IErMin= 7 ErrMin= 2.01D-08
 ErrMax= 2.01D-08  0.00D+00 EMaxC= 1.00D-01 BMatC= 3.61D-13 BMatP= 8.70D-12
 IDIUse=1 WtCom= 1.00D+00 WtEn= 0.00D+00
 Coeff-Com:  0.199D-02 0.429D-03-0.168D-01-0.977D-02 0.832D-01 0.256D+00
 Coeff-Com:  0.685D+00
 Coeff:      0.199D-02 0.429D-03-0.168D-01-0.977D-02 0.832D-01 0.256D+00
 Coeff:      0.685D+00
 Gap=     0.315 Goal=   None    Shift=    0.000
 Gap=     0.248 Goal=   None    Shift=    0.000
 RMSDP=3.78D-09 MaxDP=5.43D-08 DE=-3.18D-12 OVMax= 7.82D-08

 SCF Done:  E(UB3LYP) =  -236.401687770     A.U. after   14 cycles
            NFock= 14  Conv=0.38D-08     -V/T= 2.0104
 <Sx>= 0.0000 <Sy>= 0.0000 <Sz>= 0.5000 <S**2>= 0.7526 S= 0.5013
 <L.S>= 0.000000000000E+00
 KE= 2.339667941863D+02 PE=-1.031666662230D+03 EE= 3.182365809791D+02
 Annihilation of the first spin contaminant:
 S**2 before annihilation     0.7526,   after     0.7500
 Leave Link  502 at Sat Nov  7 02:03:04 2015, MaxMem=   805306368 cpu:       162.2
 (Enter /home/hetanjin/apps/g09D01/g09/l601.exe)
 Copying SCF densities to generalized density rwf, IOpCl= 1 IROHF=0.

 **********************************************************************

            Population analysis using the SCF density.

 **********************************************************************

 Orbital symmetries:
 Alpha Orbitals:
       Occupied  (A) (A) (A) (A) (A) (A) (A) (A) (A) (A) (A) (A)
                 (A) (A) (A) (A) (A) (A) (A) (A) (A) (A) (A) (A)
                 (A)
       Virtual   (A) (A) (A) (A) (A) (A) (A) (A) (A) (A) (A) (A)
                 (A) (A) (A) (A) (A) (A) (A) (A) (A) (A) (A) (A)
                 (A) (A) (A) (A) (A) (A) (A) (A) (A) (A) (A) (A)
                 (A) (A) (A) (A) (A) (A) (A) (A) (A) (A) (A) (A)
                 (A) (A) (A) (A) (A) (A) (A) (A) (A) (A) (A) (A)
                 (A) (A) (A) (A) (A) (A) (A) (A) (A) (A) (A) (A)
                 (A) (A) (A) (A) (A) (A) (A) (A) (A) (A) (A) (A)
                 (A) (A) (A) (A) (A) (A) (A)
 Beta  Orbitals:
       Occupied  (A) (A) (A) (A) (A) (A) (A) (A) (A) (A) (A) (A)
                 (A) (A) (A) (A) (A) (A) (A) (A) (A) (A) (A) (A)
       Virtual   (A) (A) (A) (A) (A) (A) (A) (A) (A) (A) (A) (A)
                 (A) (A) (A) (A) (A) (A) (A) (A) (A) (A) (A) (A)
                 (A) (A) (A) (A) (A) (A) (A) (A) (A) (A) (A) (A)
                 (A) (A) (A) (A) (A) (A) (A) (A) (A) (A) (A) (A)
                 (A) (A) (A) (A) (A) (A) (A) (A) (A) (A) (A) (A)
                 (A) (A) (A) (A) (A) (A) (A) (A) (A) (A) (A) (A)
                 (A) (A) (A) (A) (A) (A) (A) (A) (A) (A) (A) (A)
                 (A) (A) (A) (A) (A) (A) (A) (A)
 The electronic state is 2-A.
 Alpha  occ. eigenvalues --  -10.19535 -10.18486 -10.18379 -10.17490 -10.17033
 Alpha  occ. eigenvalues --  -10.16934  -0.80816  -0.75717  -0.67809  -0.66736
 Alpha  occ. eigenvalues --   -0.58510  -0.55368  -0.46590  -0.44294  -0.43630
 Alpha  occ. eigenvalues --   -0.40407  -0.39647  -0.37936  -0.37582  -0.35328
 Alpha  occ. eigenvalues --   -0.33907  -0.31849  -0.31623  -0.30918  -0.22854
 Alpha virt. eigenvalues --    0.08661   0.11355   0.12138   0.13677   0.14784
 Alpha virt. eigenvalues --    0.15720   0.16307   0.16950   0.18264   0.18754
 Alpha virt. eigenvalues --    0.19702   0.21485   0.21801   0.23384   0.25010
 Alpha virt. eigenvalues --    0.26459   0.27291   0.28301   0.49648   0.51029
 Alpha virt. eigenvalues --    0.52159   0.52301   0.53332   0.55981   0.57455
 Alpha virt. eigenvalues --    0.62882   0.64481   0.66114   0.69321   0.70663
 Alpha virt. eigenvalues --    0.72744   0.74307   0.78600   0.81614   0.84922
 Alpha virt. eigenvalues --    0.86465   0.87278   0.89511   0.89586   0.91264
 Alpha virt. eigenvalues --    0.91924   0.92791   0.94626   0.94991   0.96008
 Alpha virt. eigenvalues --    0.96927   0.98578   1.00245   1.02687   1.04091
 Alpha virt. eigenvalues --    1.18403   1.34452   1.41229   1.43047   1.45652
 Alpha virt. eigenvalues --    1.53946   1.60844   1.68708   1.72146   1.78397
 Alpha virt. eigenvalues --    1.81246   1.83913   1.86223   1.91246   1.95066
 Alpha virt. eigenvalues --    1.97162   1.98054   2.00065   2.02294   2.08730
 Alpha virt. eigenvalues --    2.11774   2.15801   2.21947   2.24518   2.25940
 Alpha virt. eigenvalues --    2.29163   2.34116   2.36609   2.44415   2.51605
 Alpha virt. eigenvalues --    2.52737   2.58688   2.68432   2.76513   2.79862
 Alpha virt. eigenvalues --    4.08548   4.17406   4.28799   4.30174   4.45826
 Alpha virt. eigenvalues --    4.59040
  Beta  occ. eigenvalues --  -10.18487 -10.18407 -10.18088 -10.17470 -10.17030
  Beta  occ. eigenvalues --  -10.16934  -0.80658  -0.74846  -0.67801  -0.65498
  Beta  occ. eigenvalues --   -0.57163  -0.55277  -0.46287  -0.43956  -0.43422
  Beta  occ. eigenvalues --   -0.40012  -0.39040  -0.37898  -0.36946  -0.35140
  Beta  occ. eigenvalues --   -0.33546  -0.31723  -0.31545  -0.30634
  Beta virt. eigenvalues --   -0.05861   0.08786   0.11753   0.12237   0.13883
  Beta virt. eigenvalues --    0.14962   0.15816   0.16453   0.17360   0.18546
  Beta virt. eigenvalues --    0.19039   0.20017   0.21794   0.21950   0.23598
  Beta virt. eigenvalues --    0.25151   0.26853   0.27707   0.28769   0.49945
  Beta virt. eigenvalues --    0.51151   0.52269   0.52605   0.53611   0.57975
  Beta virt. eigenvalues --    0.61659   0.63780   0.65065   0.66409   0.69820
  Beta virt. eigenvalues --    0.71210   0.72762   0.74412   0.79165   0.81837
  Beta virt. eigenvalues --    0.85211   0.86692   0.87573   0.89608   0.90315
  Beta virt. eigenvalues --    0.91450   0.92066   0.93015   0.95102   0.95506
  Beta virt. eigenvalues --    0.96648   0.97120   0.98758   1.00546   1.02929
  Beta virt. eigenvalues --    1.04862   1.19518   1.34886   1.41891   1.43264
  Beta virt. eigenvalues --    1.45663   1.55254   1.60929   1.69475   1.72561
  Beta virt. eigenvalues --    1.78882   1.82486   1.84837   1.90084   1.91804
  Beta virt. eigenvalues --    1.95781   1.98197   1.99549   2.00265   2.02696
  Beta virt. eigenvalues --    2.09290   2.12673   2.17835   2.23718   2.24636
  Beta virt. eigenvalues --    2.25993   2.30091   2.34736   2.37399   2.44621
  Beta virt. eigenvalues --    2.51664   2.52869   2.59751   2.68599   2.76789
  Beta virt. eigenvalues --    2.80151   4.10366   4.18529   4.28846   4.30698
  Beta virt. eigenvalues --    4.46073   4.59100
          Condensed to atoms (all electrons):
               1          2          3          4          5          6
     1  C    5.108449   0.369919   0.371894   0.368162   0.379378  -0.045862
     2  H    0.369919   0.578969  -0.031532  -0.030201  -0.029705  -0.003360
     3  H    0.371894  -0.031532   0.584076  -0.032013  -0.034036   0.005862
     4  H    0.368162  -0.030201  -0.032013   0.582378  -0.028479  -0.003401
     5  C    0.379378  -0.029705  -0.034036  -0.028479   4.841746   0.378721
     6  H   -0.045862  -0.003360   0.005862  -0.003401   0.378721   0.643282
     7  C   -0.046535  -0.004145  -0.006052   0.004686   0.384902  -0.048730
     8  H   -0.004014  -0.000271   0.004839  -0.000086  -0.037633   0.006594
     9  H   -0.004590   0.005247  -0.000291   0.000024  -0.037780  -0.003554
    10  C    0.004047   0.000007   0.000015  -0.000143  -0.032507  -0.005644
    11  H    0.000053  -0.000003   0.000009   0.000000  -0.003425   0.006201
    12  H    0.000020   0.000000   0.000001   0.000003  -0.004479  -0.000276
    13  C   -0.000124  -0.000004   0.000001   0.000001   0.003513   0.000022
    14  H    0.000000   0.000000  -0.000001   0.000000   0.000073   0.000009
    15  H    0.000002   0.000000   0.000000   0.000000  -0.000148   0.000001
    16  C   -0.054230   0.005285  -0.005542  -0.003749   0.379414  -0.048783
    17  H    0.005130  -0.000186  -0.000039  -0.000041  -0.029055  -0.003419
    18  H   -0.005175  -0.000048   0.004862  -0.000224  -0.034907   0.005946
    19  H   -0.004482  -0.000020  -0.000225   0.004379  -0.029615  -0.003201
               7          8          9         10         11         12
     1  C   -0.046535  -0.004014  -0.004590   0.004047   0.000053   0.000020
     2  H   -0.004145  -0.000271   0.005247   0.000007  -0.000003   0.000000
     3  H   -0.006052   0.004839  -0.000291   0.000015   0.000009   0.000001
     4  H    0.004686  -0.000086   0.000024  -0.000143   0.000000   0.000003
     5  C    0.384902  -0.037633  -0.037780  -0.032507  -0.003425  -0.004479
     6  H   -0.048730   0.006594  -0.003554  -0.005644   0.006201  -0.000276
     7  C    5.019310   0.364978   0.372056   0.376748  -0.041663  -0.038055
     8  H    0.364978   0.622914  -0.038424  -0.040926   0.005939  -0.005527
     9  H    0.372056  -0.038424   0.608773  -0.041581  -0.004722   0.005852
    10  C    0.376748  -0.040926  -0.041581   5.002323   0.373040   0.366153
    11  H   -0.041663   0.005939  -0.004722   0.373040   0.602977  -0.039426
    12  H   -0.038055  -0.005527   0.005852   0.366153  -0.039426   0.600349
    13  C   -0.041144  -0.003100   0.000220   0.366972  -0.038771  -0.037473
    14  H   -0.005657   0.004679  -0.000276  -0.044478   0.005311  -0.002173
    15  H    0.004094  -0.000051   0.000064  -0.036662  -0.003904  -0.000112
    16  C   -0.047971  -0.008132   0.005575  -0.004148  -0.000654   0.002512
    17  H   -0.004812  -0.000044  -0.000036   0.001858   0.000386   0.003522
    18  H   -0.005837   0.005759  -0.000012  -0.000373   0.000081   0.000295
    19  H    0.004850  -0.000039  -0.000166   0.000093  -0.000031  -0.000097
              13         14         15         16         17         18
     1  C   -0.000124   0.000000   0.000002  -0.054230   0.005130  -0.005175
     2  H   -0.000004   0.000000   0.000000   0.005285  -0.000186  -0.000048
     3  H    0.000001  -0.000001   0.000000  -0.005542  -0.000039   0.004862
     4  H    0.000001   0.000000   0.000000  -0.003749  -0.000041  -0.000224
     5  C    0.003513   0.000073  -0.000148   0.379414  -0.029055  -0.034907
     6  H    0.000022   0.000009   0.000001  -0.048783  -0.003419   0.005946
     7  C   -0.041144  -0.005657   0.004094  -0.047971  -0.004812  -0.005837
     8  H   -0.003100   0.004679  -0.000051  -0.008132  -0.000044   0.005759
     9  H    0.000220  -0.000276   0.000064   0.005575  -0.000036  -0.000012
    10  C    0.366972  -0.044478  -0.036662  -0.004148   0.001858  -0.000373
    11  H   -0.038771   0.005311  -0.003904  -0.000654   0.000386   0.000081
    12  H   -0.037473  -0.002173  -0.000112   0.002512   0.003522   0.000295
    13  C    5.321685   0.360656   0.353324   0.000143  -0.000112  -0.000026
    14  H    0.360656   0.594534  -0.045362  -0.000013   0.000006   0.000002
    15  H    0.353324  -0.045362   0.596853   0.000003   0.000004   0.000000
    16  C    0.000143  -0.000013   0.000003   5.114871   0.369436   0.371229
    17  H   -0.000112   0.000006   0.000004   0.369436   0.577540  -0.032047
    18  H   -0.000026   0.000002   0.000000   0.371229  -0.032047   0.584498
    19  H   -0.000001   0.000000   0.000000   0.370066  -0.030166  -0.031656
              19
     1  C   -0.004482
     2  H   -0.000020
     3  H   -0.000225
     4  H    0.004379
     5  C   -0.029615
     6  H   -0.003201
     7  C    0.004850
     8  H   -0.000039
     9  H   -0.000166
    10  C    0.000093
    11  H   -0.000031
    12  H   -0.000097
    13  C   -0.000001
    14  H    0.000000
    15  H    0.000000
    16  C    0.370066
    17  H   -0.030166
    18  H   -0.031656
    19  H    0.579861
          Atomic-Atomic Spin Densities.
               1          2          3          4          5          6
     1  C   -0.000184   0.000027  -0.000044  -0.000010   0.000292  -0.000017
     2  H    0.000027   0.000012  -0.000008  -0.000012  -0.000006  -0.000004
     3  H   -0.000044  -0.000008   0.000022   0.000024   0.000009   0.000000
     4  H   -0.000010  -0.000012   0.000024   0.000039  -0.000047   0.000008
     5  C    0.000292  -0.000006   0.000009  -0.000047  -0.001339   0.000216
     6  H   -0.000017  -0.000004   0.000000   0.000008   0.000216   0.000031
     7  C    0.000242   0.000028  -0.000011  -0.000020  -0.001546  -0.000145
     8  H    0.000028   0.000001  -0.000011  -0.000001   0.000005  -0.000010
     9  H   -0.000234  -0.000055   0.000023   0.000016   0.001321   0.000037
    10  C   -0.000046   0.000001   0.000001   0.000002   0.000439  -0.000001
    11  H    0.000008   0.000001   0.000000   0.000000  -0.000503  -0.000023
    12  H   -0.000025  -0.000001   0.000002   0.000001   0.001203   0.000007
    13  C   -0.000005  -0.000001   0.000000   0.000000   0.000094   0.000000
    14  H    0.000001   0.000000   0.000000   0.000000  -0.000054   0.000000
    15  H    0.000000   0.000000   0.000000   0.000000  -0.000002   0.000000
    16  C    0.000013   0.000000   0.000001  -0.000006  -0.000437  -0.000042
    17  H   -0.000027   0.000000   0.000001   0.000004   0.000067   0.000018
    18  H   -0.000016   0.000000   0.000003   0.000004   0.000042  -0.000001
    19  H   -0.000072  -0.000002   0.000009   0.000051  -0.000045   0.000013
               7          8          9         10         11         12
     1  C    0.000242   0.000028  -0.000234  -0.000046   0.000008  -0.000025
     2  H    0.000028   0.000001  -0.000055   0.000001   0.000001  -0.000001
     3  H   -0.000011  -0.000011   0.000023   0.000001   0.000000   0.000002
     4  H   -0.000020  -0.000001   0.000016   0.000002   0.000000   0.000001
     5  C   -0.001546   0.000005   0.001321   0.000439  -0.000503   0.001203
     6  H   -0.000145  -0.000010   0.000037  -0.000001  -0.000023   0.000007
     7  C    0.015867   0.000417  -0.005398   0.006185   0.003633  -0.006464
     8  H    0.000417  -0.000694  -0.000273   0.000403   0.000047  -0.000533
     9  H   -0.005398  -0.000273   0.003287  -0.001223  -0.000789   0.000795
    10  C    0.006185   0.000403  -0.001223  -0.037295   0.003948   0.012736
    11  H    0.003633   0.000047  -0.000789   0.003948   0.011657  -0.007220
    12  H   -0.006464  -0.000533   0.000795   0.012736  -0.007220   0.074579
    13  C   -0.008095  -0.000108   0.005008  -0.037723  -0.004999  -0.022626
    14  H    0.001127   0.000081  -0.000334   0.002956   0.000188  -0.002406
    15  H    0.000198   0.000022  -0.000088   0.002453   0.001226  -0.002537
    16  C    0.000386   0.000034  -0.000047  -0.000270   0.000119  -0.001005
    17  H   -0.000087  -0.000010   0.000013   0.000207  -0.000077   0.000686
    18  H   -0.000014  -0.000018   0.000006   0.000010  -0.000003   0.000052
    19  H   -0.000049  -0.000006   0.000009   0.000024  -0.000009   0.000065
              13         14         15         16         17         18
     1  C   -0.000005   0.000001   0.000000   0.000013  -0.000027  -0.000016
     2  H   -0.000001   0.000000   0.000000   0.000000   0.000000   0.000000
     3  H    0.000000   0.000000   0.000000   0.000001   0.000001   0.000003
     4  H    0.000000   0.000000   0.000000  -0.000006   0.000004   0.000004
     5  C    0.000094  -0.000054  -0.000002  -0.000437   0.000067   0.000042
     6  H    0.000000   0.000000   0.000000  -0.000042   0.000018  -0.000001
     7  C   -0.008095   0.001127   0.000198   0.000386  -0.000087  -0.000014
     8  H   -0.000108   0.000081   0.000022   0.000034  -0.000010  -0.000018
     9  H    0.005008  -0.000334  -0.000088  -0.000047   0.000013   0.000006
    10  C   -0.037723   0.002956   0.002453  -0.000270   0.000207   0.000010
    11  H   -0.004999   0.000188   0.001226   0.000119  -0.000077  -0.000003
    12  H   -0.022626  -0.002406  -0.002537  -0.001005   0.000686   0.000052
    13  C    1.138163  -0.013622  -0.012395   0.000047  -0.000049  -0.000004
    14  H   -0.013622  -0.023974   0.006327   0.000004  -0.000003  -0.000001
    15  H   -0.012395   0.006327  -0.025854   0.000001  -0.000002   0.000000
    16  C    0.000047   0.000004   0.000001   0.003766  -0.000298  -0.000154
    17  H   -0.000049  -0.000003  -0.000002  -0.000298  -0.000661   0.000060
    18  H   -0.000004  -0.000001   0.000000  -0.000154   0.000060  -0.000041
    19  H   -0.000001   0.000000   0.000000  -0.001093   0.000191   0.000069
              19
     1  C   -0.000072
     2  H   -0.000002
     3  H    0.000009
     4  H    0.000051
     5  C   -0.000045
     6  H    0.000013
     7  C   -0.000049
     8  H   -0.000006
     9  H    0.000009
    10  C    0.000024
    11  H   -0.000009
    12  H    0.000065
    13  C   -0.000001
    14  H    0.000000
    15  H    0.000000
    16  C   -0.001093
    17  H    0.000191
    18  H    0.000069
    19  H    0.001680
 Mulliken charges and spin densities:
               1          2
     1  C   -0.442041  -0.000071
     2  H    0.140046  -0.000019
     3  H    0.138170   0.000019
     4  H    0.138704   0.000053
     5  C   -0.065980  -0.000291
     6  H    0.119594   0.000087
     7  C   -0.241024   0.006253
     8  H    0.122544  -0.000627
     9  H    0.133618   0.002072
    10  C   -0.284792  -0.047191
    11  H    0.138604   0.007204
    12  H    0.148908   0.047308
    13  C   -0.285782   1.043683
    14  H    0.132691  -0.029711
    15  H    0.131894  -0.030652
    16  C   -0.445312   0.001020
    17  H    0.142074   0.000033
    18  H    0.137634  -0.000006
    19  H    0.140449   0.000834
 Sum of Mulliken charges =   0.00000   1.00000
 Mulliken charges and spin densities with hydrogens summed into heavy atoms:
               1          2
     1  C   -0.025120  -0.000018
     5  C    0.053614  -0.000203
     7  C    0.015138   0.007698
    10  C    0.002720   0.007321
    13  C   -0.021197   0.983321
    16  C   -0.025155   0.001881
 Electronic spatial extent (au):  <R**2>=            869.4270
 Charge=              0.0000 electrons
 Dipole moment (field-independent basis, Debye):
    X=              0.2450    Y=              0.5929    Z=              0.0828  Tot=              0.6468
 Quadrupole moment (field-independent basis, Debye-Ang):
   XX=            -42.1548   YY=            -41.5990   ZZ=            -40.2523
   XY=             -1.8324   XZ=             -0.6371   YZ=             -0.0626
 Traceless Quadrupole moment (field-independent basis, Debye-Ang):
   XX=             -0.8194   YY=             -0.2636   ZZ=              1.0830
   XY=             -1.8324   XZ=             -0.6371   YZ=             -0.0626
 Octapole moment (field-independent basis, Debye-Ang**2):
  XXX=              5.4623  YYY=              0.6995  ZZZ=              0.8899  XYY=              1.3728
  XXY=              7.5503  XXZ=              0.4985  XZZ=             -0.0076  YZZ=              0.0410
  YYZ=             -0.8969  XYZ=              0.2623
 Hexadecapole moment (field-independent basis, Debye-Ang**3):
 XXXX=           -880.9717 YYYY=           -242.9130 ZZZZ=            -95.4916 XXXY=            -17.9833
 XXXZ=             -7.4252 YYYX=             -6.2574 YYYZ=              1.1029 ZZZX=             -0.0493
 ZZZY=             -0.4993 XXYY=           -194.6661 XXZZ=           -160.4176 YYZZ=            -58.0107
 XXYZ=             -2.5189 YYXZ=             -1.1282 ZZXY=             -0.7802
 N-N= 2.430615992946D+02 E-N=-1.031666664150D+03  KE= 2.339667941863D+02
                          Isotropic Fermi Contact Couplings
        Atom                 a.u.       MegaHertz       Gauss      10(-4) cm-1
     1  C(13)              0.00020       0.21947       0.07831       0.07321
     2  H(1)               0.00000       0.00227       0.00081       0.00076
     3  H(1)               0.00000      -0.00794      -0.00283      -0.00265
     4  H(1)               0.00000       0.00736       0.00263       0.00246
     5  C(13)             -0.00110      -1.23646      -0.44120      -0.41244
     6  H(1)               0.00009       0.40149       0.14326       0.13392
     7  C(13)              0.00851       9.56430       3.41278       3.19031
     8  H(1)              -0.00025      -1.09533      -0.39084      -0.36536
     9  H(1)              -0.00030      -1.33027      -0.47468      -0.44373
    10  C(13)             -0.01188     -13.35825      -4.76656      -4.45583
    11  H(1)               0.00476      21.29791       7.59962       7.10422
    12  H(1)               0.02585     115.54925      41.23085      38.54308
    13  C(13)              0.31241     351.21269     125.32142     117.15194
    14  H(1)              -0.00379     -16.95374      -6.04951      -5.65516
    15  H(1)              -0.00435     -19.43955      -6.93651      -6.48434
    16  C(13)              0.00151       1.69433       0.60458       0.56517
    17  H(1)               0.00019       0.85620       0.30551       0.28560
    18  H(1)              -0.00002      -0.07178      -0.02561      -0.02394
    19  H(1)               0.00026       1.16921       0.41720       0.39001
 --------------------------------------------------------
       Center         ----  Spin Dipole Couplings  ----
                      3XX-RR        3YY-RR        3ZZ-RR
 --------------------------------------------------------
     1   Atom        0.002187     -0.001025     -0.001162
     2   Atom        0.001909     -0.000779     -0.001130
     3   Atom        0.001774     -0.000889     -0.000885
     4   Atom        0.001337     -0.000641     -0.000696
     5   Atom        0.004207     -0.001785     -0.002423
     6   Atom        0.003039     -0.001757     -0.001282
     7   Atom        0.020119     -0.010983     -0.009136
     8   Atom        0.007089     -0.005004     -0.002084
     9   Atom        0.011381     -0.003321     -0.008060
    10   Atom        0.007412      0.015403     -0.022815
    11   Atom       -0.000014     -0.004138      0.004152
    12   Atom        0.001220      0.007901     -0.009121
    13   Atom       -0.472933      0.734016     -0.261083
    14   Atom       -0.059251     -0.012482      0.071733
    15   Atom        0.021922      0.012365     -0.034286
    16   Atom        0.003862     -0.001541     -0.002321
    17   Atom        0.002774     -0.000235     -0.002539
    18   Atom        0.001905     -0.000978     -0.000927
    19   Atom        0.001473     -0.000573     -0.000900
 --------------------------------------------------------
                        XY            XZ            YZ
 --------------------------------------------------------
     1   Atom       -0.000337     -0.000001      0.000019
     2   Atom       -0.000919     -0.000248      0.000086
     3   Atom       -0.000364      0.000641     -0.000092
     4   Atom       -0.000099     -0.000120      0.000023
     5   Atom        0.000607     -0.000026      0.000267
     6   Atom        0.000590     -0.002019     -0.000107
     7   Atom       -0.000711      0.006839     -0.000685
     8   Atom       -0.000373      0.006679     -0.000312
     9   Atom       -0.006723     -0.001282      0.000577
    10   Atom        0.031699     -0.000755      0.004147
    11   Atom        0.008069     -0.012720     -0.008233
    12   Atom        0.008969     -0.002685      0.002782
    13   Atom        0.095428      0.042188      0.513062
    14   Atom        0.004012     -0.005952     -0.001713
    15   Atom       -0.045136      0.038967     -0.003240
    16   Atom        0.000809      0.000858     -0.000050
    17   Atom        0.002478     -0.000144     -0.000283
    18   Atom        0.001165      0.001157      0.000325
    19   Atom        0.000879     -0.000149     -0.000073
 --------------------------------------------------------


 ---------------------------------------------------------------------------------
              Anisotropic Spin Dipole Couplings in Principal Axis System
 ---------------------------------------------------------------------------------

       Atom             a.u.   MegaHertz   Gauss  10(-4) cm-1        Axes

              Baa    -0.0012    -0.156    -0.056    -0.052 -0.0171 -0.1734  0.9847
     1 C(13)  Bbb    -0.0011    -0.142    -0.051    -0.047  0.1017  0.9794  0.1742
              Bcc     0.0022     0.298     0.106     0.099  0.9947 -0.1031 -0.0009
 
              Baa    -0.0012    -0.615    -0.219    -0.205  0.0441 -0.1205  0.9917
     2 H(1)   Bbb    -0.0011    -0.566    -0.202    -0.189  0.3016  0.9480  0.1018
              Bcc     0.0022     1.181     0.421     0.394  0.9524 -0.2946 -0.0782
 
              Baa    -0.0010    -0.551    -0.197    -0.184 -0.2112  0.0861  0.9736
     3 H(1)   Bbb    -0.0009    -0.500    -0.179    -0.167  0.1459  0.9877 -0.0557
              Bcc     0.0020     1.051     0.375     0.351  0.9665 -0.1303  0.2212
 
              Baa    -0.0007    -0.378    -0.135    -0.126  0.0434 -0.2678  0.9625
     4 H(1)   Bbb    -0.0006    -0.342    -0.122    -0.114  0.0641  0.9622  0.2648
              Bcc     0.0013     0.720     0.257     0.240  0.9970 -0.0502 -0.0590
 
              Baa    -0.0025    -0.339    -0.121    -0.113  0.0363 -0.3636  0.9308
     5 C(13)  Bbb    -0.0017    -0.234    -0.083    -0.078 -0.0929  0.9262  0.3654
              Bcc     0.0043     0.573     0.204     0.191  0.9950  0.0997  0.0002
 
              Baa    -0.0021    -1.133    -0.404    -0.378  0.3754 -0.3545  0.8564
     6 H(1)   Bbb    -0.0018    -0.946    -0.338    -0.316  0.0400  0.9293  0.3672
              Bcc     0.0039     2.079     0.742     0.694  0.9260  0.1036 -0.3631
 
              Baa    -0.0114    -1.526    -0.545    -0.509 -0.1062  0.8123  0.5734
     7 C(13)  Bbb    -0.0103    -1.380    -0.493    -0.460 -0.1913 -0.5826  0.7899
              Bcc     0.0217     2.907     1.037     0.970  0.9758 -0.0258  0.2173
 
              Baa    -0.0056    -2.997    -1.069    -1.000 -0.4548  0.1680  0.8746
     8 H(1)   Bbb    -0.0050    -2.669    -0.952    -0.890  0.1049  0.9853 -0.1348
              Bcc     0.0106     5.666     2.022     1.890  0.8844 -0.0304  0.4657
 
              Baa    -0.0082    -4.349    -1.552    -1.451  0.0469 -0.0539  0.9974
     9 H(1)   Bbb    -0.0059    -3.164    -1.129    -1.055  0.3640  0.9308  0.0332
              Bcc     0.0141     7.513     2.681     2.506  0.9302 -0.3615 -0.0633
 
              Baa    -0.0252    -3.387    -1.209    -1.130  0.4109 -0.4038  0.8174
    10 C(13)  Bbb    -0.0182    -2.445    -0.872    -0.815  0.6296 -0.5227 -0.5747
              Bcc     0.0435     5.832     2.081     1.945  0.6594  0.7508  0.0395
 
              Baa    -0.0112    -5.955    -2.125    -1.986  0.8016 -0.3797  0.4617
    11 H(1)   Bbb    -0.0092    -4.908    -1.751    -1.637  0.0628  0.8216  0.5666
              Bcc     0.0204    10.863     3.876     3.624 -0.5945 -0.4252  0.6825
 
              Baa    -0.0114    -6.080    -2.169    -2.028  0.4048 -0.3121  0.8595
    12 H(1)   Bbb    -0.0028    -1.473    -0.526    -0.491  0.7191 -0.4719 -0.5101
              Bcc     0.0142     7.553     2.695     2.520  0.5648  0.8246  0.0334
 
              Baa    -0.4814   -64.599   -23.050   -21.548  0.8843  0.1209 -0.4509
    13 C(13)  Bbb    -0.4774   -64.058   -22.857   -21.367  0.4612 -0.3766  0.8034
              Bcc     0.9588   128.657    45.908    42.915  0.0727  0.9184  0.3888
 
              Baa    -0.0598   -31.931   -11.394   -10.651  0.9956 -0.0827  0.0440
    14 H(1)   Bbb    -0.0122    -6.509    -2.322    -2.171  0.0817  0.9963  0.0261
              Bcc     0.0720    38.440    13.716    12.822 -0.0460 -0.0224  0.9987
 
              Baa    -0.0599   -31.953   -11.402   -10.658 -0.5408 -0.3026  0.7848
    15 H(1)   Bbb    -0.0123    -6.539    -2.333    -2.181  0.3709  0.7517  0.5454
              Bcc     0.0721    38.492    13.735    12.839  0.7550 -0.5860  0.2943
 
              Baa    -0.0025    -0.331    -0.118    -0.110 -0.1555  0.1878  0.9698
    16 C(13)  Bbb    -0.0016    -0.218    -0.078    -0.073 -0.1112  0.9722 -0.2061
              Bcc     0.0041     0.549     0.196     0.183  0.9816  0.1399  0.1303
 
              Baa    -0.0026    -1.377    -0.491    -0.459 -0.0555  0.1773  0.9826
    17 H(1)   Bbb    -0.0016    -0.852    -0.304    -0.284 -0.4895  0.8529 -0.1816
              Bcc     0.0042     2.229     0.796     0.744  0.8702  0.4911 -0.0394
 
              Baa    -0.0014    -0.768    -0.274    -0.256 -0.4355  0.7374  0.5163
    18 H(1)   Bbb    -0.0013    -0.680    -0.242    -0.227 -0.0704 -0.5996  0.7972
              Bcc     0.0027     1.447     0.516     0.483  0.8974  0.3108  0.3130
 
              Baa    -0.0009    -0.492    -0.175    -0.164 -0.1547  0.5595  0.8142
    19 H(1)   Bbb    -0.0009    -0.473    -0.169    -0.158 -0.3168  0.7526 -0.5773
              Bcc     0.0018     0.965     0.344     0.322  0.9358  0.3472 -0.0608
 

 ---------------------------------------------------------------------------------

 No NMR shielding tensors so no spin-rotation constants.
 Leave Link  601 at Sat Nov  7 02:03:05 2015, MaxMem=   805306368 cpu:         1.1
 (Enter /home/hetanjin/apps/g09D01/g09/l701.exe)
 Compute integral first derivatives.
 ... and contract with generalized density number  0.
 Leave Link  701 at Sat Nov  7 02:03:05 2015, MaxMem=   805306368 cpu:         0.6
 (Enter /home/hetanjin/apps/g09D01/g09/l702.exe)
 L702 exits ... SP integral derivatives will be done elsewhere.
 Leave Link  702 at Sat Nov  7 02:03:05 2015, MaxMem=   805306368 cpu:         0.1
 (Enter /home/hetanjin/apps/g09D01/g09/l703.exe)
 Compute integral first derivatives, UseDBF=F ICtDFT=           0.
 Integral derivatives from FoFJK, PRISM(SPDF).
 Calling FoFJK, ICntrl=      2127 FMM=F ISym2X=0 I1Cent= 0 IOpClX= 1 NMat=1 NMatS=1 NMatT=0.
 FoFJK:  IHMeth= 1 ICntrl=    2127 DoSepK=F KAlg= 0 I1Cent=   0 FoldK=F
 IRaf=         0 NMat=   1 IRICut=       1 DoRegI=T DoRafI=F ISym2E= 0.
 FoFCou: FMM=F IPFlag=           0 FMFlag=      100000 FMFlg1=         800
         NFxFlg=           0 DoJE=F BraDBF=F KetDBF=F FulRan=T
         wScrn=  0.000000 ICntrl=    2127 IOpCl=  1 I1Cent=           0 NGrid=           0
         NMat0=    1 NMatS0=      1 NMatT0=    0 NMatD0=    1 NMtDS0=    0 NMtDT0=    0
 Symmetry not used in FoFCou.
 Leave Link  703 at Sat Nov  7 02:03:12 2015, MaxMem=   805306368 cpu:        29.9
 (Enter /home/hetanjin/apps/g09D01/g09/l716.exe)
 Dipole        = 9.63802178D-02 2.33248780D-01 3.25621767D-02
 ***** Axes restored to original set *****
 -------------------------------------------------------------------
 Center     Atomic                   Forces (Hartrees/Bohr)
 Number     Number              X              Y              Z
 -------------------------------------------------------------------
      1        6          -0.000075971   -0.000091728    0.000041672
      2        1          -0.000017727    0.000064334    0.000015510
      3        1          -0.000002711    0.000000050   -0.000010798
      4        1          -0.000050374    0.000025019   -0.000004853
      5        6           0.000052205    0.000231416    0.000017421
      6        1           0.000009703   -0.000014125    0.000000417
      7        6           0.002153309   -0.001358055    0.000549058
      8        1          -0.000069904    0.000079372   -0.000033956
      9        1          -0.000261125    0.001041539    0.000180462
     10        6          -0.007490699   -0.020551679   -0.005638139
     11        1           0.000441705    0.001241669   -0.000272547
     12        1          -0.002402805    0.002670838    0.001885030
     13        6           0.013360576    0.043108729    0.012640197
     14        1          -0.000984809   -0.015009889   -0.001381518
     15        1          -0.004546193   -0.011575298   -0.007974118
     16        6           0.000044268   -0.000217716    0.000097100
     17        1          -0.000080842    0.000247755   -0.000073819
     18        1           0.000015381    0.000011818   -0.000008911
     19        1          -0.000093988    0.000095951   -0.000028209
 -------------------------------------------------------------------
 Cartesian Forces:  Max     0.043108729 RMS     0.007469017
 Leave Link  716 at Sat Nov  7 02:03:12 2015, MaxMem=   805306368 cpu:         0.1
 (Enter /home/hetanjin/apps/g09D01/g09/l103.exe)

 GradGradGradGradGradGradGradGradGradGradGradGradGradGradGradGradGradGrad
 Berny optimization.
 FormGI is forming the generalized inverse of G from B-inverse, IUseBI=4.
 Internal  Forces:  Max     0.013618251 RMS     0.003307190
 Search for a local minimum.
 Step number   1 out of a maximum of  103
 All quantities printed in internal units (Hartrees-Bohrs-Radians)
 RMS Force = .33072D-02 SwitMx=.10000D-02 MixMth= 1
 Mixed Optimization -- RFO/linear search
 Second derivative matrix not updated -- first step.
 ITU=  0
     Eigenvalues ---    0.00230   0.00282   0.00287   0.00303   0.00334
     Eigenvalues ---    0.03185   0.03394   0.03603   0.03931   0.04648
     Eigenvalues ---    0.04696   0.04879   0.05301   0.05336   0.05398
     Eigenvalues ---    0.05465   0.05490   0.08767   0.09335   0.12525
     Eigenvalues ---    0.12839   0.16000   0.16000   0.16000   0.16000
     Eigenvalues ---    0.16000   0.16000   0.16000   0.16000   0.16671
     Eigenvalues ---    0.17068   0.21923   0.21944   0.28367   0.28825
     Eigenvalues ---    0.28860   0.28964   0.29178   0.33520   0.33530
     Eigenvalues ---    0.33657   0.33717   0.33869   0.33898   0.33942
     Eigenvalues ---    0.34005   0.34055   0.34061   0.34062   0.34118
     Eigenvalues ---    0.34216
 RFO step:  Lambda=-1.38784437D-02 EMin= 2.30000000D-03
 Linear search not attempted -- first point.
 Iteration  1 RMS(Cart)=  0.04236056 RMS(Int)=  0.00824937
 Iteration  2 RMS(Cart)=  0.00632961 RMS(Int)=  0.00571523
 Iteration  3 RMS(Cart)=  0.00008259 RMS(Int)=  0.00571489
 Iteration  4 RMS(Cart)=  0.00000184 RMS(Int)=  0.00571489
 Iteration  5 RMS(Cart)=  0.00000006 RMS(Int)=  0.00571489
 ITry= 1 IFail=0 DXMaxC= 2.24D-01 DCOld= 1.00D+10 DXMaxT= 3.00D-01 DXLimC= 3.00D+00 Rises=F
 Variable       Old X    -DE/DX   Delta X   Delta X   Delta X     New X
                                 (Linear)    (Quad)   (Total)
    R1        2.07237  -0.00006   0.00000  -0.00017  -0.00017   2.07220
    R2        2.07502  -0.00001   0.00000  -0.00003  -0.00003   2.07499
    R3        2.07228  -0.00004   0.00000  -0.00010  -0.00010   2.07217
    R4        2.90296  -0.00009   0.00000  -0.00030  -0.00030   2.90266
    R5        2.08149   0.00000   0.00000  -0.00001  -0.00001   2.08148
    R6        2.91344  -0.00009   0.00000  -0.00030  -0.00030   2.91314
    R7        2.90369   0.00009   0.00000   0.00031   0.00031   2.90399
    R8        2.08131  -0.00004   0.00000  -0.00011  -0.00011   2.08120
    R9        2.07912  -0.00100   0.00000  -0.00285  -0.00285   2.07627
   R10        2.90078   0.00143   0.00000   0.00470   0.00470   2.90548
   R11        2.07811   0.00036   0.00000   0.00103   0.00103   2.07913
   R12        2.07428   0.00293   0.00000   0.00831   0.00831   2.08258
   R13        2.89633  -0.01211   0.00000  -0.03961  -0.03961   2.85672
   R14        2.07322  -0.00054   0.00000  -0.00152  -0.00152   2.07170
   R15        2.07131  -0.00055   0.00000  -0.00154  -0.00154   2.06978
   R16        2.06967   0.00025   0.00000   0.00069   0.00069   2.07037
   R17        2.07552  -0.00001   0.00000  -0.00002  -0.00002   2.07550
   R18        2.07225  -0.00005   0.00000  -0.00014  -0.00014   2.07211
    A1        1.87835   0.00001   0.00000   0.00010   0.00010   1.87845
    A2        1.88223   0.00004   0.00000   0.00020   0.00020   1.88243
    A3        1.94449  -0.00004   0.00000  -0.00022  -0.00022   1.94426
    A4        1.87730   0.00002   0.00000   0.00015   0.00015   1.87746
    A5        1.93565   0.00002   0.00000   0.00013   0.00013   1.93578
    A6        1.94287  -0.00005   0.00000  -0.00033  -0.00033   1.94255
    A7        1.88002  -0.00001   0.00000   0.00025   0.00025   1.88027
    A8        1.92906  -0.00007   0.00000  -0.00040  -0.00040   1.92866
    A9        1.92774   0.00015   0.00000   0.00083   0.00083   1.92856
   A10        1.87706   0.00005   0.00000   0.00006   0.00006   1.87712
   A11        1.88194  -0.00003   0.00000  -0.00011  -0.00011   1.88183
   A12        1.96473  -0.00009   0.00000  -0.00060  -0.00060   1.96414
   A13        1.90132   0.00008   0.00000   0.00008   0.00008   1.90139
   A14        1.89309   0.00046   0.00000   0.00367   0.00367   1.89676
   A15        2.01454  -0.00043   0.00000  -0.00217  -0.00217   2.01237
   A16        1.84789  -0.00001   0.00000   0.00108   0.00107   1.84896
   A17        1.90709   0.00010   0.00000  -0.00063  -0.00064   1.90646
   A18        1.89268  -0.00017   0.00000  -0.00173  -0.00172   1.89096
   A19        1.90542  -0.00061   0.00000   0.00759   0.00735   1.91278
   A20        1.92072   0.00068   0.00000   0.00169   0.00174   1.92245
   A21        1.96892   0.00281   0.00000   0.01299   0.01286   1.98178
   A22        1.85242   0.00015   0.00000  -0.00307  -0.00303   1.84939
   A23        1.90917   0.00027   0.00000   0.01152   0.01130   1.92048
   A24        1.90353  -0.00346   0.00000  -0.03158  -0.03153   1.87200
   A25        1.94027   0.01362   0.00000   0.14549   0.11746   2.05773
   A26        1.94519   0.01343   0.00000   0.14409   0.11608   2.06127
   A27        1.87895  -0.00063   0.00000   0.12195   0.08683   1.96578
   A28        1.95757   0.00010   0.00000   0.00052   0.00052   1.95809
   A29        1.93340   0.00000   0.00000   0.00014   0.00014   1.93354
   A30        1.93610   0.00008   0.00000   0.00037   0.00037   1.93647
   A31        1.88022  -0.00004   0.00000  -0.00008  -0.00008   1.88014
   A32        1.87616  -0.00013   0.00000  -0.00103  -0.00103   1.87513
   A33        1.87714  -0.00002   0.00000   0.00002   0.00002   1.87715
    D1       -1.04583   0.00001   0.00000   0.00016   0.00016  -1.04567
    D2        1.00024   0.00003   0.00000   0.00016   0.00016   1.00040
    D3       -3.09704  -0.00003   0.00000  -0.00031  -0.00031  -3.09735
    D4       -3.13776   0.00001   0.00000   0.00010   0.00010  -3.13765
    D5       -1.09169   0.00002   0.00000   0.00010   0.00010  -1.09159
    D6        1.09422  -0.00003   0.00000  -0.00037  -0.00037   1.09385
    D7        1.05590   0.00001   0.00000   0.00004   0.00004   1.05594
    D8        3.10197   0.00002   0.00000   0.00003   0.00003   3.10200
    D9       -0.99531  -0.00004   0.00000  -0.00043  -0.00043  -0.99574
   D10        1.12731   0.00014   0.00000   0.00030   0.00030   1.12761
   D11       -0.87637  -0.00014   0.00000  -0.00297  -0.00297  -0.87933
   D12       -3.00345   0.00002   0.00000  -0.00204  -0.00204  -3.00549
   D13       -3.10798   0.00012   0.00000   0.00041   0.00041  -3.10756
   D14        1.17153  -0.00016   0.00000  -0.00286  -0.00286   1.16867
   D15       -0.95555   0.00000   0.00000  -0.00193  -0.00193  -0.95748
   D16       -1.03748   0.00006   0.00000  -0.00004  -0.00004  -1.03752
   D17       -3.04116  -0.00022   0.00000  -0.00331  -0.00331  -3.04447
   D18        1.11494  -0.00005   0.00000  -0.00238  -0.00238   1.11256
   D19        3.06412   0.00002   0.00000   0.00072   0.00072   3.06484
   D20       -1.11751   0.00004   0.00000   0.00107   0.00107  -1.11644
   D21        0.96587   0.00007   0.00000   0.00142   0.00142   0.96729
   D22        1.01409  -0.00003   0.00000   0.00003   0.00003   1.01412
   D23        3.11564  -0.00001   0.00000   0.00038   0.00038   3.11602
   D24       -1.08416   0.00001   0.00000   0.00073   0.00073  -1.08343
   D25       -1.05354  -0.00002   0.00000   0.00038   0.00038  -1.05316
   D26        1.04801   0.00000   0.00000   0.00073   0.00073   1.04874
   D27        3.13140   0.00003   0.00000   0.00108   0.00108   3.13248
   D28        0.94556  -0.00038   0.00000  -0.00497  -0.00501   0.94055
   D29       -1.08096  -0.00060   0.00000  -0.00660  -0.00661  -1.08757
   D30        3.07202   0.00141   0.00000   0.02382   0.02387   3.09589
   D31        3.09493  -0.00050   0.00000  -0.00695  -0.00699   3.08795
   D32        1.06841  -0.00072   0.00000  -0.00858  -0.00858   1.05983
   D33       -1.06179   0.00129   0.00000   0.02185   0.02189  -1.03990
   D34       -1.18174  -0.00055   0.00000  -0.00694  -0.00698  -1.18873
   D35        3.07492  -0.00077   0.00000  -0.00857  -0.00858   3.06634
   D36        0.94472   0.00124   0.00000   0.02186   0.02190   0.96662
   D37        1.04570  -0.00921   0.00000  -0.19510  -0.20140   0.84430
   D38       -3.14121   0.00830   0.00000   0.15575   0.16192  -2.97929
   D39       -3.11314  -0.00790   0.00000  -0.16846  -0.17462   2.99543
   D40       -1.01687   0.00961   0.00000   0.18240   0.18870  -0.82816
   D41       -1.09415  -0.00950   0.00000  -0.18334  -0.18958  -1.28373
   D42        1.00212   0.00801   0.00000   0.16751   0.17374   1.17587
         Item               Value     Threshold  Converged?
 Maximum Force            0.013618     0.000015     NO 
 RMS     Force            0.003307     0.000010     NO 
 Maximum Displacement     0.224263     0.000060     NO 
 RMS     Displacement     0.039608     0.000040     NO 
 Predicted change in Energy=-9.986163D-03
 Lowest energy point so far.  Saving SCF results.
 GradGradGradGradGradGradGradGradGradGradGradGradGradGradGradGradGradGrad

 Leave Link  103 at Sat Nov  7 02:03:13 2015, MaxMem=   805306368 cpu:         0.1
 (Enter /home/hetanjin/apps/g09D01/g09/l202.exe)
                          Input orientation:                          
 ---------------------------------------------------------------------
 Center     Atomic      Atomic             Coordinates (Angstroms)
 Number     Number       Type             X           Y           Z
 ---------------------------------------------------------------------
      1          6           0        2.155014   -1.044069    0.035585
      2          1           0        1.914010   -2.035153   -0.367048
      3          1           0        2.247293   -1.141351    1.125404
      4          1           0        3.137175   -0.752212   -0.355046
      5          6           0        1.078655   -0.012305   -0.333570
      6          1           0        1.027256    0.040268   -1.432586
      7          6           0       -0.303319   -0.468129    0.175158
      8          1           0       -0.288056   -0.494772    1.276053
      9          1           0       -0.473603   -1.503920   -0.149362
     10          6           0       -1.491326    0.387548   -0.294307
     11          1           0       -1.480298    0.463672   -1.391844
     12          1           0       -1.388929    1.418282    0.082028
     13          6           0       -2.831609   -0.130339    0.175484
     14          1           0       -2.938631   -0.389293    1.235368
     15          1           0       -3.735909    0.327098   -0.240000
     16          6           0        1.467591    1.380561    0.186222
     17          1           0        0.756884    2.152842   -0.128098
     18          1           0        1.507640    1.389775    1.283760
     19          1           0        2.457176    1.674715   -0.183285
 ---------------------------------------------------------------------
                    Distance matrix (angstroms):
                    1          2          3          4          5
     1  C    0.000000
     2  H    1.096560   0.000000
     3  H    1.098037   1.771263   0.000000
     4  H    1.096546   1.772630   1.770608   0.000000
     5  C    1.536021   2.188802   2.183819   2.187562   0.000000
     6  H    2.145496   2.495812   3.070509   2.498175   1.101472
     7  C    2.528752   2.768772   2.803892   3.492681   1.541567
     8  H    2.794473   3.149865   2.620830   3.802495   2.166001
     9  H    2.674939   2.455665   3.026510   3.693927   2.160638
    10  C    3.931177   4.179842   4.281399   4.767155   2.601197
    11  H    4.186446   4.337702   4.775727   4.886142   2.809757
    12  H    4.315654   4.799718   4.567545   5.038621   2.882408
    13  C    5.071576   5.142330   5.264953   6.024498   3.945026
    14  H    5.273844   5.368865   5.241325   6.290989   4.329235
    15  H    6.054669   6.125190   6.310259   6.958264   4.827419
    16  C    2.524693   3.488911   2.801792   2.762101   1.536727
    17  H    3.493107   4.351475   3.826786   3.762529   2.198548
    18  H    2.810806   3.823668   2.641735   3.151060   2.183029
    19  H    2.744265   3.753920   3.112386   2.526237   2.183790
                    6          7          8          9         10
     6  H    0.000000
     7  C    2.147961   0.000000
[...]
 0252763,0.00384871,0.00111418,-0.00097212,0.27934221,-0.06187011,-0.06
 735501,0.02528738,-0.02619150,-0.00685541,0.01254228,-0.00148675,-0.00
 143586,0.00031983,0.06549447,0.07072097,0.08695468,0.02496361,-0.08585
 848,-0.01245397,-0.00268462,0.00485441,0.03036291,0.00918554,-0.011289
 28,-0.09482022,-0.02895897,0.08826873,-0.12787278,0.04894435,-0.018739
 25,0.00557473,-0.00683376,0.00261906,-0.00273593,0.00168256,-0.0012647
 9,-0.02038987,0.02079940,-0.00872380,0.46843395,0.04942172,-0.12646443
 ,0.01872197,0.02069377,-0.02001601,0.00869353,0.00162468,-0.00252532,0
 .00101435,-0.00712062,0.00562940,-0.00271597,0.00029061,0.47565811,-0.
 01858377,0.01841478,-0.08822715,0.01023175,-0.00896620,0.00252373,-0.0
 2464252,0.02411815,-0.00910780,0.00909383,-0.01017341,0.00260276,0.010
 61264,-0.00588884,0.58661122,-0.00295432,0.00274066,-0.02475025,0.0008
 6258,-0.00037363,0.00070455,-0.00302332,0.00367497,-0.00139465,0.00069
 010,-0.00092029,0.00007767,-0.04970209,0.00000777,-0.01310103,0.058539
 34,0.00287052,-0.00277049,0.02445724,-0.00087903,0.00069133,-0.0000615
 3,0.00367498,-0.00293053,0.00139685,-0.00040335,0.00081263,-0.00071508
 ,0.00005020,-0.04941837,0.01066302,-0.00047137,0.05820862,-0.00098401,
 0.00099337,-0.00823188,0.00010277,0.00054589,0.00050958,-0.00113171,0.
 00119285,0.00122511,-0.00052120,-0.00013166,0.00051149,-0.01352188,0.0
 1038651,-0.29149915,0.01456468,-0.01166682,0.31903276,-0.03068403,-0.0
 0184313,0.00862416,0.00133699,-0.00172156,0.00006440,0.00162822,-0.001
 25639,0.00084832,-0.00225449,0.00217243,-0.00091768,-0.15026527,-0.022
 88554,0.03080768,-0.00148172,-0.00027558,0.00086491,0.45382565,0.02085
 451,0.00663068,-0.00861942,0.00140780,0.00007567,-0.00039742,-0.000321
 18,0.00039426,-0.00023088,0.00467939,-0.00373380,0.00097422,-0.0264850
 2,-0.08834861,0.01020115,-0.00137572,-0.00049193,0.00083498,0.01548512
 ,0.55247901,-0.00679387,-0.00346413,0.00368642,0.00046195,-0.00013262,
 -0.00014693,-0.00153227,0.00016556,0.00033587,-0.00279592,0.00143056,-
 0.00001622,0.03159766,0.01115296,-0.09451357,0.03170389,0.01002083,-0.
 01392989,0.00808353,0.03151211,0.56556348,0.00162744,-0.00055211,0.000
 99233,-0.00009144,0.00002165,-0.00002493,-0.00029230,0.00023559,-0.000
 74986,0.00020971,-0.00012923,-0.00040754,-0.00123057,-0.00008713,0.031
 21041,-0.00534830,-0.00176197,0.00234008,-0.04849335,-0.00071878,-0.00
 507440,0.05640365,0.00030584,-0.00005334,-0.00066343,-0.00005873,0.000
 07336,-0.00012018,0.00017041,0.00028932,-0.00005230,0.00003738,-0.0001
 1319,0.00007445,-0.00056182,-0.00081628,0.01075919,-0.00178961,-0.0000
 4190,0.00121685,-0.00064217,-0.05062996,-0.00272064,-0.00093577,0.0514
 8726,-0.00079146,0.00018310,0.00014737,0.00000490,0.00007091,0.0000197
 9,0.00070273,-0.00047699,0.00059132,0.00018643,-0.00001262,0.00045985,
 0.00044193,0.00014408,-0.01411979,0.00257429,0.00078873,0.00037677,-0.
 00569814,-0.00230618,-0.29574645,0.00540629,0.00018932,0.32471980,0.00
 082984,-0.00187455,-0.00070094,-0.00048684,0.00090229,0.00033438,-0.00
 008728,0.00009767,-0.00007462,0.00046223,0.00021676,0.00013125,-0.0072
 1864,-0.02798747,-0.01020189,0.00099977,0.00054136,0.00017760,-0.05421
 976,-0.04072866,-0.01230870,-0.00045691,-0.00036427,-0.00022891,0.0659
 8762,0.00155772,0.00055827,-0.00028937,-0.00040383,0.00100148,0.000019
 33,-0.00008134,0.00002924,0.00004142,0.00015755,0.00036740,0.00030511,
 -0.00223694,-0.01036147,-0.00366543,0.00011933,0.00016332,0.00045082,-
 0.04089803,-0.27243469,-0.07036371,0.00006960,0.00049491,-0.00054176,0
 .04246316,0.29814721,-0.00047254,0.00004675,0.00026541,-0.00013710,-0.
 00005922,0.00023836,-0.00000622,-0.00019964,-0.00005895,-0.00014236,0.
 00024938,-0.00015287,0.00330724,0.01236636,0.00329159,-0.00075236,0.00
 008852,0.00050651,-0.01256006,-0.07021632,-0.07418445,-0.00566735,-0.0
 3203588,-0.00973153,0.01374252,0.07606903,0.07508008,-0.00378452,-0.00
 304573,0.00175772,0.00021131,0.00018419,0.00020179,-0.00011578,-0.0000
 1777,-0.00016112,-0.00074620,0.00124614,-0.00048912,-0.02518328,0.0166
 9279,-0.00861748,0.00193013,0.00045324,-0.00116222,-0.12831269,0.04355
 478,-0.02165048,-0.00246193,0.00191616,-0.00092943,0.00160881,-0.00070
 049,0.00084573,0.46280067,-0.00242563,-0.00112339,0.00097848,-0.000105
 45,0.00033090,0.00019585,0.00006089,-0.00009668,-0.00003657,-0.0009762
 5,0.00096053,0.00010623,-0.00385482,0.00820359,-0.00518824,-0.00031685
 ,0.00002614,0.00008571,0.04555815,-0.11439935,0.02066008,0.00007524,-0
 .00087965,0.00008634,0.02581238,-0.01867671,0.01135861,0.01369900,0.48
 510233,0.00277283,0.00145271,-0.00179467,-0.00019255,0.00022892,0.0000
 0284,0.00009708,-0.00001324,0.00046832,0.00118364,-0.00055421,0.000662
 83,0.00720511,-0.00923261,0.00439050,0.00127628,-0.00057410,0.00021754
 ,-0.02287679,0.02164672,-0.09392682,-0.02674793,0.02141148,-0.01104899
 ,0.00785231,-0.00582785,0.00323940,-0.00676044,-0.00191206,0.55388699,
 -0.00001673,0.00014044,0.00009065,0.00000693,-0.00000733,-0.00001521,0
 .00009329,-0.00009739,0.00022822,-0.00000915,-0.00001798,0.00010152,0.
 00159059,-0.00000687,-0.00187714,-0.00028459,-0.00003313,0.00088995,-0
 .00178482,-0.00002966,-0.02640031,-0.00401088,0.00341678,-0.00154566,0
 .00089330,-0.00041305,0.00087353,-0.04918658,0.00291153,-0.00049162,0.
 05580437,-0.00010187,-0.00007075,-0.00001415,0.00001048,-0.00005904,0.
 00001919,-0.00009132,0.00002404,-0.00011180,-0.00000709,0.00001504,-0.
 00007737,-0.00099710,0.00049569,0.00004735,0.00017428,0.00023786,-0.00
 045962,0.00035649,-0.00059412,0.02012493,0.00324543,-0.00168517,0.0015
 9494,-0.00090080,0.00041299,0.00007344,0.00326049,-0.04680769,0.006404
 70,-0.00010796,0.05105512,-0.00011296,-0.00008084,0.00052317,0.0000179
 5,0.00000850,-0.00004230,0.00024418,-0.00012625,0.00006192,-0.00010244
 ,0.00003743,0.00001506,0.00098814,-0.00005669,-0.00001963,-0.00084283,
 -0.00013524,0.00080407,-0.00112659,0.00031705,-0.01048639,-0.00144270,
 0.00173660,0.00075322,0.00015540,0.00042473,0.00065912,-0.00278856,0.0
 0650618,-0.29485258,0.00152663,-0.00966602,0.32350230,0.00009197,0.000
 04764,-0.00013808,0.00011047,-0.00023484,-0.00004994,0.00004007,0.0000
 0368,0.00001169,-0.00005253,-0.00015694,0.00000701,0.00125758,-0.00005
 458,0.00065838,-0.00014738,-0.00003173,0.00007035,0.00312008,0.0261478
 7,0.00764863,0.00104529,-0.00099663,0.00013714,-0.00419970,0.00327172,
 -0.00180732,-0.04549453,-0.03619011,-0.01417593,0.00077947,-0.00035568
 ,-0.00056808,0.05887817,0.00019637,0.00008790,-0.00001582,-0.00006137,
 0.00026425,0.00005532,-0.00002941,-0.00002899,0.00001107,0.00019520,0.
 00004046,0.00000265,-0.00103416,-0.00054530,-0.00001223,0.00008790,0.0
 0005776,0.00003471,-0.00089315,-0.02021679,-0.00669576,-0.00047893,0.0
 0084621,0.00042620,0.00321058,-0.00144951,0.00194964,-0.02195453,-0.24
 914454,-0.07245084,0.00028195,-0.00024711,-0.00135681,0.03520405,0.279
 65821,0.00015329,0.00010811,-0.00000820,0.00002136,0.00000512,-0.00003
 111,-0.00001074,0.00001542,-0.00000191,0.00001454,-0.00008798,-0.00001
 036,0.00013742,-0.00068599,0.00003157,-0.00000736,-0.00006669,0.000028
 40,0.00043058,0.01132556,0.00323710,0.00079985,0.00013279,0.00068799,-
 0.00175773,0.00174026,0.00037093,-0.00857346,-0.06621645,-0.06922018,-
 0.00499052,-0.03241850,-0.01252770,0.01144465,0.07578149,0.07325356,-0
 .00065707,-0.00048336,0.00049966,-0.00000512,0.00003688,0.00002142,0.0
 0000387,-0.00002104,-0.00003922,-0.00024971,0.00025131,-0.00007446,-0.
 00185138,0.00258861,-0.00167845,-0.00006836,0.00004083,0.00016483,-0.0
 3308080,-0.00676769,0.00576811,0.00163934,-0.00097946,0.00102311,0.001
 71796,-0.00157580,0.00055703,-0.19887379,-0.04375858,0.04033736,-0.000
 83599,-0.00253085,0.00216281,-0.01174594,-0.01185900,0.00248853,0.5653
 0802,0.00097668,0.00070565,-0.00048958,-0.00009498,0.00006581,-0.00002
 494,-0.00000886,-0.00000161,0.00008328,0.00041653,-0.00028639,0.000079
 05,0.00201258,-0.00275244,0.00205821,-0.00021974,-0.00007280,-0.000015
 97,0.01354170,0.00744418,-0.00737315,0.00050383,0.00024177,0.00028594,
 0.00051030,0.00096047,-0.00027330,-0.04749070,-0.06999937,0.03632967,-
 0.00526545,-0.00273513,0.00315029,-0.02666769,-0.00919167,0.01109863,0
 .01658336,0.19314687,-0.00086858,-0.00049184,0.00078197,0.00002976,0.0
 0005633,0.00002379,0.00007310,-0.00008725,-0.00004355,-0.00034912,0.00
 030968,-0.00008496,-0.00166695,0.00248873,-0.00175796,-0.00002061,-0.0
 0000430,0.00049816,-0.00921923,-0.00671457,0.00560635,-0.00111848,-0.0
 0038698,0.00040045,-0.00032272,0.00053167,0.00033600,0.04011335,0.0344
 5466,-0.09464787,0.03030662,0.01408759,-0.00959932,-0.00397948,0.00213
 033,0.00441048,0.05096068,-0.23771942,0.48014190,-0.00000884,0.0000139
 6,-0.00006053,-0.00000713,0.00001422,0.00000856,-0.00004637,0.00002144
 ,-0.00002392,0.00000829,-0.00000445,-0.00000626,-0.00005272,0.00000569
 ,-0.00005617,0.00012080,0.00004471,-0.00026212,0.00248109,-0.00059255,
 0.00143743,-0.00026781,-0.00002216,-0.00079291,-0.00008688,0.00035007,
 0.00002643,0.00209417,-0.00946894,0.02288881,-0.00424732,-0.00227474,0
 .00185408,-0.00054222,-0.00068152,0.00022526,-0.05835238,-0.01211913,0
 .01554755,0.05366270,0.00001130,0.00000536,-0.00002080,0.00000966,-0.0
 0001444,-0.00000661,-0.00001260,0.00001257,-0.00000468,-0.00001666,-0.
 00000714,0.00000844,-0.00009679,-0.00017580,-0.00010341,0.00011492,-0.
 00000067,-0.00007067,0.00044963,0.00058829,-0.00070408,-0.00048336,0.0
 0030560,-0.00040391,-0.00005825,-0.00009924,-0.00014067,0.00185968,-0.
 00071106,0.01042046,-0.00123129,-0.00004214,-0.00113859,0.00004663,-0.
 00027783,-0.00094076,-0.01286793,-0.07792611,0.13284675,0.01379990,0.0
 7833373,0.00009573,0.00006965,-0.00003060,0.00000147,-0.00001696,-0.00
 001498,0.00001399,0.00000148,0.00000972,0.00002990,-0.00002986,0.00000
 473,0.00003593,-0.00029972,0.00030795,-0.00019046,-0.00000022,0.000045
 99,-0.00138594,0.00054566,0.00046967,0.00068151,-0.00023886,0.00034585
 ,0.00033075,-0.00038511,-0.00016006,-0.00123252,0.00139219,-0.00397255
 ,0.00164996,0.00131621,-0.00003300,0.00017967,0.00002537,-0.00075149,0
 .01562272,0.13841935,-0.27486703,-0.01918991,-0.14538369,0.28602952,-0
 .00045233,-0.00038071,0.00031076,0.00003380,0.00002548,0.00000640,0.00
 001396,0.00000275,-0.00003814,-0.00021565,0.00015459,-0.00004358,-0.00
 030492,0.00137104,-0.00102895,0.00001168,-0.00001760,0.00009525,-0.003
 11091,-0.00392257,0.00273030,0.00016736,-0.00009476,-0.00020491,0.0001
 3157,0.00010994,0.00009878,-0.01379577,0.00986493,-0.01289396,0.001163
 02,0.00027032,0.00033431,-0.00040533,-0.00050649,-0.00013862,-0.263070
 73,0.05738829,-0.11956920,0.00524157,-0.00151236,0.00341274,0.27462169
 ,-0.00020672,-0.00016317,0.00014180,0.00001598,-0.00001138,0.00000612,
 0.00000184,-0.00000362,-0.00001787,-0.00006948,0.00006628,-0.00002749,
 -0.00022532,0.00074008,-0.00037746,0.00006012,0.00000518,0.00000028,-0
 .00021572,-0.00150876,0.00150400,-0.00014316,-0.00011879,-0.00017252,0
 .00001257,0.00014491,0.00011115,-0.01002581,0.00681851,-0.00724099,0.0
 0061103,0.00007941,0.00045069,0.00097075,-0.00070022,0.00013119,0.0612
 3477,-0.03985156,0.05826338,0.01082585,-0.00001932,0.00464972,-0.06286
 034,0.03449545,0.00014817,0.00005960,-0.00008493,-0.00000056,-0.000012
 98,-0.00000888,0.00000628,0.00001119,0.00000634,0.00006794,-0.00004978
 ,0.00000260,0.00064174,-0.00026574,0.00047468,-0.00011431,-0.00002637,
 0.00001998,0.00179756,0.00101277,-0.00024577,0.00028969,-0.00005808,0.
 00037741,0.00000453,-0.00003419,-0.00012158,0.00970678,-0.00260388,0.0
 0626283,-0.00060052,-0.00086290,0.00117117,0.00061872,0.00017875,0.000
 24363,-0.11785119,0.05452002,-0.11125482,-0.02156613,0.00562379,-0.007
 39479,0.12687891,-0.05742294,0.11056594,0.00644150,0.02179258,0.008310
 50,-0.00350839,0.00484907,-0.00101944,0.00049843,-0.00041981,0.0002932
 2,0.00050305,0.00103954,0.00033438,-0.08722204,-0.02582298,-0.01004260
 ,-0.00074613,-0.00250179,-0.00087653,-0.01066345,-0.03071938,-0.010076
 30,0.00151477,0.00070730,-0.00086537,-0.00560982,-0.00181530,0.0017463
 6,0.00052336,-0.00034361,0.00015330,-0.00011357,-0.00005459,-0.0003370
 0,-0.00120159,-0.00051427,0.00007518,0.00005038,0.00005548,0.00010646,
 0.00007903,0.00000204,-0.00009163,-0.00001412,-0.00000863,-0.00005732,
 0.57134081,-0.00197203,-0.03068052,-0.00812276,0.00234118,-0.00226733,
 0.00095202,-0.00127723,0.00151547,-0.00069696,-0.00151113,0.00137676,-
 0.00014288,-0.02278985,-0.16196660,-0.03246186,-0.00023968,-0.00127806
 ,-0.00057699,-0.00941406,-0.01131292,-0.00134175,0.00120106,0.00050730
 ,-0.00070282,-0.00020158,0.00105565,-0.00002889,-0.00038484,0.00143275
 ,0.00015257,-0.00007202,0.00002904,-0.00007215,0.00008055,-0.00067842,
 -0.00051643,0.00045068,-0.00056941,0.00017438,-0.00010463,0.00002297,0
 .00004087,0.00015517,0.00006947,-0.00002164,-0.03124053,0.49539935,0.0
 0286202,0.00635526,0.00356796,-0.00126332,0.00254010,0.00004557,0.0000
 5918,0.00146279,0.00057678,0.00021962,-0.00045870,-0.00008715,-0.01035
 645,-0.03378437,-0.09477982,-0.00948457,-0.03276234,-0.01192906,0.0018
 3514,0.01057453,0.00437087,0.00063372,0.00137549,0.00064405,0.00320077
 ,0.00183023,-0.00050638,0.00020126,-0.00003951,-0.00037123,0.00011403,
 0.00001554,0.00016297,-0.00020118,0.00029237,0.00046313,0.00002168,-0.
 00000432,0.00020886,0.00002506,0.00003382,-0.00001305,0.00010435,0.000
 01485,-0.00003726,-0.01162971,-0.03501045,0.55746423,-0.00023967,-0.00
 127099,-0.00016667,0.00052232,-0.00038007,-0.00013590,-0.00012286,-0.0
 0006329,-0.00001485,0.00040378,-0.00020989,-0.00020249,0.00727531,-0.0
 0707598,0.00408417,0.00035992,0.00066694,0.00040053,0.00029866,0.00044
 704,0.00051299,-0.00006284,-0.00006896,0.00002828,0.00017694,0.0001719
 3,-0.00013403,-0.00121860,-0.00062031,-0.00004873,0.00002784,0.0000871
 7,-0.00001737,-0.00169785,-0.00090578,-0.00005354,0.00010471,-0.000067
 47,0.00001061,-0.00000397,0.00002711,0.00000404,0.00005914,0.00002123,
 -0.00000406,-0.15918655,0.12069805,-0.04911644,0.17286033,-0.00373451,
 -0.00503459,-0.00330062,0.00146651,-0.00154512,0.00045379,-0.00023543,
 0.00026685,0.00009522,-0.00003658,0.00032157,-0.00016058,0.02051898,-0
 .01918385,0.01007818,0.00003800,0.00128516,-0.00034949,0.00120370,0.00
 043784,0.00031386,-0.00013931,-0.00004309,0.00000830,-0.00001748,0.000
 15280,-0.00012957,0.00016998,-0.00055796,-0.00029044,-0.00011997,-0.00
 003994,-0.00003551,-0.00088084,0.00099058,0.00039123,-0.00020496,0.000
 48342,0.00005816,0.00013766,0.00001644,-0.00007265,0.00002358,-0.00002
 911,-0.00004107,0.11987979,-0.18044983,0.05335764,-0.13205896,0.196121
 49,-0.00092396,-0.00200430,-0.00050859,0.00029585,-0.00072226,0.000613
 71,0.00013527,-0.00038810,0.00039468,-0.00033112,0.00013527,-0.0000931
 5,0.00938007,-0.00844011,0.00280759,0.00059012,0.00052098,0.00053179,-
 0.00017217,0.00071830,0.00007980,-0.00006892,0.00004862,0.00001910,0.0
 0016604,-0.00000970,-0.00006401,-0.00024604,0.00044465,0.00043613,-0.0
 0004573,-0.00013435,-0.00021699,0.00011989,-0.00041036,0.00015489,-0.0
 0001535,-0.00015394,-0.00012207,-0.00000038,0.00002990,0.00000406,-0.0
 0001184,0.00000558,0.00001530,-0.04886434,0.05371643,-0.07170946,0.054
 62924,-0.05743414,0.07253651,0.00003664,0.00032814,0.00084953,-0.00015
 374,0.00001479,-0.00007405,0.00033919,0.00008397,0.00006819,0.00003730
 ,-0.00004186,0.00013911,-0.00159540,-0.00012043,-0.01006761,0.00013228
 ,-0.00204663,-0.00072404,0.00068981,0.00052715,-0.00159905,-0.00001285
 ,-0.00018076,0.00048716,0.00008100,0.00011327,0.00025873,-0.00023363,-
 0.00000130,0.00010110,0.00015041,0.00005753,0.00016377,0.00000357,0.00
 008589,-0.00013667,0.00001161,0.00000914,0.00001179,-0.00003787,-0.000
 03290,0.00001803,0.00000067,-0.00000766,0.00001140,-0.05053325,0.00071
 101,-0.01163801,-0.00071293,-0.00087929,-0.02258644,0.04894156,-0.0004
 8386,0.00189598,-0.00108842,-0.00013163,0.00027673,0.00040452,0.000241
 62,-0.00024174,0.00080916,0.00007588,-0.00011175,0.00005356,-0.0014189
 3,-0.00042406,-0.03207931,-0.00185504,-0.00567136,-0.00233600,0.001118
 79,0.00154637,-0.00088593,-0.00026306,0.00003729,0.00087879,0.00036991
 ,0.00016452,0.00028743,-0.00002538,0.00001992,0.00005563,0.00011231,-0
 .00012138,0.00004647,-0.00005410,0.00001560,0.00006432,-0.00004176,0.0
 0004791,0.00000978,-0.00000746,0.00000370,-0.00000493,-0.00000659,-0.0
 0000474,0.00000375,0.00059935,-0.04924631,0.00169632,-0.00066634,0.000
 33699,0.02388261,0.00121110,0.05236690,-0.00012180,0.00088808,0.000446
 44,0.00002856,-0.00011345,0.00043153,0.00049515,-0.00075673,0.00052090
 ,-0.00003043,-0.00002064,-0.00003377,-0.00089469,-0.00049627,-0.012894
 02,-0.00065669,-0.00266581,0.00075068,0.00075216,0.00076276,0.00045914
 ,-0.00080092,-0.00041472,0.00065496,-0.00001435,-0.00004269,0.00041421
 ,-0.00022094,-0.00015553,0.00010287,0.00014979,0.00003752,0.00012646,-
 0.00004090,0.00003235,-0.00019007,-0.00000393,0.00004020,-0.00001853,-
 0.00003632,-0.00003568,0.00002044,-0.00003454,-0.00001598,0.00000522,-
 0.01153539,0.00171271,-0.30511475,0.00004416,0.00029656,-0.00831207,0.
 01368214,0.00054894,0.33341417,0.00055677,0.00121212,0.00011235,0.0002
 4778,0.00005569,-0.00025727,0.00001937,-0.00002238,-0.00003617,0.00077
 826,-0.00034564,0.00003059,-0.00850728,-0.00153508,0.00319872,0.000109
 62,0.00007941,-0.00048726,0.00097079,-0.00144246,-0.00171320,0.0001216
 1,0.00014124,0.00006452,-0.00052319,-0.00025950,0.00022298,0.00023884,
 0.00007974,0.00032013,-0.00001960,-0.00004019,-0.00010876,0.00016041,-
 0.00034331,-0.00012202,-0.00004463,-0.00006386,-0.00004555,-0.00003413
 ,-0.00000873,0.00001401,-0.00007469,0.00000871,0.00002235,-0.26215241,
 -0.05643012,0.08441283,-0.01884367,-0.00513087,0.00794979,0.00285563,0
 .00122518,-0.00076103,0.28414051,-0.00157543,0.00128329,0.00077547,0.0
 0019934,0.00047512,-0.00020532,0.00010188,-0.00010701,0.00002094,0.000
 93681,-0.00041252,-0.00026990,-0.02776417,-0.00772834,0.01257633,0.000
 54399,0.00118810,-0.00013475,0.00015935,-0.00592537,-0.00320311,0.0003
 4040,0.00009836,-0.00003985,-0.00200392,-0.00063154,0.00048318,0.00060
 880,-0.00049827,-0.00000653,-0.00007197,0.00005327,-0.00000986,-0.0001
 4974,0.00051941,0.00013868,-0.00009600,0.00029038,-0.00000709,0.000062
 08,-0.00001492,-0.00002848,-0.00006469,-0.00000864,-0.00001028,-0.0554
 8425,-0.06295935,0.02251074,0.02126860,0.00647035,-0.00980509,0.000168
 86,-0.00089059,0.00039840,0.06282006,0.06879828,0.00004163,0.00042250,
 0.00009309,-0.00024950,0.00011575,-0.00011853,0.00017090,0.00002053,-0
 .00005005,0.00001290,0.00016603,0.00024379,-0.01179913,-0.00310220,0.0
 0387730,-0.00017637,0.00074234,0.00053115,-0.00015186,-0.00194101,-0.0
 0061223,-0.00025086,-0.00025373,0.00044880,-0.00048570,-0.00025279,0.0
 0057821,0.00000518,-0.00011675,0.00016465,0.00003580,0.00002330,-0.000
 00155,0.00006478,0.00002156,-0.00014068,0.00003466,-0.00000999,-0.0000
 1186,-0.00001852,-0.00000959,-0.00000036,-0.00000808,-0.00000351,0.000
 00291,0.08437622,0.02294660,-0.08295625,-0.00981996,-0.00323887,0.0034
 3278,0.03103491,0.00765332,-0.01078381,-0.09281701,-0.02318347,0.08530
 262\\0.00000019,0.00000060,0.00000009,0.00000067,0.00000068,-0.0000006
 1,-0.00000011,-0.00000015,0.00000007,0.00000041,0.00000094,0.00000062,
 0.00000034,0.00000049,0.00000032,0.00000053,0.00000111,0.00000032,-0.0
 0000003,-0.00000031,-0.00000045,-0.00000036,-0.00000085,-0.00000050,0.
 00000050,-0.00000004,-0.00000118,-0.00000001,-0.00000012,-0.00000034,0
 .00000040,0.00000045,-0.00000043,-0.00000034,-0.00000043,0.00000028,-0
 .00000006,-0.00000088,-0.00000108,-0.00000025,-0.00000142,-0.00000164,
 0.00000008,-0.00000073,-0.00000146,-0.00000040,0.00000006,0.00000128,-
 0.00000047,0.00000026,0.00000148,-0.00000080,-0.00000038,0.00000135,-0
 .00000029,0.00000071,0.00000186\\\@


 A SCIENTIST IS SOMEONE WHOSE CURIOSITY SURVIVES
 EDUCATION'S ASSAULTS ON IT.
                          - SIR HERMANN BONDI
 Job cpu time:       0 days  0 hours 27 minutes 27.8 seconds.
 File lengths (MBytes):  RWF=     64 Int=      0 D2E=      0 Chk=      3 Scr=      1
 Normal termination of Gaussian 09 at Sat Nov  7 02:18:12 2015.
