 Entering Gaussian System, Link 0=/share/apps/g09/g09
 Input=C6H14_3_1_opt_PM6.gjf
 Output=C6H14_3_1_opt_PM6.log
 Initial command:
 /share/apps/g09/l1.exe /state/partition1/Gau-18780.inp -scrdir=/state/partition1/
 Entering Link 1 = /share/apps/g09/l1.exe PID=     18787.
  
 Copyright (c) 1988,1990,1992,1993,1995,1998,2003,2009, Gaussian, Inc.
                  All Rights Reserved.
  
 This is part of the Gaussian(R) 09 program.  It is based on
 the Gaussian(R) 03 system (copyright 2003, Gaussian, Inc.),
 the Gaussian(R) 98 system (copyright 1998, Gaussian, Inc.),
 the Gaussian(R) 94 system (copyright 1995, Gaussian, Inc.),
 the Gaussian 92(TM) system (copyright 1992, Gaussian, Inc.),
 the Gaussian 90(TM) system (copyright 1990, Gaussian, Inc.),
 the Gaussian 88(TM) system (copyright 1988, Gaussian, Inc.),
 the Gaussian 86(TM) system (copyright 1986, Carnegie Mellon
 University), and the Gaussian 82(TM) system (copyright 1983,
 Carnegie Mellon University). Gaussian is a federally registered
 trademark of Gaussian, Inc.
  
 This software contains proprietary and confidential information,
 including trade secrets, belonging to Gaussian, Inc.
  
 This software is provided under written license and may be
 used, copied, transmitted, or stored only in accord with that
 written license.
  
 The following legend is applicable only to US Government
 contracts under FAR:
  
                    RESTRICTED RIGHTS LEGEND
  
 Use, reproduction and disclosure by the US Government is
 subject to restrictions as set forth in subparagraphs (a)
 and (c) of the Commercial Computer Software - Restricted
 Rights clause in FAR 52.227-19.
  
 Gaussian, Inc.
 340 Quinnipiac St., Bldg. 40, Wallingford CT 06492
  
  
 ---------------------------------------------------------------
 Warning -- This program may not be used in any manner that
 competes with the business of Gaussian, Inc. or will provide
 assistance to any competitor of Gaussian, Inc.  The licensee
 of this program is prohibited from giving any competitor of
 Gaussian, Inc. access to this program.  By using this program,
 the user acknowledges that Gaussian, Inc. is engaged in the
 business of creating and licensing software in the field of
 computational chemistry and represents and warrants to the
 licensee that it is not a competitor of Gaussian, Inc. and that
 it will not use this program in any manner prohibited above.
 ---------------------------------------------------------------
  

 Cite this work as:
 Gaussian 09, Revision A.01,
 M. J. Frisch, G. W. Trucks, H. B. Schlegel, G. E. Scuseria, 
 M. A. Robb, J. R. Cheeseman, G. Scalmani, V. Barone, B. Mennucci, 
 G. A. Petersson, H. Nakatsuji, M. Caricato, X. Li, H. P. Hratchian, 
 A. F. Izmaylov, J. Bloino, G. Zheng, J. L. Sonnenberg, M. Hada, 
 M. Ehara, K. Toyota, R. Fukuda, J. Hasegawa, M. Ishida, T. Nakajima, 
 Y. Honda, O. Kitao, H. Nakai, T. Vreven, J. A. Montgomery, Jr., 
 J. E. Peralta, F. Ogliaro, M. Bearpark, J. J. Heyd, E. Brothers, 
 K. N. Kudin, V. N. Staroverov, R. Kobayashi, J. Normand, 
 K. Raghavachari, A. Rendell, J. C. Burant, S. S. Iyengar, J. Tomasi, 
 M. Cossi, N. Rega, J. M. Millam, M. Klene, J. E. Knox, J. B. Cross, 
 V. Bakken, C. Adamo, J. Jaramillo, R. Gomperts, R. E. Stratmann, 
 O. Yazyev, A. J. Austin, R. Cammi, C. Pomelli, J. W. Ochterski, 
 R. L. Martin, K. Morokuma, V. G. Zakrzewski, G. A. Voth, 
 P. Salvador, J. J. Dannenberg, S. Dapprich, A. D. Daniels, 
 O. Farkas, J. B. Foresman, J. V. Ortiz, J. Cioslowski, 
 and D. J. Fox, Gaussian, Inc., Wallingford CT, 2009.
 
 ******************************************
 Gaussian 09:  EM64L-G09RevA.01  8-May-2009
                13-Sep-2015 
 ******************************************
 %mem=5GB
 %nprocshared=2
 Will use up to    2 processors via shared memory.
 %chk=C6H14_3_1_opt_PM6.chk
 ----------
 #p PM6 opt
 ----------
 1/14=-1,18=20,19=15,26=1,38=1/1,3;
 2/9=110,12=2,17=6,18=5,40=1/2;
 3/5=2,16=1,25=1,41=3900000,71=1/1,2,3;
 4/35=1/1;
 5/5=2,35=1,38=5/2;
 6/7=2,8=2,9=2,10=2,28=1/1;
 7//1,2,3,16;
 1/14=-1,18=20,19=15/3(2);
 2/9=110/2;
 99//99;
 2/9=110/2;
 3/5=2,16=1,25=1,41=3900000,71=1,135=20/1,2,3;
 4/5=5,16=3,35=1/1;
 5/5=2,35=1,38=5/2;
 7//1,2,3,16;
 1/14=-1,18=20,19=15/3(-5);
 2/9=110/2;
 6/7=2,8=2,9=2,10=2,19=2,28=1/1;
 99/9=1/99;
 Leave Link    1 at Sun Sep 13 11:18:47 2015, MaxMem=  671088640 cpu:       0.1
 (Enter /share/apps/g09/l101.exe)
 ----------------------------------
 using PM6 to do opt and freq calc.
 ----------------------------------
 Symbolic Z-matrix:
 Charge =  0 Multiplicity = 1
 C                    -3.54299   0.15924   0. 
 H                    -3.18634  -0.84957   0. 
 H                    -3.18632   0.66363  -0.87365 
 H                    -4.61299   0.15925   0. 
 C                    -3.02965   0.88519   1.2574 
 H                    -3.38471   1.89456   1.25643 
 H                    -3.38792   0.38192   2.13106 
 C                    -1.48965   0.88274   1.25881 
 H                    -1.1346   -0.12664   1.26017 
 C                    -0.97631   1.60916   2.51595 
 H                    -1.33465   1.10627   3.38978 
 H                    -1.3313    2.61856   2.51455 
 C                     0.56369   1.6066    2.51741 
 H                     0.92202   2.10949   1.64357 
 H                     0.92036   2.11133   3.39087 
 H                     0.91867   0.5972    2.51882 
 C                    -0.97402   1.60659   0.00114 
 H                    -1.33059   1.1018   -0.87232 
 H                    -1.32917   2.61593  -0.00027 
 H                     0.09598   1.60499   0.00218 
 
 NAtoms=     20 NQM=     20 NQMF=      0 NMic=      0 NMicF=      0 NTot=     20.
                    Isotopes and Nuclear Properties:
 (Nuclear quadrupole moments (NQMom) in fm**2, nuclear magnetic moments (NMagM)
  in nuclear magnetons)

  Atom         1           2           3           4           5           6           7           8           9          10
 IAtWgt=          12           1           1           1          12           1           1          12           1          12
 AtmWgt=  12.0000000   1.0078250   1.0078250   1.0078250  12.0000000   1.0078250   1.0078250  12.0000000   1.0078250  12.0000000
 NucSpn=           0           1           1           1           0           1           1           0           1           0
 AtZEff=   0.0000000   0.0000000   0.0000000   0.0000000   0.0000000   0.0000000   0.0000000   0.0000000   0.0000000   0.0000000
 NQMom=    0.0000000   0.0000000   0.0000000   0.0000000   0.0000000   0.0000000   0.0000000   0.0000000   0.0000000   0.0000000
 NMagM=    0.0000000   2.7928460   2.7928460   2.7928460   0.0000000   2.7928460   2.7928460   0.0000000   2.7928460   0.0000000

  Atom        11          12          13          14          15          16          17          18          19          20
 IAtWgt=           1           1          12           1           1           1          12           1           1           1
 AtmWgt=   1.0078250   1.0078250  12.0000000   1.0078250   1.0078250   1.0078250  12.0000000   1.0078250   1.0078250   1.0078250
 NucSpn=           1           1           0           1           1           1           0           1           1           1
 AtZEff=   0.0000000   0.0000000   0.0000000   0.0000000   0.0000000   0.0000000   0.0000000   0.0000000   0.0000000   0.0000000
 NQMom=    0.0000000   0.0000000   0.0000000   0.0000000   0.0000000   0.0000000   0.0000000   0.0000000   0.0000000   0.0000000
 NMagM=    2.7928460   2.7928460   0.0000000   2.7928460   2.7928460   2.7928460   0.0000000   2.7928460   2.7928460   2.7928460
 Leave Link  101 at Sun Sep 13 11:18:50 2015, MaxMem=  671088640 cpu:       0.2
 (Enter /share/apps/g09/l103.exe)

 GradGradGradGradGradGradGradGradGradGradGradGradGradGradGradGradGradGrad
 Berny optimization.
 Initialization pass.
                           ----------------------------
                           !    Initial Parameters    !
                           ! (Angstroms and Degrees)  !
 --------------------------                            --------------------------
 ! Name  Definition              Value          Derivative Info.                !
 --------------------------------------------------------------------------------
 ! R1    R(1,2)                  1.07           estimate D2E/DX2                !
 ! R2    R(1,3)                  1.07           estimate D2E/DX2                !
 ! R3    R(1,4)                  1.07           estimate D2E/DX2                !
 ! R4    R(1,5)                  1.54           estimate D2E/DX2                !
 ! R5    R(5,6)                  1.07           estimate D2E/DX2                !
 ! R6    R(5,7)                  1.07           estimate D2E/DX2                !
 ! R7    R(5,8)                  1.54           estimate D2E/DX2                !
 ! R8    R(8,9)                  1.07           estimate D2E/DX2                !
 ! R9    R(8,10)                 1.54           estimate D2E/DX2                !
 ! R10   R(8,17)                 1.54           estimate D2E/DX2                !
 ! R11   R(10,11)                1.07           estimate D2E/DX2                !
 ! R12   R(10,12)                1.07           estimate D2E/DX2                !
 ! R13   R(10,13)                1.54           estimate D2E/DX2                !
 ! R14   R(13,14)                1.07           estimate D2E/DX2                !
 ! R15   R(13,15)                1.07           estimate D2E/DX2                !
 ! R16   R(13,16)                1.07           estimate D2E/DX2                !
 ! R17   R(17,18)                1.07           estimate D2E/DX2                !
 ! R18   R(17,19)                1.07           estimate D2E/DX2                !
 ! R19   R(17,20)                1.07           estimate D2E/DX2                !
 ! A1    A(2,1,3)              109.4712         estimate D2E/DX2                !
 ! A2    A(2,1,4)              109.4712         estimate D2E/DX2                !
 ! A3    A(2,1,5)              109.4712         estimate D2E/DX2                !
 ! A4    A(3,1,4)              109.4712         estimate D2E/DX2                !
 ! A5    A(3,1,5)              109.4713         estimate D2E/DX2                !
 ! A6    A(4,1,5)              109.4712         estimate D2E/DX2                !
 ! A7    A(1,5,6)              109.4712         estimate D2E/DX2                !
 ! A8    A(1,5,7)              109.4712         estimate D2E/DX2                !
 ! A9    A(1,5,8)              109.4712         estimate D2E/DX2                !
 ! A10   A(6,5,7)              109.4712         estimate D2E/DX2                !
 ! A11   A(6,5,8)              109.4713         estimate D2E/DX2                !
 ! A12   A(7,5,8)              109.4712         estimate D2E/DX2                !
 ! A13   A(5,8,9)              109.4712         estimate D2E/DX2                !
 ! A14   A(5,8,10)             109.4712         estimate D2E/DX2                !
 ! A15   A(5,8,17)             109.4712         estimate D2E/DX2                !
 ! A16   A(9,8,10)             109.4712         estimate D2E/DX2                !
 ! A17   A(9,8,17)             109.4712         estimate D2E/DX2                !
 ! A18   A(10,8,17)            109.4713         estimate D2E/DX2                !
 ! A19   A(8,10,11)            109.4712         estimate D2E/DX2                !
 ! A20   A(8,10,12)            109.4712         estimate D2E/DX2                !
 ! A21   A(8,10,13)            109.4712         estimate D2E/DX2                !
 ! A22   A(11,10,12)           109.4712         estimate D2E/DX2                !
 ! A23   A(11,10,13)           109.4713         estimate D2E/DX2                !
 ! A24   A(12,10,13)           109.4712         estimate D2E/DX2                !
 ! A25   A(10,13,14)           109.4712         estimate D2E/DX2                !
 ! A26   A(10,13,15)           109.4712         estimate D2E/DX2                !
 ! A27   A(10,13,16)           109.4712         estimate D2E/DX2                !
 ! A28   A(14,13,15)           109.4713         estimate D2E/DX2                !
 ! A29   A(14,13,16)           109.4712         estimate D2E/DX2                !
 ! A30   A(15,13,16)           109.4712         estimate D2E/DX2                !
 ! A31   A(8,17,18)            109.4712         estimate D2E/DX2                !
 ! A32   A(8,17,19)            109.4712         estimate D2E/DX2                !
 ! A33   A(8,17,20)            109.4712         estimate D2E/DX2                !
 ! A34   A(18,17,19)           109.4713         estimate D2E/DX2                !
 ! A35   A(18,17,20)           109.4712         estimate D2E/DX2                !
 ! A36   A(19,17,20)           109.4712         estimate D2E/DX2                !
 ! D1    D(2,1,5,6)            179.8889         estimate D2E/DX2                !
 ! D2    D(2,1,5,7)            -60.1111         estimate D2E/DX2                !
 ! D3    D(2,1,5,8)             59.8889         estimate D2E/DX2                !
 ! D4    D(3,1,5,6)             59.8889         estimate D2E/DX2                !
 ! D5    D(3,1,5,7)            179.8889         estimate D2E/DX2                !
 ! D6    D(3,1,5,8)            -60.1111         estimate D2E/DX2                !
 ! D7    D(4,1,5,6)            -60.1111         estimate D2E/DX2                !
 ! D8    D(4,1,5,7)             59.8889         estimate D2E/DX2                !
 ! D9    D(4,1,5,8)            179.8889         estimate D2E/DX2                !
 ! D10   D(1,5,8,9)            -60.0214         estimate D2E/DX2                !
 ! D11   D(1,5,8,10)           179.9786         estimate D2E/DX2                !
 ! D12   D(1,5,8,17)            59.9786         estimate D2E/DX2                !
 ! D13   D(6,5,8,9)            179.9786         estimate D2E/DX2                !
 ! D14   D(6,5,8,10)            59.9786         estimate D2E/DX2                !
 ! D15   D(6,5,8,17)           -60.0214         estimate D2E/DX2                !
 ! D16   D(7,5,8,9)             59.9786         estimate D2E/DX2                !
 ! D17   D(7,5,8,10)           -60.0214         estimate D2E/DX2                !
 ! D18   D(7,5,8,17)           179.9786         estimate D2E/DX2                !
 ! D19   D(5,8,10,11)           59.9953         estimate D2E/DX2                !
 ! D20   D(5,8,10,12)          -60.0047         estimate D2E/DX2                !
 ! D21   D(5,8,10,13)          179.9953         estimate D2E/DX2                !
 ! D22   D(9,8,10,11)          -60.0047         estimate D2E/DX2                !
 ! D23   D(9,8,10,12)          179.9953         estimate D2E/DX2                !
 ! D24   D(9,8,10,13)           59.9953         estimate D2E/DX2                !
 ! D25   D(17,8,10,11)         179.9953         estimate D2E/DX2                !
 ! D26   D(17,8,10,12)          59.9953         estimate D2E/DX2                !
 ! D27   D(17,8,10,13)         -60.0047         estimate D2E/DX2                !
 ! D28   D(5,8,17,18)          -60.0068         estimate D2E/DX2                !
 ! D29   D(5,8,17,19)           59.9932         estimate D2E/DX2                !
 ! D30   D(5,8,17,20)          179.9932         estimate D2E/DX2                !
 ! D31   D(9,8,17,18)           59.9932         estimate D2E/DX2                !
 ! D32   D(9,8,17,19)          179.9932         estimate D2E/DX2                !
 ! D33   D(9,8,17,20)          -60.0068         estimate D2E/DX2                !
 ! D34   D(10,8,17,18)         179.9932         estimate D2E/DX2                !
 ! D35   D(10,8,17,19)         -60.0067         estimate D2E/DX2                !
 ! D36   D(10,8,17,20)          59.9933         estimate D2E/DX2                !
 ! D37   D(8,10,13,14)          59.9995         estimate D2E/DX2                !
 ! D38   D(8,10,13,15)         179.9995         estimate D2E/DX2                !
 ! D39   D(8,10,13,16)         -60.0005         estimate D2E/DX2                !
 ! D40   D(11,10,13,14)        179.9995         estimate D2E/DX2                !
 ! D41   D(11,10,13,15)        -60.0005         estimate D2E/DX2                !
 ! D42   D(11,10,13,16)         59.9995         estimate D2E/DX2                !
 ! D43   D(12,10,13,14)        -60.0005         estimate D2E/DX2                !
 ! D44   D(12,10,13,15)         59.9995         estimate D2E/DX2                !
 ! D45   D(12,10,13,16)        179.9995         estimate D2E/DX2                !
 --------------------------------------------------------------------------------
 Trust Radius=3.00D-01 FncErr=1.00D-07 GrdErr=1.00D-07
 Number of steps in this run= 110 maximum allowed number of steps= 120.
 GradGradGradGradGradGradGradGradGradGradGradGradGradGradGradGradGradGrad

 Leave Link  103 at Sun Sep 13 11:18:50 2015, MaxMem=  671088640 cpu:       0.0
 (Enter /share/apps/g09/l202.exe)
                          Input orientation:                          
 ---------------------------------------------------------------------
 Center     Atomic      Atomic             Coordinates (Angstroms)
 Number     Number       Type             X           Y           Z
 ---------------------------------------------------------------------
      1          6           0       -3.542994    0.159236    0.000000
      2          1           0       -3.186339   -0.849574    0.000000
      3          1           0       -3.186321    0.663634   -0.873652
      4          1           0       -4.612994    0.159249    0.000000
      5          6           0       -3.029651    0.885192    1.257405
      6          1           0       -3.384708    1.894565    1.256428
      7          1           0       -3.387920    0.381924    2.131055
      8          6           0       -1.489654    0.882735    1.258813
      9          1           0       -1.134598   -0.126638    1.260167
     10          6           0       -0.976311    1.609161    2.515946
     11          1           0       -1.334648    1.106267    3.389784
     12          1           0       -1.331299    2.618558    2.514551
     13          6           0        0.563686    1.606601    2.517414
     14          1           0        0.922022    2.109487    1.643572
     15          1           0        0.920360    2.111332    3.390873
     16          1           0        0.918675    0.597204    2.518818
     17          6           0       -0.974015    1.606594    0.001139
     18          1           0       -1.330592    1.101801   -0.872323
     19          1           0       -1.329168    2.615933   -0.000275
     20          1           0        0.095983    1.604991    0.002176
 ---------------------------------------------------------------------
                    Distance matrix (angstroms):
                    1          2          3          4          5
     1  C    0.000000
     2  H    1.070000   0.000000
     3  H    1.070000   1.747302   0.000000
     4  H    1.070000   1.747303   1.747303   0.000000
     5  C    1.540000   2.148263   2.148263   2.148263   0.000000
     6  H    2.148263   3.024609   2.468154   2.469538   1.070000
     7  H    2.148263   2.469538   3.024610   2.468154   1.070000
     8  C    2.514809   2.732077   2.733878   3.444313   1.540000
     9  H    2.733151   2.514021   3.063866   3.710659   2.148263
    10  C    3.875581   4.154466   4.155423   4.653783   2.514809
    11  H    4.155033   4.329517   4.669208   4.809889   2.732939
    12  H    4.154856   4.668199   4.329290   4.810477   2.733016
    13  C    5.029618   5.141290   5.143060   5.935505   3.875581
    14  H    5.142098   5.323157   5.030446   6.094355   4.154967
    15  H    5.935505   6.093436   6.094820   6.776920   4.653783
    16  H    5.142251   5.028792   5.325810   6.093899   4.154922
    17  C    2.948643   3.305623   2.559048   3.916245   2.514809
    18  H    2.558143   2.830655   1.906756   3.524700   2.733032
    19  H    3.307020   3.931771   2.832538   4.101074   2.732922
    20  H    3.915656   4.098601   3.525159   4.925915   3.444314
                    6          7          8          9         10
     6  H    0.000000
     7  H    1.747303   0.000000
     8  C    2.148263   2.148263   0.000000
     9  H    3.024611   2.468713   1.070000   0.000000
    10  C    2.732804   2.733151   1.540000   2.148263   0.000000
    11  H    3.061923   2.514956   2.148263   2.468875   1.070000
    12  H    2.514663   3.062563   2.148263   3.024610   1.070000
    13  C    4.154856   4.155033   2.514809   2.732939   1.540000
    14  H    4.329434   4.668803   2.732973   3.062179   2.148263
    15  H    4.810037   4.810330   3.444314   3.710966   2.148263
    16  H    4.668605   4.329372   2.732981   2.514772   2.148263
    17  C    2.733151   3.444314   1.540000   2.148263   2.514810
    18  H    3.062588   3.710944   2.148263   2.468803   3.444314
    19  H    2.514938   3.711041   2.148263   3.024610   2.733033
    20  H    3.711093   4.262112   2.148263   2.468888   2.732924
                   11         12         13         14         15
    11  H    0.000000
    12  H    1.747303   0.000000
    13  C    2.148263   2.148263   0.000000
    14  H    3.024610   2.468849   1.070000   0.000000
    15  H    2.468849   2.468843   1.070000   1.747303   0.000000
    16  H    2.468843   3.024610   1.070000   1.747303   1.747303
    17  C    3.444314   2.732940   2.948927   2.558407   3.915829
    18  H    4.262112   3.710993   3.915793   3.524121   4.925524
    19  H    3.711013   2.514828   3.307629   2.833122   4.100595
    20  H    3.710973   3.062103   2.558353   1.905528   3.524095
                   16         17         18         19         20
    16  H    0.000000
    17  C    3.307545   0.000000
    18  H    4.100446   1.070000   0.000000
    19  H    3.933687   1.070000   1.747303   0.000000
    20  H    2.833010   1.070000   1.747303   1.747303   0.000000
 Stoichiometry    C6H14
 Framework group  C1[X(C6H14)]
 Deg. of freedom    54
 Full point group                 C1      NOp   1
 Largest Abelian subgroup         C1      NOp   1
 Largest concise Abelian subgroup C1      NOp   1
                         Standard orientation:                         
 ---------------------------------------------------------------------
 Center     Atomic      Atomic             Coordinates (Angstroms)
 Number     Number       Type             X           Y           Z
 ---------------------------------------------------------------------
      1          6           0       -2.514783   -0.029535   -0.256450
      2          1           0       -2.513897   -0.029881   -1.326449
      3          1           0       -2.515686    0.979386    0.099890
      4          1           0       -3.388427   -0.534347    0.099657
      5          6           0       -1.257368   -0.754575    0.258160
      6          1           0       -1.257278   -0.752535    1.328158
      7          1           0       -1.257445   -1.764059   -0.096582
      8          6           0        0.000026   -0.029650   -0.256664
      9          1           0        0.000123   -0.032017   -1.326661
     10          6           0        1.257441   -0.754377    0.258388
     11          1           0        1.257511   -1.763993   -0.095979
     12          1           0        1.257385   -0.751938    1.328385
     13          6           0        2.514835   -0.029521   -0.256533
     14          1           0        2.514760    0.980097    0.097826
     15          1           0        3.388493   -0.533060    0.101334
     16          1           0        2.514895   -0.031967   -1.326531
     17          6           0       -0.000136    1.423408    0.253457
     18          1           0       -0.873735    1.926985   -0.104502
     19          1           0       -0.000352    1.425774    1.323454
     20          1           0        0.873567    1.927056   -0.104148
 ---------------------------------------------------------------------
 Rotational constants (GHZ):      6.9309780      1.9308285      1.6639068
 Leave Link  202 at Sun Sep 13 11:18:55 2015, MaxMem=  671088640 cpu:       0.0
 (Enter /share/apps/g09/l301.exe)
 Standard basis: VSTO-6G (5D, 7F)
 Ernie: Thresh=  0.10000D-02 Tol=  0.10000D-05 Strict=F.
  NNHCO=     0 NNPyr=     0 NCTC=     0               EPep=         0.000000000
    EC=       131.581491303  ECS=         3.454079435   EG=         0.311541814
   EHC=         0.000625946  EAt=       -31.187935768  AtH=         2.796400831
 EPDDG=         0.000000000  ECC=       135.347738498 EAtT=        33.984336599
 There are    38 symmetry adapted basis functions of A   symmetry.
 Integral buffers will be    131072 words long.
 Regular integral format.
 Two-electron integral symmetry is turned off.
    38 basis functions,   228 primitive gaussians,    38 cartesian basis functions
    19 alpha electrons       19 beta electrons
       nuclear repulsion energy       169.3320750974 Hartrees.
 IExCor=    0 DFT=F Ex=HF Corr=None ExCW=0 ScaHFX=  1.000000
 ScaDFX=  1.000000  1.000000  1.000000  1.000000 ScalE2=  1.000000  1.000000
 IRadAn=      0 IRanWt=     -1 IRanGd=            0 ICorTp=0
 Leave Link  301 at Sun Sep 13 11:18:56 2015, MaxMem=  671088640 cpu:       0.1
 (Enter /share/apps/g09/l302.exe)
 Do NDO integrals.
 NPDir=0 NMtPBC=     1 NCelOv=     1 NCel=       1 NClECP=     1 NCelD=      1
         NCelK=      1 NCelE2=     1 NClLst=     1 CellRange=     0.0.
 One-electron integrals computed using PRISM.
 NBasis=    38 RedAO= F  NBF=    38
 NBsUse=    38 1.00D-04 NBFU=    38
 Leave Link  302 at Sun Sep 13 11:18:59 2015, MaxMem=  671088640 cpu:       0.1
 (Enter /share/apps/g09/l303.exe)
 DipDrv:  MaxL=1.
 Leave Link  303 at Sun Sep 13 11:19:00 2015, MaxMem=  671088640 cpu:       0.1
 (Enter /share/apps/g09/l401.exe)
 Simple Huckel Guess.
 Initial guess orbital symmetries:
       Occupied  (A) (A) (A) (A) (A) (A) (A) (A) (A) (A) (A) (A)
                 (A) (A) (A) (A) (A) (A) (A)
       Virtual   (A) (A) (A) (A) (A) (A) (A) (A) (A) (A) (A) (A)
                 (A) (A) (A) (A) (A) (A) (A)
 The electronic state of the initial guess is 1-A.
 Leave Link  401 at Sun Sep 13 11:19:00 2015, MaxMem=  671088640 cpu:       0.1
 (Enter /share/apps/g09/l502.exe)
 Closed shell SCF:
 Requested convergence on RMS density matrix=1.00D-08 within 128 cycles.
 Requested convergence on MAX density matrix=1.00D-06.
 Requested convergence on             energy=1.00D-06.
 No special actions if energy rises.
 Using DIIS extrapolation, IDIIS=  1040.
 Overlap will be assumed to be unity.
 Two-electron integral symmetry not used.
 Keep J ints in memory in canonical form, NReq=884654.
 IEnd=       81865 IEndB=       81865 NGot=   671088640 MDV=   671022095
 LenX=   671022095 LenY=   671020210
 Symmetry not used in FoFDir.
 MinBra= 0 MaxBra= 1 Meth=40.
 IRaf=       0 NMat=   1 IRICut=       1 DoRegI=T DoRafI=F ISym2E= 0 JSym2E=0.

 Cycle   1  Pass 1  IDiag  1:
 E= 0.736703854000211E-01
 DIIS: error= 2.22D-02 at cycle   1 NSaved=   1.
 NSaved= 1 IEnMin= 1 EnMin= 0.736703854000211E-01 IErMin= 1 ErrMin= 2.22D-02
 ErrMax= 2.22D-02 EMaxC= 1.00D-01 BMatC= 4.25D-02 BMatP= 4.25D-02
 IDIUse=3 WtCom= 7.78D-01 WtEn= 2.22D-01
 Coeff-Com:  0.100D+01
 Coeff-En:   0.100D+01
 Coeff:      0.100D+01
 GapD=    2.000 DampG=2.000 DampE=0.500 DampFc=1.0000 IDamp=-1.
 RMSDP=7.94D-03 MaxDP=6.71D-02              OVMax= 0.00D+00

 Cycle   2  Pass 1  IDiag  1:
 E=-0.353116145066394E-01 Delta-E=       -0.108981999907 Rises=F Damp=F
 DIIS: error= 5.56D-03 at cycle   2 NSaved=   2.
 NSaved= 2 IEnMin= 2 EnMin=-0.353116145066394E-01 IErMin= 2 ErrMin= 5.56D-03
 ErrMax= 5.56D-03 EMaxC= 1.00D-01 BMatC= 3.04D-03 BMatP= 4.25D-02
 IDIUse=3 WtCom= 9.44D-01 WtEn= 5.56D-02
 Coeff-Com: -0.332D+00 0.133D+01
 Coeff-En:   0.000D+00 0.100D+01
 Coeff:     -0.314D+00 0.131D+01
 RMSDP=2.99D-03 MaxDP=2.11D-02 DE=-1.09D-01 OVMax= 0.00D+00

 Cycle   3  Pass 1  IDiag  3:
 E=-0.450808041146615E-01 Delta-E=       -0.009769189608 Rises=F Damp=F
 DIIS: error= 1.53D-03 at cycle   3 NSaved=   3.
 NSaved= 3 IEnMin= 3 EnMin=-0.450808041146615E-01 IErMin= 3 ErrMin= 1.53D-03
 ErrMax= 1.53D-03 EMaxC= 1.00D-01 BMatC= 1.22D-04 BMatP= 3.04D-03
 IDIUse=3 WtCom= 9.85D-01 WtEn= 1.53D-02
 Coeff-Com:  0.264D+00-0.112D+01 0.186D+01
 Coeff-En:   0.000D+00 0.000D+00 0.100D+01
 Coeff:      0.260D+00-0.110D+01 0.184D+01
 Gap=     0.553 Goal=   None    Shift=    0.000
 RMSDP=1.10D-03 MaxDP=1.07D-02 DE=-9.77D-03 OVMax= 0.00D+00

 Cycle   4  Pass 1  IDiag  3:
 E=-0.458669202661213E-01 Delta-E=       -0.000786116151 Rises=F Damp=F
 DIIS: error= 4.44D-04 at cycle   4 NSaved=   4.
 NSaved= 4 IEnMin= 4 EnMin=-0.458669202661213E-01 IErMin= 4 ErrMin= 4.44D-04
 ErrMax= 4.44D-04 EMaxC= 1.00D-01 BMatC= 8.38D-06 BMatP= 1.22D-04
 IDIUse=3 WtCom= 9.96D-01 WtEn= 4.44D-03
 Coeff-Com: -0.126D+00 0.543D+00-0.111D+01 0.169D+01
 Coeff-En:   0.000D+00 0.000D+00 0.000D+00 0.100D+01
 Coeff:     -0.125D+00 0.540D+00-0.111D+01 0.169D+01
 Gap=     0.553 Goal=   None    Shift=    0.000
 RMSDP=3.51D-04 MaxDP=3.69D-03 DE=-7.86D-04 OVMax= 0.00D+00

 Cycle   5  Pass 1  IDiag  3:
 E=-0.459262730315118E-01 Delta-E=       -0.000059352765 Rises=F Damp=F
 DIIS: error= 1.43D-04 at cycle   5 NSaved=   5.
 NSaved= 5 IEnMin= 5 EnMin=-0.459262730315118E-01 IErMin= 5 ErrMin= 1.43D-04
 ErrMax= 1.43D-04 EMaxC= 1.00D-01 BMatC= 4.07D-07 BMatP= 8.38D-06
 IDIUse=3 WtCom= 9.99D-01 WtEn= 1.43D-03
 Coeff-Com:  0.670D-01-0.291D+00 0.627D+00-0.110D+01 0.170D+01
 Coeff-En:   0.000D+00 0.000D+00 0.000D+00 0.000D+00 0.100D+01
 Coeff:      0.669D-01-0.290D+00 0.626D+00-0.110D+01 0.170D+01
 Gap=     0.553 Goal=   None    Shift=    0.000
 RMSDP=6.93D-05 MaxDP=8.80D-04 DE=-5.94D-05 OVMax= 0.00D+00

 Cycle   6  Pass 1  IDiag  3:
 E=-0.459290808883281E-01 Delta-E=       -0.000002807857 Rises=F Damp=F
 DIIS: error= 3.43D-05 at cycle   6 NSaved=   6.
 NSaved= 6 IEnMin= 6 EnMin=-0.459290808883281E-01 IErMin= 6 ErrMin= 3.43D-05
 ErrMax= 3.43D-05 EMaxC= 1.00D-01 BMatC= 3.48D-08 BMatP= 4.07D-07
 IDIUse=1 WtCom= 1.00D+00 WtEn= 0.00D+00
 Coeff-Com: -0.614D-02 0.271D-01-0.666D-01 0.143D+00-0.432D+00 0.133D+01
 Coeff:     -0.614D-02 0.271D-01-0.666D-01 0.143D+00-0.432D+00 0.133D+01
 Gap=     0.553 Goal=   None    Shift=    0.000
 RMSDP=1.86D-05 MaxDP=2.52D-04 DE=-2.81D-06 OVMax= 0.00D+00

 Cycle   7  Pass 1  IDiag  3:
 E=-0.459293235512348E-01 Delta-E=       -0.000000242663 Rises=F Damp=F
 DIIS: error= 9.90D-06 at cycle   7 NSaved=   7.
 NSaved= 7 IEnMin= 7 EnMin=-0.459293235512348E-01 IErMin= 7 ErrMin= 9.90D-06
 ErrMax= 9.90D-06 EMaxC= 1.00D-01 BMatC= 6.53D-09 BMatP= 3.48D-08
 IDIUse=1 WtCom= 1.00D+00 WtEn= 0.00D+00
 Coeff-Com:  0.175D-02-0.789D-02 0.224D-01-0.548D-01 0.211D+00-0.105D+01
 Coeff-Com:  0.188D+01
 Coeff:      0.175D-02-0.789D-02 0.224D-01-0.548D-01 0.211D+00-0.105D+01
 Coeff:      0.188D+01
 Gap=     0.553 Goal=   None    Shift=    0.000
 RMSDP=1.05D-05 MaxDP=1.13D-04 DE=-2.43D-07 OVMax= 0.00D+00

 Cycle   8  Pass 1  IDiag  3:
 E=-0.459293780108112E-01 Delta-E=       -0.000000054460 Rises=F Damp=F
 DIIS: error= 4.22D-06 at cycle   8 NSaved=   8.
 NSaved= 8 IEnMin= 8 EnMin=-0.459293780108112E-01 IErMin= 8 ErrMin= 4.22D-06
 ErrMax= 4.22D-06 EMaxC= 1.00D-01 BMatC= 6.70D-10 BMatP= 6.53D-09
 IDIUse=1 WtCom= 1.00D+00 WtEn= 0.00D+00
 Coeff-Com: -0.613D-03 0.293D-02-0.106D-01 0.306D-01-0.137D+00 0.783D+00
 Coeff-Com: -0.166D+01 0.199D+01
 Coeff:     -0.613D-03 0.293D-02-0.106D-01 0.306D-01-0.137D+00 0.783D+00
 Coeff:     -0.166D+01 0.199D+01
 Gap=     0.553 Goal=   None    Shift=    0.000
 RMSDP=3.69D-06 MaxDP=3.49D-05 DE=-5.45D-08 OVMax= 0.00D+00

 Cycle   9  Pass 1  IDiag  3:
 E=-0.459293834952348E-01 Delta-E=       -0.000000005484 Rises=F Damp=F
 DIIS: error= 6.92D-07 at cycle   9 NSaved=   9.
 NSaved= 9 IEnMin= 9 EnMin=-0.459293834952348E-01 IErMin= 9 ErrMin= 6.92D-07
 ErrMax= 6.92D-07 EMaxC= 1.00D-01 BMatC= 2.27D-11 BMatP= 6.70D-10
 IDIUse=1 WtCom= 1.00D+00 WtEn= 0.00D+00
 Coeff-Com: -0.968D-04 0.330D-03 0.673D-03-0.502D-02 0.344D-01-0.229D+00
 Coeff-Com:  0.513D+00-0.750D+00 0.144D+01
 Coeff:     -0.968D-04 0.330D-03 0.673D-03-0.502D-02 0.344D-01-0.229D+00
 Coeff:      0.513D+00-0.750D+00 0.144D+01
 Gap=     0.553 Goal=   None    Shift=    0.000
 RMSDP=5.34D-07 MaxDP=5.88D-06 DE=-5.48D-09 OVMax= 0.00D+00

 Cycle  10  Pass 1  IDiag  3:
 E=-0.459293836374854E-01 Delta-E=       -0.000000000142 Rises=F Damp=F
 DIIS: error= 2.20D-07 at cycle  10 NSaved=  10.
 NSaved=10 IEnMin=10 EnMin=-0.459293836374854E-01 IErMin=10 ErrMin= 2.20D-07
 ErrMax= 2.20D-07 EMaxC= 1.00D-01 BMatC= 1.32D-12 BMatP= 2.27D-11
 IDIUse=1 WtCom= 1.00D+00 WtEn= 0.00D+00
 Coeff-Com:  0.198D-05 0.271D-04-0.606D-03 0.257D-02-0.147D-01 0.929D-01
 Coeff-Com: -0.206D+00 0.306D+00-0.701D+00 0.152D+01
 Coeff:      0.198D-05 0.271D-04-0.606D-03 0.257D-02-0.147D-01 0.929D-01
 Coeff:     -0.206D+00 0.306D+00-0.701D+00 0.152D+01
 Gap=     0.553 Goal=   None    Shift=    0.000
 RMSDP=1.07D-07 MaxDP=1.05D-06 DE=-1.42D-10 OVMax= 0.00D+00

 Cycle  11  Pass 1  IDiag  3:
 E=-0.459293836453298E-01 Delta-E=       -0.000000000008 Rises=F Damp=F
 DIIS: error= 5.87D-08 at cycle  11 NSaved=  11.
 NSaved=11 IEnMin=11 EnMin=-0.459293836453298E-01 IErMin=11 ErrMin= 5.87D-08
 ErrMax= 5.87D-08 EMaxC= 1.00D-01 BMatC= 9.49D-14 BMatP= 1.32D-12
 IDIUse=1 WtCom= 1.00D+00 WtEn= 0.00D+00
 Coeff-Com:  0.661D-05-0.458D-04 0.360D-03-0.135D-02 0.724D-02-0.445D-01
 Coeff-Com:  0.981D-01-0.145D+00 0.336D+00-0.918D+00 0.167D+01
 Coeff:      0.661D-05-0.458D-04 0.360D-03-0.135D-02 0.724D-02-0.445D-01
 Coeff:      0.981D-01-0.145D+00 0.336D+00-0.918D+00 0.167D+01
 Gap=     0.553 Goal=   None    Shift=    0.000
 RMSDP=3.29D-08 MaxDP=3.48D-07 DE=-7.84D-12 OVMax= 0.00D+00

 Cycle  12  Pass 1  IDiag  3:
 E=-0.459293836463814E-01 Delta-E=       -0.000000000001 Rises=F Damp=F
 DIIS: error= 7.38D-09 at cycle  12 NSaved=  12.
 NSaved=12 IEnMin=12 EnMin=-0.459293836463814E-01 IErMin=12 ErrMin= 7.38D-09
 ErrMax= 7.38D-09 EMaxC= 1.00D-01 BMatC= 2.28D-15 BMatP= 9.49D-14
 IDIUse=1 WtCom= 1.00D+00 WtEn= 0.00D+00
 Coeff-Com: -0.688D-06 0.930D-05-0.116D-03 0.467D-03-0.260D-02 0.162D-01
 Coeff-Com: -0.358D-01 0.531D-01-0.124D+00 0.352D+00-0.731D+00 0.147D+01
 Coeff:     -0.688D-06 0.930D-05-0.116D-03 0.467D-03-0.260D-02 0.162D-01
 Coeff:     -0.358D-01 0.531D-01-0.124D+00 0.352D+00-0.731D+00 0.147D+01
 Gap=     0.553 Goal=   None    Shift=    0.000
 RMSDP=4.37D-09 MaxDP=5.04D-08 DE=-1.05D-12 OVMax= 0.00D+00

 Cycle  13  Pass 2  IDiag  1:
 RMSDP=4.37D-09 MaxDP=5.04D-08 DE=-1.05D-12 OVMax= 0.00D+00

 SCF Done:  E(RPM6) = -0.459293836464E-01 A.U. after   13 cycles
             Convg  =    0.4368D-08             -V/T =  0.9992
 KE=-5.646725357459D+01 PE=-2.589065521830D+02 EE= 1.459958012765D+02
 Leave Link  502 at Sun Sep 13 11:19:03 2015, MaxMem=  671088640 cpu:       0.1
 (Enter /share/apps/g09/l601.exe)
 Copying SCF densities to generalized density rwf, IOpCl= 0 IROHF=0.

 **********************************************************************

            Population analysis using the SCF density.

 **********************************************************************

 Orbital symmetries:
       Occupied  (A) (A) (A) (A) (A) (A) (A) (A) (A) (A) (A) (A)
                 (A) (A) (A) (A) (A) (A) (A)
       Virtual   (A) (A) (A) (A) (A) (A) (A) (A) (A) (A) (A) (A)
                 (A) (A) (A) (A) (A) (A) (A)
 The electronic state is 1-A.
 Alpha  occ. eigenvalues --   -1.09471  -1.00057  -0.91605  -0.86355  -0.76621
 Alpha  occ. eigenvalues --   -0.71921  -0.59352  -0.58569  -0.55180  -0.52623
 Alpha  occ. eigenvalues --   -0.50372  -0.49525  -0.47131  -0.46643  -0.45987
 Alpha  occ. eigenvalues --   -0.43775  -0.41725  -0.41401  -0.40795
 Alpha virt. eigenvalues --    0.14498   0.15041   0.16355   0.17393   0.17979
 Alpha virt. eigenvalues --    0.21807   0.21868   0.22565   0.22579   0.22777
 Alpha virt. eigenvalues --    0.23220   0.23718   0.23733   0.24519   0.25214
 Alpha virt. eigenvalues --    0.25404   0.25865   0.26388   0.27272
          Condensed to atoms (all electrons):
              1          2          3          4          5          6
     1  C    4.456533   0.000000   0.000000   0.000000   0.000000   0.000000
     2  H    0.000000   0.854080   0.000000   0.000000   0.000000   0.000000
     3  H    0.000000   0.000000   0.850276   0.000000   0.000000   0.000000
     4  H    0.000000   0.000000   0.000000   0.857470   0.000000   0.000000
     5  C    0.000000   0.000000   0.000000   0.000000   4.265826   0.000000
     6  H    0.000000   0.000000   0.000000   0.000000   0.000000   0.867856
     7  H    0.000000   0.000000   0.000000   0.000000   0.000000   0.000000
     8  C    0.000000   0.000000   0.000000   0.000000   0.000000   0.000000
     9  H    0.000000   0.000000   0.000000   0.000000   0.000000   0.000000
    10  C    0.000000   0.000000   0.000000   0.000000   0.000000   0.000000
    11  H    0.000000   0.000000   0.000000   0.000000   0.000000   0.000000
    12  H    0.000000   0.000000   0.000000   0.000000   0.000000   0.000000
    13  C    0.000000   0.000000   0.000000   0.000000   0.000000   0.000000
    14  H    0.000000   0.000000   0.000000   0.000000   0.000000   0.000000
    15  H    0.000000   0.000000   0.000000   0.000000   0.000000   0.000000
    16  H    0.000000   0.000000   0.000000   0.000000   0.000000   0.000000
    17  C    0.000000   0.000000   0.000000   0.000000   0.000000   0.000000
    18  H    0.000000   0.000000   0.000000   0.000000   0.000000   0.000000
    19  H    0.000000   0.000000   0.000000   0.000000   0.000000   0.000000
    20  H    0.000000   0.000000   0.000000   0.000000   0.000000   0.000000
              7          8          9         10         11         12
     1  C    0.000000   0.000000   0.000000   0.000000   0.000000   0.000000
     2  H    0.000000   0.000000   0.000000   0.000000   0.000000   0.000000
     3  H    0.000000   0.000000   0.000000   0.000000   0.000000   0.000000
     4  H    0.000000   0.000000   0.000000   0.000000   0.000000   0.000000
     5  C    0.000000   0.000000   0.000000   0.000000   0.000000   0.000000
     6  H    0.000000   0.000000   0.000000   0.000000   0.000000   0.000000
     7  H    0.871968   0.000000   0.000000   0.000000   0.000000   0.000000
     8  C    0.000000   4.024076   0.000000   0.000000   0.000000   0.000000
     9  H    0.000000   0.000000   0.886085   0.000000   0.000000   0.000000
    10  C    0.000000   0.000000   0.000000   4.265825   0.000000   0.000000
    11  H    0.000000   0.000000   0.000000   0.000000   0.871967   0.000000
    12  H    0.000000   0.000000   0.000000   0.000000   0.000000   0.867856
    13  C    0.000000   0.000000   0.000000   0.000000   0.000000   0.000000
    14  H    0.000000   0.000000   0.000000   0.000000   0.000000   0.000000
    15  H    0.000000   0.000000   0.000000   0.000000   0.000000   0.000000
    16  H    0.000000   0.000000   0.000000   0.000000   0.000000   0.000000
    17  C    0.000000   0.000000   0.000000   0.000000   0.000000   0.000000
    18  H    0.000000   0.000000   0.000000   0.000000   0.000000   0.000000
    19  H    0.000000   0.000000   0.000000   0.000000   0.000000   0.000000
    20  H    0.000000   0.000000   0.000000   0.000000   0.000000   0.000000
             13         14         15         16         17         18
     1  C    0.000000   0.000000   0.000000   0.000000   0.000000   0.000000
     2  H    0.000000   0.000000   0.000000   0.000000   0.000000   0.000000
     3  H    0.000000   0.000000   0.000000   0.000000   0.000000   0.000000
     4  H    0.000000   0.000000   0.000000   0.000000   0.000000   0.000000
     5  C    0.000000   0.000000   0.000000   0.000000   0.000000   0.000000
     6  H    0.000000   0.000000   0.000000   0.000000   0.000000   0.000000
     7  H    0.000000   0.000000   0.000000   0.000000   0.000000   0.000000
     8  C    0.000000   0.000000   0.000000   0.000000   0.000000   0.000000
     9  H    0.000000   0.000000   0.000000   0.000000   0.000000   0.000000
    10  C    0.000000   0.000000   0.000000   0.000000   0.000000   0.000000
    11  H    0.000000   0.000000   0.000000   0.000000   0.000000   0.000000
    12  H    0.000000   0.000000   0.000000   0.000000   0.000000   0.000000
    13  C    4.456547   0.000000   0.000000   0.000000   0.000000   0.000000
    14  H    0.000000   0.850262   0.000000   0.000000   0.000000   0.000000
    15  H    0.000000   0.000000   0.857466   0.000000   0.000000   0.000000
    16  H    0.000000   0.000000   0.000000   0.854090   0.000000   0.000000
    17  C    0.000000   0.000000   0.000000   0.000000   4.491063   0.000000
    18  H    0.000000   0.000000   0.000000   0.000000   0.000000   0.850587
    19  H    0.000000   0.000000   0.000000   0.000000   0.000000   0.000000
    20  H    0.000000   0.000000   0.000000   0.000000   0.000000   0.000000
             19         20
     1  C    0.000000   0.000000
     2  H    0.000000   0.000000
     3  H    0.000000   0.000000
     4  H    0.000000   0.000000
     5  C    0.000000   0.000000
     6  H    0.000000   0.000000
     7  H    0.000000   0.000000
     8  C    0.000000   0.000000
     9  H    0.000000   0.000000
    10  C    0.000000   0.000000
    11  H    0.000000   0.000000
    12  H    0.000000   0.000000
    13  C    0.000000   0.000000
    14  H    0.000000   0.000000
    15  H    0.000000   0.000000
    16  H    0.000000   0.000000
    17  C    0.000000   0.000000
    18  H    0.000000   0.000000
    19  H    0.849573   0.000000
    20  H    0.000000   0.850595
 Mulliken atomic charges:
              1
     1  C   -0.456533
     2  H    0.145920
     3  H    0.149724
     4  H    0.142530
     5  C   -0.265826
     6  H    0.132144
     7  H    0.128032
     8  C   -0.024076
     9  H    0.113915
    10  C   -0.265825
    11  H    0.128033
    12  H    0.132144
    13  C   -0.456547
    14  H    0.149738
    15  H    0.142534
    16  H    0.145910
    17  C   -0.491063
    18  H    0.149413
    19  H    0.150427
    20  H    0.149405
 Sum of Mulliken atomic charges =   0.00000
 Mulliken charges with hydrogens summed into heavy atoms:
              1
     1  C   -0.018359
     5  C   -0.005650
     8  C    0.089839
    10  C   -0.005648
    13  C   -0.018365
    17  C   -0.041817
 Sum of Mulliken charges with hydrogens summed into heavy atoms =   0.00000
 Charge=              0.0000 electrons
 Dipole moment (field-independent basis, Debye):
    X=             -0.0001    Y=              0.0763    Z=              0.0158  Tot=              0.0779
 N-N= 1.693320750974D+02 E-N=-2.589065521094D+02  KE=-5.646725357459D+01
 Leave Link  601 at Sun Sep 13 11:19:03 2015, MaxMem=  671088640 cpu:       0.0
 (Enter /share/apps/g09/l701.exe)
 Compute integral first derivatives.
 ... and contract with generalized density number  0.
 Leave Link  701 at Sun Sep 13 11:19:05 2015, MaxMem=  671088640 cpu:       0.1
 (Enter /share/apps/g09/l702.exe)
 L702 exits ... SP integral derivatives will be done elsewhere.
 Leave Link  702 at Sun Sep 13 11:19:08 2015, MaxMem=  671088640 cpu:       0.0
 (Enter /share/apps/g09/l703.exe)
 Compute integral first derivatives, UseDBF=F ICtDFT=           0.
 Integral derivatives from FoFDir, PRISM(SPDF).
 Calling FoFJK, ICntrl=      2127 FMM=F ISym2X=0 I1Cent= 0 IOpClX= 0 NMat=1 NMatS=1 NMatT=0.
 FoFCou: FMM=F IPFlag=           0 FMFlag=      100000 FMFlg1=         800
         NFxFlg=           0 DoJE=F BraDBF=F KetDBF=F FulRan=T
         Omega=  0.000000  0.000000  1.000000  0.000000  0.000000 ICntrl=    2127 IOpCl=  0
         NMat0=    1 NMatS0=    1 NMatT0=    0 NMatD0=    1 NMtDS0=    0 NMtDT0=    0
         I1Cent=           0 NGrid=           0.
 Symmetry not used in FoFCou.
 Leave Link  703 at Sun Sep 13 11:19:08 2015, MaxMem=  671088640 cpu:       0.1
 (Enter /share/apps/g09/l716.exe)
 Dipole        =-2.71100747D-05 3.00253714D-02 6.20156344D-03
 ***** Axes restored to original set *****
 -------------------------------------------------------------------
 Center     Atomic                   Forces (Hartrees/Bohr)
 Number     Number              X              Y              Z
 -------------------------------------------------------------------
      1        6           0.000799074    0.007065984    0.017825402
      2        1           0.002565163   -0.013901913   -0.003412340
      3        1           0.002100860    0.004040094   -0.014628908
      4        1          -0.013664092   -0.001742907   -0.002940462
      5        6           0.009422878   -0.011145267   -0.016628954
      6        1          -0.008747799    0.017015798    0.002671123
      7        1          -0.008168326   -0.006224788    0.016009103
      8        6          -0.005792144    0.019448990   -0.001738843
      9        1           0.007903683   -0.022025678   -0.000224331
     10        6           0.015688714   -0.008944127   -0.012784249
     11        1          -0.007439085   -0.005958706    0.016459938
     12        1          -0.007261109    0.017541241    0.003573075
     13        6          -0.018158300    0.000387498    0.006207571
     14        1           0.009364605    0.006575405   -0.010197614
     15        1           0.007777253    0.005833607    0.010191509
     16        1           0.008461944   -0.011822156    0.000228506
     17        6          -0.004380391   -0.007856615    0.011655650
     18        1          -0.002156911   -0.003933283   -0.014241085
     19        1          -0.002527981    0.013806871   -0.003820090
     20        1           0.014211962    0.001839950   -0.004205001
 -------------------------------------------------------------------
 Cartesian Forces:  Max     0.022025678 RMS     0.010256648
 Leave Link  716 at Sun Sep 13 11:19:10 2015, MaxMem=  671088640 cpu:       0.0
 (Enter /share/apps/g09/l103.exe)

 GradGradGradGradGradGradGradGradGradGradGradGradGradGradGradGradGradGrad
 Berny optimization.
 Internal  Forces:  Max     0.023400062 RMS     0.007390082
 Search for a local minimum.
 Step number   1 out of a maximum of  110
 All quantities printed in internal units (Hartrees-Bohrs-Radians)
 RMS Force = .73901D-02 SwitMx=.10000D-02 MixMth= 1
 Mixed Optimization -- RFO/linear search
 Second derivative matrix not updated -- first step.
     Eigenvalues ---    0.00237   0.00237   0.00237   0.00237   0.00237
     Eigenvalues ---    0.03840   0.03840   0.03921   0.04607   0.04607
     Eigenvalues ---    0.04896   0.04896   0.05720   0.05720   0.05720
     Eigenvalues ---    0.05720   0.05720   0.05720   0.07655   0.07655
     Eigenvalues ---    0.11701   0.11701   0.16000   0.16000   0.16000
     Eigenvalues ---    0.16000   0.16000   0.16000   0.16000   0.16000
     Eigenvalues ---    0.16000   0.16074   0.16074   0.21948   0.21948
     Eigenvalues ---    0.28519   0.28519   0.28519   0.28519   0.28519
     Eigenvalues ---    0.37230   0.37230   0.37230   0.37230   0.37230
     Eigenvalues ---    0.37230   0.37230   0.37230   0.37230   0.37230
     Eigenvalues ---    0.37230   0.37230   0.37230   0.372301000.00000
     Eigenvalues --- 1000.000001000.000001000.000001000.000001000.00000
     Eigenvalues --- 1000.000001000.000001000.000001000.000001000.00000
     Eigenvalues --- 1000.000001000.000001000.000001000.000001000.00000
     Eigenvalues --- 1000.000001000.000001000.000001000.000001000.00000
     Eigenvalues --- 1000.000001000.000001000.000001000.000001000.00000
     Eigenvalues --- 1000.000001000.000001000.000001000.000001000.00000
     Eigenvalues --- 1000.000001000.000001000.000001000.000001000.00000
     Eigenvalues --- 1000.000001000.000001000.000001000.000001000.00000
     Eigenvalues --- 1000.000001000.000001000.000001000.000001000.00000
 RFO step:  Lambda=-1.86006187D-02 EMin= 2.36824073D-03
 Linear search not attempted -- first point.
 Maximum step size (   0.300) exceeded in Quadratic search.
    -- Step size scaled by   0.908
 Iteration  1 RMS(Cart)=  0.09568057 RMS(Int)=  0.00251298
 Iteration  2 RMS(Cart)=  0.00428140 RMS(Int)=  0.00027717
 Iteration  3 RMS(Cart)=  0.00001043 RMS(Int)=  0.00027712
 Iteration  4 RMS(Cart)=  0.00000001 RMS(Int)=  0.00027712
 Variable       Old X    -DE/DX   Delta X   Delta X   Delta X     New X
                                 (Linear)    (Quad)   (Total)
    R1        2.02201   0.01396   0.00000   0.03243   0.03243   2.05444
    R2        2.02201   0.01455   0.00000   0.03379   0.03379   2.05580
    R3        2.02201   0.01366   0.00000   0.03174   0.03174   2.05374
    R4        2.91018   0.00745   0.00000   0.02226   0.02226   2.93244
    R5        2.02201   0.01895   0.00000   0.04402   0.04402   2.06603
    R6        2.02201   0.01873   0.00000   0.04351   0.04351   2.06552
    R7        2.91018   0.01569   0.00000   0.04688   0.04688   2.95706
    R8        2.02201   0.02340   0.00000   0.05435   0.05435   2.07636
    R9        2.91018   0.01568   0.00000   0.04687   0.04687   2.95705
   R10        2.91018   0.01220   0.00000   0.03647   0.03647   2.94664
   R11        2.02201   0.01873   0.00000   0.04351   0.04351   2.06552
   R12        2.02201   0.01895   0.00000   0.04402   0.04402   2.06603
   R13        2.91018   0.00745   0.00000   0.02227   0.02227   2.93244
   R14        2.02201   0.01455   0.00000   0.03380   0.03380   2.05581
   R15        2.02201   0.01366   0.00000   0.03174   0.03174   2.05374
   R16        2.02201   0.01396   0.00000   0.03242   0.03242   2.05443
   R17        2.02201   0.01420   0.00000   0.03298   0.03298   2.05499
   R18        2.02201   0.01387   0.00000   0.03221   0.03221   2.05422
   R19        2.02201   0.01421   0.00000   0.03299   0.03299   2.05500
    A1        1.91063  -0.00425   0.00000  -0.01878  -0.01918   1.89146
    A2        1.91063  -0.00383   0.00000  -0.02129  -0.02139   1.88924
    A3        1.91063   0.00417   0.00000   0.02173   0.02146   1.93210
    A4        1.91063  -0.00429   0.00000  -0.02286  -0.02303   1.88760
    A5        1.91063   0.00536   0.00000   0.02813   0.02783   1.93847
    A6        1.91063   0.00285   0.00000   0.01306   0.01292   1.92355
    A7        1.91063  -0.00267   0.00000   0.00122   0.00022   1.91085
    A8        1.91063  -0.00449   0.00000  -0.02279  -0.02276   1.88788
    A9        1.91063   0.01268   0.00000   0.05740   0.05696   1.96760
   A10        1.91063   0.00015   0.00000  -0.02847  -0.02869   1.88195
   A11        1.91063  -0.00246   0.00000   0.00477   0.00397   1.91460
   A12        1.91063  -0.00321   0.00000  -0.01212  -0.01179   1.89885
   A13        1.91063  -0.00015   0.00000  -0.01505  -0.01540   1.89523
   A14        1.91063  -0.00491   0.00000  -0.02091  -0.02171   1.88893
   A15        1.91063   0.00358   0.00000   0.02810   0.02823   1.93887
   A16        1.91063  -0.00015   0.00000  -0.01506  -0.01541   1.89522
   A17        1.91063  -0.00194   0.00000  -0.00513  -0.00486   1.90577
   A18        1.91063   0.00357   0.00000   0.02804   0.02818   1.93881
   A19        1.91063  -0.00321   0.00000  -0.01211  -0.01177   1.89886
   A20        1.91063  -0.00246   0.00000   0.00478   0.00398   1.91461
   A21        1.91063   0.01267   0.00000   0.05736   0.05692   1.96756
   A22        1.91063   0.00015   0.00000  -0.02847  -0.02868   1.88195
   A23        1.91063  -0.00449   0.00000  -0.02279  -0.02275   1.88788
   A24        1.91063  -0.00267   0.00000   0.00123   0.00023   1.91086
   A25        1.91063   0.00536   0.00000   0.02815   0.02785   1.93849
   A26        1.91063   0.00285   0.00000   0.01307   0.01292   1.92356
   A27        1.91063   0.00417   0.00000   0.02171   0.02144   1.93207
   A28        1.91063  -0.00429   0.00000  -0.02286  -0.02303   1.88760
   A29        1.91063  -0.00425   0.00000  -0.01879  -0.01919   1.89144
   A30        1.91063  -0.00383   0.00000  -0.02128  -0.02138   1.88925
   A31        1.91063   0.00462   0.00000   0.02310   0.02283   1.93347
   A32        1.91063   0.00448   0.00000   0.02355   0.02325   1.93388
   A33        1.91063   0.00462   0.00000   0.02306   0.02279   1.93342
   A34        1.91063  -0.00440   0.00000  -0.02158  -0.02187   1.88876
   A35        1.91063  -0.00491   0.00000  -0.02654  -0.02676   1.88387
   A36        1.91063  -0.00440   0.00000  -0.02159  -0.02188   1.88875
    D1        3.13965   0.00269   0.00000   0.02997   0.03010  -3.11343
    D2       -1.04914  -0.00151   0.00000  -0.01812  -0.01788  -1.06702
    D3        1.04526  -0.00043   0.00000  -0.01177  -0.01190   1.03336
    D4        1.04526   0.00206   0.00000   0.02243   0.02242   1.06768
    D5        3.13965  -0.00214   0.00000  -0.02566  -0.02556   3.11409
    D6       -1.04914  -0.00106   0.00000  -0.01931  -0.01958  -1.06871
    D7       -1.04914   0.00229   0.00000   0.02520   0.02524  -1.02390
    D8        1.04526  -0.00191   0.00000  -0.02288  -0.02274   1.02252
    D9        3.13965  -0.00083   0.00000  -0.01653  -0.01676   3.12290
   D10       -1.04757   0.00068   0.00000   0.03325   0.03352  -1.01405
   D11        3.14122   0.00396   0.00000   0.07371   0.07368  -3.06828
   D12        1.04682   0.00040   0.00000   0.03496   0.03518   1.08201
   D13        3.14122  -0.00231   0.00000  -0.00631  -0.00636   3.13486
   D14        1.04682   0.00098   0.00000   0.03415   0.03379   1.08062
   D15       -1.04757  -0.00258   0.00000  -0.00460  -0.00470  -1.05227
   D16        1.04682   0.00098   0.00000   0.03306   0.03320   1.08002
   D17       -1.04757   0.00427   0.00000   0.07352   0.07336  -0.97421
   D18        3.14122   0.00070   0.00000   0.03478   0.03486  -3.10711
   D19        1.04712  -0.00427   0.00000  -0.07351  -0.07335   0.97377
   D20       -1.04728  -0.00098   0.00000  -0.03415  -0.03380  -1.08108
   D21        3.14151  -0.00397   0.00000  -0.07371  -0.07368   3.06783
   D22       -1.04728  -0.00098   0.00000  -0.03306  -0.03319  -1.08047
   D23        3.14151   0.00231   0.00000   0.00630   0.00635  -3.13532
   D24        1.04712  -0.00068   0.00000  -0.03326  -0.03353   1.01359
   D25        3.14151  -0.00070   0.00000  -0.03473  -0.03482   3.10669
   D26        1.04711   0.00259   0.00000   0.00462   0.00473   1.05185
   D27       -1.04728  -0.00040   0.00000  -0.03493  -0.03515  -1.08243
   D28       -1.04732  -0.00099   0.00000   0.00222   0.00245  -1.04487
   D29        1.04708  -0.00082   0.00000   0.00436   0.00461   1.05169
   D30        3.14147  -0.00064   0.00000   0.00646   0.00672  -3.13499
   D31        1.04708  -0.00018   0.00000  -0.00214  -0.00216   1.04492
   D32        3.14147   0.00000   0.00000   0.00000   0.00000   3.14147
   D33       -1.04732   0.00018   0.00000   0.00209   0.00211  -1.04520
   D34        3.14147   0.00064   0.00000  -0.00655  -0.00682   3.13466
   D35       -1.04732   0.00082   0.00000  -0.00441  -0.00466  -1.05197
   D36        1.04708   0.00099   0.00000  -0.00231  -0.00254   1.04454
   D37        1.04719   0.00106   0.00000   0.01935   0.01962   1.06681
   D38        3.14158   0.00083   0.00000   0.01660   0.01682  -3.12478
   D39       -1.04721   0.00043   0.00000   0.01183   0.01196  -1.03524
   D40        3.14158   0.00214   0.00000   0.02570   0.02560  -3.11600
   D41       -1.04721   0.00191   0.00000   0.02294   0.02280  -1.02440
   D42        1.04719   0.00152   0.00000   0.01818   0.01794   1.06513
   D43       -1.04721  -0.00206   0.00000  -0.02238  -0.02237  -1.06957
   D44        1.04719  -0.00229   0.00000  -0.02513  -0.02516   1.02202
   D45        3.14158  -0.00269   0.00000  -0.02989  -0.03002   3.11156
         Item               Value     Threshold  Converged?
 Maximum Force            0.023400     0.000450     NO 
 RMS     Force            0.007390     0.000300     NO 
 Maximum Displacement     0.338493     0.001800     NO 
 RMS     Displacement     0.096743     0.001200     NO 
 Predicted change in Energy=-1.006286D-02
 GradGradGradGradGradGradGradGradGradGradGradGradGradGradGradGradGradGrad

 Leave Link  103 at Sun Sep 13 11:19:12 2015, MaxMem=  671088640 cpu:       0.1
 (Enter /share/apps/g09/l202.exe)
                          Input orientation:                          
 ---------------------------------------------------------------------
 Center     Atomic      Atomic             Coordinates (Angstroms)
 Number     Number       Type             X           Y           Z
 ---------------------------------------------------------------------
      1          6           0       -3.635661    0.113344    0.026645
      2          1           0       -3.285822   -0.915867    0.010705
      3          1           0       -3.365444    0.582010   -0.917189
      4          1           0       -4.719832    0.103093    0.101404
      5          6           0       -3.022754    0.882514    1.226958
      6          1           0       -3.409409    1.905061    1.240567
      7          1           0       -3.345777    0.390326    2.147888
      8          6           0       -1.458584    0.910489    1.192158
      9          1           0       -1.089816   -0.124521    1.185906
     10          6           0       -0.952480    1.612459    2.495883
     11          1           0       -1.366402    1.088635    3.361321
     12          1           0       -1.315035    2.643509    2.523802
     13          6           0        0.594340    1.604187    2.619608
     14          1           0        1.055729    2.138154    1.791657
     15          1           0        0.899579    2.085479    3.544977
     16          1           0        0.974016    0.585493    2.624430
     17          6           0       -0.938777    1.647565   -0.079819
     18          1           0       -1.287537    1.151712   -0.982620
     19          1           0       -1.289218    2.676372   -0.100145
     20          1           0        0.148398    1.658235   -0.102242
 ---------------------------------------------------------------------
                    Distance matrix (angstroms):
                    1          2          3          4          5
     1  C    0.000000
     2  H    1.087160   0.000000
     3  H    1.087882   1.763792   0.000000
     4  H    1.086794   1.761502   1.761040   0.000000
     5  C    1.551782   2.186927   2.192054   2.180469   0.000000
     6  H    2.176016   3.079849   2.531463   2.502397   1.093293
     7  H    2.158801   2.505451   3.071127   2.481658   1.093026
     8  C    2.594903   2.840811   2.862404   3.532332   1.564807
     9  H    2.807453   2.613383   3.178156   3.795388   2.179920
    10  C    3.942580   4.244176   4.305029   4.712182   2.535552
    11  H    4.149794   4.350728   4.749577   4.779524   2.709519
    12  H    4.245330   4.782135   4.504927   4.890232   2.774745
    13  C    5.180635   5.311563   5.406816   6.069190   3.942544
    14  H    5.405947   5.598919   5.413520   6.352601   4.304595
    15  H    6.069297   6.246338   6.353090   6.882283   4.712221
    16  H    5.312300   5.218415   5.601248   6.246461   4.244445
    17  C    3.104569   3.476779   2.779443   4.088351   2.576029
    18  H    2.758715   3.042157   2.155583   3.749048   2.822353
    19  H    3.477209   4.111313   3.060167   4.293193   2.825646
    20  H    4.089304   4.293324   3.764238   5.114647   3.524872
                    6          7          8          9         10
     6  H    0.000000
     7  H    1.766834   0.000000
     8  C    2.190259   2.178413   0.000000
     9  H    3.082646   2.505960   1.098760   0.000000
    10  C    2.774516   2.709719   1.564801   2.179908   0.000000
    11  H    3.055818   2.424454   2.178417   2.506128   1.093026
    12  H    2.564839   3.056478   2.190260   3.082641   1.093293
    13  C    4.245266   4.149759   2.594865   2.807189   1.551782
    14  H    4.505051   4.749216   2.861526   3.176475   2.192074
    15  H    4.889809   4.780004   3.532320   3.795656   2.180474
    16  H    4.782337   4.350378   2.841578   2.613976   2.186908
    17  C    2.813138   3.512403   1.559297   2.182925   2.575978
    18  H    3.164244   3.823106   2.194791   2.523959   3.524846
    19  H    2.624431   3.809080   2.194784   3.088477   2.825715
    20  H    3.810781   4.345105   2.194764   2.524029   2.822106
                   11         12         13         14         15
    11  H    0.000000
    12  H    1.766836   0.000000
    13  C    2.158806   2.176025   0.000000
    14  H    3.071164   2.532181   1.087889   0.000000
    15  H    2.482357   2.501741   1.086794   1.761047   0.000000
    16  H    2.504738   3.079823   1.087158   1.763786   1.761506
    17  C    3.512365   2.812884   3.104712   2.778697   4.087844
    18  H    4.345115   3.810670   4.089284   3.763054   5.114150
    19  H    3.809017   2.624280   3.477705   3.060616   4.292657
    20  H    3.823001   3.163623   2.758669   2.154165   3.748202
                   16         17         18         19         20
    16  H    0.000000
    17  C    3.478467   0.000000
    18  H    4.294885   1.087452   0.000000
    19  H    4.113066   1.087045   1.761634   0.000000
    20  H    3.044202   1.087459   1.758846   1.761632   0.000000
 Stoichiometry    C6H14
 Framework group  C1[X(C6H14)]
 Deg. of freedom    54
 Full point group                 C1      NOp   1
 Largest Abelian subgroup         C1      NOp   1
 Largest concise Abelian subgroup C1      NOp   1
                         Standard orientation:                         
 ---------------------------------------------------------------------
 Center     Atomic      Atomic             Coordinates (Angstroms)
 Number     Number       Type             X           Y           Z
 ---------------------------------------------------------------------
      1          6           0       -2.590316   -0.121671   -0.265431
      2          1           0       -2.608846   -0.154309   -1.351943
      3          1           0       -2.707202    0.913331    0.048569
      4          1           0       -3.441073   -0.686462    0.106516
      5          6           0       -1.267754   -0.723742    0.278967
      6          1           0       -1.282369   -0.707342    1.372040
      7          1           0       -1.212216   -1.767921   -0.039326
      8          6           0        0.000022    0.030549   -0.242961
      9          1           0        0.000127   -0.002942   -1.341211
     10          6           0        1.267798   -0.723576    0.279189
     11          1           0        1.212238   -1.767871   -0.038719
     12          1           0        1.282470   -0.706772    1.372255
     13          6           0        2.590319   -0.121695   -0.265518
     14          1           0        2.706317    0.914016    0.046492
     15          1           0        3.441210   -0.685178    0.108100
     16          1           0        2.609568   -0.156472   -1.351949
     17          6           0       -0.000068    1.518118    0.224528
     18          1           0       -0.879389    2.039154   -0.146779
     19          1           0       -0.000297    1.581773    1.309708
     20          1           0        0.879457    2.039096   -0.146396
 ---------------------------------------------------------------------
 Rotational constants (GHZ):      6.5259551      1.8326027      1.5730431
 Leave Link  202 at Sun Sep 13 11:19:14 2015, MaxMem=  671088640 cpu:       0.0
 (Enter /share/apps/g09/l301.exe)
 Standard basis: VSTO-6G (5D, 7F)
 Ernie: Thresh=  0.10000D-02 Tol=  0.10000D-05 Strict=F.
  NNHCO=     0 NNPyr=     0 NCTC=     0               EPep=         0.000000000
    EC=       129.067575512  ECS=         3.255735146   EG=         0.299071131
   EHC=         0.000506325  EAt=       -31.187935768  AtH=         2.796400831
 EPDDG=         0.000000000  ECC=       132.622888114 EAtT=        33.984336599
 There are    38 symmetry adapted basis functions of A   symmetry.
 Integral buffers will be    131072 words long.
 Regular integral format.
 Two-electron integral symmetry is turned off.
    38 basis functions,   228 primitive gaussians,    38 cartesian basis functions
    19 alpha electrons       19 beta electrons
       nuclear repulsion energy       166.6072247134 Hartrees.
 IExCor=    0 DFT=F Ex=HF Corr=None ExCW=0 ScaHFX=  1.000000
 ScaDFX=  1.000000  1.000000  1.000000  1.000000 ScalE2=  1.000000  1.000000
 IRadAn=      0 IRanWt=     -1 IRanGd=            0 ICorTp=0
 Leave Link  301 at Sun Sep 13 11:19:14 2015, MaxMem=  671088640 cpu:       0.1
 (Enter /share/apps/g09/l302.exe)
 Do NDO integrals.
 NPDir=0 NMtPBC=     1 NCelOv=     1 NCel=       1 NClECP=     1 NCelD=      1
         NCelK=      1 NCelE2=     1 NClLst=     1 CellRange=     0.0.
 One-electron integrals computed using PRISM.
 NBasis=    38 RedAO= F  NBF=    38
 NBsUse=    38 1.00D-04 NBFU=    38
 Leave Link  302 at Sun Sep 13 11:19:14 2015, MaxMem=  671088640 cpu:       0.1
 (Enter /share/apps/g09/l303.exe)
 DipDrv:  MaxL=1.
 Leave Link  303 at Sun Sep 13 11:19:15 2015, MaxMem=  671088640 cpu:       0.0
 (Enter /share/apps/g09/l401.exe)
 Initial guess read from the read-write file.
 B after Tr=     0.000000    0.000000    0.000000
         Rot=    1.000000    0.000000    0.000000    0.000000 Ang=   0.00 deg.
 Guess basis will be translated and rotated to current coordinates.
 Initial guess orbital symmetries:
       Occupied  (A) (A) (A) (A) (A) (A) (A) (A) (A) (A) (A) (A)
                 (A) (A) (A) (A) (A) (A) (A)
       Virtual   (A) (A) (A) (A) (A) (A) (A) (A) (A) (A) (A) (A)
                 (A) (A) (A) (A) (A) (A) (A)
 The electronic state of the initial guess is 1-A.
 Leave Link  401 at Sun Sep 13 11:19:17 2015, MaxMem=  671088640 cpu:       0.2
 (Enter /share/apps/g09/l502.exe)
 Closed shell SCF:
 Requested convergence on RMS density matrix=1.00D-08 within 128 cycles.
 Requested convergence on MAX density matrix=1.00D-06.
 Requested convergence on             energy=1.00D-06.
 No special actions if energy rises.
 Using DIIS extrapolation, IDIIS=  1040.
 Overlap will be assumed to be unity.
 Two-electron integral symmetry not used.
 Keep J ints in memory in canonical form, NReq=884654.
 IEnd=       81865 IEndB=       81865 NGot=   671088640 MDV=   671022095
 LenX=   671022095 LenY=   671020210
 Symmetry not used in FoFDir.
 MinBra= 0 MaxBra= 1 Meth=40.
 IRaf=       0 NMat=   1 IRICut=       1 DoRegI=T DoRafI=F ISym2E= 0 JSym2E=0.

 Cycle   1  Pass 1  IDiag  1:
 E=-0.399192152017349E-01
 DIIS: error= 9.54D-03 at cycle   1 NSaved=   1.
 NSaved= 1 IEnMin= 1 EnMin=-0.399192152017349E-01 IErMin= 1 ErrMin= 9.54D-03
 ErrMax= 9.54D-03 EMaxC= 1.00D-01 BMatC= 3.17D-03 BMatP= 3.17D-03
 IDIUse=3 WtCom= 9.05D-01 WtEn= 9.54D-02
 Coeff-Com:  0.100D+01
 Coeff-En:   0.100D+01
 Coeff:      0.100D+01
 GapD=    2.000 DampG=2.000 DampE=1.000 DampFc=2.0000 IDamp=-1.
 RMSDP=2.75D-03 MaxDP=2.18D-02              OVMax= 0.00D+00

 Cycle   2  Pass 1  IDiag  3:
 E=-0.514582846590201E-01 Delta-E=       -0.011539069457 Rises=F Damp=F
 DIIS: error= 4.18D-03 at cycle   2 NSaved=   2.
 NSaved= 2 IEnMin= 2 EnMin=-0.514582846590201E-01 IErMin= 2 ErrMin= 4.18D-03
 ErrMax= 4.18D-03 EMaxC= 1.00D-01 BMatC= 5.23D-04 BMatP= 3.17D-03
 IDIUse=3 WtCom= 9.58D-01 WtEn= 4.18D-02
 Coeff-Com: -0.618D+00 0.162D+01
 Coeff-En:   0.000D+00 0.100D+01
 Coeff:     -0.592D+00 0.159D+01
 Gap=     0.554 Goal=   None    Shift=    0.000
 RMSDP=1.88D-03 MaxDP=1.53D-02 DE=-1.15D-02 OVMax= 0.00D+00

 Cycle   3  Pass 1  IDiag  3:
 E=-0.539813995333418E-01 Delta-E=       -0.002523114874 Rises=F Damp=F
 DIIS: error= 4.77D-04 at cycle   3 NSaved=   3.
 NSaved= 3 IEnMin= 3 EnMin=-0.539813995333418E-01 IErMin= 3 ErrMin= 4.77D-04
 ErrMax= 4.77D-04 EMaxC= 1.00D-01 BMatC= 8.12D-06 BMatP= 5.23D-04
 IDIUse=3 WtCom= 9.95D-01 WtEn= 4.77D-03
 Coeff-Com:  0.193D+00-0.592D+00 0.140D+01
 Coeff-En:   0.000D+00 0.000D+00 0.100D+01
 Coeff:      0.192D+00-0.589D+00 0.140D+01
 Gap=     0.554 Goal=   None    Shift=    0.000
 RMSDP=2.55D-04 MaxDP=1.93D-03 DE=-2.52D-03 OVMax= 0.00D+00

 Cycle   4  Pass 1  IDiag  3:
 E=-0.540208928338757E-01 Delta-E=       -0.000039493301 Rises=F Damp=F
 DIIS: error= 2.24D-05 at cycle   4 NSaved=   4.
 NSaved= 4 IEnMin= 4 EnMin=-0.540208928338757E-01 IErMin= 4 ErrMin= 2.24D-05
 ErrMax= 2.24D-05 EMaxC= 1.00D-01 BMatC= 6.56D-08 BMatP= 8.12D-06
 IDIUse=1 WtCom= 1.00D+00 WtEn= 0.00D+00
 Coeff-Com: -0.650D-01 0.201D+00-0.505D+00 0.137D+01
 Coeff:     -0.650D-01 0.201D+00-0.505D+00 0.137D+01
 Gap=     0.554 Goal=   None    Shift=    0.000
 RMSDP=1.90D-05 MaxDP=9.83D-05 DE=-3.95D-05 OVMax= 0.00D+00

 Cycle   5  Pass 1  IDiag  3:
 E=-0.540211884555220E-01 Delta-E=       -0.000000295622 Rises=F Damp=F
 DIIS: error= 6.76D-06 at cycle   5 NSaved=   5.
 NSaved= 5 IEnMin= 5 EnMin=-0.540211884555220E-01 IErMin= 5 ErrMin= 6.76D-06
 ErrMax= 6.76D-06 EMaxC= 1.00D-01 BMatC= 3.39D-09 BMatP= 6.56D-08
 IDIUse=1 WtCom= 1.00D+00 WtEn= 0.00D+00
 Coeff-Com:  0.251D-01-0.778D-01 0.199D+00-0.661D+00 0.151D+01
 Coeff:      0.251D-01-0.778D-01 0.199D+00-0.661D+00 0.151D+01
 Gap=     0.554 Goal=   None    Shift=    0.000
 RMSDP=5.18D-06 MaxDP=3.10D-05 DE=-2.96D-07 OVMax= 0.00D+00

 Cycle   6  Pass 1  IDiag  3:
 E=-0.540212070945074E-01 Delta-E=       -0.000000018639 Rises=F Damp=F
 DIIS: error= 1.60D-06 at cycle   6 NSaved=   6.
 NSaved= 6 IEnMin= 6 EnMin=-0.540212070945074E-01 IErMin= 6 ErrMin= 1.60D-06
 ErrMax= 1.60D-06 EMaxC= 1.00D-01 BMatC= 1.83D-10 BMatP= 3.39D-09
 IDIUse=1 WtCom= 1.00D+00 WtEn= 0.00D+00
 Coeff-Com: -0.728D-02 0.225D-01-0.582D-01 0.208D+00-0.627D+00 0.146D+01
 Coeff:     -0.728D-02 0.225D-01-0.582D-01 0.208D+00-0.627D+00 0.146D+01
 Gap=     0.554 Goal=   None    Shift=    0.000
 RMSDP=1.28D-06 MaxDP=1.02D-05 DE=-1.86D-08 OVMax= 0.00D+00

 Cycle   7  Pass 1  IDiag  3:
 E=-0.540212081981792E-01 Delta-E=       -0.000000001104 Rises=F Damp=F
 DIIS: error= 6.62D-07 at cycle   7 NSaved=   7.
 NSaved= 7 IEnMin= 7 EnMin=-0.540212081981792E-01 IErMin= 7 ErrMin= 6.62D-07
 ErrMax= 6.62D-07 EMaxC= 1.00D-01 BMatC= 1.61D-11 BMatP= 1.83D-10
 IDIUse=1 WtCom= 1.00D+00 WtEn= 0.00D+00
 Coeff-Com:  0.142D-02-0.439D-02 0.115D-01-0.459D-01 0.164D+00-0.605D+00
 Coeff-Com:  0.148D+01
 Coeff:      0.142D-02-0.439D-02 0.115D-01-0.459D-01 0.164D+00-0.605D+00
 Coeff:      0.148D+01
 Gap=     0.554 Goal=   None    Shift=    0.000
 RMSDP=3.99D-07 MaxDP=4.48D-06 DE=-1.10D-09 OVMax= 0.00D+00

 Cycle   8  Pass 1  IDiag  3:
 E=-0.540212083059259E-01 Delta-E=       -0.000000000108 Rises=F Damp=F
 DIIS: error= 3.00D-07 at cycle   8 NSaved=   8.
 NSaved= 8 IEnMin= 8 EnMin=-0.540212083059259E-01 IErMin= 8 ErrMin= 3.00D-07
 ErrMax= 3.00D-07 EMaxC= 1.00D-01 BMatC= 2.03D-12 BMatP= 1.61D-11
 IDIUse=1 WtCom= 1.00D+00 WtEn= 0.00D+00
 Coeff-Com: -0.270D-03 0.830D-03-0.229D-02 0.115D-01-0.489D-01 0.248D+00
 Coeff-Com: -0.963D+00 0.175D+01
 Coeff:     -0.270D-03 0.830D-03-0.229D-02 0.115D-01-0.489D-01 0.248D+00
 Coeff:     -0.963D+00 0.175D+01
 Gap=     0.554 Goal=   None    Shift=    0.000
 RMSDP=1.78D-07 MaxDP=2.23D-06 DE=-1.08D-10 OVMax= 0.00D+00

 Cycle   9  Pass 1  IDiag  3:
 E=-0.540212083213021E-01 Delta-E=       -0.000000000015 Rises=F Damp=F
 DIIS: error= 6.84D-08 at cycle   9 NSaved=   9.
 NSaved= 9 IEnMin= 9 EnMin=-0.540212083213021E-01 IErMin= 9 ErrMin= 6.84D-08
 ErrMax= 6.84D-08 EMaxC= 1.00D-01 BMatC= 1.25D-13 BMatP= 2.03D-12
 IDIUse=1 WtCom= 1.00D+00 WtEn= 0.00D+00
 Coeff-Com:  0.469D-04-0.142D-03 0.438D-03-0.323D-02 0.164D-01-0.101D+00
 Coeff-Com:  0.451D+00-0.995D+00 0.163D+01
 Coeff:      0.469D-04-0.142D-03 0.438D-03-0.323D-02 0.164D-01-0.101D+00
 Coeff:      0.451D+00-0.995D+00 0.163D+01
 Gap=     0.554 Goal=   None    Shift=    0.000
 RMSDP=4.10D-08 MaxDP=5.35D-07 DE=-1.54D-11 OVMax= 0.00D+00

 Cycle  10  Pass 1  IDiag  3:
 E=-0.540212083219842E-01 Delta-E=       -0.000000000001 Rises=F Damp=F
 DIIS: error= 1.50D-08 at cycle  10 NSaved=  10.
 NSaved=10 IEnMin=10 EnMin=-0.540212083219842E-01 IErMin=10 ErrMin= 1.50D-08
 ErrMax= 1.50D-08 EMaxC= 1.00D-01 BMatC= 1.49D-14 BMatP= 1.25D-13
 IDIUse=1 WtCom= 1.00D+00 WtEn= 0.00D+00
 Coeff-Com: -0.341D-05 0.860D-05-0.662D-04 0.127D-02-0.787D-02 0.559D-01
 Coeff-Com: -0.267D+00 0.624D+00-0.127D+01 0.186D+01
 Coeff:     -0.341D-05 0.860D-05-0.662D-04 0.127D-02-0.787D-02 0.559D-01
 Coeff:     -0.267D+00 0.624D+00-0.127D+01 0.186D+01
 Gap=     0.554 Goal=   None    Shift=    0.000
 RMSDP=1.56D-08 MaxDP=1.40D-07 DE=-6.82D-13 OVMax= 0.00D+00

 Cycle  11  Pass 1  IDiag  3:
 E=-0.540212083220979E-01 Delta-E=        0.000000000000 Rises=F Damp=F
 DIIS: error= 4.21D-09 at cycle  11 NSaved=  11.
 NSaved=11 IEnMin=11 EnMin=-0.540212083220979E-01 IErMin=11 ErrMin= 4.21D-09
 ErrMax= 4.21D-09 EMaxC= 1.00D-01 BMatC= 1.36D-15 BMatP= 1.49D-14
 IDIUse=1 WtCom= 1.00D+00 WtEn= 0.00D+00
 Coeff-Com:  0.109D-05-0.249D-05 0.259D-04-0.552D-03 0.343D-02-0.246D-01
 Coeff-Com:  0.118D+00-0.279D+00 0.598D+00-0.114D+01 0.173D+01
 Coeff:      0.109D-05-0.249D-05 0.259D-04-0.552D-03 0.343D-02-0.246D-01
 Coeff:      0.118D+00-0.279D+00 0.598D+00-0.114D+01 0.173D+01
 Gap=     0.554 Goal=   None    Shift=    0.000
 RMSDP=5.23D-09 MaxDP=4.89D-08 DE=-1.14D-13 OVMax= 0.00D+00

 Cycle  12  Pass 2  IDiag  1:
 RMSDP=5.23D-09 MaxDP=4.89D-08 DE=-1.14D-13 OVMax= 0.00D+00

 SCF Done:  E(RPM6) = -0.540212083221E-01 A.U. after   12 cycles
             Convg  =    0.5228D-08             -V/T =  0.9990
 KE=-5.623397161649D+01 PE=-2.540489935270D+02 EE= 1.436217192219D+02
 Leave Link  502 at Sun Sep 13 11:19:18 2015, MaxMem=  671088640 cpu:       0.4
 (Enter /share/apps/g09/l701.exe)
 Compute integral first derivatives.
 ... and contract with generalized density number  0.
 Leave Link  701 at Sun Sep 13 11:19:18 2015, MaxMem=  671088640 cpu:       0.1
 (Enter /share/apps/g09/l702.exe)
 L702 exits ... SP integral derivatives will be done elsewhere.
 Leave Link  702 at Sun Sep 13 11:19:23 2015, MaxMem=  671088640 cpu:       0.0
 (Enter /share/apps/g09/l703.exe)
 Compute integral first derivatives, UseDBF=F ICtDFT=           0.
 Integral derivatives from FoFDir, PRISM(SPDF).
 Calling FoFJK, ICntrl=      2127 FMM=F ISym2X=0 I1Cent= 0 IOpClX= 0 NMat=1 NMatS=1 NMatT=0.
 FoFCou: FMM=F IPFlag=           0 FMFlag=      100000 FMFlg1=         800
         NFxFlg=           0 DoJE=F BraDBF=F KetDBF=F FulRan=T
         Omega=  0.000000  0.000000  1.000000  0.000000  0.000000 ICntrl=    2127 IOpCl=  0
         NMat0=    1 NMatS0=    1 NMatT0=    0 NMatD0=    1 NMtDS0=    0 NMtDT0=    0
         I1Cent=           0 NGrid=           0.
 Symmetry not used in FoFCou.
 Leave Link  703 at Sun Sep 13 11:19:24 2015, MaxMem=  671088640 cpu:       0.1
 (Enter /share/apps/g09/l716.exe)
 Dipole        = 4.96086438D-06 1.10118509D-02 2.90610996D-03
 ***** Axes restored to original set *****
 -------------------------------------------------------------------
 Center     Atomic                   Forces (Hartrees/Bohr)
 Number     Number              X              Y              Z
 -------------------------------------------------------------------
      1        6           0.007920234    0.008657325    0.013601720
      2        1           0.001072973   -0.003469398   -0.000839217
      3        1           0.000712372    0.001089239   -0.003126003
      4        1          -0.003861332   -0.000290868   -0.000212667
      5        6           0.010419850   -0.008890380   -0.015554478
      6        1          -0.001901093    0.004416509    0.000337819
      7        1          -0.002108315   -0.001095826    0.005868830
      8        6          -0.004884151    0.017547469   -0.002130796
      9        1           0.002710306   -0.005448448   -0.001289865
     10        6           0.013418545   -0.007839622   -0.013710289
     11        1          -0.003578906   -0.001609642    0.004968969
     12        1          -0.001717184    0.004481065    0.000447170
     13        6          -0.017824581   -0.000413877   -0.002179087
     14        1           0.001804951    0.001470131   -0.002457036
     15        1           0.001597926    0.001637895    0.003130579
     16        1           0.001958820   -0.003159140   -0.000290980
     17        6          -0.006814829   -0.008820596    0.016189334
     18        1          -0.001157994   -0.001433046   -0.002519942
     19        1          -0.000886986    0.003094293   -0.000335018
     20        1           0.003119394    0.000076918    0.000100957
 -------------------------------------------------------------------
 Cartesian Forces:  Max     0.017824581 RMS     0.006458982
 Leave Link  716 at Sun Sep 13 11:19:25 2015, MaxMem=  671088640 cpu:       0.0
 (Enter /share/apps/g09/l103.exe)

 GradGradGradGradGradGradGradGradGradGradGradGradGradGradGradGradGradGrad
 Berny optimization.
 Using GEDIIS/GDIIS optimizer.
 Internal  Forces:  Max     0.016221179 RMS     0.003417336
 Search for a local minimum.
 Step number   2 out of a maximum of  110
 All quantities printed in internal units (Hartrees-Bohrs-Radians)
 RMS Force = .34173D-02 SwitMx=.10000D-02 MixMth= 1
 Mixed Optimization -- RFO/linear search
 Update second derivatives using D2CorX and points    1    2
 DE= -8.09D-03 DEPred=-1.01D-02 R= 8.04D-01
 SS=  1.41D+00  RLast= 3.00D-01 DXNew= 5.0454D-01 8.9989D-01
 Trust test= 8.04D-01 RLast= 3.00D-01 DXMaxT set to 5.05D-01
 Use linear search instead of GDIIS.
     Eigenvalues ---    0.00237   0.00237   0.00237   0.00237   0.00244
     Eigenvalues ---    0.03466   0.03514   0.03726   0.04475   0.04782
     Eigenvalues ---    0.04797   0.04935   0.05453   0.05461   0.05468
     Eigenvalues ---    0.05485   0.05545   0.05548   0.08238   0.08246
     Eigenvalues ---    0.12151   0.12153   0.15290   0.16000   0.16000
     Eigenvalues ---    0.16000   0.16000   0.16000   0.16000   0.16000
     Eigenvalues ---    0.16024   0.16074   0.16626   0.21644   0.21961
     Eigenvalues ---    0.26956   0.28519   0.28519   0.28519   0.29109
     Eigenvalues ---    0.37186   0.37230   0.37230   0.37230   0.37230
     Eigenvalues ---    0.37230   0.37230   0.37230   0.37230   0.37230
     Eigenvalues ---    0.37230   0.37230   0.37230   0.472431000.00000
     Eigenvalues --- 1000.000001000.000001000.000001000.000001000.00000
     Eigenvalues --- 1000.000001000.000001000.000001000.000001000.00000
     Eigenvalues --- 1000.000001000.000001000.000001000.000001000.00000
     Eigenvalues --- 1000.000001000.000001000.000001000.000001000.00000
     Eigenvalues --- 1000.000001000.000001000.000001000.000001000.00000
     Eigenvalues --- 1000.000001000.000001000.000001000.000001000.00000
     Eigenvalues --- 1000.000001000.000001000.000001000.000001000.00000
     Eigenvalues --- 1000.000001000.000001000.000001000.000001000.00000
     Eigenvalues --- 1000.000001000.000001000.000001000.000001000.00000
 RFO step:  Lambda=-4.03691864D-03 EMin= 2.36822098D-03
 Quartic linear search produced a step of -0.00185.
 Iteration  1 RMS(Cart)=  0.03882076 RMS(Int)=  0.00052480
 Iteration  2 RMS(Cart)=  0.00070554 RMS(Int)=  0.00001266
 Iteration  3 RMS(Cart)=  0.00000030 RMS(Int)=  0.00001266
 Variable       Old X    -DE/DX   Delta X   Delta X   Delta X     New X
                                 (Linear)    (Quad)   (Total)
    R1        2.05444   0.00364  -0.00006   0.01649   0.01643   2.07087
    R2        2.05580   0.00336  -0.00006   0.01604   0.01597   2.07177
    R3        2.05374   0.00384  -0.00006   0.01686   0.01681   2.07055
    R4        2.93244  -0.01256  -0.00004  -0.03820  -0.03824   2.89420
    R5        2.06603   0.00481  -0.00008   0.02203   0.02195   2.08797
    R6        2.06552   0.00606  -0.00008   0.02521   0.02513   2.09065
    R7        2.95706  -0.01226  -0.00009  -0.03190  -0.03199   2.92507
    R8        2.07636   0.00605  -0.00010   0.02750   0.02739   2.10375
    R9        2.95705  -0.01225  -0.00009  -0.03188  -0.03197   2.92508
   R10        2.94664  -0.01622  -0.00007  -0.04767  -0.04774   2.89890
   R11        2.06552   0.00606  -0.00008   0.02521   0.02513   2.09065
   R12        2.06603   0.00481  -0.00008   0.02203   0.02194   2.08797
   R13        2.93244  -0.01256  -0.00004  -0.03820  -0.03824   2.89420
   R14        2.05581   0.00336  -0.00006   0.01604   0.01597   2.07179
   R15        2.05374   0.00384  -0.00006   0.01686   0.01680   2.07055
[...]
 ! D11   D(1,5,8,10)          -166.3337         -DE/DX =    0.0                 !
 ! D12   D(1,5,8,17)            70.6699         -DE/DX =    0.0                 !
 ! D13   D(6,5,8,9)           -170.9333         -DE/DX =    0.0                 !
 ! D14   D(6,5,8,10)            70.9962         -DE/DX =    0.0                 !
 ! D15   D(6,5,8,17)           -52.0003         -DE/DX =    0.0                 !
 ! D16   D(7,5,8,9)             73.3607         -DE/DX =    0.0                 !
 ! D17   D(7,5,8,10)           -44.7098         -DE/DX =    0.0                 !
 ! D18   D(7,5,8,17)          -167.7063         -DE/DX =    0.0                 !
 ! D19   D(5,8,10,11)           44.7059         -DE/DX =    0.0                 !
 ! D20   D(5,8,10,12)          -71.0001         -DE/DX =    0.0                 !
 ! D21   D(5,8,10,13)          166.3298         -DE/DX =    0.0                 !
 ! D22   D(9,8,10,11)          -73.3645         -DE/DX =    0.0                 !
 ! D23   D(9,8,10,12)          170.9294         -DE/DX =    0.0                 !
 ! D24   D(9,8,10,13)           48.2593         -DE/DX =    0.0                 !
 ! D25   D(17,8,10,11)         167.7026         -DE/DX =    0.0                 !
 ! D26   D(17,8,10,12)          51.9965         -DE/DX =    0.0                 !
 ! D27   D(17,8,10,13)         -70.6736         -DE/DX =    0.0                 !
 ! D28   D(5,8,17,18)          -58.9845         -DE/DX =    0.0                 !
 ! D29   D(5,8,17,19)           61.0891         -DE/DX =    0.0                 !
 ! D30   D(5,8,17,20)         -178.8373         -DE/DX =    0.0                 !
 ! D31   D(9,8,17,18)           59.9226         -DE/DX =    0.0                 !
 ! D32   D(9,8,17,19)          179.9962         -DE/DX =    0.0                 !
 ! D33   D(9,8,17,20)          -59.9302         -DE/DX =    0.0                 !
 ! D34   D(10,8,17,18)         178.8297         -DE/DX =    0.0                 !
 ! D35   D(10,8,17,19)         -61.0967         -DE/DX =    0.0                 !
 ! D36   D(10,8,17,20)          58.9769         -DE/DX =    0.0                 !
 ! D37   D(8,10,13,14)          61.1021         -DE/DX =    0.0                 !
 ! D38   D(8,10,13,15)        -179.0171         -DE/DX =    0.0                 !
 ! D39   D(8,10,13,16)         -59.0219         -DE/DX =    0.0                 !
 ! D40   D(11,10,13,14)       -177.0333         -DE/DX =    0.0                 !
 ! D41   D(11,10,13,15)        -57.1525         -DE/DX =    0.0                 !
 ! D42   D(11,10,13,16)         62.8427         -DE/DX =    0.0                 !
 ! D43   D(12,10,13,14)        -61.5531         -DE/DX =    0.0                 !
 ! D44   D(12,10,13,15)         58.3277         -DE/DX =    0.0                 !
 ! D45   D(12,10,13,16)        178.3229         -DE/DX =    0.0                 !
 --------------------------------------------------------------------------------
 GradGradGradGradGradGradGradGradGradGradGradGradGradGradGradGradGradGrad

 Largest change from initial coordinates is atom    3       0.157 Angstoms.
 Leave Link  103 at Sun Sep 13 11:20:41 2015, MaxMem=  671088640 cpu:       0.0
 (Enter /share/apps/g09/l202.exe)
                          Input orientation:                          
 ---------------------------------------------------------------------
 Center     Atomic      Atomic             Coordinates (Angstroms)
 Number     Number       Type             X           Y           Z
 ---------------------------------------------------------------------
      1          6           0       -3.573731    0.007194    0.104077
      2          1           0       -3.186360   -1.014054    0.192696
      3          1           0       -3.319356    0.367785   -0.899406
      4          1           0       -4.666154   -0.048113    0.165869
      5          6           0       -3.006652    0.919630    1.189036
      6          1           0       -3.439286    1.933488    1.090481
      7          1           0       -3.331666    0.549345    2.181195
      8          6           0       -1.464004    1.002777    1.147902
      9          1           0       -1.057105   -0.036060    1.081511
     10          6           0       -0.944275    1.646652    2.453151
     11          1           0       -1.472793    1.204698    3.320602
     12          1           0       -1.195988    2.724280    2.465420
     13          6           0        0.560339    1.464443    2.638068
     14          1           0        1.126215    1.934707    1.825449
     15          1           0        0.900027    1.914043    3.577608
     16          1           0        0.838724    0.404784    2.660039
     17          6           0       -0.988247    1.788471   -0.080149
     18          1           0       -1.337546    1.323206   -1.008076
     19          1           0       -1.357882    2.819043   -0.069935
     20          1           0        0.105256    1.831930   -0.123647
 ---------------------------------------------------------------------
                    Distance matrix (angstroms):
                    1          2          3          4          5
     1  C    0.000000
     2  H    1.095836   0.000000
     3  H    1.096226   1.766311   0.000000
     4  H    1.095566   1.767357   1.766819   0.000000
     5  C    1.526845   2.182687   2.182638   2.176544   0.000000
     6  H    2.168335   3.091600   2.534849   2.507360   1.106703
     7  H    2.160311   2.533665   3.085972   2.489850   1.107757
     8  C    2.555720   2.818960   2.834963   3.510345   1.545434
     9  H    2.700121   2.506031   3.033958   3.723409   2.173853
    10  C    3.888446   4.149212   4.303040   4.685752   2.525856
    11  H    4.024176   4.200353   4.681740   4.660411   2.641507
    12  H    4.314181   4.806454   4.624264   5.001615   2.857345
    13  C    5.063124   5.114738   5.363619   5.976271   3.888436
    14  H    5.363574   5.473516   5.444555   6.343289   4.303021
    15  H    5.976286   6.060523   6.343324   6.817066   4.685752
    16  H    5.114761   4.929725   5.473632   6.060502   4.149197
    17  C    3.145094   3.572155   2.850192   4.118320   2.537651
    18  H    2.822994   3.212904   2.202773   3.786594   2.788564
    19  H    3.584238   4.254990   3.247163   4.384159   2.812689
    20  H    4.112963   4.362847   3.804404   5.136607   3.498485
                    6          7          8          9         10
     6  H    0.000000
     7  H    1.765529   0.000000
     8  C    2.184321   2.182077   0.000000
     9  H    3.090952   2.593383   1.117657   0.000000
    10  C    2.857311   2.641531   1.545435   2.173856   0.000000
    11  H    3.061318   2.276653   2.182080   2.593416   1.107757
    12  H    2.747398   3.061413   2.184321   3.090950   1.106703
    13  C    4.314166   4.024158   2.555718   2.700093   1.526845
    14  H    4.624281   4.681719   2.834925   3.033851   2.182639
    15  H    5.001581   4.660429   3.510345   3.723408   2.176545
    16  H    4.806435   4.200279   2.818991   2.506045   2.182687
    17  C    2.720110   3.484355   1.533548   2.164049   2.537648
    18  H    3.032111   3.840160   2.183325   2.508511   3.498482
    19  H    2.542247   3.756986   2.189341   3.093204   2.812746
    20  H    3.748093   4.332408   2.183325   2.508561   2.788500
                   11         12         13         14         15
    11  H    0.000000
    12  H    1.765527   0.000000
    13  C    2.160311   2.168336   0.000000
    14  H    3.085974   2.534879   1.096226   0.000000
    15  H    2.489878   2.507334   1.095565   1.766819   0.000000
    16  H    2.533637   3.091600   1.095836   1.766311   1.767357
    17  C    3.484348   2.720077   3.145126   2.850200   4.118317
    18  H    4.332411   3.748096   4.112941   3.804329   5.136567
    19  H    3.757001   2.542286   3.584382   3.247348   4.384262
    20  H    3.840118   3.031962   2.822980   2.202702   3.786515
                   16         17         18         19         20
    16  H    0.000000
    17  C    3.572260   0.000000
    18  H    4.362880   1.095230   0.000000
    19  H    4.255172   1.094904   1.765800   0.000000
    20  H    3.213040   1.095231   1.767115   1.765800   0.000000
 Stoichiometry    C6H14
 Framework group  C1[X(C6H14)]
 Deg. of freedom    54
 Full point group                 C1      NOp   1
 Largest Abelian subgroup         C1      NOp   1
 Largest concise Abelian subgroup C1      NOp   1
                         Standard orientation:                         
 ---------------------------------------------------------------------
 Center     Atomic      Atomic             Coordinates (Angstroms)
 Number     Number       Type             X           Y           Z
 ---------------------------------------------------------------------
      1          6           0       -2.531560   -0.223903   -0.368469
      2          1           0       -2.464851   -0.438845   -1.440946
      3          1           0       -2.722300    0.850259   -0.261207
      4          1           0       -3.408522   -0.753400    0.019908
      5          6           0       -1.262921   -0.645275    0.369268
      6          1           0       -1.373687   -0.443068    1.451689
      7          1           0       -1.138316   -1.742352    0.279703
      8          6           0        0.000003    0.064394   -0.169026
      9          1           0        0.000014   -0.014629   -1.283886
     10          6           0        1.262935   -0.645242    0.369295
     11          1           0        1.138336   -1.742325    0.279794
     12          1           0        1.373711   -0.442974    1.451703
     13          6           0        2.531563   -0.223903   -0.368480
     14          1           0        2.722255    0.850281   -0.261345
     15          1           0        3.408544   -0.753315    0.019968
     16          1           0        2.464873   -0.438976   -1.440932
     17          6           0       -0.000017    1.550106    0.211009
     18          1           0       -0.883542    2.060878   -0.186515
     19          1           0       -0.000097    1.690544    1.296869
     20          1           0        0.883572    2.060869   -0.186384
 ---------------------------------------------------------------------
 Rotational constants (GHZ):      6.2716201      1.8700772      1.6213607
 Leave Link  202 at Sun Sep 13 11:20:42 2015, MaxMem=  671088640 cpu:       0.0
 (Enter /share/apps/g09/l601.exe)
 Copying SCF densities to generalized density rwf, IOpCl= 0 IROHF=0.

 **********************************************************************

            Population analysis using the SCF density.

 **********************************************************************

 Orbital symmetries:
       Occupied  (A) (A) (A) (A) (A) (A) (A) (A) (A) (A) (A) (A)
                 (A) (A) (A) (A) (A) (A) (A)
       Virtual   (A) (A) (A) (A) (A) (A) (A) (A) (A) (A) (A) (A)
                 (A) (A) (A) (A) (A) (A) (A)
 The electronic state is 1-A.
 Alpha  occ. eigenvalues --   -1.06408  -0.97887  -0.91119  -0.84287  -0.75442
 Alpha  occ. eigenvalues --   -0.70782  -0.58111  -0.56971  -0.53837  -0.52592
 Alpha  occ. eigenvalues --   -0.49814  -0.48733  -0.47275  -0.45862  -0.45630
 Alpha  occ. eigenvalues --   -0.42574  -0.40991  -0.40680  -0.40508
 Alpha virt. eigenvalues --    0.15293   0.15706   0.16906   0.17810   0.18451
 Alpha virt. eigenvalues --    0.21201   0.21227   0.22022   0.22078   0.22335
 Alpha virt. eigenvalues --    0.22722   0.23158   0.23164   0.23675   0.24618
 Alpha virt. eigenvalues --    0.24822   0.25443   0.25735   0.26464
          Condensed to atoms (all electrons):
              1          2          3          4          5          6
     1  C    4.454430   0.000000   0.000000   0.000000   0.000000   0.000000
     2  H    0.000000   0.855355   0.000000   0.000000   0.000000   0.000000
     3  H    0.000000   0.000000   0.853709   0.000000   0.000000   0.000000
     4  H    0.000000   0.000000   0.000000   0.858411   0.000000   0.000000
     5  C    0.000000   0.000000   0.000000   0.000000   4.262918   0.000000
     6  H    0.000000   0.000000   0.000000   0.000000   0.000000   0.868883
     7  H    0.000000   0.000000   0.000000   0.000000   0.000000   0.000000
     8  C    0.000000   0.000000   0.000000   0.000000   0.000000   0.000000
     9  H    0.000000   0.000000   0.000000   0.000000   0.000000   0.000000
    10  C    0.000000   0.000000   0.000000   0.000000   0.000000   0.000000
    11  H    0.000000   0.000000   0.000000   0.000000   0.000000   0.000000
    12  H    0.000000   0.000000   0.000000   0.000000   0.000000   0.000000
    13  C    0.000000   0.000000   0.000000   0.000000   0.000000   0.000000
    14  H    0.000000   0.000000   0.000000   0.000000   0.000000   0.000000
    15  H    0.000000   0.000000   0.000000   0.000000   0.000000   0.000000
    16  H    0.000000   0.000000   0.000000   0.000000   0.000000   0.000000
    17  C    0.000000   0.000000   0.000000   0.000000   0.000000   0.000000
    18  H    0.000000   0.000000   0.000000   0.000000   0.000000   0.000000
    19  H    0.000000   0.000000   0.000000   0.000000   0.000000   0.000000
    20  H    0.000000   0.000000   0.000000   0.000000   0.000000   0.000000
              7          8          9         10         11         12
     1  C    0.000000   0.000000   0.000000   0.000000   0.000000   0.000000
     2  H    0.000000   0.000000   0.000000   0.000000   0.000000   0.000000
     3  H    0.000000   0.000000   0.000000   0.000000   0.000000   0.000000
     4  H    0.000000   0.000000   0.000000   0.000000   0.000000   0.000000
     5  C    0.000000   0.000000   0.000000   0.000000   0.000000   0.000000
     6  H    0.000000   0.000000   0.000000   0.000000   0.000000   0.000000
     7  H    0.872549   0.000000   0.000000   0.000000   0.000000   0.000000
     8  C    0.000000   4.018938   0.000000   0.000000   0.000000   0.000000
     9  H    0.000000   0.000000   0.883219   0.000000   0.000000   0.000000
    10  C    0.000000   0.000000   0.000000   4.262918   0.000000   0.000000
    11  H    0.000000   0.000000   0.000000   0.000000   0.872549   0.000000
    12  H    0.000000   0.000000   0.000000   0.000000   0.000000   0.868883
    13  C    0.000000   0.000000   0.000000   0.000000   0.000000   0.000000
    14  H    0.000000   0.000000   0.000000   0.000000   0.000000   0.000000
    15  H    0.000000   0.000000   0.000000   0.000000   0.000000   0.000000
    16  H    0.000000   0.000000   0.000000   0.000000   0.000000   0.000000
    17  C    0.000000   0.000000   0.000000   0.000000   0.000000   0.000000
    18  H    0.000000   0.000000   0.000000   0.000000   0.000000   0.000000
    19  H    0.000000   0.000000   0.000000   0.000000   0.000000   0.000000
    20  H    0.000000   0.000000   0.000000   0.000000   0.000000   0.000000
             13         14         15         16         17         18
     1  C    0.000000   0.000000   0.000000   0.000000   0.000000   0.000000
     2  H    0.000000   0.000000   0.000000   0.000000   0.000000   0.000000
     3  H    0.000000   0.000000   0.000000   0.000000   0.000000   0.000000
     4  H    0.000000   0.000000   0.000000   0.000000   0.000000   0.000000
     5  C    0.000000   0.000000   0.000000   0.000000   0.000000   0.000000
     6  H    0.000000   0.000000   0.000000   0.000000   0.000000   0.000000
     7  H    0.000000   0.000000   0.000000   0.000000   0.000000   0.000000
     8  C    0.000000   0.000000   0.000000   0.000000   0.000000   0.000000
     9  H    0.000000   0.000000   0.000000   0.000000   0.000000   0.000000
    10  C    0.000000   0.000000   0.000000   0.000000   0.000000   0.000000
    11  H    0.000000   0.000000   0.000000   0.000000   0.000000   0.000000
    12  H    0.000000   0.000000   0.000000   0.000000   0.000000   0.000000
    13  C    4.454430   0.000000   0.000000   0.000000   0.000000   0.000000
    14  H    0.000000   0.853709   0.000000   0.000000   0.000000   0.000000
    15  H    0.000000   0.000000   0.858411   0.000000   0.000000   0.000000
    16  H    0.000000   0.000000   0.000000   0.855355   0.000000   0.000000
    17  C    0.000000   0.000000   0.000000   0.000000   4.487049   0.000000
    18  H    0.000000   0.000000   0.000000   0.000000   0.000000   0.853058
    19  H    0.000000   0.000000   0.000000   0.000000   0.000000   0.000000
    20  H    0.000000   0.000000   0.000000   0.000000   0.000000   0.000000
             19         20
     1  C    0.000000   0.000000
     2  H    0.000000   0.000000
     3  H    0.000000   0.000000
     4  H    0.000000   0.000000
     5  C    0.000000   0.000000
     6  H    0.000000   0.000000
     7  H    0.000000   0.000000
     8  C    0.000000   0.000000
     9  H    0.000000   0.000000
    10  C    0.000000   0.000000
    11  H    0.000000   0.000000
    12  H    0.000000   0.000000
    13  C    0.000000   0.000000
    14  H    0.000000   0.000000
    15  H    0.000000   0.000000
    16  H    0.000000   0.000000
    17  C    0.000000   0.000000
    18  H    0.000000   0.000000
    19  H    0.852169   0.000000
    20  H    0.000000   0.853058
 Mulliken atomic charges:
              1
     1  C   -0.454430
     2  H    0.144645
     3  H    0.146291
     4  H    0.141589
     5  C   -0.262918
     6  H    0.131117
     7  H    0.127451
     8  C   -0.018938
     9  H    0.116781
    10  C   -0.262918
    11  H    0.127451
    12  H    0.131117
    13  C   -0.454430
    14  H    0.146291
    15  H    0.141589
    16  H    0.144645
    17  C   -0.487049
    18  H    0.146942
    19  H    0.147831
    20  H    0.146942
 Sum of Mulliken atomic charges =   0.00000
 Mulliken charges with hydrogens summed into heavy atoms:
              1
     1  C   -0.021904
     5  C   -0.004350
     8  C    0.097842
    10  C   -0.004350
    13  C   -0.021904
    17  C   -0.045334
 Sum of Mulliken charges with hydrogens summed into heavy atoms =   0.00000
 Charge=              0.0000 electrons
 Dipole moment (field-independent basis, Debye):
    X=              0.0000    Y=              0.0622    Z=              0.0008  Tot=              0.0622
 N-N= 1.670492133367D+02 E-N=-2.549900615947D+02  KE=-5.623174066291D+01
 Leave Link  601 at Sun Sep 13 11:20:42 2015, MaxMem=  671088640 cpu:       0.0
 (Enter /share/apps/g09/l9999.exe)
 1\1\GINC-COMPUTE-0-14\FOpt\RPM6\ZDO\C6H14\HETANJIN\13-Sep-2015\0\\#p P
 M6 opt\\using PM6 to do opt and freq calc.\\0,1\C,-3.5737314207,0.0071
 941068,0.1040773044\H,-3.1863600378,-1.0140538758,0.1926964675\H,-3.31
 93556998,0.3677848714,-0.899406081\H,-4.6661538548,-0.0481128647,0.165
 8692773\C,-3.0066519282,0.9196304859,1.1890360738\H,-3.4392861432,1.93
 34877343,1.0904813433\H,-3.3316664528,0.5493446183,2.181195448\C,-1.46
 40041148,1.0027771711,1.1479018782\H,-1.0571051282,-0.0360601277,1.081
 5109762\C,-0.9442745389,1.6466521737,2.4531512322\H,-1.4727925236,1.20
 46978967,3.3206018623\H,-1.1959878693,2.7242800677,2.4654202751\C,0.56
 03390133,1.4644430394,2.6380678272\H,1.1262146902,1.9347073235,1.82544
 94239\H,0.9000266746,1.914042733,3.5776082063\H,0.83872427,0.404784465
 1,2.6600387795\C,-0.9882473768,1.7884709009,-0.080149281\H,-1.33754646
 94,1.3232061114,-1.0080760005\H,-1.357882083,2.8190434523,-0.069935369
 9\H,0.1052559833,1.8319300966,-0.1236469828\\Version=EM64L-G09RevA.01\
 State=1-A\HF=-0.0567225\RMSD=5.379e-09\RMSF=9.075e-06\Dipole=0.0101811
 ,0.0075389,-0.0209446\PG=C01 [X(C6H14)]\\@


 LAWS OF PROGRAMMING DEFINITION:  A WORKING PROGRAM
                                  IS ONE THAT HAS
                                  ONLY UNOBSERVED
                                  BUGS.
 Job cpu time:  0 days  0 hours  0 minutes 15.6 seconds.
 File lengths (MBytes):  RWF=      5 Int=      0 D2E=      0 Chk=      3 Scr=      1
 Normal termination of Gaussian 09 at Sun Sep 13 11:20:46 2015.
