 Entering Gaussian System, Link 0=/home/hetanjin/apps/g09D01/g09/g09
 Input=C6H14_3_r014_C1_2_opt_B3L.gjf
 Output=C6H14_3_r014_C1_2_opt_B3L.log
 Initial command:
 /home/hetanjin/apps/g09D01/g09/l1.exe "/state/partition1/Gau-19503.inp" -scrdir="/state/partition1/"
 Entering Link 1 = /home/hetanjin/apps/g09D01/g09/l1.exe PID=     19504.
  
 Copyright (c) 1988,1990,1992,1993,1995,1998,2003,2009,2013,
            Gaussian, Inc.  All Rights Reserved.
  
 This is part of the Gaussian(R) 09 program.  It is based on
 the Gaussian(R) 03 system (copyright 2003, Gaussian, Inc.),
 the Gaussian(R) 98 system (copyright 1998, Gaussian, Inc.),
 the Gaussian(R) 94 system (copyright 1995, Gaussian, Inc.),
 the Gaussian 92(TM) system (copyright 1992, Gaussian, Inc.),
 the Gaussian 90(TM) system (copyright 1990, Gaussian, Inc.),
 the Gaussian 88(TM) system (copyright 1988, Gaussian, Inc.),
 the Gaussian 86(TM) system (copyright 1986, Carnegie Mellon
 University), and the Gaussian 82(TM) system (copyright 1983,
 Carnegie Mellon University). Gaussian is a federally registered
 trademark of Gaussian, Inc.
  
 This software contains proprietary and confidential information,
 including trade secrets, belonging to Gaussian, Inc.
  
 This software is provided under written license and may be
 used, copied, transmitted, or stored only in accord with that
 written license.
  
 The following legend is applicable only to US Government
 contracts under FAR:
  
                    RESTRICTED RIGHTS LEGEND
  
 Use, reproduction and disclosure by the US Government is
 subject to restrictions as set forth in subparagraphs (a)
 and (c) of the Commercial Computer Software - Restricted
 Rights clause in FAR 52.227-19.
  
 Gaussian, Inc.
 340 Quinnipiac St., Bldg. 40, Wallingford CT 06492
  
  
 ---------------------------------------------------------------
 Warning -- This program may not be used in any manner that
 competes with the business of Gaussian, Inc. or will provide
 assistance to any competitor of Gaussian, Inc.  The licensee
 of this program is prohibited from giving any competitor of
 Gaussian, Inc. access to this program.  By using this program,
 the user acknowledges that Gaussian, Inc. is engaged in the
 business of creating and licensing software in the field of
 computational chemistry and represents and warrants to the
 licensee that it is not a competitor of Gaussian, Inc. and that
 it will not use this program in any manner prohibited above.
 ---------------------------------------------------------------
  

 Cite this work as:
 Gaussian 09, Revision D.01,
 M. J. Frisch, G. W. Trucks, H. B. Schlegel, G. E. Scuseria, 
 M. A. Robb, J. R. Cheeseman, G. Scalmani, V. Barone, B. Mennucci, 
 G. A. Petersson, H. Nakatsuji, M. Caricato, X. Li, H. P. Hratchian, 
 A. F. Izmaylov, J. Bloino, G. Zheng, J. L. Sonnenberg, M. Hada, 
 M. Ehara, K. Toyota, R. Fukuda, J. Hasegawa, M. Ishida, T. Nakajima, 
 Y. Honda, O. Kitao, H. Nakai, T. Vreven, J. A. Montgomery, Jr., 
 J. E. Peralta, F. Ogliaro, M. Bearpark, J. J. Heyd, E. Brothers, 
 K. N. Kudin, V. N. Staroverov, T. Keith, R. Kobayashi, J. Normand, 
 K. Raghavachari, A. Rendell, J. C. Burant, S. S. Iyengar, J. Tomasi, 
 M. Cossi, N. Rega, J. M. Millam, M. Klene, J. E. Knox, J. B. Cross, 
 V. Bakken, C. Adamo, J. Jaramillo, R. Gomperts, R. E. Stratmann, 
 O. Yazyev, A. J. Austin, R. Cammi, C. Pomelli, J. W. Ochterski, 
 R. L. Martin, K. Morokuma, V. G. Zakrzewski, G. A. Voth, 
 P. Salvador, J. J. Dannenberg, S. Dapprich, A. D. Daniels, 
 O. Farkas, J. B. Foresman, J. V. Ortiz, J. Cioslowski, 
 and D. J. Fox, Gaussian, Inc., Wallingford CT, 2013.
 
 ******************************************
 Gaussian 09:  ES64L-G09RevD.01 24-Apr-2013
                 7-Nov-2015 
 ******************************************
 %mem=6GB
 %nprocshared=4
 Will use up to    4 processors via shared memory.
 ----------------------------------------------
 #p B3LYP/6-31G(d) opt=tight int=ultrafine freq
 ----------------------------------------------
 1/7=10,14=-1,18=20,19=15,26=4,38=1/1,3;
 2/9=110,12=2,17=6,18=5,40=1/2;
 3/5=1,6=6,7=1,11=2,16=1,25=1,30=1,71=1,74=-5,75=-5/1,2,3;
 4//1;
 5/5=2,38=5/2;
 6/7=2,8=2,9=2,10=2,28=1/1;
 7//1,2,3,16;
 1/7=10,14=-1,18=20,19=15,26=4/3(2);
 2/9=110/2;
 99//99;
 2/9=110/2;
 3/5=1,6=6,7=1,11=2,16=1,25=1,30=1,71=1,74=-5,75=-5/1,2,3;
 4/5=5,16=3,69=1/1;
 5/5=2,38=5/2;
 7//1,2,3,16;
 1/7=10,14=-1,18=20,19=15,26=4/3(-5);
 2/9=110/2;
 6/7=2,8=2,9=2,10=2,19=2,28=1/1;
 99/9=1/99;
 Leave Link    1 at Sat Nov  7 02:06:47 2015, MaxMem=   805306368 cpu:         0.1
 (Enter /home/hetanjin/apps/g09D01/g09/l101.exe)
 ---------------------------------------------
 using B3LYP/6-31G(d) to do opt and freq calc.
 ---------------------------------------------
 Symbolic Z-matrix:
 Charge =  0 Multiplicity = 2
 C                    -2.58543  -0.17306  -0.29185 
 H                    -2.56946  -0.21059  -1.38848 
 H                    -3.42636  -0.7886    0.04788 
 C                    -1.2643   -0.68112   0.2975 
 H                    -1.30509  -0.61825   1.39536 
 H                    -1.16192  -1.74928   0.0599 
 C                     0.        0.05117  -0.19883 
 H                     0.        0.00139  -1.30033 
 C                     1.2643   -0.68112   0.29751 
 H                     1.16193  -1.74928   0.05992 
 H                     1.30509  -0.61823   1.39536 
 C                     2.58543  -0.17306  -0.29185 
 H                     2.79867   0.86057   0.00157 
 H                     3.42636  -0.78859   0.04789 
 H                     2.56946  -0.21061  -1.38848 
 C                    0.         1.53336   0.20729 
 H                    -0.88093   2.05894  -0.1759 
 H                    -0.00001   1.63604   1.30101 
 H                     0.88093   2.05894  -0.17589 
 
 NAtoms=     19 NQM=       19 NQMF=       0 NMMI=      0 NMMIF=      0
                NMic=       0 NMicF=      0.
                    Isotopes and Nuclear Properties:
 (Nuclear quadrupole moments (NQMom) in fm**2, nuclear magnetic moments (NMagM)
  in nuclear magnetons)

  Atom         1           2           3           4           5           6           7           8           9          10
 IAtWgt=          12           1           1          12           1           1          12           1          12           1
 AtmWgt=  12.0000000   1.0078250   1.0078250  12.0000000   1.0078250   1.0078250  12.0000000   1.0078250  12.0000000   1.0078250
 NucSpn=           0           1           1           0           1           1           0           1           0           1
 AtZEff=   0.0000000   0.0000000   0.0000000   0.0000000   0.0000000   0.0000000   0.0000000   0.0000000   0.0000000   0.0000000
 NQMom=    0.0000000   0.0000000   0.0000000   0.0000000   0.0000000   0.0000000   0.0000000   0.0000000   0.0000000   0.0000000
 NMagM=    0.0000000   2.7928460   2.7928460   0.0000000   2.7928460   2.7928460   0.0000000   2.7928460   0.0000000   2.7928460
 AtZNuc=   6.0000000   1.0000000   1.0000000   6.0000000   1.0000000   1.0000000   6.0000000   1.0000000   6.0000000   1.0000000

  Atom        11          12          13          14          15          16          17          18          19
 IAtWgt=           1          12           1           1           1          12           1           1           1
 AtmWgt=   1.0078250  12.0000000   1.0078250   1.0078250   1.0078250  12.0000000   1.0078250   1.0078250   1.0078250
 NucSpn=           1           0           1           1           1           0           1           1           1
 AtZEff=   0.0000000   0.0000000   0.0000000   0.0000000   0.0000000   0.0000000   0.0000000   0.0000000   0.0000000
 NQMom=    0.0000000   0.0000000   0.0000000   0.0000000   0.0000000   0.0000000   0.0000000   0.0000000   0.0000000
 NMagM=    2.7928460   0.0000000   2.7928460   2.7928460   2.7928460   0.0000000   2.7928460   2.7928460   2.7928460
 AtZNuc=   1.0000000   6.0000000   1.0000000   1.0000000   1.0000000   6.0000000   1.0000000   1.0000000   1.0000000
 Leave Link  101 at Sat Nov  7 02:06:47 2015, MaxMem=   805306368 cpu:         0.8
 (Enter /home/hetanjin/apps/g09D01/g09/l103.exe)

 GradGradGradGradGradGradGradGradGradGradGradGradGradGradGradGradGradGrad
 Berny optimization.
 Initialization pass.
                           ----------------------------
                           !    Initial Parameters    !
                           ! (Angstroms and Degrees)  !
 --------------------------                            --------------------------
 ! Name  Definition              Value          Derivative Info.                !
 --------------------------------------------------------------------------------
 ! R1    R(1,2)                  1.0974         estimate D2E/DX2                !
 ! R2    R(1,3)                  1.0961         estimate D2E/DX2                !
 ! R3    R(1,4)                  1.5332         estimate D2E/DX2                !
 ! R4    R(4,5)                  1.1004         estimate D2E/DX2                !
 ! R5    R(4,6)                  1.099          estimate D2E/DX2                !
 ! R6    R(4,7)                  1.5431         estimate D2E/DX2                !
 ! R7    R(7,8)                  1.1026         estimate D2E/DX2                !
 ! R8    R(7,9)                  1.5431         estimate D2E/DX2                !
 ! R9    R(7,16)                 1.5368         estimate D2E/DX2                !
 ! R10   R(9,10)                 1.099          estimate D2E/DX2                !
 ! R11   R(9,11)                 1.1004         estimate D2E/DX2                !
 ! R12   R(9,12)                 1.5332         estimate D2E/DX2                !
 ! R13   R(12,13)                1.0954         estimate D2E/DX2                !
 ! R14   R(12,14)                1.0961         estimate D2E/DX2                !
 ! R15   R(12,15)                1.0974         estimate D2E/DX2                !
 ! R16   R(16,17)                1.095          estimate D2E/DX2                !
 ! R17   R(16,18)                1.0985         estimate D2E/DX2                !
 ! R18   R(16,19)                1.095          estimate D2E/DX2                !
 ! A1    A(2,1,3)              107.559          estimate D2E/DX2                !
 ! A2    A(2,1,4)              111.115          estimate D2E/DX2                !
 ! A3    A(3,1,4)              110.8451         estimate D2E/DX2                !
 ! A4    A(1,4,5)              109.4277         estimate D2E/DX2                !
 ! A5    A(1,4,6)              108.6152         estimate D2E/DX2                !
 ! A6    A(1,4,7)              115.1572         estimate D2E/DX2                !
 ! A7    A(5,4,6)              105.9422         estimate D2E/DX2                !
 ! A8    A(5,4,7)              108.915          estimate D2E/DX2                !
 ! A9    A(6,4,7)              108.3832         estimate D2E/DX2                !
 ! A10   A(4,7,8)              107.4517         estimate D2E/DX2                !
 ! A11   A(4,7,9)              110.0384         estimate D2E/DX2                !
 ! A12   A(4,7,16)             111.882          estimate D2E/DX2                !
 ! A13   A(8,7,9)              107.4518         estimate D2E/DX2                !
 ! A14   A(8,7,16)             107.9103         estimate D2E/DX2                !
 ! A15   A(9,7,16)             111.882          estimate D2E/DX2                !
 ! A16   A(7,9,10)             108.3833         estimate D2E/DX2                !
 ! A17   A(7,9,11)             108.915          estimate D2E/DX2                !
 ! A18   A(7,9,12)             115.1571         estimate D2E/DX2                !
 ! A19   A(10,9,11)            105.9423         estimate D2E/DX2                !
 ! A20   A(10,9,12)            108.6152         estimate D2E/DX2                !
 ! A21   A(11,9,12)            109.4277         estimate D2E/DX2                !
 ! A22   A(9,12,13)            112.1749         estimate D2E/DX2                !
 ! A23   A(9,12,14)            110.8451         estimate D2E/DX2                !
 ! A24   A(9,12,15)            111.1149         estimate D2E/DX2                !
 ! A25   A(13,12,14)           107.3082         estimate D2E/DX2                !
 ! A26   A(13,12,15)           107.6254         estimate D2E/DX2                !
 ! A27   A(14,12,15)           107.559          estimate D2E/DX2                !
 ! A28   A(7,16,17)            111.7423         estimate D2E/DX2                !
 ! A29   A(7,16,18)            110.6857         estimate D2E/DX2                !
 ! A30   A(7,16,19)            111.7423         estimate D2E/DX2                !
 ! A31   A(17,16,18)           107.6699         estimate D2E/DX2                !
 ! A32   A(17,16,19)           107.12           estimate D2E/DX2                !
 ! A33   A(18,16,19)           107.67           estimate D2E/DX2                !
 ! D1    D(2,1,4,5)            179.2076         estimate D2E/DX2                !
 ! D2    D(2,1,4,6)            -65.5701         estimate D2E/DX2                !
 ! D3    D(2,1,4,7)             56.1554         estimate D2E/DX2                !
 ! D4    D(3,1,4,5)            -61.2484         estimate D2E/DX2                !
 ! D5    D(3,1,4,6)             53.9738         estimate D2E/DX2                !
 ! D6    D(3,1,4,7)            175.6993         estimate D2E/DX2                !
 ! D7    D(1,4,7,8)            -54.8991         estimate D2E/DX2                !
 ! D8    D(1,4,7,9)           -171.5975         estimate D2E/DX2                !
 ! D9    D(1,4,7,16)            63.3728         estimate D2E/DX2                !
 ! D10   D(5,4,7,8)           -178.2239         estimate D2E/DX2                !
 ! D11   D(5,4,7,9)             65.0777         estimate D2E/DX2                !
 ! D12   D(5,4,7,16)           -59.952          estimate D2E/DX2                !
 ! D13   D(6,4,7,8)             66.9516         estimate D2E/DX2                !
 ! D14   D(6,4,7,9)            -49.7467         estimate D2E/DX2                !
 ! D15   D(6,4,7,16)          -174.7765         estimate D2E/DX2                !
 ! D16   D(4,7,9,10)            49.746          estimate D2E/DX2                !
 ! D17   D(4,7,9,11)           -65.0785         estimate D2E/DX2                !
 ! D18   D(4,7,9,12)           171.5967         estimate D2E/DX2                !
 ! D19   D(8,7,9,10)           -66.9523         estimate D2E/DX2                !
 ! D20   D(8,7,9,11)           178.2232         estimate D2E/DX2                !
 ! D21   D(8,7,9,12)            54.8984         estimate D2E/DX2                !
 ! D22   D(16,7,9,10)          174.7757         estimate D2E/DX2                !
 ! D23   D(16,7,9,11)           59.9512         estimate D2E/DX2                !
 ! D24   D(16,7,9,12)          -63.3736         estimate D2E/DX2                !
 ! D25   D(4,7,16,17)          -57.9911         estimate D2E/DX2                !
 ! D26   D(4,7,16,18)           62.0011         estimate D2E/DX2                !
 ! D27   D(4,7,16,19)         -178.0067         estimate D2E/DX2                !
 ! D28   D(8,7,16,17)           60.0075         estimate D2E/DX2                !
 ! D29   D(8,7,16,18)          179.9997         estimate D2E/DX2                !
 ! D30   D(8,7,16,19)          -60.0081         estimate D2E/DX2                !
 ! D31   D(9,7,16,17)          178.0062         estimate D2E/DX2                !
 ! D32   D(9,7,16,18)          -62.0016         estimate D2E/DX2                !
 ! D33   D(9,7,16,19)           57.9905         estimate D2E/DX2                !
 ! D34   D(7,9,12,13)           64.3686         estimate D2E/DX2                !
 ! D35   D(7,9,12,14)         -175.6996         estimate D2E/DX2                !
 ! D36   D(7,9,12,15)          -56.1557         estimate D2E/DX2                !
 ! D37   D(10,9,12,13)        -173.9059         estimate D2E/DX2                !
 ! D38   D(10,9,12,14)         -53.9741         estimate D2E/DX2                !
 ! D39   D(10,9,12,15)          65.5698         estimate D2E/DX2                !
 ! D40   D(11,9,12,13)         -58.6837         estimate D2E/DX2                !
 ! D41   D(11,9,12,14)          61.2481         estimate D2E/DX2                !
 ! D42   D(11,9,12,15)        -179.208          estimate D2E/DX2                !
 --------------------------------------------------------------------------------
 Trust Radius=3.00D-01 FncErr=1.00D-07 GrdErr=1.00D-06
 Number of steps in this run=    103 maximum allowed number of steps=    114.
 GradGradGradGradGradGradGradGradGradGradGradGradGradGradGradGradGradGrad

 Leave Link  103 at Sat Nov  7 02:06:47 2015, MaxMem=   805306368 cpu:         0.0
 (Enter /home/hetanjin/apps/g09D01/g09/l202.exe)
                          Input orientation:                          
 ---------------------------------------------------------------------
 Center     Atomic      Atomic             Coordinates (Angstroms)
 Number     Number       Type             X           Y           Z
 ---------------------------------------------------------------------
      1          6           0       -2.585432   -0.173063   -0.291849
      2          1           0       -2.569458   -0.210592   -1.388477
      3          1           0       -3.426358   -0.788597    0.047878
      4          6           0       -1.264298   -0.681121    0.297502
      5          1           0       -1.305088   -0.618252    1.395357
      6          1           0       -1.161923   -1.749281    0.059899
      7          6           0        0.000001    0.051166   -0.198829
      8          1           0        0.000003    0.001388   -1.300329
      9          6           0        1.264300   -0.681115    0.297508
     10          1           0        1.161927   -1.749278    0.059916
     11          1           0        1.305092   -0.618234    1.395362
     12          6           0        2.585433   -0.173062   -0.291851
     13          1           0        2.798671    0.860567    0.001568
     14          1           0        3.426361   -0.788588    0.047886
     15          1           0        2.569459   -0.210609   -1.388479
     16          6           0       -0.000004    1.533363    0.207287
     17          1           0       -0.880930    2.058937   -0.175897
     18          1           0       -0.000012    1.636037    1.301012
     19          1           0        0.880926    2.058939   -0.175885
 ---------------------------------------------------------------------
                    Distance matrix (angstroms):
                    1          2          3          4          5
     1  C    0.000000
     2  H    1.097386   0.000000
     3  H    1.096108   1.769600   0.000000
     4  C    1.533249   2.183430   2.179075   0.000000
     5  H    2.164287   3.084566   2.518830   1.100410   0.000000
     6  H    2.152805   2.538998   2.459822   1.099046   1.755896
     7  C    2.596805   2.843572   3.536383   1.543062   2.166289
     8  H    2.780636   2.579697   3.765858   2.148800   3.058421
     9  C    3.927581   4.214456   4.698525   2.528598   2.794813
    10  H    4.080550   4.288197   4.687794   2.661574   3.024696
    11  H    4.263923   4.788326   4.922536   2.794820   2.610180
    12  C    5.170865   5.270379   6.052762   3.927581   4.263921
    13  H    5.490269   5.647691   6.439944   4.355697   4.579344
    14  H    6.052763   6.192501   6.852719   4.698525   4.922530
    15  H    5.270380   5.138917   6.192497   4.214452   4.788322
    16  C    3.137748   3.491409   4.142078   2.551572   2.782841
    17  H    2.810800   3.077700   3.825928   2.806955   3.133064
    18  H    3.534748   4.152763   4.380530   2.823946   2.606519
    19  H    4.124429   4.304219   5.168290   3.511981   3.796684
                    6          7          8          9         10
     6  H    0.000000
     7  C    2.158383   0.000000
     8  H    2.503025   1.102624   0.000000
     9  C    2.661577   1.543061   2.148800   0.000000
    10  H    2.323850   2.158384   2.503031   1.099046   0.000000
    11  H    3.024713   2.166288   3.058421   1.100410   1.755897
    12  C    4.080548   2.596804   2.780631   1.533250   2.152804
    13  H    4.743523   2.920247   3.204008   2.195144   3.081173
    14  H    4.687795   3.536382   3.765856   2.179075   2.459823
    15  H    4.288184   2.843573   2.579693   2.183430   2.538995
    16  C    3.485331   1.536827   2.149384   2.551572   3.485331
    17  H    3.825844   2.192649   2.504775   3.511981   4.327976
    18  H    3.788242   2.182049   3.072304   2.823951   3.788242
    19  H    4.327975   2.192649   2.504779   2.806951   3.825844
                   11         12         13         14         15
    11  H    0.000000
    12  C    2.164287   0.000000
    13  H    2.521962   1.095424   0.000000
    14  H    2.518828   1.096108   1.765178   0.000000
    15  H    3.084567   1.097387   1.769799   1.769600   0.000000
    16  C    2.782834   3.137755   2.885751   4.142082   3.491425
    17  H    3.796682   4.124432   3.873893   5.168291   4.304228
    18  H    2.606518   3.534767   3.181593   4.380544   4.152788
    19  H    3.133048   2.810804   2.268332   3.825928   3.077723
                   16         17         18         19
    16  C    0.000000
    17  H    1.095029   0.000000
    18  H    1.098534   1.770910   0.000000
    19  H    1.095029   1.761856   1.770910   0.000000
 Stoichiometry    C6H13(2)
 Framework group  C1[X(C6H13)]
 Deg. of freedom    51
 Full point group                 C1      NOp   1
 Largest Abelian subgroup         C1      NOp   1
 Largest concise Abelian subgroup C1      NOp   1
                         Standard orientation:                         
 ---------------------------------------------------------------------
 Center     Atomic      Atomic             Coordinates (Angstroms)
 Number     Number       Type             X           Y           Z
 ---------------------------------------------------------------------
      1          6           0       -2.645336   -0.097137   -0.291817
      2          1           0       -2.630194   -0.135009   -1.388445
      3          1           0       -3.499643   -0.693960    0.047910
      4          6           0       -1.335738   -0.634231    0.297534
      5          1           0       -1.375130   -0.570477    1.395389
      6          1           0       -1.256964   -1.704390    0.059931
      7          6           0       -0.055584    0.069972   -0.198797
      8          1           0       -0.056681    0.020206   -1.300297
      9          6           0        1.192244   -0.690036    0.297540
     10          1           0        1.066320   -1.755679    0.059948
     11          1           0        1.234414   -0.628070    1.395394
     12          6           0        2.524269   -0.211266   -0.291819
     13          1           0        2.760269    0.817404    0.001600
     14          1           0        3.351407   -0.845203    0.047918
     15          1           0        2.507470   -0.248452   -1.388447
     16          6           0       -0.022874    1.551808    0.207319
     17          1           0       -0.891985    2.096698   -0.175865
     18          1           0       -0.020616    1.654457    1.301044
     19          1           0        0.869442    2.057813   -0.175853
 ---------------------------------------------------------------------
 Rotational constants (GHZ):      6.5839592      1.8873958      1.6217874
 Leave Link  202 at Sat Nov  7 02:06:47 2015, MaxMem=   805306368 cpu:         0.0
 (Enter /home/hetanjin/apps/g09D01/g09/l301.exe)
 Standard basis: 6-31G(d) (6D, 7F)
 Ernie: Thresh=  0.10000D-02 Tol=  0.10000D-05 Strict=F.
 There are   116 symmetry adapted cartesian basis functions of A   symmetry.
 There are   116 symmetry adapted basis functions of A   symmetry.
   116 basis functions,   220 primitive gaussians,   116 cartesian basis functions
    25 alpha electrons       24 beta electrons
       nuclear repulsion energy       245.2815687127 Hartrees.
 IExCor=  402 DFT=T Ex+Corr=B3LYP ExCW=0 ScaHFX=  0.200000
 ScaDFX=  0.800000  0.720000  1.000000  0.810000 ScalE2=  1.000000  1.000000
 IRadAn=      5 IRanWt=     -1 IRanGd=            0 ICorTp=0 IEmpDi=  4
 NAtoms=   19 NActive=   19 NUniq=   19 SFac= 1.00D+00 NAtFMM=   60 NAOKFM=F Big=F
 Integral buffers will be    131072 words long.
 Raffenetti 2 integral format.
 Two-electron integral symmetry is turned on.
 Leave Link  301 at Sat Nov  7 02:06:48 2015, MaxMem=   805306368 cpu:         0.2
 (Enter /home/hetanjin/apps/g09D01/g09/l302.exe)
 NPDir=0 NMtPBC=     1 NCelOv=     1 NCel=       1 NClECP=     1 NCelD=      1
         NCelK=      1 NCelE2=     1 NClLst=     1 CellRange=     0.0.
 One-electron integrals computed using PRISM.
 NBasis=   116 RedAO= T EigKep=  3.75D-03  NBF=   116
 NBsUse=   116 1.00D-06 EigRej= -1.00D+00 NBFU=   116
 Precomputing XC quadrature grid using
 IXCGrd= 4 IRadAn=           5 IRanWt=          -1 IRanGd=           0 AccXCQ= 0.00D+00.
 Generated NRdTot=       0 NPtTot=           0 NUsed=           0 NTot=          32
 NSgBfM=   116   116   116   116   116 MxSgAt=    19 MxSgA2=    19.
 Leave Link  302 at Sat Nov  7 02:06:48 2015, MaxMem=   805306368 cpu:         1.6
 (Enter /home/hetanjin/apps/g09D01/g09/l303.exe)
 DipDrv:  MaxL=1.
 Leave Link  303 at Sat Nov  7 02:06:48 2015, MaxMem=   805306368 cpu:         0.2
 (Enter /home/hetanjin/apps/g09D01/g09/l401.exe)
 ExpMin= 1.61D-01 ExpMax= 3.05D+03 ExpMxC= 4.57D+02 IAcc=3 IRadAn=         5 AccDes= 0.00D+00
 Harris functional with IExCor=  402 and IRadAn=       5 diagonalized for initial guess.
 HarFok:  IExCor=  402 AccDes= 0.00D+00 IRadAn=         5 IDoV= 1 UseB2=F ITyADJ=14
 ICtDFT=  3500011 ScaDFX=  1.000000  1.000000  1.000000  1.000000
 FoFCou: FMM=F IPFlag=           0 FMFlag=      100000 FMFlg1=           0
         NFxFlg=           0 DoJE=T BraDBF=F KetDBF=T FulRan=T
         wScrn=  0.000000 ICntrl=     500 IOpCl=  0 I1Cent=   200000004 NGrid=           0
         NMat0=    1 NMatS0=      1 NMatT0=    0 NMatD0=    1 NMtDS0=    0 NMtDT0=    0
 Petite list used in FoFCou.
 Harris En= -236.439981205020    
 JPrj=0 DoOrth=F DoCkMO=F.
 Initial guess <Sx>= 0.0000 <Sy>= 0.0000 <Sz>= 0.5000 <S**2>= 0.7500 S= 0.5000
 Leave Link  401 at Sat Nov  7 02:06:50 2015, MaxMem=   805306368 cpu:         8.3
 (Enter /home/hetanjin/apps/g09D01/g09/l502.exe)
 UHF open shell SCF:
 Using DIIS extrapolation, IDIIS=  1040.
 Integral symmetry usage will be decided dynamically.
 Keep R1 and R2 ints in memory in canonical form, NReq=47059932.
 IVT=       60514 IEndB=       60514 NGot=   805306368 MDV=   759189273
 LenX=   759189273 LenY=   759175376
 Requested convergence on RMS density matrix=1.00D-08 within 128 cycles.
 Requested convergence on MAX density matrix=1.00D-06.
 Requested convergence on             energy=1.00D-06.
 No special actions if energy rises.
 FoFCou: FMM=F IPFlag=           0 FMFlag=           0 FMFlg1=           0
         NFxFlg=           0 DoJE=F BraDBF=F KetDBF=F FulRan=T
         wScrn=  0.000000 ICntrl=     600 IOpCl=  0 I1Cent=           0 NGrid=           0
         NMat0=    1 NMatS0=   6786 NMatT0=    0 NMatD0=    1 NMtDS0=    0 NMtDT0=    0
 Symmetry not used in FoFCou.
 Integral accuracy reduced to 1.0D-05 until final iterations.

 Cycle   1  Pass 0  IDiag  1:
 E= -236.152483902698    
 DIIS: error= 4.15D-02 at cycle   1 NSaved=   1.
 NSaved= 1 IEnMin= 1 EnMin= -236.152483902698     IErMin= 1 ErrMin= 4.15D-02
 ErrMax= 4.15D-02  0.00D+00 EMaxC= 1.00D-01 BMatC= 8.76D-01 BMatP= 8.76D-01
 IDIUse=3 WtCom= 5.85D-01 WtEn= 4.15D-01
 Coeff-Com:  0.100D+01
 Coeff-En:   0.100D+01
 Coeff:      0.100D+01
 Gap=     0.287 Goal=   None    Shift=    0.000
 Gap=     0.237 Goal=   None    Shift=    0.000
 GapD=    0.237 DampG=1.000 DampE=0.500 DampFc=0.5000 IDamp=-1.
 Damping current iteration by 5.00D-01
 RMSDP=9.56D-03 MaxDP=1.44D-01              OVMax= 1.84D-01

 Cycle   2  Pass 0  IDiag  1:
 E= -236.263548114178     Delta-E=       -0.111064211480 Rises=F Damp=T
 DIIS: error= 8.19D-03 at cycle   2 NSaved=   2.
 NSaved= 2 IEnMin= 2 EnMin= -236.263548114178     IErMin= 2 ErrMin= 8.19D-03
 ErrMax= 8.19D-03  0.00D+00 EMaxC= 1.00D-01 BMatC= 3.89D-02 BMatP= 8.76D-01
 IDIUse=3 WtCom= 9.18D-01 WtEn= 8.19D-02
 Coeff-Com:  0.705D-01 0.930D+00
 Coeff-En:   0.114D+00 0.886D+00
 Coeff:      0.741D-01 0.926D+00
 Gap=     0.311 Goal=   None    Shift=    0.000
 Gap=     0.258 Goal=   None    Shift=    0.000
 RMSDP=1.57D-03 MaxDP=2.47D-02 DE=-1.11D-01 OVMax= 1.00D-01

 Cycle   3  Pass 0  IDiag  1:
 E= -236.399784511187     Delta-E=       -0.136236397009 Rises=F Damp=F
 DIIS: error= 2.67D-03 at cycle   3 NSaved=   3.
 NSaved= 3 IEnMin= 3 EnMin= -236.399784511187     IErMin= 3 ErrMin= 2.67D-03
 ErrMax= 2.67D-03  0.00D+00 EMaxC= 1.00D-01 BMatC= 4.98D-03 BMatP= 3.89D-02
 IDIUse=3 WtCom= 9.73D-01 WtEn= 2.67D-02
 Coeff-Com: -0.417D-02 0.202D+00 0.802D+00
 Coeff-En:   0.000D+00 0.000D+00 0.100D+01
 Coeff:     -0.406D-02 0.197D+00 0.807D+00
 Gap=     0.319 Goal=   None    Shift=    0.000
 Gap=     0.239 Goal=   None    Shift=    0.000
 RMSDP=5.46D-04 MaxDP=1.20D-02 DE=-1.36D-01 OVMax= 1.11D-02

 Cycle   4  Pass 0  IDiag  1:
 E= -236.400604995905     Delta-E=       -0.000820484717 Rises=F Damp=F
 DIIS: error= 1.53D-03 at cycle   4 NSaved=   4.
 NSaved= 4 IEnMin= 4 EnMin= -236.400604995905     IErMin= 4 ErrMin= 1.53D-03
 ErrMax= 1.53D-03  0.00D+00 EMaxC= 1.00D-01 BMatC= 1.96D-03 BMatP= 4.98D-03
 IDIUse=3 WtCom= 9.85D-01 WtEn= 1.53D-02
 Coeff-Com: -0.508D-02 0.348D-01 0.397D+00 0.573D+00
 Coeff-En:   0.000D+00 0.000D+00 0.242D+00 0.758D+00
 Coeff:     -0.501D-02 0.342D-01 0.395D+00 0.576D+00
 Gap=     0.314 Goal=   None    Shift=    0.000
 Gap=     0.246 Goal=   None    Shift=    0.000
 RMSDP=2.14D-04 MaxDP=4.29D-03 DE=-8.20D-04 OVMax= 5.19D-03

 Cycle   5  Pass 0  IDiag  1:
 E= -236.401080942873     Delta-E=       -0.000475946968 Rises=F Damp=F
 DIIS: error= 3.37D-04 at cycle   5 NSaved=   5.
 NSaved= 5 IEnMin= 5 EnMin= -236.401080942873     IErMin= 5 ErrMin= 3.37D-04
 ErrMax= 3.37D-04  0.00D+00 EMaxC= 1.00D-01 BMatC= 8.62D-05 BMatP= 1.96D-03
 IDIUse=3 WtCom= 9.97D-01 WtEn= 3.37D-03
 Coeff-Com: -0.127D-02-0.294D-02 0.942D-01 0.230D+00 0.680D+00
 Coeff-En:   0.000D+00 0.000D+00 0.000D+00 0.000D+00 0.100D+01
 Coeff:     -0.126D-02-0.293D-02 0.939D-01 0.229D+00 0.681D+00
 Gap=     0.315 Goal=   None    Shift=    0.000
 Gap=     0.245 Goal=   None    Shift=    0.000
 RMSDP=4.61D-05 MaxDP=8.84D-04 DE=-4.76D-04 OVMax= 9.95D-04

 Cycle   6  Pass 0  IDiag  1:
 E= -236.401103071344     Delta-E=       -0.000022128471 Rises=F Damp=F
 DIIS: error= 7.03D-05 at cycle   6 NSaved=   6.
 NSaved= 6 IEnMin= 6 EnMin= -236.401103071344     IErMin= 6 ErrMin= 7.03D-05
 ErrMax= 7.03D-05  0.00D+00 EMaxC= 1.00D-01 BMatC= 2.57D-06 BMatP= 8.62D-05
 IDIUse=1 WtCom= 1.00D+00 WtEn= 0.00D+00
 Coeff-Com:  0.127D-03-0.223D-02-0.106D-01-0.600D-02 0.776D-01 0.941D+00
 Coeff:      0.127D-03-0.223D-02-0.106D-01-0.600D-02 0.776D-01 0.941D+00
 Gap=     0.316 Goal=   None    Shift=    0.000
 Gap=     0.246 Goal=   None    Shift=    0.000
 RMSDP=1.39D-05 MaxDP=4.43D-04 DE=-2.21D-05 OVMax= 3.84D-04

 Cycle   7  Pass 0  IDiag  1:
 E= -236.401104181385     Delta-E=       -0.000001110041 Rises=F Damp=F
 DIIS: error= 3.17D-05 at cycle   7 NSaved=   7.
 NSaved= 7 IEnMin= 7 EnMin= -236.401104181385     IErMin= 7 ErrMin= 3.17D-05
 ErrMax= 3.17D-05  0.00D+00 EMaxC= 1.00D-01 BMatC= 9.20D-07 BMatP= 2.57D-06
 IDIUse=1 WtCom= 1.00D+00 WtEn= 0.00D+00
 Coeff-Com:  0.232D-03-0.396D-03-0.189D-01-0.388D-01-0.794D-01 0.386D+00
 Coeff-Com:  0.751D+00
 Coeff:      0.232D-03-0.396D-03-0.189D-01-0.388D-01-0.794D-01 0.386D+00
 Coeff:      0.751D+00
 Gap=     0.316 Goal=   None    Shift=    0.000
 Gap=     0.246 Goal=   None    Shift=    0.000
 RMSDP=6.19D-06 MaxDP=1.87D-04 DE=-1.11D-06 OVMax= 1.83D-04

 Initial convergence to 1.0D-05 achieved.  Increase integral accuracy.
 Cycle   8  Pass 1  IDiag  1:
 E= -236.401088203085     Delta-E=        0.000015978300 Rises=F Damp=F
 DIIS: error= 1.06D-05 at cycle   1 NSaved=   1.
 NSaved= 1 IEnMin= 1 EnMin= -236.401088203085     IErMin= 1 ErrMin= 1.06D-05
 ErrMax= 1.06D-05  0.00D+00 EMaxC= 1.00D-01 BMatC= 1.10D-07 BMatP= 1.10D-07
 IDIUse=1 WtCom= 1.00D+00 WtEn= 0.00D+00
 Coeff-Com:  0.100D+01
 Coeff:      0.100D+01
 Gap=     0.316 Goal=   None    Shift=    0.000
 Gap=     0.246 Goal=   None    Shift=    0.000
 RMSDP=6.19D-06 MaxDP=1.87D-04 DE= 1.60D-05 OVMax= 6.96D-05

 Cycle   9  Pass 1  IDiag  1:
 E= -236.401088209951     Delta-E=       -0.000000006866 Rises=F Damp=F
 DIIS: error= 1.16D-05 at cycle   2 NSaved=   2.
 NSaved= 2 IEnMin= 2 EnMin= -236.401088209951     IErMin= 1 ErrMin= 1.06D-05
 ErrMax= 1.16D-05  0.00D+00 EMaxC= 1.00D-01 BMatC= 1.20D-07 BMatP= 1.10D-07
 IDIUse=1 WtCom= 1.00D+00 WtEn= 0.00D+00
 Coeff-Com:  0.512D+00 0.488D+00
 Coeff:      0.512D+00 0.488D+00
 Gap=     0.316 Goal=   None    Shift=    0.000
 Gap=     0.246 Goal=   None    Shift=    0.000
 RMSDP=1.49D-06 MaxDP=3.02D-05 DE=-6.87D-09 OVMax= 3.11D-05

 Cycle  10  Pass 1  IDiag  1:
 E= -236.401088240474     Delta-E=       -0.000000030523 Rises=F Damp=F
 DIIS: error= 1.45D-06 at cycle   3 NSaved=   3.
 NSaved= 3 IEnMin= 3 EnMin= -236.401088240474     IErMin= 3 ErrMin= 1.45D-06
 ErrMax= 1.45D-06  0.00D+00 EMaxC= 1.00D-01 BMatC= 2.70D-09 BMatP= 1.10D-07
 IDIUse=1 WtCom= 1.00D+00 WtEn= 0.00D+00
 Coeff-Com: -0.614D-01 0.295D-01 0.103D+01
 Coeff:     -0.614D-01 0.295D-01 0.103D+01
 Gap=     0.316 Goal=   None    Shift=    0.000
 Gap=     0.246 Goal=   None    Shift=    0.000
 RMSDP=4.69D-07 MaxDP=1.07D-05 DE=-3.05D-08 OVMax= 1.13D-05

 Cycle  11  Pass 1  IDiag  1:
 E= -236.401088241772     Delta-E=       -0.000000001298 Rises=F Damp=F
 DIIS: error= 9.59D-07 at cycle   4 NSaved=   4.
 NSaved= 4 IEnMin= 4 EnMin= -236.401088241772     IErMin= 4 ErrMin= 9.59D-07
 ErrMax= 9.59D-07  0.00D+00 EMaxC= 1.00D-01 BMatC= 8.07D-10 BMatP= 2.70D-09
 IDIUse=1 WtCom= 1.00D+00 WtEn= 0.00D+00
 Coeff-Com: -0.125D+00-0.860D-01 0.406D+00 0.805D+00
 Coeff:     -0.125D+00-0.860D-01 0.406D+00 0.805D+00
 Gap=     0.316 Goal=   None    Shift=    0.000
 Gap=     0.246 Goal=   None    Shift=    0.000
 RMSDP=2.21D-07 MaxDP=6.99D-06 DE=-1.30D-09 OVMax= 6.55D-06

 Cycle  12  Pass 1  IDiag  1:
 E= -236.401088242080     Delta-E=       -0.000000000308 Rises=F Damp=F
 DIIS: error= 4.44D-07 at cycle   5 NSaved=   5.
 NSaved= 5 IEnMin= 5 EnMin= -236.401088242080     IErMin= 5 ErrMin= 4.44D-07
 ErrMax= 4.44D-07  0.00D+00 EMaxC= 1.00D-01 BMatC= 9.77D-11 BMatP= 8.07D-10
 IDIUse=1 WtCom= 1.00D+00 WtEn= 0.00D+00
 Coeff-Com: -0.510D-01-0.422D-01 0.898D-01 0.357D+00 0.646D+00
 Coeff:     -0.510D-01-0.422D-01 0.898D-01 0.357D+00 0.646D+00
 Gap=     0.316 Goal=   None    Shift=    0.000
 Gap=     0.246 Goal=   None    Shift=    0.000
 RMSDP=5.03D-08 MaxDP=1.91D-06 DE=-3.08D-10 OVMax= 1.59D-06

 Cycle  13  Pass 1  IDiag  1:
 E= -236.401088242106     Delta-E=       -0.000000000025 Rises=F Damp=F
 DIIS: error= 6.99D-08 at cycle   6 NSaved=   6.
 NSaved= 6 IEnMin= 6 EnMin= -236.401088242106     IErMin= 6 ErrMin= 6.99D-08
 ErrMax= 6.99D-08  0.00D+00 EMaxC= 1.00D-01 BMatC= 3.98D-12 BMatP= 9.77D-11
 IDIUse=1 WtCom= 1.00D+00 WtEn= 0.00D+00
 Coeff-Com: -0.929D-03-0.260D-02-0.176D-01 0.155D-01 0.175D+00 0.830D+00
 Coeff:     -0.929D-03-0.260D-02-0.176D-01 0.155D-01 0.175D+00 0.830D+00
 Gap=     0.316 Goal=   None    Shift=    0.000
 Gap=     0.246 Goal=   None    Shift=    0.000
 RMSDP=1.44D-08 MaxDP=3.83D-07 DE=-2.54D-11 OVMax= 4.05D-07

 Cycle  14  Pass 1  IDiag  1:
 E= -236.401088242107     Delta-E=       -0.000000000002 Rises=F Damp=F
 DIIS: error= 2.49D-08 at cycle   7 NSaved=   7.
 NSaved= 7 IEnMin= 7 EnMin= -236.401088242107     IErMin= 7 ErrMin= 2.49D-08
 ErrMax= 2.49D-08  0.00D+00 EMaxC= 1.00D-01 BMatC= 3.81D-13 BMatP= 3.98D-12
 IDIUse=1 WtCom= 1.00D+00 WtEn= 0.00D+00
 Coeff-Com:  0.227D-02 0.123D-02-0.107D-01-0.126D-01 0.277D-01 0.292D+00
 Coeff-Com:  0.700D+00
 Coeff:      0.227D-02 0.123D-02-0.107D-01-0.126D-01 0.277D-01 0.292D+00
 Coeff:      0.700D+00
 Gap=     0.316 Goal=   None    Shift=    0.000
 Gap=     0.246 Goal=   None    Shift=    0.000
 RMSDP=4.12D-09 MaxDP=9.37D-08 DE=-1.71D-12 OVMax= 1.10D-07

 SCF Done:  E(UB3LYP) =  -236.401088242     A.U. after   14 cycles
            NFock= 14  Conv=0.41D-08     -V/T= 2.0104
 <Sx>= 0.0000 <Sy>= 0.0000 <Sz>= 0.5000 <S**2>= 0.7527 S= 0.5013
 <L.S>= 0.000000000000E+00
 KE= 2.339566404087D+02 PE=-1.036123480441D+03 EE= 3.204841830773D+02
 Annihilation of the first spin contaminant:
 S**2 before annihilation     0.7527,   after     0.7500
 Leave Link  502 at Sat Nov  7 02:07:33 2015, MaxMem=   805306368 cpu:       157.2
 (Enter /home/hetanjin/apps/g09D01/g09/l601.exe)
 Copying SCF densities to generalized density rwf, IOpCl= 1 IROHF=0.

 **********************************************************************

            Population analysis using the SCF density.

 **********************************************************************

 Orbital symmetries:
 Alpha Orbitals:
       Occupied  (A) (A) (A) (A) (A) (A) (A) (A) (A) (A) (A) (A)
                 (A) (A) (A) (A) (A) (A) (A) (A) (A) (A) (A) (A)
                 (A)
       Virtual   (A) (A) (A) (A) (A) (A) (A) (A) (A) (A) (A) (A)
                 (A) (A) (A) (A) (A) (A) (A) (A) (A) (A) (A) (A)
                 (A) (A) (A) (A) (A) (A) (A) (A) (A) (A) (A) (A)
                 (A) (A) (A) (A) (A) (A) (A) (A) (A) (A) (A) (A)
                 (A) (A) (A) (A) (A) (A) (A) (A) (A) (A) (A) (A)
                 (A) (A) (A) (A) (A) (A) (A) (A) (A) (A) (A) (A)
                 (A) (A) (A) (A) (A) (A) (A) (A) (A) (A) (A) (A)
                 (A) (A) (A) (A) (A) (A) (A)
 Beta  Orbitals:
       Occupied  (A) (A) (A) (A) (A) (A) (A) (A) (A) (A) (A) (A)
                 (A) (A) (A) (A) (A) (A) (A) (A) (A) (A) (A) (A)
       Virtual   (A) (A) (A) (A) (A) (A) (A) (A) (A) (A) (A) (A)
                 (A) (A) (A) (A) (A) (A) (A) (A) (A) (A) (A) (A)
                 (A) (A) (A) (A) (A) (A) (A) (A) (A) (A) (A) (A)
                 (A) (A) (A) (A) (A) (A) (A) (A) (A) (A) (A) (A)
                 (A) (A) (A) (A) (A) (A) (A) (A) (A) (A) (A) (A)
                 (A) (A) (A) (A) (A) (A) (A) (A) (A) (A) (A) (A)
                 (A) (A) (A) (A) (A) (A) (A) (A) (A) (A) (A) (A)
                 (A) (A) (A) (A) (A) (A) (A) (A)
 The electronic state is 2-A.
 Alpha  occ. eigenvalues --  -10.19549 -10.18366 -10.18270 -10.17665 -10.17112
 Alpha  occ. eigenvalues --  -10.16692  -0.80955  -0.74531  -0.70392  -0.64542
 Alpha  occ. eigenvalues --   -0.59096  -0.55148  -0.46190  -0.44819  -0.42536
 Alpha  occ. eigenvalues --   -0.41438  -0.39492  -0.37543  -0.36709  -0.35706
 Alpha  occ. eigenvalues --   -0.34591  -0.31839  -0.31354  -0.30713  -0.22792
 Alpha virt. eigenvalues --    0.08766   0.11815   0.12040   0.13579   0.15176
 Alpha virt. eigenvalues --    0.16032   0.16315   0.17276   0.17608   0.18505
 Alpha virt. eigenvalues --    0.19206   0.21957   0.22569   0.23229   0.25160
 Alpha virt. eigenvalues --    0.25243   0.28194   0.28971   0.49341   0.50799
 Alpha virt. eigenvalues --    0.51193   0.52625   0.53089   0.58023   0.58955
 Alpha virt. eigenvalues --    0.63018   0.63811   0.64543   0.67590   0.68949
 Alpha virt. eigenvalues --    0.73514   0.75445   0.80901   0.83893   0.84933
 Alpha virt. eigenvalues --    0.85787   0.88694   0.89650   0.90158   0.91373
 Alpha virt. eigenvalues --    0.92372   0.93147   0.93804   0.96283   0.96751
 Alpha virt. eigenvalues --    0.97318   0.99207   1.00837   1.02172   1.02776
 Alpha virt. eigenvalues --    1.19016   1.30741   1.39829   1.42635   1.50660
 Alpha virt. eigenvalues --    1.57227   1.58355   1.67608   1.73565   1.74290
 Alpha virt. eigenvalues --    1.81842   1.84077   1.88250   1.90940   1.95448
 Alpha virt. eigenvalues --    1.97314   1.98820   1.99656   2.01965   2.06740
 Alpha virt. eigenvalues --    2.11392   2.16416   2.23445   2.27626   2.29000
 Alpha virt. eigenvalues --    2.30797   2.31981   2.35212   2.42133   2.51100
 Alpha virt. eigenvalues --    2.52396   2.59178   2.68258   2.77040   2.79242
 Alpha virt. eigenvalues --    4.08976   4.16816   4.25612   4.38513   4.41680
 Alpha virt. eigenvalues --    4.59600
  Beta  occ. eigenvalues --  -10.18355 -10.18297 -10.18104 -10.17665 -10.17113
  Beta  occ. eigenvalues --  -10.16683  -0.80733  -0.73802  -0.69769  -0.63841
  Beta  occ. eigenvalues --   -0.57925  -0.54904  -0.45964  -0.44450  -0.42005
  Beta  occ. eigenvalues --   -0.41163  -0.38982  -0.37367  -0.36387  -0.35192
  Beta  occ. eigenvalues --   -0.34287  -0.31741  -0.31240  -0.30472
  Beta virt. eigenvalues --   -0.05907   0.08950   0.12092   0.12193   0.13722
  Beta virt. eigenvalues --    0.15494   0.16219   0.16555   0.17569   0.17729
  Beta virt. eigenvalues --    0.18775   0.19678   0.22044   0.22872   0.23601
  Beta virt. eigenvalues --    0.25273   0.25499   0.28991   0.29180   0.49763
  Beta virt. eigenvalues --    0.51272   0.51742   0.53168   0.53383   0.59263
  Beta virt. eigenvalues --    0.60888   0.63628   0.64798   0.65576   0.68226
  Beta virt. eigenvalues --    0.69556   0.73994   0.75928   0.81090   0.84169
  Beta virt. eigenvalues --    0.85322   0.86057   0.89002   0.90223   0.90254
  Beta virt. eigenvalues --    0.91603   0.92651   0.93578   0.94242   0.96601
  Beta virt. eigenvalues --    0.97286   0.97560   0.99485   1.01295   1.02518
  Beta virt. eigenvalues --    1.03125   1.20403   1.30826   1.40484   1.42969
  Beta virt. eigenvalues --    1.51075   1.58228   1.58615   1.68405   1.74193
  Beta virt. eigenvalues --    1.74440   1.82785   1.87298   1.89928   1.91664
  Beta virt. eigenvalues --    1.96045   1.98075   1.99562   2.00953   2.02183
  Beta virt. eigenvalues --    2.07973   2.11594   2.18046   2.25288   2.27960
  Beta virt. eigenvalues --    2.29636   2.31828   2.32688   2.35258   2.42698
  Beta virt. eigenvalues --    2.51259   2.52513   2.59963   2.68612   2.77334
  Beta virt. eigenvalues --    2.79477   4.10560   4.18156   4.25770   4.39110
  Beta virt. eigenvalues --    4.41732   4.59674
          Condensed to atoms (all electrons):
               1          2          3          4          5          6
     1  C    5.320360   0.360002   0.353215   0.366169  -0.039580  -0.038130
     2  H    0.360002   0.595628  -0.045476  -0.045654   0.005372  -0.001474
     3  H    0.353215  -0.045476   0.596272  -0.035829  -0.003477  -0.001221
     4  C    0.366169  -0.045654  -0.035829   5.037069   0.365264   0.361376
     5  H   -0.039580   0.005372  -0.003477   0.365264   0.606886  -0.037653
     6  H   -0.038130  -0.001474  -0.001221   0.361376  -0.037653   0.609438
     7  C   -0.038321  -0.005980   0.004088   0.383245  -0.037670  -0.039159
     8  H   -0.004913   0.005747  -0.000013  -0.048491   0.006491  -0.003444
     9  C    0.003887   0.000055  -0.000160  -0.041636  -0.004379  -0.004730
    10  H    0.000063   0.000001  -0.000006  -0.005595  -0.000343   0.007282
    11  H   -0.000021   0.000008   0.000004  -0.004481   0.004767  -0.000364
    12  C   -0.000121  -0.000001   0.000002   0.003986  -0.000040   0.000074
    13  H    0.000001   0.000000   0.000000   0.000034   0.000002   0.000003
    14  H    0.000001   0.000000   0.000000  -0.000122   0.000003  -0.000008
    15  H    0.000000  -0.000001   0.000000   0.000059   0.000007   0.000000
    16  C   -0.002769  -0.000526   0.000130  -0.050710  -0.007598   0.005734
    17  H    0.008141   0.000178  -0.000150  -0.005593  -0.000142   0.000082
    18  H   -0.000162   0.000072  -0.000017  -0.005736   0.005575  -0.000025
    19  H    0.000032  -0.000029   0.000002   0.005026  -0.000054  -0.000168
               7          8          9         10         11         12
     1  C   -0.038321  -0.004913   0.003887   0.000063  -0.000021  -0.000121
     2  H   -0.005980   0.005747   0.000055   0.000001   0.000008  -0.000001
     3  H    0.004088  -0.000013  -0.000160  -0.000006   0.000004   0.000002
     4  C    0.383245  -0.048491  -0.041636  -0.005595  -0.004481   0.003986
     5  H   -0.037670   0.006491  -0.004379  -0.000343   0.004767  -0.000040
     6  H   -0.039159  -0.003444  -0.004730   0.007282  -0.000364   0.000074
     7  C    4.866253   0.374023   0.386966  -0.038763  -0.037850  -0.037932
     8  H    0.374023   0.650267  -0.047951  -0.003524   0.006603  -0.005025
     9  C    0.386966  -0.047951   4.997929   0.371414   0.369177   0.368974
    10  H   -0.038763  -0.003524   0.371414   0.618811  -0.038928  -0.039096
    11  H   -0.037850   0.006603   0.369177  -0.038928   0.617291  -0.039460
    12  C   -0.037932  -0.005025   0.368974  -0.039096  -0.039460   5.073031
    13  H   -0.005191  -0.000199  -0.032654   0.005140  -0.004674   0.377672
    14  H    0.003918  -0.000016  -0.027107  -0.003804  -0.002226   0.371405
    15  H   -0.004697   0.005733  -0.035994  -0.003816   0.005337   0.376801
    16  C    0.381284  -0.048972  -0.050704   0.005775  -0.007990  -0.003936
    17  H   -0.028516  -0.003229   0.004912  -0.000171  -0.000035   0.000076
    18  H   -0.035279   0.005973  -0.005463  -0.000016   0.005644  -0.000305
    19  H   -0.030147  -0.003451  -0.005317   0.000003  -0.000091   0.002142
              13         14         15         16         17         18
     1  C    0.000001   0.000001   0.000000  -0.002769   0.008141  -0.000162
     2  H    0.000000   0.000000  -0.000001  -0.000526   0.000178   0.000072
     3  H    0.000000   0.000000   0.000000   0.000130  -0.000150  -0.000017
     4  C    0.000034  -0.000122   0.000059  -0.050710  -0.005593  -0.005736
     5  H    0.000002   0.000003   0.000007  -0.007598  -0.000142   0.005575
     6  H    0.000003  -0.000008   0.000000   0.005734   0.000082  -0.000025
     7  C   -0.005191   0.003918  -0.004697   0.381284  -0.028516  -0.035279
     8  H   -0.000199  -0.000016   0.005733  -0.048972  -0.003229   0.005973
     9  C   -0.032654  -0.027107  -0.035994  -0.050704   0.004912  -0.005463
    10  H    0.005140  -0.003804  -0.003816   0.005775  -0.000171  -0.000016
    11  H   -0.004674  -0.002226   0.005337  -0.007990  -0.000035   0.005644
    12  C    0.377672   0.371405   0.376801  -0.003936   0.000076  -0.000305
    13  H    0.571505  -0.031279  -0.032872   0.002254  -0.000119   0.000267
    14  H   -0.031279   0.578718  -0.031354   0.000114   0.000001  -0.000023
    15  H   -0.032872  -0.031354   0.580198  -0.000562  -0.000027   0.000075
    16  C    0.002254   0.000114  -0.000562   5.114844   0.370393   0.370840
    17  H   -0.000119   0.000001  -0.000027   0.370393   0.564238  -0.030375
    18  H    0.000267  -0.000023   0.000075   0.370840  -0.030375   0.584729
    19  H    0.003194  -0.000091   0.000398   0.371257  -0.030639  -0.032122
              19
     1  C    0.000032
     2  H   -0.000029
     3  H    0.000002
     4  C    0.005026
     5  H   -0.000054
     6  H   -0.000168
     7  C   -0.030147
     8  H   -0.003451
     9  C   -0.005317
    10  H    0.000003
    11  H   -0.000091
    12  C    0.002142
    13  H    0.003194
    14  H   -0.000091
    15  H    0.000398
    16  C    0.371257
    17  H   -0.030639
    18  H   -0.032122
    19  H    0.576971
          Atomic-Atomic Spin Densities.
               1          2          3          4          5          6
     1  C    1.131688  -0.013040  -0.012176  -0.035698  -0.005143  -0.024329
     2  H   -0.013040  -0.023589   0.006268   0.002384   0.000211  -0.002418
     3  H   -0.012176   0.006268  -0.026266   0.002243   0.001253  -0.002704
     4  C   -0.035698   0.002384   0.002243  -0.037513   0.003105   0.016216
     5  H   -0.005143   0.000211   0.001253   0.003105   0.013555  -0.007860
     6  H   -0.024329  -0.002418  -0.002704   0.016216  -0.007860   0.077983
     7  C   -0.005602   0.001075   0.000204   0.001909   0.004863  -0.009094
     8  H   -0.000085   0.000128   0.000028   0.000249   0.000072  -0.000694
     9  C    0.000073  -0.000046  -0.000001   0.000418  -0.000344   0.000563
    10  H   -0.000061  -0.000007  -0.000002   0.000330  -0.000090   0.000773
    11  H   -0.000003   0.000000   0.000000   0.000010  -0.000039   0.000020
    12  C   -0.000005  -0.000001   0.000000  -0.000002  -0.000017   0.000045
    13  H    0.000000   0.000000   0.000000  -0.000003   0.000001  -0.000002
    14  H    0.000000   0.000000   0.000000   0.000003   0.000000   0.000001
    15  H   -0.000001   0.000000   0.000000   0.000006  -0.000001   0.000007
    16  C   -0.000625   0.000044  -0.000027   0.000609  -0.000838   0.000682
    17  H    0.003619  -0.000245  -0.000032  -0.000808  -0.000164   0.000109
    18  H    0.000123  -0.000002  -0.000002   0.000007  -0.000066   0.000013
    19  H    0.000079  -0.000005  -0.000001  -0.000064  -0.000020   0.000012
               7          8          9         10         11         12
     1  C   -0.005602  -0.000085   0.000073  -0.000061  -0.000003  -0.000005
     2  H    0.001075   0.000128  -0.000046  -0.000007   0.000000  -0.000001
     3  H    0.000204   0.000028  -0.000001  -0.000002   0.000000   0.000000
     4  C    0.001909   0.000249   0.000418   0.000330   0.000010  -0.000002
     5  H    0.004863   0.000072  -0.000344  -0.000090  -0.000039  -0.000017
     6  H   -0.009094  -0.000694   0.000563   0.000773   0.000020   0.000045
     7  C    0.017210   0.000463   0.000089  -0.000437  -0.000244  -0.000278
     8  H    0.000463  -0.000693   0.000356  -0.000037  -0.000015  -0.000056
     9  C    0.000089   0.000356  -0.001625  -0.000355   0.000172   0.000087
    10  H   -0.000437  -0.000037  -0.000355  -0.000214   0.000076   0.000120
    11  H   -0.000244  -0.000015   0.000172   0.000076  -0.000023   0.000015
    12  C   -0.000278  -0.000056   0.000087   0.000120   0.000015  -0.000443
    13  H    0.000038   0.000009   0.000056  -0.000014  -0.000003  -0.000016
    14  H    0.000000   0.000000  -0.000095   0.000009   0.000008   0.000140
    15  H    0.000001  -0.000024  -0.000113   0.000025   0.000001   0.000031
    16  C   -0.005168  -0.000242   0.000945   0.000083   0.000052   0.000109
    17  H   -0.000193  -0.000019  -0.000029   0.000004   0.000005   0.000005
    18  H   -0.000321  -0.000018   0.000081   0.000002  -0.000003   0.000003
    19  H   -0.000082  -0.000037   0.000024   0.000004   0.000006   0.000009
              13         14         15         16         17         18
     1  C    0.000000   0.000000  -0.000001  -0.000625   0.003619   0.000123
     2  H    0.000000   0.000000   0.000000   0.000044  -0.000245  -0.000002
     3  H    0.000000   0.000000   0.000000  -0.000027  -0.000032  -0.000002
     4  C   -0.000003   0.000003   0.000006   0.000609  -0.000808   0.000007
     5  H    0.000001   0.000000  -0.000001  -0.000838  -0.000164  -0.000066
     6  H   -0.000002   0.000001   0.000007   0.000682   0.000109   0.000013
     7  C    0.000038   0.000000   0.000001  -0.005168  -0.000193  -0.000321
     8  H    0.000009   0.000000  -0.000024  -0.000242  -0.000019  -0.000018
     9  C    0.000056  -0.000095  -0.000113   0.000945  -0.000029   0.000081
    10  H   -0.000014   0.000009   0.000025   0.000083   0.000004   0.000002
    11  H   -0.000003   0.000008   0.000001   0.000052   0.000005  -0.000003
    12  C   -0.000016   0.000140   0.000031   0.000109   0.000005   0.000003
    13  H    0.000214  -0.000026  -0.000042  -0.000058  -0.000004  -0.000003
    14  H   -0.000026  -0.000076   0.000017   0.000003   0.000000   0.000000
    15  H   -0.000042   0.000017   0.000114   0.000020   0.000002   0.000000
    16  C   -0.000058   0.000003   0.000020   0.012536  -0.000410  -0.000077
    17  H   -0.000004   0.000000   0.000002  -0.000410  -0.003029   0.000312
    18  H   -0.000003   0.000000   0.000000  -0.000077   0.000312  -0.000096
    19  H   -0.000052   0.000001   0.000010  -0.000234   0.000066   0.000029
              19
     1  C    0.000079
     2  H   -0.000005
     3  H   -0.000001
     4  C   -0.000064
     5  H   -0.000020
     6  H    0.000012
     7  C   -0.000082
     8  H   -0.000037
     9  C    0.000024
    10  H    0.000004
    11  H    0.000006
    12  C    0.000009
    13  H   -0.000052
    14  H    0.000001
    15  H    0.000010
    16  C   -0.000234
    17  H    0.000066
    18  H    0.000029
    19  H   -0.000072
 Mulliken charges and spin densities:
               1          2
     1  C   -0.287855   1.038814
     2  H    0.132078  -0.029242
     3  H    0.132637  -0.031216
     4  C   -0.278381  -0.046601
     5  H    0.136568   0.008478
     6  H    0.142385   0.049323
     7  C   -0.060274   0.004433
     8  H    0.114391  -0.000613
     9  C   -0.247217   0.000256
    10  H    0.125573   0.000210
    11  H    0.127289   0.000034
    12  C   -0.448245  -0.000253
    13  H    0.146914   0.000093
    14  H    0.141870  -0.000014
    15  H    0.140717   0.000055
    16  C   -0.448857   0.007404
    17  H    0.150973  -0.000813
    18  H    0.136349  -0.000018
    19  H    0.143084  -0.000329
 Sum of Mulliken charges =   0.00000   1.00000
 Mulliken charges and spin densities with hydrogens summed into heavy atoms:
               1          2
     1  C   -0.023139   0.978356
     4  C    0.000573   0.011199
     7  C    0.054117   0.003820
     9  C    0.005645   0.000500
    12  C   -0.018745  -0.000119
    16  C   -0.018451   0.006244
 Electronic spatial extent (au):  <R**2>=            824.9981
 Charge=              0.0000 electrons
 Dipole moment (field-independent basis, Debye):
    X=              0.2672    Y=             -0.6281    Z=             -0.1038  Tot=              0.6904
 Quadrupole moment (field-independent basis, Debye-Ang):
   XX=            -42.1531   YY=            -40.9062   ZZ=            -40.2847
   XY=              1.6495   XZ=              0.3432   YZ=              0.1224
 Traceless Quadrupole moment (field-independent basis, Debye-Ang):
   XX=             -1.0384   YY=              0.2085   ZZ=              0.8299
   XY=              1.6495   XZ=              0.3432   YZ=              0.1224
 Octapole moment (field-independent basis, Debye-Ang**2):
  XXX=              4.1345  YYY=             -1.8130  ZZZ=             -0.1316  XYY=              1.1550
  XXY=             -5.1902  XXZ=              0.0452  XZZ=             -0.1665  YZZ=             -0.1455
  YYZ=             -0.4909  XYZ=             -0.0738
 Hexadecapole moment (field-independent basis, Debye-Ang**3):
 XXXX=           -817.1024 YYYY=           -239.6153 ZZZZ=           -102.7148 XXXY=             14.9158
 XXXZ=              3.2096 YYYX=              2.4118 YYYZ=             -0.4085 ZZZX=              0.2006
 ZZZY=              1.1701 XXYY=           -172.0215 XXZZ=           -151.3464 YYZZ=            -59.2732
 XXYZ=             -0.6200 YYXZ=              0.1087 ZZXY=              0.5269
 N-N= 2.452815687127D+02 E-N=-1.036123485538D+03  KE= 2.339566404087D+02
                          Isotropic Fermi Contact Couplings
        Atom                 a.u.       MegaHertz       Gauss      10(-4) cm-1
     1  C(13)              0.30825     346.53730     123.65312     115.59240
     2  H(1)              -0.00352     -15.72262      -5.61022      -5.24450
     3  H(1)              -0.00464     -20.72960      -7.39684      -6.91465
     4  C(13)             -0.01294     -14.54995      -5.19178      -4.85334
     5  H(1)               0.00557      24.90874       8.88806       8.30866
     6  H(1)               0.02683     119.94428      42.79910      40.00911
     7  C(13)              0.00466       5.23879       1.86933       1.74747
     8  H(1)              -0.00023      -1.03741      -0.37017      -0.34604
     9  C(13)             -0.00042      -0.46718      -0.16670      -0.15583
    10  H(1)               0.00007       0.31068       0.11086       0.10363
    11  H(1)               0.00005       0.20685       0.07381       0.06900
    12  C(13)             -0.00026      -0.29585      -0.10557      -0.09869
    13  H(1)               0.00008       0.36432       0.13000       0.12152
    14  H(1)               0.00000       0.00585       0.00209       0.00195
    15  H(1)               0.00001       0.04072       0.01453       0.01358
    16  C(13)             -0.00007      -0.07732      -0.02759      -0.02579
    17  H(1)               0.00061       2.74161       0.97827       0.91450
    18  H(1)               0.00002       0.10894       0.03887       0.03634
    19  H(1)              -0.00010      -0.46295      -0.16519      -0.15442
 --------------------------------------------------------
       Center         ----  Spin Dipole Couplings  ----
                      3XX-RR        3YY-RR        3ZZ-RR
 --------------------------------------------------------
     1   Atom       -0.453853      0.813916     -0.360063
     2   Atom       -0.058975     -0.012537      0.071512
     3   Atom        0.024271      0.014904     -0.039175
     4   Atom        0.011382      0.011330     -0.022711
     5   Atom       -0.001135     -0.006618      0.007754
     6   Atom        0.000900      0.008337     -0.009236
     7   Atom        0.014923     -0.007173     -0.007750
     8   Atom        0.007830     -0.004843     -0.002988
     9   Atom        0.003451     -0.001109     -0.002341
    10   Atom        0.003866     -0.001152     -0.002714
    11   Atom        0.002729     -0.001559     -0.001170
    12   Atom        0.001786     -0.000696     -0.001090
    13   Atom        0.001748     -0.000816     -0.000932
    14   Atom        0.001297     -0.000613     -0.000684
    15   Atom        0.001759     -0.000904     -0.000855
    16   Atom        0.009622     -0.001530     -0.008092
    17   Atom        0.006070      0.002753     -0.008823
    18   Atom        0.002844     -0.001776     -0.001068
    19   Atom        0.003257     -0.000683     -0.002574
 --------------------------------------------------------
                        XY            XZ            YZ
 --------------------------------------------------------
     1   Atom       -0.185394     -0.058244      0.392413
     2   Atom       -0.005971     -0.003119      0.005972
     3   Atom        0.042033     -0.038538     -0.006639
     4   Atom       -0.034214      0.005552     -0.000552
     5   Atom       -0.005877      0.013590     -0.006753
     6   Atom       -0.008422      0.004526     -0.000166
     7   Atom        0.002162     -0.003512     -0.001991
     8   Atom       -0.000130     -0.005892      0.000001
     9   Atom        0.000291      0.000794      0.000861
    10   Atom       -0.001907      0.000314     -0.000082
    11   Atom       -0.000576      0.001997     -0.000203
    12   Atom       -0.000206      0.000110      0.000081
    13   Atom        0.000348      0.000066      0.000033
    14   Atom       -0.000245      0.000070      0.000008
    15   Atom       -0.000117     -0.000689      0.000031
    16   Atom       -0.000598      0.004076     -0.001510
    17   Atom        0.010936      0.001034     -0.000338
    18   Atom        0.003227      0.003602      0.001981
    19   Atom        0.002765     -0.000248     -0.000292
 --------------------------------------------------------


 ---------------------------------------------------------------------------------
              Anisotropic Spin Dipole Couplings in Principal Axis System
 ---------------------------------------------------------------------------------

       Atom             a.u.   MegaHertz   Gauss  10(-4) cm-1        Axes

              Baa    -0.4819   -64.662   -23.073   -21.569  0.8147 -0.0582  0.5770
     1 C(13)  Bbb    -0.4779   -64.123   -22.881   -21.389 -0.5637 -0.3131  0.7644
              Bcc     0.9597   128.785    45.954    42.958 -0.1362  0.9479  0.2879
 
              Baa    -0.0598   -31.892   -11.380   -10.638  0.9922  0.1232  0.0180
     2 H(1)   Bbb    -0.0123    -6.540    -2.334    -2.181 -0.1215  0.9897 -0.0751
              Bcc     0.0720    38.432    13.713    12.819 -0.0270  0.0723  0.9970
 
              Baa    -0.0598   -31.911   -11.387   -10.644  0.4890 -0.1997  0.8491
     3 H(1)   Bbb    -0.0124    -6.594    -2.353    -2.200 -0.4396  0.7844  0.4376
              Bcc     0.0722    38.505    13.740    12.844  0.7534  0.5873 -0.2958
 
              Baa    -0.0264    -3.549    -1.266    -1.184 -0.5256 -0.4656  0.7121
     4 C(13)  Bbb    -0.0194    -2.602    -0.929    -0.868  0.4713  0.5374  0.6993
              Bcc     0.0458     6.152     2.195     2.052  0.7083 -0.7031  0.0630
 
              Baa    -0.0113    -6.036    -2.154    -2.013  0.8125  0.3752 -0.4462
     5 H(1)   Bbb    -0.0092    -4.922    -1.756    -1.642 -0.1476  0.8728  0.4652
              Bcc     0.0205    10.958     3.910     3.655  0.5640 -0.3122  0.7645
 
              Baa    -0.0115    -6.131    -2.188    -2.045 -0.4438 -0.1812  0.8776
     6 H(1)   Bbb    -0.0026    -1.406    -0.502    -0.469  0.6987  0.5434  0.4654
              Bcc     0.0141     7.537     2.689     2.514 -0.5612  0.8197 -0.1145
 
              Baa    -0.0095    -1.281    -0.457    -0.427  0.0597  0.6089  0.7910
     7 C(13)  Bbb    -0.0062    -0.828    -0.295    -0.276 -0.1791  0.7861 -0.5916
              Bcc     0.0157     2.109     0.752     0.703  0.9820  0.1063 -0.1560
 
              Baa    -0.0056    -2.977    -1.062    -0.993  0.4018  0.0693  0.9131
     8 H(1)   Bbb    -0.0048    -2.582    -0.921    -0.861 -0.0207  0.9976 -0.0666
              Bcc     0.0104     5.560     1.984     1.855  0.9155 -0.0078 -0.4023
 
              Baa    -0.0028    -0.381    -0.136    -0.127 -0.0933 -0.4313  0.8974
     9 C(13)  Bbb    -0.0008    -0.101    -0.036    -0.034 -0.1408  0.8979  0.4170
              Bcc     0.0036     0.482     0.172     0.161  0.9856  0.0875  0.1446
 
              Baa    -0.0027    -1.456    -0.520    -0.486 -0.0500 -0.0084  0.9987
    10 H(1)   Bbb    -0.0018    -0.957    -0.342    -0.319  0.3180  0.9478  0.0239
              Bcc     0.0045     2.413     0.861     0.805  0.9468 -0.3188  0.0447
 
              Baa    -0.0020    -1.075    -0.384    -0.359 -0.3960 -0.0938  0.9135
    11 H(1)   Bbb    -0.0016    -0.868    -0.310    -0.290  0.0702  0.9888  0.1320
              Bcc     0.0036     1.943     0.693     0.648  0.9156 -0.1164  0.3849
 
              Baa    -0.0011    -0.149    -0.053    -0.050 -0.0524 -0.2145  0.9753
    12 C(13)  Bbb    -0.0007    -0.093    -0.033    -0.031  0.0713  0.9734  0.2179
              Bcc     0.0018     0.242     0.087     0.081  0.9961 -0.0810  0.0357
 
              Baa    -0.0009    -0.502    -0.179    -0.167  0.0141 -0.2903  0.9568
    13 H(1)   Bbb    -0.0009    -0.456    -0.163    -0.152 -0.1340  0.9477  0.2895
              Bcc     0.0018     0.958     0.342     0.320  0.9909  0.1323  0.0256
 
              Baa    -0.0007    -0.369    -0.132    -0.123 -0.0734 -0.3244  0.9430
    14 H(1)   Bbb    -0.0006    -0.340    -0.121    -0.114  0.1068  0.9376  0.3309
              Bcc     0.0013     0.710     0.253     0.237  0.9916 -0.1251  0.0342
 
              Baa    -0.0010    -0.547    -0.195    -0.183  0.2397 -0.0138  0.9708
    15 H(1)   Bbb    -0.0009    -0.485    -0.173    -0.162  0.0448  0.9990  0.0032
              Bcc     0.0019     1.032     0.368     0.344  0.9698 -0.0427 -0.2401
 
              Baa    -0.0092    -1.238    -0.442    -0.413 -0.2029  0.1734  0.9637
    16 C(13)  Bbb    -0.0014    -0.183    -0.065    -0.061  0.1104  0.9820 -0.1535
              Bcc     0.0106     1.420     0.507     0.474  0.9730 -0.0753  0.2184
 
              Baa    -0.0092    -4.897    -1.747    -1.633 -0.2413  0.2478  0.9383
    17 H(1)   Bbb    -0.0063    -3.366    -1.201    -1.123 -0.6051  0.7175 -0.3451
              Bcc     0.0155     8.262     2.948     2.756  0.7587  0.6510  0.0232
 
              Baa    -0.0035    -1.857    -0.662    -0.619 -0.2564  0.8989 -0.3552
    18 H(1)   Bbb    -0.0032    -1.709    -0.610    -0.570 -0.5663  0.1581  0.8089
              Bcc     0.0067     3.565     1.272     1.189  0.7833  0.4086  0.4685
 
              Baa    -0.0026    -1.404    -0.501    -0.468 -0.0812  0.2592  0.9624
    19 H(1)   Bbb    -0.0021    -1.103    -0.394    -0.368 -0.4539  0.8500 -0.2673
              Bcc     0.0047     2.507     0.895     0.836  0.8873  0.4585 -0.0486
 

 ---------------------------------------------------------------------------------

 No NMR shielding tensors so no spin-rotation constants.
 Leave Link  601 at Sat Nov  7 02:07:33 2015, MaxMem=   805306368 cpu:         1.1
 (Enter /home/hetanjin/apps/g09D01/g09/l701.exe)
 Compute integral first derivatives.
 ... and contract with generalized density number  0.
 Leave Link  701 at Sat Nov  7 02:07:34 2015, MaxMem=   805306368 cpu:         0.9
 (Enter /home/hetanjin/apps/g09D01/g09/l702.exe)
 L702 exits ... SP integral derivatives will be done elsewhere.
 Leave Link  702 at Sat Nov  7 02:07:34 2015, MaxMem=   805306368 cpu:         0.1
 (Enter /home/hetanjin/apps/g09D01/g09/l703.exe)
 Compute integral first derivatives, UseDBF=F ICtDFT=           0.
 Integral derivatives from FoFJK, PRISM(SPDF).
 Calling FoFJK, ICntrl=      2127 FMM=F ISym2X=0 I1Cent= 0 IOpClX= 1 NMat=1 NMatS=1 NMatT=0.
 FoFJK:  IHMeth= 1 ICntrl=    2127 DoSepK=F KAlg= 0 I1Cent=   0 FoldK=F
 IRaf=         0 NMat=   1 IRICut=       1 DoRegI=T DoRafI=F ISym2E= 0.
 FoFCou: FMM=F IPFlag=           0 FMFlag=      100000 FMFlg1=         800
         NFxFlg=           0 DoJE=F BraDBF=F KetDBF=F FulRan=T
         wScrn=  0.000000 ICntrl=    2127 IOpCl=  1 I1Cent=           0 NGrid=           0
         NMat0=    1 NMatS0=      1 NMatT0=    0 NMatD0=    1 NMtDS0=    0 NMtDT0=    0
 Symmetry not used in FoFCou.
 Leave Link  703 at Sat Nov  7 02:07:42 2015, MaxMem=   805306368 cpu:        32.3
 (Enter /home/hetanjin/apps/g09D01/g09/l716.exe)
 Dipole        = 1.05114298D-01-2.47106485D-01-4.08302809D-02
 ***** Axes restored to original set *****
 -------------------------------------------------------------------
 Center     Atomic                   Forces (Hartrees/Bohr)
 Number     Number              X              Y              Z
 -------------------------------------------------------------------
      1        6           0.016322680   -0.042556084   -0.008085344
      2        1          -0.001462159    0.014906671   -0.000033994
      3        1          -0.005592060    0.012422112    0.006703825
      4        6          -0.006665981    0.021446762    0.002680547
      5        1           0.000478003   -0.001249503    0.000528237
      6        1          -0.002568891   -0.003086388   -0.001486857
      7        6           0.001227773   -0.000001657   -0.000432280
      8        1          -0.000120355   -0.000093467    0.000026394
      9        6           0.000023828   -0.000169636   -0.000072941
     10        1           0.000201833   -0.000258389    0.000003938
     11        1          -0.000034045    0.000012017   -0.000039330
     12        6          -0.000011740   -0.000035993   -0.000057860
     13        1          -0.000089934   -0.000053291    0.000010248
     14        1          -0.000048637   -0.000011925    0.000006477
     15        1          -0.000003250    0.000003315    0.000016481
     16        6          -0.000467921    0.000024288    0.000197306
     17        1          -0.001361255   -0.001034499    0.000132267
     18        1          -0.000110201   -0.000008094   -0.000118448
     19        1           0.000282312   -0.000256238    0.000021333
 -------------------------------------------------------------------
 Cartesian Forces:  Max     0.042556084 RMS     0.007416120
 Leave Link  716 at Sat Nov  7 02:07:42 2015, MaxMem=   805306368 cpu:         0.1
 (Enter /home/hetanjin/apps/g09D01/g09/l103.exe)

 GradGradGradGradGradGradGradGradGradGradGradGradGradGradGradGradGradGrad
 Berny optimization.
 FormGI is forming the generalized inverse of G from B-inverse, IUseBI=4.
 Internal  Forces:  Max     0.014212960 RMS     0.003399272
 Search for a local minimum.
 Step number   1 out of a maximum of  103
 All quantities printed in internal units (Hartrees-Bohrs-Radians)
 RMS Force = .33993D-02 SwitMx=.10000D-02 MixMth= 1
 Mixed Optimization -- RFO/linear search
 Second derivative matrix not updated -- first step.
 ITU=  0
     Eigenvalues ---    0.00230   0.00230   0.00279   0.00326   0.00326
     Eigenvalues ---    0.03219   0.03352   0.03666   0.03683   0.04645
     Eigenvalues ---    0.04711   0.04866   0.05254   0.05346   0.05357
     Eigenvalues ---    0.05439   0.05496   0.08726   0.09661   0.12495
     Eigenvalues ---    0.13073   0.16000   0.16000   0.16000   0.16000
     Eigenvalues ---    0.16000   0.16000   0.16000   0.16000   0.16722
     Eigenvalues ---    0.17090   0.21941   0.21969   0.28249   0.28249
     Eigenvalues ---    0.28802   0.29125   0.29125   0.33394   0.33637
     Eigenvalues ---    0.33637   0.33788   0.33788   0.33845   0.33973
     Eigenvalues ---    0.33973   0.34116   0.34116   0.34193   0.34238
     Eigenvalues ---    0.34238
 RFO step:  Lambda=-1.40921607D-02 EMin= 2.30000000D-03
 Linear search not attempted -- first point.
 Iteration  1 RMS(Cart)=  0.05369846 RMS(Int)=  0.00892756
 Iteration  2 RMS(Cart)=  0.00729551 RMS(Int)=  0.00569184
 Iteration  3 RMS(Cart)=  0.00010778 RMS(Int)=  0.00569124
 Iteration  4 RMS(Cart)=  0.00000220 RMS(Int)=  0.00569124
 Iteration  5 RMS(Cart)=  0.00000007 RMS(Int)=  0.00569124
 ITry= 1 IFail=0 DXMaxC= 2.69D-01 DCOld= 1.00D+10 DXMaxT= 3.00D-01 DXLimC= 3.00D+00 Rises=F
 Variable       Old X    -DE/DX   Delta X   Delta X   Delta X     New X
                                 (Linear)    (Quad)   (Total)
    R1        2.07376  -0.00050   0.00000  -0.00141  -0.00141   2.07235
    R2        2.07134  -0.00061   0.00000  -0.00171  -0.00171   2.06963
    R3        2.89742  -0.01249   0.00000  -0.04090  -0.04090   2.85652
    R4        2.07947   0.00044   0.00000   0.00125   0.00125   2.08072
    R5        2.07690   0.00308   0.00000   0.00876   0.00876   2.08565
    R6        2.91596  -0.00121   0.00000  -0.00409  -0.00409   2.91187
    R7        2.08366  -0.00002   0.00000  -0.00006  -0.00006   2.08359
    R8        2.91596   0.00023   0.00000   0.00078   0.00078   2.91674
    R9        2.90418  -0.00117   0.00000  -0.00386  -0.00386   2.90032
   R10        2.07690   0.00023   0.00000   0.00066   0.00066   2.07755
   R11        2.07947  -0.00004   0.00000  -0.00012  -0.00012   2.07936
   R12        2.89742  -0.00015   0.00000  -0.00050  -0.00050   2.89692
   R13        2.07005  -0.00006   0.00000  -0.00018  -0.00018   2.06987
   R14        2.07134  -0.00003   0.00000  -0.00008  -0.00008   2.07126
   R15        2.07376  -0.00002   0.00000  -0.00005  -0.00005   2.07372
   R16        2.06931   0.00055   0.00000   0.00155   0.00155   2.07085
   R17        2.07593  -0.00012   0.00000  -0.00033  -0.00033   2.07559
   R18        2.06930   0.00010   0.00000   0.00027   0.00027   2.06957
    A1        1.87726  -0.00068   0.00000   0.12187   0.08675   1.96401
    A2        1.93932   0.01385   0.00000   0.14527   0.11757   2.05689
    A3        1.93461   0.01421   0.00000   0.14765   0.11993   2.05454
    A4        1.90987   0.00126   0.00000   0.01173   0.01174   1.92161
    A5        1.89569  -0.00229   0.00000  -0.02443  -0.02439   1.87130
    A6        2.00987  -0.00091   0.00000  -0.00376  -0.00380   2.00607
    A7        1.84904  -0.00041   0.00000  -0.00224  -0.00225   1.84679
    A8        1.90093   0.00012   0.00000   0.00703   0.00697   1.90789
    A9        1.89164   0.00226   0.00000   0.01158   0.01146   1.90311
   A10        1.87539   0.00041   0.00000  -0.00088  -0.00093   1.87445
   A11        1.92053   0.00121   0.00000   0.00670   0.00674   1.92728
   A12        1.95271  -0.00286   0.00000  -0.01761  -0.01763   1.93508
   A13        1.87539  -0.00070   0.00000   0.00192   0.00190   1.87728
   A14        1.88339   0.00040   0.00000   0.00079   0.00071   1.88410
   A15        1.95271   0.00155   0.00000   0.00932   0.00934   1.96205
   A16        1.89165   0.00024   0.00000   0.00195   0.00195   1.89360
   A17        1.90093  -0.00003   0.00000  -0.00037  -0.00037   1.90056
   A18        2.00987  -0.00014   0.00000  -0.00062  -0.00062   2.00925
   A19        1.84904  -0.00003   0.00000  -0.00013  -0.00013   1.84891
   A20        1.89569  -0.00012   0.00000  -0.00094  -0.00094   1.89475
   A21        1.90987   0.00009   0.00000   0.00017   0.00017   1.91004
   A22        1.95782  -0.00011   0.00000  -0.00068  -0.00068   1.95715
   A23        1.93461  -0.00003   0.00000  -0.00017  -0.00017   1.93444
   A24        1.93932   0.00003   0.00000   0.00016   0.00016   1.93948
   A25        1.87288   0.00007   0.00000   0.00038   0.00038   1.87326
   A26        1.87842   0.00004   0.00000   0.00016   0.00016   1.87857
   A27        1.87726   0.00002   0.00000   0.00019   0.00019   1.87745
   A28        1.95027  -0.00178   0.00000  -0.01107  -0.01108   1.93919
   A29        1.93183   0.00023   0.00000   0.00044   0.00042   1.93225
   A30        1.95027   0.00006   0.00000   0.00203   0.00204   1.95231
   A31        1.87919   0.00035   0.00000  -0.00124  -0.00127   1.87793
   A32        1.86960   0.00117   0.00000   0.00837   0.00838   1.87797
   A33        1.87920   0.00007   0.00000   0.00200   0.00200   1.88120
    D1        3.12776  -0.00824   0.00000  -0.16188  -0.16821   2.95956
    D2       -1.14441  -0.00931   0.00000  -0.17162  -0.17806  -1.32247
    D3        0.98010  -0.00874   0.00000  -0.17771  -0.18403   0.79607
    D4       -1.06899   0.00937   0.00000   0.18410   0.19050  -0.87849
    D5        0.94202   0.00831   0.00000   0.17436   0.18064   1.12266
    D6        3.06653   0.00888   0.00000   0.16827   0.17468  -3.04198
    D7       -0.95817   0.00119   0.00000   0.01226   0.01227  -0.94590
    D8       -2.99494   0.00114   0.00000   0.00690   0.00691  -2.98803
    D9        1.10606   0.00029   0.00000   0.00259   0.00263   1.10870
   D10       -3.11059   0.00009   0.00000  -0.00604  -0.00603  -3.11663
   D11        1.13582   0.00004   0.00000  -0.01140  -0.01139   1.12443
   D12       -1.04636  -0.00081   0.00000  -0.01571  -0.01567  -1.06203
   D13        1.16853  -0.00070   0.00000  -0.01323  -0.01329   1.15524
   D14       -0.86824  -0.00074   0.00000  -0.01860  -0.01865  -0.88689
   D15       -3.05042  -0.00159   0.00000  -0.02291  -0.02293  -3.07336
   D16        0.86823   0.00085   0.00000   0.00497   0.00496   0.87319
   D17       -1.13583   0.00078   0.00000   0.00428   0.00427  -1.13156
   D18        2.99493   0.00078   0.00000   0.00480   0.00479   2.99972
   D19       -1.16854   0.00011   0.00000   0.00135   0.00135  -1.16719
   D20        3.11058   0.00004   0.00000   0.00066   0.00066   3.11125
   D21        0.95816   0.00004   0.00000   0.00118   0.00118   0.95934
   D22        3.05041  -0.00083   0.00000  -0.00615  -0.00614   3.04427
   D23        1.04635  -0.00090   0.00000  -0.00683  -0.00683   1.03952
   D24       -1.10608  -0.00090   0.00000  -0.00631  -0.00631  -1.11238
   D25       -1.01213   0.00095   0.00000   0.01766   0.01763  -0.99451
   D26        1.08212   0.00036   0.00000   0.00902   0.00900   1.09113
   D27       -3.10680   0.00065   0.00000   0.01320   0.01319  -3.09362
   D28        1.04733   0.00005   0.00000   0.00687   0.00687   1.05419
   D29        3.14159  -0.00054   0.00000  -0.00177  -0.00176   3.13983
   D30       -1.04734  -0.00025   0.00000   0.00242   0.00242  -1.04492
   D31        3.10679   0.00034   0.00000   0.01511   0.01512   3.12191
   D32       -1.08213  -0.00025   0.00000   0.00647   0.00649  -1.07564
   D33        1.01213   0.00004   0.00000   0.01065   0.01068   1.02280
   D34        1.12344  -0.00006   0.00000  -0.00081  -0.00081   1.12263
   D35       -3.06654  -0.00007   0.00000  -0.00090  -0.00090  -3.06744
   D36       -0.98010  -0.00005   0.00000  -0.00066  -0.00066  -0.98076
   D37       -3.03523   0.00006   0.00000   0.00058   0.00058  -3.03465
   D38       -0.94203   0.00005   0.00000   0.00049   0.00049  -0.94153
   D39        1.14441   0.00007   0.00000   0.00074   0.00074   1.14514
   D40       -1.02422   0.00000   0.00000   0.00000   0.00000  -1.02423
   D41        1.06898  -0.00001   0.00000  -0.00009  -0.00009   1.06889
   D42       -3.12777   0.00001   0.00000   0.00015   0.00015  -3.12762
         Item               Value     Threshold  Converged?
 Maximum Force            0.014213     0.000015     NO 
 RMS     Force            0.003399     0.000010     NO 
 Maximum Displacement     0.268941     0.000060     NO 
 RMS     Displacement     0.052133     0.000040     NO 
 Predicted change in Energy=-1.008689D-02
 Lowest energy point so far.  Saving SCF results.
 GradGradGradGradGradGradGradGradGradGradGradGradGradGradGradGradGradGrad

 Leave Link  103 at Sat Nov  7 02:07:42 2015, MaxMem=   805306368 cpu:         0.1
 (Enter /home/hetanjin/apps/g09D01/g09/l202.exe)
                          Input orientation:                          
 ---------------------------------------------------------------------
 Center     Atomic      Atomic             Coordinates (Angstroms)
 Number     Number       Type             X           Y           Z
 ---------------------------------------------------------------------
      1          6           0       -2.548107   -0.227331   -0.304577
      2          1           0       -2.582554   -0.068274   -1.389077
      3          1           0       -3.479062   -0.650750    0.087225
      4          6           0       -1.248215   -0.709801    0.297467
      5          1           0       -1.294158   -0.648498    1.395870
      6          1           0       -1.156793   -1.783690    0.059741
      7          6           0        0.011111    0.024545   -0.201729
      8          1           0        0.012053   -0.033753   -1.302777
      9          6           0        1.284776   -0.686093    0.303323
     10          1           0        1.200069   -1.758056    0.074441
     11          1           0        1.321936   -0.613507    1.400646
     12          6           0        2.599300   -0.163392   -0.287308
     13          1           0        2.795765    0.875648   -0.001754
     14          1           0        3.448400   -0.763447    0.059565
     15          1           0        2.586513   -0.210129   -1.383601
     16          6           0       -0.027682    1.507077    0.193430
     17          1           0       -0.929943    1.994860   -0.192416
     18          1           0       -0.031823    1.617805    1.286184
     19          1           0        0.837084    2.055388   -0.195075
 ---------------------------------------------------------------------
                    Distance matrix (angstroms):
                    1          2          3          4          5
     1  C    0.000000
     2  H    1.096642   0.000000
     3  H    1.095203   1.822765   0.000000
     4  C    1.511606   2.244203   2.241510   0.000000
     5  H    2.154365   3.122907   2.546833   1.101071   0.000000
     6  H    2.119135   2.659797   2.584036   1.103680   1.758627
     7  C    2.573638   2.854033   3.566626   1.540896   2.170031
     8  H    2.754686   2.596272   3.807975   2.146182   3.060522
     9  C    3.907812   4.266398   4.768867   2.533108   2.801066
    10  H    4.066398   4.393800   4.808384   2.672578   3.032897
    11  H    4.246663   4.829583   4.977554   2.798562   2.616332
    12  C    5.147833   5.298542   6.109360   3.929872   4.269360
    13  H    5.464909   5.634002   6.458426   4.353959   4.582996
    14  H    6.031427   6.241333   6.928434   4.702942   4.928568
    15  H    5.246799   5.171015   6.256890   4.216728   4.793457
    16  C    3.099794   3.393145   4.071796   2.532799   2.774225
    17  H    2.751213   2.901663   3.684489   2.767033   3.105261
    18  H    3.502389   4.062771   4.297359   2.806228   2.596469
    19  H    4.084399   4.198750   5.102155   3.498190   3.792663
                    6          7          8          9         10
     6  H    0.000000
     7  C    2.168427   0.000000
[...]
 0.06245214,0.02992336,0.00320606,0.00074468,-0.00006669,-0.00476569,0.
 00531098,-0.00107144,-0.02521791,0.47875292,-0.05136496,0.03131645,-0.
 11313134,-0.02415912,0.01117534,-0.00782620,0.01322740,-0.00676710,0.0
 0854565,0.00722729,0.01367771,0.56200976,0.00128665,0.00040905,-0.0304
 9631,-0.00420994,0.00163725,-0.00205233,0.00120339,-0.00061587,0.00057
 072,-0.05114472,-0.00089055,0.01499144,0.05748575,0.00092028,-0.000786
 51,0.01365833,0.00214702,0.00031953,0.00153492,-0.00040877,-0.00002788
 ,-0.00069141,-0.00090195,-0.04874303,-0.02118520,-0.00144903,0.0521412
 0,-0.00033971,0.00102998,-0.01352434,-0.00246478,-0.00052477,0.0000862
 8,-0.00019433,0.00050954,0.00130249,0.01465246,-0.02046102,-0.29450255
 ,-0.01577553,0.02060643,0.32338762,-0.01171384,0.02636960,0.00101068,-
 0.00004102,-0.00044657,-0.00019245,-0.00094597,-0.00074270,-0.00068430
 ,-0.04298169,0.03566900,0.00883262,0.00018654,0.00229675,0.00087402,0.
 05850845,0.01161699,-0.00831000,0.00358024,0.00056242,0.00009323,0.000
 22730,0.00033861,-0.00122779,0.00042425,0.02138769,-0.25997595,-0.0501
 4595,0.00014825,-0.00358845,-0.00196663,-0.03275832,0.29113103,-0.0039
 2666,0.01325695,0.00339024,-0.00004262,-0.00108367,-0.00027245,-0.0000
 6075,0.00042734,0.00003261,0.00461322,-0.04258929,-0.05657939,0.004536
 26,-0.03290413,-0.00781505,-0.00620871,0.05019025,0.05803765,-0.032095
 32,-0.00706787,0.00710529,0.00235799,0.00021948,0.00120124,-0.00228748
 ,-0.00087114,-0.00200254,-0.12523553,-0.03853940,0.02464016,-0.0025732
 5,-0.00113276,0.00153031,0.00046639,0.00042247,0.00084806,0.45723736,0
 .00734341,0.00567231,-0.00761969,0.00022712,0.00031713,0.00060716,0.00
 355088,-0.00157799,0.00153748,-0.03229507,-0.09402760,0.01674552,0.002
 47907,0.00053116,-0.00055857,-0.02650592,-0.01963656,0.01199645,-0.006
 67680,0.47449389,-0.00743917,-0.00750860,0.00719740,-0.00171737,-0.000
 66451,0.00034069,-0.00271257,0.00160860,-0.00113638,0.02084082,0.01504
 124,-0.09407803,0.02736868,0.01717577,-0.01220318,-0.00537540,-0.00498
 263,0.00211036,0.00191006,0.00774576,0.58329521,0.00168113,-0.00020413
 ,0.00141674,-0.00023555,0.00030358,-0.00082229,0.00023683,0.00005544,-
 0.00026575,-0.00362814,0.00056022,0.02853814,-0.00441088,-0.00291811,0
 .00207222,0.00087635,0.00033492,-0.00072524,-0.04836941,0.00047459,0.0
 0147853,0.05741248,0.00089802,0.00020506,-0.00039033,0.00000359,0.0001
 9918,-0.00028762,0.00008243,-0.00007426,0.00001208,-0.00197724,0.00015
 425,0.01754406,-0.00285849,-0.00117866,0.00129529,0.00077236,0.0005817
 1,-0.00001399,0.00035021,-0.04966876,-0.01343721,-0.00011911,0.0582735
 0,-0.00131045,0.00026026,0.00060831,0.00093000,-0.00030462,0.00050955,
 0.00009945,-0.00017426,0.00043013,0.00168650,-0.00015456,-0.01274215,0
 .00164224,0.00165957,0.00051244,-0.00004577,0.00049841,0.00041970,0.00
 157147,-0.01394537,-0.28966845,-0.00177479,0.01424516,0.31798260,-0.00
 317499,-0.00131839,0.00256176,-0.00010008,-0.00002341,-0.00009157,-0.0
 0080561,0.00029451,-0.00072019,-0.03190338,0.00806252,-0.00985243,0.00
 161157,0.00074677,-0.00073940,0.00058506,0.00218566,-0.00042261,-0.138
 93623,0.03267116,-0.02856249,-0.00262563,0.00133507,-0.00098075,0.4568
 2302,-0.00305664,-0.00165792,0.00218821,0.00010237,-0.00009970,-0.0001
 7102,-0.00126700,0.00041940,-0.00037713,-0.01155143,0.00682366,-0.0069
 8621,-0.00005545,-0.00001709,0.00000427,-0.00215716,0.00008884,-0.0001
 2133,0.03651854,-0.10001575,0.01589371,-0.00070988,0.00029598,-0.00018
 406,0.01471714,0.55728513,0.00170060,0.00122357,-0.00167710,0.00016609
 ,-0.00003850,0.00039278,0.00079858,-0.00039061,0.00063294,0.00945199,-
 0.00509873,0.00505478,0.00129102,-0.00013910,-0.00004214,-0.00041876,-
 0.00045395,0.00019180,-0.02833379,0.01654073,-0.09442589,-0.02916906,0
 .01596877,-0.01364185,-0.00243321,0.03190658,0.56458113,0.00029490,-0.
 00032931,-0.00010357,0.00006038,0.00003938,0.00005620,0.00010279,0.000
 04020,0.00006163,0.00066647,0.00216334,0.00032913,-0.00008685,-0.00008
 960,0.00004992,-0.00062103,-0.00077283,-0.00017253,-0.00051704,0.02709
 157,0.00767224,0.00088016,-0.00070986,-0.00003127,-0.04777683,-0.01364
 472,-0.00381105,0.05975528,-0.00000703,0.00052403,0.00032210,-0.000049
 22,-0.00006242,-0.00005529,-0.00004307,-0.00001967,-0.00005784,-0.0017
 1418,0.00032176,-0.00027515,0.00002875,0.00002659,0.00008200,0.0005623
 1,0.00128605,-0.00011397,-0.00009679,-0.01695702,-0.00469548,-0.000208
 56,0.00044361,0.00053394,-0.01302634,-0.28524202,-0.05741506,0.0152440
 1,0.31195048,0.00015323,0.00014351,-0.00016542,-0.00004095,0.00002426,
 -0.00002179,0.00004888,-0.00001237,0.00000648,0.00047319,-0.00020715,0
 .00012870,0.00000282,-0.00016931,0.00001089,0.00019599,-0.00003096,0.0
 0027621,-0.00047980,0.01300018,0.00239062,0.00074989,-0.00000120,0.000
 47482,-0.00326788,-0.05745272,-0.06602826,0.00327381,0.06197387,0.0661
 4098,-0.00009274,0.00013004,0.00010383,0.00011080,-0.00007597,0.000207
 13,-0.00003304,-0.00003015,0.00010080,0.00165041,0.00015000,-0.0011163
 8,-0.00040870,0.00005131,0.00068040,-0.00004718,-0.00005700,0.00000012
 ,-0.00228953,-0.00159205,-0.02885581,-0.00453620,0.00271510,-0.0019172
 6,-0.04856248,-0.00020408,-0.00548702,-0.00046283,0.00001937,-0.001885
 37,0.05702551,-0.00004691,-0.00013905,0.00002741,-0.00003716,0.0000024
 7,-0.00003471,0.00000527,0.00001140,-0.00004843,-0.00058118,0.00000784
 ,-0.00017733,-0.00006456,0.00033542,-0.00019609,0.00012440,0.00002365,
 -0.00017465,0.00115302,0.00014938,0.01641699,0.00269230,-0.00083657,0.
 00164878,-0.00022904,-0.05261116,-0.01750459,-0.00072195,-0.00166833,-
 0.03302013,0.00014788,0.05252873,-0.00024057,0.00005470,0.00052143,0.0
 0025626,-0.00005784,0.00004612,-0.00010678,0.00002451,-0.00000305,0.00
 084076,-0.00000378,0.00001798,-0.00074131,-0.00020126,0.00070942,-0.00
 006770,0.00006923,-0.00005446,-0.00131136,-0.00065888,-0.01402852,-0.0
 0237328,0.00134683,0.00038798,-0.00491012,-0.01714026,-0.29609004,-0.0
 0021647,-0.00126645,-0.00759983,0.00547214,0.01717527,0.32471801,-0.00
 050290,-0.00071197,0.00091477,0.00002482,-0.00001915,-0.00004818,-0.00
 028374,0.00011217,-0.00018055,-0.00251778,0.00285801,-0.00185201,-0.00
 017608,0.00004881,0.00019803,0.00028587,-0.00019137,-0.00016482,-0.027
 74027,-0.00826008,0.00921038,0.00178580,-0.00083665,0.00098160,-0.1595
 0599,-0.03711842,0.03581872,-0.00436639,-0.00178557,0.00161931,-0.0006
 1242,-0.00045269,0.00037062,0.50310558,0.00076308,0.00080785,-0.000496
 37,-0.00002934,0.00000839,0.00005950,0.00034903,-0.00014510,0.00011662
 ,0.00276667,-0.00207242,0.00155651,-0.00004222,-0.00005456,0.00002579,
 0.00002090,0.00053335,0.00015976,0.01137569,0.00865919,-0.00811055,-0.
 00031531,0.00014409,-0.00018236,-0.03457221,-0.09913162,0.01655030,-0.
 03005880,-0.01196120,0.01367931,0.00185475,0.00047817,-0.00071023,-0.0
 2980835,0.56600262,-0.00083315,-0.00029720,0.00096292,0.00006583,-0.00
 002033,-0.00003395,-0.00036256,0.00015000,-0.00016979,-0.00244676,0.00
 133847,-0.00174418,-0.00014697,0.00008061,0.00048093,0.00013096,0.0003
 2800,-0.00013418,-0.00801845,-0.00650936,0.00520560,-0.00136720,-0.000
 36262,0.00051711,0.03646763,0.01645054,-0.09769806,-0.00710518,-0.0027
 9778,0.00313342,0.03091117,0.01398787,-0.01207135,0.03394087,0.0121331
 8,0.55841249,-0.00005906,0.00018472,0.00004192,-0.00002411,-0.00001440
 ,-0.00002323,-0.00002673,-0.00001530,-0.00002245,-0.00012491,0.0000510
 4,0.00010290,0.00001769,-0.00002593,0.00001892,0.00013564,0.00034500,0
 .00001241,0.00124878,-0.00081377,-0.00054807,-0.00012651,0.00007329,0.
 00000096,-0.00302137,-0.02865690,-0.00921129,-0.00504772,-0.00215777,0
 .00249385,0.00133388,0.00084686,-0.00014730,-0.05423967,-0.03448244,-0
 .01054848,0.05803621,-0.00000409,0.00006236,0.00010418,-0.00001822,-0.
 00001347,-0.00002470,-0.00005880,0.00000751,-0.00002185,-0.00018975,0.
 00005296,-0.00012282,-0.00000616,-0.00002261,0.00002276,0.00005447,0.0
 0020053,0.00000539,0.00059656,-0.00048114,0.00030571,-0.00002520,0.000
 05670,0.00000837,-0.00203902,-0.01099552,-0.00278858,-0.00222699,0.000
 69603,0.00146288,0.00009832,0.00051400,0.00045746,-0.03525935,-0.28600
 800,-0.07074059,0.03896629,0.31208270,-0.00000199,-0.00002593,0.000005
 70,0.00000753,-0.00001029,-0.00000194,0.00000441,-0.00000360,0.0000022
 2,-0.00009376,0.00010363,0.00005299,-0.00001027,0.00000340,-0.00000855
 ,-0.00002471,-0.00003839,-0.00003035,-0.00036401,-0.00057906,-0.000030
 94,0.00001665,-0.00006574,0.00008388,0.00116738,0.01405432,0.00367693,
 0.00301963,0.00135844,-0.00009710,-0.00083650,0.00020790,0.00065337,-0
 .01093605,-0.07081989,-0.07170510,0.00961894,0.07711976,0.07242834,-0.
 00038495,-0.00032642,0.00043025,0.00000760,0.00001341,-0.00003885,-0.0
 0022243,0.00005562,-0.00010684,-0.00107700,0.00128772,-0.00092236,-0.0
 0005483,0.00000614,0.00011417,0.00006479,-0.00004792,-0.00005892,-0.00
 290369,-0.00412771,0.00392188,0.00034654,-0.00017122,0.00000518,-0.022
 21823,0.01601993,-0.01041811,0.00106491,-0.00031088,-0.00063557,0.0009
 7387,0.00031773,0.00042060,-0.20562873,0.11063818,-0.06702431,0.004503
 46,-0.00238560,0.00243839,0.22488355,-0.00011900,-0.00006389,0.0001455
 1,0.00000115,-0.00001397,-0.00001845,-0.00006558,0.00003277,-0.0000291
 8,-0.00064971,0.00042616,-0.00019453,-0.00000611,-0.00000792,0.0000254
 5,0.00005589,0.00002441,-0.00004082,-0.00203693,-0.00119291,0.00133763
 ,0.00011549,-0.00012943,0.00008238,-0.01213253,0.00738601,-0.00547117,
 0.00034475,0.00087505,-0.00049657,0.00071043,0.00020734,-0.00026471,0.
 11124659,-0.12632783,0.04644588,0.02476536,-0.01655017,0.01156088,-0.1
 1989169,0.13434281,0.00015397,0.00011741,-0.00015644,-0.00000024,0.000
 00796,0.00000740,0.00006824,-0.00002706,0.00002813,0.00052133,-0.00018
 930,0.00068004,-0.00007895,-0.00007359,-0.00000842,-0.00003535,0.00001
 267,0.00000566,0.00142033,0.00130567,-0.00115654,0.00031115,0.00001036
 ,0.00046292,0.01121990,-0.00832005,0.00414901,-0.00072204,-0.00015860,
 0.00033349,-0.00046847,-0.00055710,0.00043581,-0.06732490,0.04642547,-
 0.07786582,0.00882700,-0.00542872,0.00301148,0.07228729,-0.05232537,0.
 07988626,0.00004933,0.00002246,-0.00012495,-0.00005575,0.00001763,-0.0
 0002379,0.00002001,-0.00000963,-0.00000032,0.00000907,-0.00020378,-0.0
 0004778,0.00012294,0.00004164,-0.00026428,0.00002461,0.00000773,0.0000
 4773,0.00203419,0.00010259,0.00175227,-0.00027163,0.00005169,-0.000968
 00,-0.00027435,0.00190972,0.03073780,0.00111506,0.00025805,-0.00080484
 ,-0.00517477,-0.00251648,0.00236525,-0.04902669,0.00032201,-0.00303373
 ,-0.00104278,0.00057870,-0.00415720,0.00039229,-0.00261378,-0.02621365
 ,0.05204039,0.00002068,-0.00001799,-0.00005746,-0.00001134,0.00001290,
 -0.00000067,-0.00000395,0.00000176,0.00000960,0.00009641,-0.00004111,0
 .00002932,0.00005247,-0.00002749,-0.00005660,-0.00001115,-0.00005579,0
 .00003104,0.00061065,0.00030568,-0.00047324,-0.00005913,0.00019652,-0.
 00024394,0.00036576,0.00027329,0.01352947,0.00073942,0.00025180,0.0001
 7278,-0.00263192,-0.00010905,0.00101893,0.00020966,-0.05121941,-0.0103
 6078,-0.00049652,0.00042005,-0.03282932,-0.00075757,0.00064486,0.01911
 575,0.00194367,0.04945200,0.00004320,0.00004450,-0.00002525,0.00003825
 ,-0.00001281,0.00001839,0.00003585,-0.00001278,0.00001391,0.00008540,-
 0.00003535,0.00049173,-0.00025158,-0.00005608,0.00008387,-0.00003320,-
 0.00001525,-0.00004801,-0.00117454,0.00010902,0.00030263,0.00091196,-0
 .00029519,0.00070444,0.00056154,-0.00037575,-0.01254179,0.00003642,0.0
 0045629,0.00055696,0.00231925,0.00153229,0.00067368,-0.00287783,-0.010
 36362,-0.30763744,-0.00057784,-0.00024964,-0.00824802,-0.00034706,-0.0
 0070686,-0.00985618,0.00099972,0.01012483,0.33545098,0.00044222,-0.002
 08315,0.00038931,-0.00019040,-0.00005584,-0.00042479,-0.00013061,-0.00
 008846,-0.00002209,-0.00013137,-0.02803571,-0.00704689,0.00101178,0.00
 059265,-0.00065029,-0.00475192,-0.00397926,0.00141709,-0.08116708,0.00
 452375,0.00074585,-0.00001858,0.00006824,0.00003470,-0.00101993,0.0294
 8148,0.00768073,-0.00512732,0.00354152,-0.00174938,0.00100818,-0.00069
 801,0.00068534,0.00050415,0.00086475,-0.00014797,-0.00076079,0.0003633
 6,-0.00016424,0.00013817,-0.00015889,0.00008080,-0.00008407,0.00008324
 ,0.00032077,0.58516359,0.00024609,-0.00091368,-0.00056644,-0.00009700,
 0.00019476,0.00013252,0.00037600,0.00008250,0.00005896,-0.00584322,-0.
 02245640,-0.00263777,0.00152506,0.00117117,-0.00083144,-0.00180467,-0.
 00041186,0.00042231,0.00327553,-0.17454129,-0.02745900,-0.00005116,-0.
 00474466,-0.00128276,0.00696354,-0.01924429,-0.00255209,0.00126122,0.0
 0027237,0.00018602,-0.00146863,0.00108362,-0.00084546,0.00064777,0.001
 10583,0.00029635,-0.00009692,-0.00070845,-0.00044638,-0.00062396,-0.00
 047163,0.00010215,0.00009806,-0.00001684,-0.00007829,0.00781706,0.4797
 0848,-0.00067669,0.00040680,0.00011152,0.00011239,-0.00011937,0.000050
 13,0.00009709,-0.00015847,0.00009200,-0.00036277,0.01034955,0.00320136
 ,0.00003878,0.00141297,0.00064468,0.00231032,0.00260845,-0.00031043,0.
 00121419,-0.02934506,-0.08966242,0.00109298,-0.03460404,-0.00904960,0.
 00041848,0.01061778,0.00333720,-0.00246166,0.00236471,-0.00045273,-0.0
 0019181,0.00153029,0.00059054,-0.00040687,-0.00024688,-0.00046502,0.00
 028649,0.00029562,0.00054637,-0.00005775,0.00033846,0.00018195,-0.0001
 1018,-0.00001110,0.00010803,0.00098925,-0.03168178,0.56198754,-0.00026
 994,-0.00060782,-0.00027272,0.00000409,-0.00018890,0.00006212,0.000087
 47,-0.00002097,0.00001689,0.00020146,-0.00042094,0.00020819,0.00003035
 ,0.00007873,0.00000306,0.00004733,0.00025253,-0.00000510,-0.00028901,0
 .00006906,0.00022801,0.00006770,0.00027274,0.00033908,0.00064550,-0.00
 005020,0.00068552,-0.00003522,-0.00000690,-0.00010568,-0.00000900,-0.0
 0009999,-0.00004879,0.00001561,-0.00017635,-0.00028571,0.00031859,0.00
 024225,0.00011111,0.00001061,0.00019701,0.00001684,0.00000948,0.000043
 12,0.00005968,-0.24124153,0.09268113,-0.07266642,0.26079917,-0.0001587
 1,0.00029862,0.00043680,-0.00020029,-0.00031529,-0.00038775,-0.0001384
 9,0.00001428,-0.00017392,0.00081848,0.00136117,0.00046405,-0.00020413,
 -0.00015657,0.00004718,0.00006425,0.00030906,-0.00024668,0.02860591,-0
 .01352585,0.01214856,-0.00028420,0.00124104,-0.00031109,-0.00202996,-0
 .00617411,-0.00304868,0.00193691,-0.00124513,0.00055720,-0.00029096,0.
 00017938,0.00001931,-0.00076883,-0.00027223,0.00004282,0.00021431,0.00
 038821,0.00008644,0.00013139,0.00022579,0.00001070,0.00006328,0.000032
 12,-0.00005586,0.09165205,-0.09159438,0.03494110,-0.10152233,0.1008424
 5,-0.00008386,-0.00054872,0.00002008,-0.00009921,-0.00011316,-0.000128
 25,0.00008249,0.00018582,-0.00008321,-0.00034752,0.00062721,0.00015738
 ,-0.00008906,0.00008746,-0.00008069,0.00014035,0.00007104,-0.00012002,
 0.00910853,-0.00389686,0.00259969,0.00037959,0.00060089,0.00038534,-0.
 00028889,-0.00141746,-0.00027139,0.00026668,-0.00025801,0.00054158,0.0
 0021729,-0.00028096,0.00045217,0.00001860,-0.00002852,0.00019193,-0.00
 005099,-0.00004141,-0.00017542,-0.00002386,-0.00008309,-0.00000668,-0.
 00003736,0.00003657,0.00001246,-0.07236569,0.03525731,-0.07734017,0.08
 018140,-0.03713159,0.07916632,-0.00016156,0.00017029,-0.00000737,0.000
 09088,0.00002217,0.00015435,-0.00004214,-0.00007393,0.00003181,0.00024
 783,-0.00000505,-0.00121407,0.00012127,-0.00018220,0.00023453,-0.00000
 588,0.00001288,0.00017613,-0.00103271,0.00033710,0.00174128,0.00070860
 ,0.00045564,0.00012253,0.00040396,-0.00000616,0.00134301,-0.00003669,-
 0.00009675,-0.00014301,0.00013894,0.00009737,-0.00022515,-0.00009921,0
 .00001810,-0.00004430,-0.00005375,-0.00008245,0.00013509,-0.00001796,0
 .00002507,-0.00005228,0.00008069,-0.00010557,-0.00014257,-0.05049218,-
 0.00133742,-0.00925826,0.00026738,-0.00327853,-0.02920458,0.04799215,-
 0.00013943,0.00009056,0.00017490,0.00013460,-0.00004471,0.00004395,-0.
 00005495,0.00000291,-0.00000296,0.00100494,0.00149986,-0.00124330,-0.0
 0036963,-0.00006307,0.00090705,0.00020883,0.00031562,0.00036133,-0.001
 11158,-0.00389878,-0.03435178,0.00022177,-0.00661696,-0.00182282,-0.00
 090331,0.00181779,-0.00126256,-0.00031432,0.00032210,0.00037478,0.0003
 4383,-0.00006421,0.00099966,0.00011840,-0.00000220,0.00009183,0.000070
 68,0.00001520,0.00000556,0.00006084,0.00005467,0.00000388,-0.00017257,
 -0.00005590,0.00009168,-0.00127671,-0.05068662,-0.02157360,-0.00087304
 ,0.00077517,0.01369315,0.00079570,0.05517340,-0.00016486,-0.00007842,-
 0.00002480,0.00012645,0.00001159,0.00010887,-0.00008620,-0.00004422,0.
 00002795,0.00040020,0.00064829,0.00044927,-0.00060833,-0.00052989,0.00
 053389,-0.00005330,-0.00004249,0.00034262,-0.00005330,-0.00156518,-0.0
 1018802,-0.00001564,-0.00214605,0.00101619,-0.00055217,0.00082480,0.00
 045167,0.00005086,-0.00002015,0.00040859,0.00068271,-0.00056646,0.0006
 0586,0.00020568,-0.00019969,0.00010727,0.00008166,0.00002989,-0.000220
 40,0.00006692,-0.00003975,0.00001668,-0.00013419,0.00010538,0.00012463
 ,-0.00909049,-0.02163333,-0.30262310,0.00015993,-0.00045481,-0.0097657
 5,0.01003366,0.02643515,0.33054557,0.00006178,-0.00059086,-0.00001243,
 0.00002157,0.00010511,0.00006755,0.00001119,0.00005177,-0.00000460,0.0
 0072792,0.00003703,-0.00052126,-0.00001267,0.00017826,0.00000026,-0.00
 007251,0.00019154,0.00013694,0.00209187,0.00140109,-0.00165911,0.00022
 695,-0.00040582,-0.00038542,-0.00014399,-0.00027112,-0.00039176,0.0001
 3796,-0.00015094,0.00010151,-0.00001270,0.00006312,-0.00002213,-0.0010
 2198,0.00051187,-0.00015170,-0.00106685,0.00139570,0.00006960,0.000122
 02,0.00021249,-0.00001096,0.00003198,-0.00008793,-0.00000742,-0.203152
 32,-0.10356847,0.07963244,-0.02066003,-0.01461015,0.01219608,0.0018903
 7,0.00225594,-0.00104958,0.22081944,0.00080520,0.00009471,0.00041868,-
 0.00011477,-0.00004513,-0.00014220,-0.00015769,0.00003586,-0.00005817,
 0.00188781,-0.00568759,-0.00277360,0.00028230,0.00014876,0.00003936,-0
 .00177227,-0.00138107,0.00043771,-0.02559478,-0.01460506,0.01400904,0.
 00013648,0.00145765,-0.00033102,-0.00106792,0.00079909,0.00044421,0.00
 000758,0.00018593,-0.00018438,0.00012973,-0.00009305,-0.00001704,-0.00
 002900,-0.00054492,-0.00025689,0.00124239,0.00028311,0.00031827,0.0001
 1202,0.00053789,-0.00003224,0.00009899,-0.00004739,-0.00010114,-0.1026
 1207,-0.11782865,0.05287458,0.01013088,0.00761626,-0.00675966,0.003233
 76,0.00136520,-0.00073466,0.11328136,0.12770840,0.00008927,-0.00011587
 ,0.00004195,0.00002034,0.00003101,0.00003823,-0.00004040,-0.00000269,-
 0.00001896,0.00036237,-0.00183214,-0.00018579,-0.00019133,-0.00026950,
 0.00043241,-0.00035529,-0.00033360,0.00055748,-0.00881187,-0.00490993,
 0.00313614,-0.00045460,0.00058055,0.00060663,0.00042503,0.00060580,-0.
 00005172,-0.00019276,0.00002242,-0.00003763,0.00006379,0.00003365,0.00
 003487,0.00051263,0.00045165,0.00051322,-0.00035541,-0.00039371,0.0000
 5652,-0.00005103,-0.00026568,-0.00014876,0.00001750,-0.00014055,-0.000
 18501,0.07931798,0.05355911,-0.09094786,-0.00868741,-0.00694378,0.0044
 4462,0.02631920,0.01707410,-0.01191699,-0.08798801,-0.05715085,0.09363
 064\\0.00000007,0.00000086,-0.00000032,0.,0.00000160,-0.00000015,-0.00
 000012,0.00000070,-0.00000043,-0.00000024,0.00000004,-0.00000046,-0.00
 000025,-0.00000051,-0.00000053,-0.00000044,0.00000030,-0.00000123,0.00
 000005,0.00000022,-0.00000005,0.00000004,0.00000085,-0.00000004,-0.000
 00011,-0.00000045,-0.00000039,-0.00000043,-0.00000030,-0.00000107,-0.0
 0000024,-0.00000116,-0.00000033,-0.00000003,-0.00000043,0.00000007,0.0
 0000022,-0.00000065,0.00000071,-0.00000020,-0.00000086,-0.00000028,0.0
 0000003,0.00000028,0.00000001,0.00000035,-0.00000007,0.00000098,0.0000
 0046,0.00000037,0.00000117,0.00000032,-0.00000078,0.00000100,0.0000005
 1,-0.00000001,0.00000133\\\@


 IT IS IMPOSSIBLE TO MEDITATE ON TIME AND THE MYSTERY 
 OF NATURE WITHOUT AN OVERWHELMING EMOTION AT THE
 LIMITATIONS OF HUMAN INTELLIGENCE.

                                         -- ALFRED NORTH WHITEHEAD
 Job cpu time:       0 days  0 hours 27 minutes 46.0 seconds.
 File lengths (MBytes):  RWF=     64 Int=      0 D2E=      0 Chk=      3 Scr=      1
 Normal termination of Gaussian 09 at Sat Nov  7 02:24:11 2015.
