 Entering Gaussian System, Link 0=/home/hetanjin/apps/g09D01/g09/g09
 Input=C6H14_2_r013_C17_2_opt_B3L.gjf
 Output=C6H14_2_r013_C17_2_opt_B3L.log
 Initial command:
 /home/hetanjin/apps/g09D01/g09/l1.exe "/state/partition1/Gau-30071.inp" -scrdir="/state/partition1/"
 Entering Link 1 = /home/hetanjin/apps/g09D01/g09/l1.exe PID=     30072.
  
 Copyright (c) 1988,1990,1992,1993,1995,1998,2003,2009,2013,
            Gaussian, Inc.  All Rights Reserved.
  
 This is part of the Gaussian(R) 09 program.  It is based on
 the Gaussian(R) 03 system (copyright 2003, Gaussian, Inc.),
 the Gaussian(R) 98 system (copyright 1998, Gaussian, Inc.),
 the Gaussian(R) 94 system (copyright 1995, Gaussian, Inc.),
 the Gaussian 92(TM) system (copyright 1992, Gaussian, Inc.),
 the Gaussian 90(TM) system (copyright 1990, Gaussian, Inc.),
 the Gaussian 88(TM) system (copyright 1988, Gaussian, Inc.),
 the Gaussian 86(TM) system (copyright 1986, Carnegie Mellon
 University), and the Gaussian 82(TM) system (copyright 1983,
 Carnegie Mellon University). Gaussian is a federally registered
 trademark of Gaussian, Inc.
  
 This software contains proprietary and confidential information,
 including trade secrets, belonging to Gaussian, Inc.
  
 This software is provided under written license and may be
 used, copied, transmitted, or stored only in accord with that
 written license.
  
 The following legend is applicable only to US Government
 contracts under FAR:
  
                    RESTRICTED RIGHTS LEGEND
  
 Use, reproduction and disclosure by the US Government is
 subject to restrictions as set forth in subparagraphs (a)
 and (c) of the Commercial Computer Software - Restricted
 Rights clause in FAR 52.227-19.
  
 Gaussian, Inc.
 340 Quinnipiac St., Bldg. 40, Wallingford CT 06492
  
  
 ---------------------------------------------------------------
 Warning -- This program may not be used in any manner that
 competes with the business of Gaussian, Inc. or will provide
 assistance to any competitor of Gaussian, Inc.  The licensee
 of this program is prohibited from giving any competitor of
 Gaussian, Inc. access to this program.  By using this program,
 the user acknowledges that Gaussian, Inc. is engaged in the
 business of creating and licensing software in the field of
 computational chemistry and represents and warrants to the
 licensee that it is not a competitor of Gaussian, Inc. and that
 it will not use this program in any manner prohibited above.
 ---------------------------------------------------------------
  

 Cite this work as:
 Gaussian 09, Revision D.01,
 M. J. Frisch, G. W. Trucks, H. B. Schlegel, G. E. Scuseria, 
 M. A. Robb, J. R. Cheeseman, G. Scalmani, V. Barone, B. Mennucci, 
 G. A. Petersson, H. Nakatsuji, M. Caricato, X. Li, H. P. Hratchian, 
 A. F. Izmaylov, J. Bloino, G. Zheng, J. L. Sonnenberg, M. Hada, 
 M. Ehara, K. Toyota, R. Fukuda, J. Hasegawa, M. Ishida, T. Nakajima, 
 Y. Honda, O. Kitao, H. Nakai, T. Vreven, J. A. Montgomery, Jr., 
 J. E. Peralta, F. Ogliaro, M. Bearpark, J. J. Heyd, E. Brothers, 
 K. N. Kudin, V. N. Staroverov, T. Keith, R. Kobayashi, J. Normand, 
 K. Raghavachari, A. Rendell, J. C. Burant, S. S. Iyengar, J. Tomasi, 
 M. Cossi, N. Rega, J. M. Millam, M. Klene, J. E. Knox, J. B. Cross, 
 V. Bakken, C. Adamo, J. Jaramillo, R. Gomperts, R. E. Stratmann, 
 O. Yazyev, A. J. Austin, R. Cammi, C. Pomelli, J. W. Ochterski, 
 R. L. Martin, K. Morokuma, V. G. Zakrzewski, G. A. Voth, 
 P. Salvador, J. J. Dannenberg, S. Dapprich, A. D. Daniels, 
 O. Farkas, J. B. Foresman, J. V. Ortiz, J. Cioslowski, 
 and D. J. Fox, Gaussian, Inc., Wallingford CT, 2013.
 
 ******************************************
 Gaussian 09:  ES64L-G09RevD.01 24-Apr-2013
                 7-Nov-2015 
 ******************************************
 %mem=6GB
 %nprocshared=4
 Will use up to    4 processors via shared memory.
 ------------------------------------------------------
 #p B3LYP/6-31G(d) opt=(gdiis,tight) int=ultrafine freq
 ------------------------------------------------------

 Warning!  Use of Opt=GDIIS is deprecated since it is seldom a good choice.

 1/7=10,14=-1,18=20,19=11,26=4,38=1/1,3;
 2/9=110,12=2,17=6,18=5,40=1/2;
 3/5=1,6=6,7=1,11=2,16=1,25=1,30=1,71=1,74=-5,75=-5/1,2,3;
 4//1;
 5/5=2,38=5/2;
 6/7=2,8=2,9=2,10=2,28=1/1;
 7//1,2,3,16;
 1/7=10,14=-1,18=20,19=11,26=4/3(2);
 2/9=110/2;
 99//99;
 2/9=110/2;
 3/5=1,6=6,7=1,11=2,16=1,25=1,30=1,71=1,74=-5,75=-5/1,2,3;
 4/5=5,16=3,69=1/1;
 5/5=2,38=5/2;
 7//1,2,3,16;
 1/7=10,14=-1,18=20,19=11,26=4/3(-5);
 2/9=110/2;
 6/7=2,8=2,9=2,10=2,19=2,28=1/1;
 99/9=1/99;
 Leave Link    1 at Sat Nov  7 22:37:02 2015, MaxMem=   805306368 cpu:         0.2
 (Enter /home/hetanjin/apps/g09D01/g09/l101.exe)
 ---------------------------------------------
 using B3LYP/6-31G(d) to do opt and freq calc.
 ---------------------------------------------
 Symbolic Z-matrix:
 Charge =  0 Multiplicity = 2
 C                     2.1588   -1.03826   0.03329 
 H                     1.92753  -2.02922  -0.37555 
 H                     2.248    -1.14076   1.12291 
 H                     3.14007  -0.7364   -0.35209 
 C                     1.07513  -0.01325  -0.33394 
 H                     1.02737   0.04492  -1.43284 
 C                    -0.30521  -0.48286   0.1671 
 H                    -0.29365  -0.5158    1.26793 
 H                    -0.46137  -1.52058  -0.16344 
 C                    -1.49862   0.36099  -0.30192 
 H                    -1.48122   0.43273  -1.39913 
 H                    -1.40332   1.3884    0.07251 
 C                    -2.84619  -0.21322   0.1491 
 H                    -2.90621  -0.27062   1.24305 
 H                    -3.68183   0.40554  -0.19769 
 H                    -2.99673  -1.22689  -0.24256 
 C                     1.45204   1.37934   0.1949 
 H                     0.73689   2.14756  -0.118 
 H                     2.44125   1.682    -0.16891 
 
 NAtoms=     19 NQM=       19 NQMF=       0 NMMI=      0 NMMIF=      0
                NMic=       0 NMicF=      0.
                    Isotopes and Nuclear Properties:
 (Nuclear quadrupole moments (NQMom) in fm**2, nuclear magnetic moments (NMagM)
  in nuclear magnetons)

  Atom         1           2           3           4           5           6           7           8           9          10
 IAtWgt=          12           1           1           1          12           1          12           1           1          12
 AtmWgt=  12.0000000   1.0078250   1.0078250   1.0078250  12.0000000   1.0078250  12.0000000   1.0078250   1.0078250  12.0000000
 NucSpn=           0           1           1           1           0           1           0           1           1           0
 AtZEff=   0.0000000   0.0000000   0.0000000   0.0000000   0.0000000   0.0000000   0.0000000   0.0000000   0.0000000   0.0000000
 NQMom=    0.0000000   0.0000000   0.0000000   0.0000000   0.0000000   0.0000000   0.0000000   0.0000000   0.0000000   0.0000000
 NMagM=    0.0000000   2.7928460   2.7928460   2.7928460   0.0000000   2.7928460   0.0000000   2.7928460   2.7928460   0.0000000
 AtZNuc=   6.0000000   1.0000000   1.0000000   1.0000000   6.0000000   1.0000000   6.0000000   1.0000000   1.0000000   6.0000000

  Atom        11          12          13          14          15          16          17          18          19
 IAtWgt=           1           1          12           1           1           1          12           1           1
 AtmWgt=   1.0078250   1.0078250  12.0000000   1.0078250   1.0078250   1.0078250  12.0000000   1.0078250   1.0078250
 NucSpn=           1           1           0           1           1           1           0           1           1
 AtZEff=   0.0000000   0.0000000   0.0000000   0.0000000   0.0000000   0.0000000   0.0000000   0.0000000   0.0000000
 NQMom=    0.0000000   0.0000000   0.0000000   0.0000000   0.0000000   0.0000000   0.0000000   0.0000000   0.0000000
 NMagM=    2.7928460   2.7928460   0.0000000   2.7928460   2.7928460   2.7928460   0.0000000   2.7928460   2.7928460
 AtZNuc=   1.0000000   1.0000000   6.0000000   1.0000000   1.0000000   1.0000000   6.0000000   1.0000000   1.0000000
 Leave Link  101 at Sat Nov  7 22:37:02 2015, MaxMem=   805306368 cpu:         0.7
 (Enter /home/hetanjin/apps/g09D01/g09/l103.exe)

 GradGradGradGradGradGradGradGradGradGradGradGradGradGradGradGradGradGrad
 Berny optimization.
 Initialization pass.
                           ----------------------------
                           !    Initial Parameters    !
                           ! (Angstroms and Degrees)  !
 --------------------------                            --------------------------
 ! Name  Definition              Value          Derivative Info.                !
 --------------------------------------------------------------------------------
 ! R1    R(1,2)                  1.0967         estimate D2E/DX2                !
 ! R2    R(1,3)                  1.0981         estimate D2E/DX2                !
 ! R3    R(1,4)                  1.0966         estimate D2E/DX2                !
 ! R4    R(1,5)                  1.5362         estimate D2E/DX2                !
 ! R5    R(5,6)                  1.1015         estimate D2E/DX2                !
 ! R6    R(5,7)                  1.5417         estimate D2E/DX2                !
 ! R7    R(5,17)                 1.5366         estimate D2E/DX2                !
 ! R8    R(7,8)                  1.1014         estimate D2E/DX2                !
 ! R9    R(7,9)                  1.1002         estimate D2E/DX2                !
 ! R10   R(7,10)                 1.535          estimate D2E/DX2                !
 ! R11   R(10,11)                1.0997         estimate D2E/DX2                !
 ! R12   R(10,12)                1.0977         estimate D2E/DX2                !
 ! R13   R(10,13)                1.5327         estimate D2E/DX2                !
 ! R14   R(13,14)                1.0971         estimate D2E/DX2                !
 ! R15   R(13,15)                1.0961         estimate D2E/DX2                !
 ! R16   R(13,16)                1.0971         estimate D2E/DX2                !
 ! R17   R(17,18)                1.0952         estimate D2E/DX2                !
 ! R18   R(17,19)                1.0966         estimate D2E/DX2                !
 ! A1    A(2,1,3)              107.6218         estimate D2E/DX2                !
 ! A2    A(2,1,4)              107.8439         estimate D2E/DX2                !
 ! A3    A(2,1,5)              111.411          estimate D2E/DX2                !
 ! A4    A(3,1,4)              107.5616         estimate D2E/DX2                !
 ! A5    A(3,1,5)              110.9048         estimate D2E/DX2                !
 ! A6    A(4,1,5)              111.3185         estimate D2E/DX2                !
 ! A7    A(1,5,6)              107.7173         estimate D2E/DX2                !
 ! A8    A(1,5,7)              110.5269         estimate D2E/DX2                !
 ! A9    A(1,5,17)             110.4513         estimate D2E/DX2                !
 ! A10   A(6,5,7)              107.5475         estimate D2E/DX2                !
 ! A11   A(6,5,17)             107.8272         estimate D2E/DX2                !
 ! A12   A(7,5,17)             112.5709         estimate D2E/DX2                !
 ! A13   A(5,7,8)              108.9373         estimate D2E/DX2                !
 ! A14   A(5,7,9)              108.4663         estimate D2E/DX2                !
 ! A15   A(5,7,10)             115.4245         estimate D2E/DX2                !
 ! A16   A(8,7,9)              105.8761         estimate D2E/DX2                !
 ! A17   A(8,7,10)             109.2684         estimate D2E/DX2                !
 ! A18   A(9,7,10)             108.4426         estimate D2E/DX2                !
 ! A19   A(7,10,11)            109.1727         estimate D2E/DX2                !
 ! A20   A(7,10,12)            110.049          estimate D2E/DX2                !
 ! A21   A(7,10,13)            112.8109         estimate D2E/DX2                !
 ! A22   A(11,10,12)           106.1361         estimate D2E/DX2                !
 ! A23   A(11,10,13)           109.3876         estimate D2E/DX2                !
 ! A24   A(12,10,13)           109.064          estimate D2E/DX2                !
 ! A25   A(10,13,14)           111.1695         estimate D2E/DX2                !
 ! A26   A(10,13,15)           111.4511         estimate D2E/DX2                !
 ! A27   A(10,13,16)           111.208          estimate D2E/DX2                !
 ! A28   A(14,13,15)           107.6561         estimate D2E/DX2                !
 ! A29   A(14,13,16)           107.4655         estimate D2E/DX2                !
 ! A30   A(15,13,16)           107.7002         estimate D2E/DX2                !
 ! A31   A(5,17,18)            112.1608         estimate D2E/DX2                !
 ! A32   A(5,17,19)            110.9303         estimate D2E/DX2                !
 ! A33   A(18,17,19)           107.4963         estimate D2E/DX2                !
 ! D1    D(2,1,5,6)            -59.9218         estimate D2E/DX2                !
 ! D2    D(2,1,5,7)             57.3095         estimate D2E/DX2                !
 ! D3    D(2,1,5,17)          -177.4475         estimate D2E/DX2                !
 ! D4    D(3,1,5,6)           -179.7802         estimate D2E/DX2                !
 ! D5    D(3,1,5,7)            -62.549          estimate D2E/DX2                !
 ! D6    D(3,1,5,17)            62.6941         estimate D2E/DX2                !
 ! D7    D(4,1,5,6)             60.4987         estimate D2E/DX2                !
 ! D8    D(4,1,5,7)            177.7299         estimate D2E/DX2                !
 ! D9    D(4,1,5,17)           -57.027          estimate D2E/DX2                !
 ! D10   D(1,5,7,8)             64.5902         estimate D2E/DX2                !
 ! D11   D(1,5,7,9)            -50.2121         estimate D2E/DX2                !
 ! D12   D(1,5,7,10)          -172.0848         estimate D2E/DX2                !
 ! D13   D(6,5,7,8)           -178.0739         estimate D2E/DX2                !
 ! D14   D(6,5,7,9)             67.1238         estimate D2E/DX2                !
 ! D15   D(6,5,7,10)           -54.749          estimate D2E/DX2                !
 ! D16   D(17,5,7,8)           -59.4435         estimate D2E/DX2                !
 ! D17   D(17,5,7,9)          -174.2457         estimate D2E/DX2                !
 ! D18   D(17,5,7,10)           63.8815         estimate D2E/DX2                !
 ! D19   D(1,5,17,18)          175.5612         estimate D2E/DX2                !
 ! D20   D(1,5,17,19)           55.3403         estimate D2E/DX2                !
 ! D21   D(6,5,17,18)           58.1032         estimate D2E/DX2                !
 ! D22   D(6,5,17,19)          -62.1177         estimate D2E/DX2                !
 ! D23   D(7,5,17,18)          -60.3633         estimate D2E/DX2                !
 ! D24   D(7,5,17,19)          179.4158         estimate D2E/DX2                !
 ! D25   D(5,7,10,11)           54.1765         estimate D2E/DX2                !
 ! D26   D(5,7,10,12)          -61.9346         estimate D2E/DX2                !
 ! D27   D(5,7,10,13)          176.0138         estimate D2E/DX2                !
 ! D28   D(8,7,10,11)          177.3265         estimate D2E/DX2                !
 ! D29   D(8,7,10,12)           61.2154         estimate D2E/DX2                !
 ! D30   D(8,7,10,13)          -60.8362         estimate D2E/DX2                !
 ! D31   D(9,7,10,11)          -67.709          estimate D2E/DX2                !
 ! D32   D(9,7,10,12)          176.1799         estimate D2E/DX2                !
 ! D33   D(9,7,10,13)           54.1283         estimate D2E/DX2                !
 ! D34   D(7,10,13,14)          59.9145         estimate D2E/DX2                !
 ! D35   D(7,10,13,15)        -179.978          estimate D2E/DX2                !
 ! D36   D(7,10,13,16)         -59.7885         estimate D2E/DX2                !
 ! D37   D(11,10,13,14)       -178.3696         estimate D2E/DX2                !
 ! D38   D(11,10,13,15)        -58.2621         estimate D2E/DX2                !
 ! D39   D(11,10,13,16)         61.9275         estimate D2E/DX2                !
 ! D40   D(12,10,13,14)        -62.6901         estimate D2E/DX2                !
 ! D41   D(12,10,13,15)         57.4174         estimate D2E/DX2                !
 ! D42   D(12,10,13,16)        177.607          estimate D2E/DX2                !
 --------------------------------------------------------------------------------
 Trust Radius=3.00D-01 FncErr=1.00D-07 GrdErr=1.00D-06
 Number of steps in this run=    103 maximum allowed number of steps=    114.
 GradGradGradGradGradGradGradGradGradGradGradGradGradGradGradGradGradGrad

 Leave Link  103 at Sat Nov  7 22:37:02 2015, MaxMem=   805306368 cpu:         0.0
 (Enter /home/hetanjin/apps/g09D01/g09/l202.exe)
                          Input orientation:                          
 ---------------------------------------------------------------------
 Center     Atomic      Atomic             Coordinates (Angstroms)
 Number     Number       Type             X           Y           Z
 ---------------------------------------------------------------------
      1          6           0        2.158797   -1.038262    0.033294
      2          1           0        1.927533   -2.029222   -0.375554
      3          1           0        2.248004   -1.140761    1.122907
      4          1           0        3.140068   -0.736400   -0.352089
      5          6           0        1.075129   -0.013247   -0.333943
      6          1           0        1.027373    0.044919   -1.432844
      7          6           0       -0.305208   -0.482864    0.167098
      8          1           0       -0.293645   -0.515801    1.267925
      9          1           0       -0.461374   -1.520579   -0.163436
     10          6           0       -1.498621    0.360991   -0.301923
     11          1           0       -1.481223    0.432726   -1.399129
     12          1           0       -1.403322    1.388403    0.072512
     13          6           0       -2.846192   -0.213221    0.149098
     14          1           0       -2.906213   -0.270618    1.243053
     15          1           0       -3.681827    0.405542   -0.197689
     16          1           0       -2.996731   -1.226889   -0.242561
     17          6           0        1.452038    1.379337    0.194904
     18          1           0        0.736890    2.147561   -0.117998
     19          1           0        2.441246    1.682004   -0.168912
 ---------------------------------------------------------------------
                    Distance matrix (angstroms):
                    1          2          3          4          5
     1  C    0.000000
     2  H    1.096650   0.000000
     3  H    1.098053   1.771285   0.000000
     4  H    1.096601   1.772620   1.770565   0.000000
     5  C    1.536182   2.189173   2.183881   2.187979   0.000000
     6  H    2.145451   2.496039   3.070446   2.498394   1.101475
     7  C    2.529366   2.769626   2.804513   3.493388   1.541724
     8  H    2.794951   3.150412   2.621371   3.803090   2.166122
     9  H    2.671447   2.451650   3.023189   3.690652   2.159158
    10  C    3.930265   4.178166   4.280490   4.766993   2.601013
    11  H    4.179161   4.327645   4.769031   4.880520   2.805076
    12  H    4.310329   4.793279   4.564228   5.033634   2.876204
    13  C    5.073856   5.134352   5.268725   6.029943   3.956018
    14  H    5.263755   5.392372   5.228531   6.270482   4.290016
    15  H    6.020865   6.117567   6.268806   6.918535   4.777298
    16  H    5.166347   4.990972   5.420255   6.157343   4.249861
    17  C    2.523967   3.488523   2.801008   2.761338   1.536564
    18  H    3.492016   4.350802   3.825751   3.761289   2.197755
    19  H    2.742355   3.752306   3.110328   2.524002   2.183435
                    6          7          8          9         10
     6  H    0.000000
     7  C    2.148055   0.000000
     8  H    3.058374   1.101380   0.000000
     9  H    2.505703   1.100224   1.756846   0.000000
    10  C    2.785593   1.535027   2.164522   2.152990   0.000000
    11  H    2.538619   2.162032   3.069727   2.526347   1.099686
    12  H    3.159007   2.171737   2.507267   3.066776   1.097661
    13  C    4.192098   2.555314   2.803360   2.737557   1.532673
    14  H    4.767923   2.822757   2.624166   3.085102   2.183391
    15  H    4.881826   3.510540   3.804823   3.752657   2.186147
    16  H    4.384938   2.822355   3.177088   2.553537   2.183854
    17  C    2.147225   2.560562   2.791116   3.492716   3.160736
    18  H    2.496859   2.843657   3.174316   3.859165   2.867607
    19  H    2.505316   3.513199   3.791369   4.322241   4.157562
                   11         12         13         14         15
    11  H    0.000000
    12  H    1.756449   0.000000
    13  C    2.162729   2.157067   0.000000
    14  H    3.083247   2.526103   1.097103   0.000000
    15  H    2.507360   2.496119   1.096091   1.770454   0.000000
    16  H    2.527595   3.078632   1.097079   1.769095   1.770932
    17  C    3.470019   2.857996   4.584007   4.776538   5.240131
    18  H    3.082528   2.278842   4.299199   4.579547   4.750373
    19  H    4.296498   3.863313   5.625834   5.865296   6.254775
                   16         17         18         19
    16  H    0.000000
    17  C    5.174489   0.000000
    18  H    5.034119   1.095223   0.000000
    19  H    6.167550   1.096586   1.767531   0.000000
 Stoichiometry    C6H13(2)
 Framework group  C1[X(C6H13)]
 Deg. of freedom    51
 Full point group                 C1      NOp   1
 Largest Abelian subgroup         C1      NOp   1
 Largest concise Abelian subgroup C1      NOp   1
                         Standard orientation:                         
 ---------------------------------------------------------------------
 Center     Atomic      Atomic             Coordinates (Angstroms)
 Number     Number       Type             X           Y           Z
 ---------------------------------------------------------------------
      1          6           0       -2.203937   -0.978867   -0.025071
      2          1           0       -1.993246   -1.945743    0.447582
      3          1           0       -2.281682   -1.147801   -1.107263
      4          1           0       -3.184876   -0.638872    0.328053
      5          6           0       -1.108721    0.050702    0.291698
      6          1           0       -1.073230    0.176595    1.385379
      7          6           0        0.269946   -0.469900   -0.161251
      8          1           0        0.271062   -0.571278   -1.257955
      9          1           0        0.405756   -1.487195    0.235183
     10          6           0        1.470809    0.383588    0.269786
     11          1           0        1.441393    0.523893    1.360088
     12          1           0        1.396218    1.386950   -0.169031
     13          6           0        2.814467   -0.237782   -0.127162
     14          1           0        2.886685   -0.364214   -1.214560
     15          1           0        3.655538    0.388816    0.191256
     16          1           0        2.944298   -1.227181    0.328705
     17          6           0       -1.457258    1.413071   -0.327579
     18          1           0       -0.733887    2.188514   -0.053834
     19          1           0       -2.445860    1.752643    0.003870
 ---------------------------------------------------------------------
 Rotational constants (GHZ):      6.9229313      1.7141706      1.4725627
 Leave Link  202 at Sat Nov  7 22:37:02 2015, MaxMem=   805306368 cpu:         0.0
 (Enter /home/hetanjin/apps/g09D01/g09/l301.exe)
 Standard basis: 6-31G(d) (6D, 7F)
 Ernie: Thresh=  0.10000D-02 Tol=  0.10000D-05 Strict=F.
 There are   116 symmetry adapted cartesian basis functions of A   symmetry.
 There are   116 symmetry adapted basis functions of A   symmetry.
   116 basis functions,   220 primitive gaussians,   116 cartesian basis functions
    25 alpha electrons       24 beta electrons
       nuclear repulsion energy       242.1720000011 Hartrees.
 IExCor=  402 DFT=T Ex+Corr=B3LYP ExCW=0 ScaHFX=  0.200000
 ScaDFX=  0.800000  0.720000  1.000000  0.810000 ScalE2=  1.000000  1.000000
 IRadAn=      5 IRanWt=     -1 IRanGd=            0 ICorTp=0 IEmpDi=  4
 NAtoms=   19 NActive=   19 NUniq=   19 SFac= 1.00D+00 NAtFMM=   60 NAOKFM=F Big=F
 Integral buffers will be    131072 words long.
 Raffenetti 2 integral format.
 Two-electron integral symmetry is turned on.
 Leave Link  301 at Sat Nov  7 22:37:02 2015, MaxMem=   805306368 cpu:         0.2
 (Enter /home/hetanjin/apps/g09D01/g09/l302.exe)
 NPDir=0 NMtPBC=     1 NCelOv=     1 NCel=       1 NClECP=     1 NCelD=      1
         NCelK=      1 NCelE2=     1 NClLst=     1 CellRange=     0.0.
 One-electron integrals computed using PRISM.
 NBasis=   116 RedAO= T EigKep=  3.67D-03  NBF=   116
 NBsUse=   116 1.00D-06 EigRej= -1.00D+00 NBFU=   116
 Precomputing XC quadrature grid using
 IXCGrd= 4 IRadAn=           5 IRanWt=          -1 IRanGd=           0 AccXCQ= 0.00D+00.
 Generated NRdTot=       0 NPtTot=           0 NUsed=           0 NTot=          32
 NSgBfM=   116   116   116   116   116 MxSgAt=    19 MxSgA2=    19.
 Leave Link  302 at Sat Nov  7 22:37:03 2015, MaxMem=   805306368 cpu:         1.8
 (Enter /home/hetanjin/apps/g09D01/g09/l303.exe)
 DipDrv:  MaxL=1.
 Leave Link  303 at Sat Nov  7 22:37:03 2015, MaxMem=   805306368 cpu:         0.1
 (Enter /home/hetanjin/apps/g09D01/g09/l401.exe)
 ExpMin= 1.61D-01 ExpMax= 3.05D+03 ExpMxC= 4.57D+02 IAcc=3 IRadAn=         5 AccDes= 0.00D+00
 Harris functional with IExCor=  402 and IRadAn=       5 diagonalized for initial guess.
 HarFok:  IExCor=  402 AccDes= 0.00D+00 IRadAn=         5 IDoV= 1 UseB2=F ITyADJ=14
 ICtDFT=  3500011 ScaDFX=  1.000000  1.000000  1.000000  1.000000
 FoFCou: FMM=F IPFlag=           0 FMFlag=      100000 FMFlg1=           0
         NFxFlg=           0 DoJE=T BraDBF=F KetDBF=T FulRan=T
         wScrn=  0.000000 ICntrl=     500 IOpCl=  0 I1Cent=   200000004 NGrid=           0
         NMat0=    1 NMatS0=      1 NMatT0=    0 NMatD0=    1 NMtDS0=    0 NMtDT0=    0
 Petite list used in FoFCou.
 Harris En= -236.441309948453    
 JPrj=0 DoOrth=F DoCkMO=F.
 Initial guess <Sx>= 0.0000 <Sy>= 0.0000 <Sz>= 0.5000 <S**2>= 0.7500 S= 0.5000
 Leave Link  401 at Sat Nov  7 22:37:05 2015, MaxMem=   805306368 cpu:         8.8
 (Enter /home/hetanjin/apps/g09D01/g09/l502.exe)
 UHF open shell SCF:
 Using DIIS extrapolation, IDIIS=  1040.
 Integral symmetry usage will be decided dynamically.
 Keep R1 and R2 ints in memory in canonical form, NReq=47059932.
 IVT=       60514 IEndB=       60514 NGot=   805306368 MDV=   759189273
 LenX=   759189273 LenY=   759175376
 Requested convergence on RMS density matrix=1.00D-08 within 128 cycles.
 Requested convergence on MAX density matrix=1.00D-06.
 Requested convergence on             energy=1.00D-06.
 No special actions if energy rises.
 FoFCou: FMM=F IPFlag=           0 FMFlag=           0 FMFlg1=           0
         NFxFlg=           0 DoJE=F BraDBF=F KetDBF=F FulRan=T
         wScrn=  0.000000 ICntrl=     600 IOpCl=  0 I1Cent=           0 NGrid=           0
         NMat0=    1 NMatS0=   6786 NMatT0=    0 NMatD0=    1 NMtDS0=    0 NMtDT0=    0
 Symmetry not used in FoFCou.
 Integral accuracy reduced to 1.0D-05 until final iterations.

 Cycle   1  Pass 0  IDiag  1:
 E= -236.152782213478    
 DIIS: error= 3.96D-02 at cycle   1 NSaved=   1.
 NSaved= 1 IEnMin= 1 EnMin= -236.152782213478     IErMin= 1 ErrMin= 3.96D-02
 ErrMax= 3.96D-02  0.00D+00 EMaxC= 1.00D-01 BMatC= 8.75D-01 BMatP= 8.75D-01
 IDIUse=3 WtCom= 6.04D-01 WtEn= 3.96D-01
 Coeff-Com:  0.100D+01
 Coeff-En:   0.100D+01
 Coeff:      0.100D+01
 Gap=     0.290 Goal=   None    Shift=    0.000
 Gap=     0.243 Goal=   None    Shift=    0.000
 GapD=    0.243 DampG=1.000 DampE=0.500 DampFc=0.5000 IDamp=-1.
 Damping current iteration by 5.00D-01
 RMSDP=9.45D-03 MaxDP=1.37D-01              OVMax= 1.74D-01

 Cycle   2  Pass 0  IDiag  1:
 E= -236.265056263952     Delta-E=       -0.112274050475 Rises=F Damp=T
 DIIS: error= 7.21D-03 at cycle   2 NSaved=   2.
 NSaved= 2 IEnMin= 2 EnMin= -236.265056263952     IErMin= 2 ErrMin= 7.21D-03
 ErrMax= 7.21D-03  0.00D+00 EMaxC= 1.00D-01 BMatC= 3.68D-02 BMatP= 8.75D-01
 IDIUse=3 WtCom= 9.28D-01 WtEn= 7.21D-02
 Coeff-Com:  0.649D-01 0.935D+00
 Coeff-En:   0.104D+00 0.896D+00
 Coeff:      0.678D-01 0.932D+00
 Gap=     0.316 Goal=   None    Shift=    0.000
 Gap=     0.256 Goal=   None    Shift=    0.000
 RMSDP=1.48D-03 MaxDP=2.09D-02 DE=-1.12D-01 OVMax= 9.79D-02

 Cycle   3  Pass 0  IDiag  1:
 E= -236.400584728350     Delta-E=       -0.135528464398 Rises=F Damp=F
 DIIS: error= 1.85D-03 at cycle   3 NSaved=   3.
 NSaved= 3 IEnMin= 3 EnMin= -236.400584728350     IErMin= 3 ErrMin= 1.85D-03
 ErrMax= 1.85D-03  0.00D+00 EMaxC= 1.00D-01 BMatC= 3.39D-03 BMatP= 3.68D-02
 IDIUse=3 WtCom= 9.82D-01 WtEn= 1.85D-02
 Coeff-Com: -0.702D-02 0.166D+00 0.841D+00
 Coeff-En:   0.000D+00 0.000D+00 0.100D+01
 Coeff:     -0.689D-02 0.163D+00 0.844D+00
 Gap=     0.320 Goal=   None    Shift=    0.000
 Gap=     0.241 Goal=   None    Shift=    0.000
 RMSDP=4.60D-04 MaxDP=9.74D-03 DE=-1.36D-01 OVMax= 1.07D-02

 Cycle   4  Pass 0  IDiag  1:
 E= -236.401177992175     Delta-E=       -0.000593263826 Rises=F Damp=F
 DIIS: error= 1.07D-03 at cycle   4 NSaved=   4.
 NSaved= 4 IEnMin= 4 EnMin= -236.401177992175     IErMin= 4 ErrMin= 1.07D-03
 ErrMax= 1.07D-03  0.00D+00 EMaxC= 1.00D-01 BMatC= 1.28D-03 BMatP= 3.39D-03
 IDIUse=3 WtCom= 9.89D-01 WtEn= 1.07D-02
 Coeff-Com: -0.513D-02 0.292D-01 0.394D+00 0.582D+00
 Coeff-En:   0.000D+00 0.000D+00 0.205D+00 0.795D+00
 Coeff:     -0.507D-02 0.289D-01 0.392D+00 0.584D+00
 Gap=     0.317 Goal=   None    Shift=    0.000
 Gap=     0.246 Goal=   None    Shift=    0.000
 RMSDP=1.77D-04 MaxDP=3.69D-03 DE=-5.93D-04 OVMax= 4.38D-03

 Cycle   5  Pass 0  IDiag  1:
 E= -236.401487214354     Delta-E=       -0.000309222179 Rises=F Damp=F
 DIIS: error= 2.56D-04 at cycle   5 NSaved=   5.
 NSaved= 5 IEnMin= 5 EnMin= -236.401487214354     IErMin= 5 ErrMin= 2.56D-04
 ErrMax= 2.56D-04  0.00D+00 EMaxC= 1.00D-01 BMatC= 8.07D-05 BMatP= 1.28D-03
 IDIUse=3 WtCom= 9.97D-01 WtEn= 2.56D-03
 Coeff-Com: -0.124D-02-0.293D-02 0.949D-01 0.249D+00 0.660D+00
 Coeff-En:   0.000D+00 0.000D+00 0.000D+00 0.000D+00 0.100D+01
 Coeff:     -0.124D-02-0.292D-02 0.947D-01 0.248D+00 0.661D+00
 Gap=     0.318 Goal=   None    Shift=    0.000
 Gap=     0.246 Goal=   None    Shift=    0.000
 RMSDP=4.31D-05 MaxDP=8.18D-04 DE=-3.09D-04 OVMax= 9.66D-04

 Cycle   6  Pass 0  IDiag  1:
 E= -236.401507930717     Delta-E=       -0.000020716363 Rises=F Damp=F
 DIIS: error= 8.17D-05 at cycle   6 NSaved=   6.
 NSaved= 6 IEnMin= 6 EnMin= -236.401507930717     IErMin= 6 ErrMin= 8.17D-05
 ErrMax= 8.17D-05  0.00D+00 EMaxC= 1.00D-01 BMatC= 2.78D-06 BMatP= 8.07D-05
 IDIUse=1 WtCom= 1.00D+00 WtEn= 0.00D+00
 Coeff-Com:  0.126D-03-0.240D-02-0.101D-01 0.200D-02 0.107D+00 0.903D+00
 Coeff:      0.126D-03-0.240D-02-0.101D-01 0.200D-02 0.107D+00 0.903D+00
 Gap=     0.318 Goal=   None    Shift=    0.000
 Gap=     0.246 Goal=   None    Shift=    0.000
 RMSDP=1.39D-05 MaxDP=4.28D-04 DE=-2.07D-05 OVMax= 3.82D-04

 Cycle   7  Pass 0  IDiag  1:
 E= -236.401509127332     Delta-E=       -0.000001196615 Rises=F Damp=F
 DIIS: error= 2.95D-05 at cycle   7 NSaved=   7.
 NSaved= 7 IEnMin= 7 EnMin= -236.401509127332     IErMin= 7 ErrMin= 2.95D-05
 ErrMax= 2.95D-05  0.00D+00 EMaxC= 1.00D-01 BMatC= 7.52D-07 BMatP= 2.78D-06
 IDIUse=1 WtCom= 1.00D+00 WtEn= 0.00D+00
 Coeff-Com:  0.224D-03-0.240D-03-0.191D-01-0.417D-01-0.805D-01 0.319D+00
 Coeff-Com:  0.822D+00
 Coeff:      0.224D-03-0.240D-03-0.191D-01-0.417D-01-0.805D-01 0.319D+00
 Coeff:      0.822D+00
 Gap=     0.318 Goal=   None    Shift=    0.000
 Gap=     0.246 Goal=   None    Shift=    0.000
 RMSDP=6.07D-06 MaxDP=2.35D-04 DE=-1.20D-06 OVMax= 1.99D-04

 Initial convergence to 1.0D-05 achieved.  Increase integral accuracy.
 Cycle   8  Pass 1  IDiag  1:
 E= -236.401510093773     Delta-E=       -0.000000966441 Rises=F Damp=F
 DIIS: error= 1.25D-05 at cycle   1 NSaved=   1.
 NSaved= 1 IEnMin= 1 EnMin= -236.401510093773     IErMin= 1 ErrMin= 1.25D-05
 ErrMax= 1.25D-05  0.00D+00 EMaxC= 1.00D-01 BMatC= 1.17D-07 BMatP= 1.17D-07
 IDIUse=1 WtCom= 1.00D+00 WtEn= 0.00D+00
 Coeff-Com:  0.100D+01
 Coeff:      0.100D+01
 Gap=     0.318 Goal=   None    Shift=    0.000
 Gap=     0.246 Goal=   None    Shift=    0.000
 RMSDP=6.07D-06 MaxDP=2.35D-04 DE=-9.66D-07 OVMax= 7.70D-05

 Cycle   9  Pass 1  IDiag  1:
 E= -236.401510095530     Delta-E=       -0.000000001757 Rises=F Damp=F
 DIIS: error= 1.34D-05 at cycle   2 NSaved=   2.
 NSaved= 2 IEnMin= 2 EnMin= -236.401510095530     IErMin= 1 ErrMin= 1.25D-05
 ErrMax= 1.34D-05  0.00D+00 EMaxC= 1.00D-01 BMatC= 1.39D-07 BMatP= 1.17D-07
 IDIUse=1 WtCom= 1.00D+00 WtEn= 0.00D+00
 Coeff-Com:  0.523D+00 0.477D+00
 Coeff:      0.523D+00 0.477D+00
 Gap=     0.318 Goal=   None    Shift=    0.000
 Gap=     0.246 Goal=   None    Shift=    0.000
 RMSDP=1.74D-06 MaxDP=3.57D-05 DE=-1.76D-09 OVMax= 3.78D-05

 Cycle  10  Pass 1  IDiag  1:
 E= -236.401510132079     Delta-E=       -0.000000036550 Rises=F Damp=F
 DIIS: error= 1.69D-06 at cycle   3 NSaved=   3.
 NSaved= 3 IEnMin= 3 EnMin= -236.401510132079     IErMin= 3 ErrMin= 1.69D-06
 ErrMax= 1.69D-06  0.00D+00 EMaxC= 1.00D-01 BMatC= 1.98D-09 BMatP= 1.17D-07
 IDIUse=1 WtCom= 1.00D+00 WtEn= 0.00D+00
 Coeff-Com: -0.622D-01 0.101D-01 0.105D+01
 Coeff:     -0.622D-01 0.101D-01 0.105D+01
 Gap=     0.318 Goal=   None    Shift=    0.000
 Gap=     0.246 Goal=   None    Shift=    0.000
 RMSDP=4.01D-07 MaxDP=1.08D-05 DE=-3.65D-08 OVMax= 1.06D-05

 Cycle  11  Pass 1  IDiag  1:
 E= -236.401510133023     Delta-E=       -0.000000000944 Rises=F Damp=F
 DIIS: error= 9.63D-07 at cycle   4 NSaved=   4.
 NSaved= 4 IEnMin= 4 EnMin= -236.401510133023     IErMin= 4 ErrMin= 9.63D-07
 ErrMax= 9.63D-07  0.00D+00 EMaxC= 1.00D-01 BMatC= 7.18D-10 BMatP= 1.98D-09
 IDIUse=1 WtCom= 1.00D+00 WtEn= 0.00D+00
 Coeff-Com: -0.114D+00-0.749D-01 0.446D+00 0.742D+00
 Coeff:     -0.114D+00-0.749D-01 0.446D+00 0.742D+00
 Gap=     0.318 Goal=   None    Shift=    0.000
 Gap=     0.246 Goal=   None    Shift=    0.000
 RMSDP=1.93D-07 MaxDP=5.56D-06 DE=-9.44D-10 OVMax= 5.15D-06

 Cycle  12  Pass 1  IDiag  1:
 E= -236.401510133274     Delta-E=       -0.000000000250 Rises=F Damp=F
 DIIS: error= 3.15D-07 at cycle   5 NSaved=   5.
 NSaved= 5 IEnMin= 5 EnMin= -236.401510133274     IErMin= 5 ErrMin= 3.15D-07
 ErrMax= 3.15D-07  0.00D+00 EMaxC= 1.00D-01 BMatC= 8.33D-11 BMatP= 7.18D-10
 IDIUse=1 WtCom= 1.00D+00 WtEn= 0.00D+00
 Coeff-Com: -0.389D-01-0.320D-01 0.559D-01 0.299D+00 0.716D+00
 Coeff:     -0.389D-01-0.320D-01 0.559D-01 0.299D+00 0.716D+00
 Gap=     0.318 Goal=   None    Shift=    0.000
 Gap=     0.246 Goal=   None    Shift=    0.000
 RMSDP=5.33D-08 MaxDP=1.99D-06 DE=-2.50D-10 OVMax= 1.93D-06

 Cycle  13  Pass 1  IDiag  1:
 E= -236.401510133300     Delta-E=       -0.000000000026 Rises=F Damp=F
 DIIS: error= 1.03D-07 at cycle   6 NSaved=   6.
 NSaved= 6 IEnMin= 6 EnMin= -236.401510133300     IErMin= 6 ErrMin= 1.03D-07
 ErrMax= 1.03D-07  0.00D+00 EMaxC= 1.00D-01 BMatC= 7.78D-12 BMatP= 8.33D-11
 IDIUse=1 WtCom= 1.00D+00 WtEn= 0.00D+00
 Coeff-Com:  0.304D-02-0.564D-03-0.474D-01-0.240D-02 0.254D+00 0.793D+00
 Coeff:      0.304D-02-0.564D-03-0.474D-01-0.240D-02 0.254D+00 0.793D+00
 Gap=     0.318 Goal=   None    Shift=    0.000
 Gap=     0.246 Goal=   None    Shift=    0.000
 RMSDP=1.91D-08 MaxDP=5.30D-07 DE=-2.64D-11 OVMax= 5.77D-07

 Cycle  14  Pass 1  IDiag  1:
 E= -236.401510133303     Delta-E=       -0.000000000003 Rises=F Damp=F
 DIIS: error= 2.02D-08 at cycle   7 NSaved=   7.
 NSaved= 7 IEnMin= 7 EnMin= -236.401510133303     IErMin= 7 ErrMin= 2.02D-08
 ErrMax= 2.02D-08  0.00D+00 EMaxC= 1.00D-01 BMatC= 2.82D-13 BMatP= 7.78D-12
 IDIUse=1 WtCom= 1.00D+00 WtEn= 0.00D+00
 Coeff-Com:  0.219D-02 0.846D-03-0.159D-01-0.106D-01 0.514D-01 0.245D+00
 Coeff-Com:  0.727D+00
 Coeff:      0.219D-02 0.846D-03-0.159D-01-0.106D-01 0.514D-01 0.245D+00
 Coeff:      0.727D+00
 Gap=     0.318 Goal=   None    Shift=    0.000
 Gap=     0.246 Goal=   None    Shift=    0.000
 RMSDP=3.54D-09 MaxDP=7.53D-08 DE=-2.73D-12 OVMax= 8.47D-08

 SCF Done:  E(UB3LYP) =  -236.401510133     A.U. after   14 cycles
            NFock= 14  Conv=0.35D-08     -V/T= 2.0104
 <Sx>= 0.0000 <Sy>= 0.0000 <Sz>= 0.5000 <S**2>= 0.7527 S= 0.5013
 <L.S>= 0.000000000000E+00
 KE= 2.339695090698D+02 PE=-1.029903969112D+03 EE= 3.173609499076D+02
 Annihilation of the first spin contaminant:
 S**2 before annihilation     0.7527,   after     0.7500
 Leave Link  502 at Sat Nov  7 22:37:47 2015, MaxMem=   805306368 cpu:       158.3
 (Enter /home/hetanjin/apps/g09D01/g09/l601.exe)
 Copying SCF densities to generalized density rwf, IOpCl= 1 IROHF=0.

 **********************************************************************

            Population analysis using the SCF density.

 **********************************************************************

 Orbital symmetries:
 Alpha Orbitals:
       Occupied  (A) (A) (A) (A) (A) (A) (A) (A) (A) (A) (A) (A)
                 (A) (A) (A) (A) (A) (A) (A) (A) (A) (A) (A) (A)
                 (A)
       Virtual   (A) (A) (A) (A) (A) (A) (A) (A) (A) (A) (A) (A)
                 (A) (A) (A) (A) (A) (A) (A) (A) (A) (A) (A) (A)
                 (A) (A) (A) (A) (A) (A) (A) (A) (A) (A) (A) (A)
                 (A) (A) (A) (A) (A) (A) (A) (A) (A) (A) (A) (A)
                 (A) (A) (A) (A) (A) (A) (A) (A) (A) (A) (A) (A)
                 (A) (A) (A) (A) (A) (A) (A) (A) (A) (A) (A) (A)
                 (A) (A) (A) (A) (A) (A) (A) (A) (A) (A) (A) (A)
                 (A) (A) (A) (A) (A) (A) (A)
 Beta  Orbitals:
       Occupied  (A) (A) (A) (A) (A) (A) (A) (A) (A) (A) (A) (A)
                 (A) (A) (A) (A) (A) (A) (A) (A) (A) (A) (A) (A)
       Virtual   (A) (A) (A) (A) (A) (A) (A) (A) (A) (A) (A) (A)
                 (A) (A) (A) (A) (A) (A) (A) (A) (A) (A) (A) (A)
                 (A) (A) (A) (A) (A) (A) (A) (A) (A) (A) (A) (A)
                 (A) (A) (A) (A) (A) (A) (A) (A) (A) (A) (A) (A)
                 (A) (A) (A) (A) (A) (A) (A) (A) (A) (A) (A) (A)
                 (A) (A) (A) (A) (A) (A) (A) (A) (A) (A) (A) (A)
                 (A) (A) (A) (A) (A) (A) (A) (A) (A) (A) (A) (A)
                 (A) (A) (A) (A) (A) (A) (A) (A)
 The electronic state is 2-A.
 Alpha  occ. eigenvalues --  -10.19334 -10.19064 -10.17731 -10.17472 -10.17115
 Alpha  occ. eigenvalues --  -10.17044  -0.80855  -0.75678  -0.67381  -0.66942
 Alpha  occ. eigenvalues --   -0.58936  -0.54872  -0.46874  -0.43963  -0.43613
 Alpha  occ. eigenvalues --   -0.41535  -0.39072  -0.37654  -0.36409  -0.35022
 Alpha  occ. eigenvalues --   -0.34252  -0.32454  -0.31681  -0.30797  -0.22899
 Alpha virt. eigenvalues --    0.08938   0.11078   0.12647   0.12916   0.14825
 Alpha virt. eigenvalues --    0.15927   0.16442   0.17540   0.17978   0.19333
 Alpha virt. eigenvalues --    0.19521   0.21472   0.21676   0.23676   0.25200
 Alpha virt. eigenvalues --    0.26264   0.26963   0.28069   0.49471   0.51765
 Alpha virt. eigenvalues --    0.52252   0.52492   0.53636   0.55994   0.57159
 Alpha virt. eigenvalues --    0.60152   0.65577   0.67249   0.67638   0.70764
 Alpha virt. eigenvalues --    0.72807   0.74157   0.79980   0.81721   0.84516
 Alpha virt. eigenvalues --    0.86234   0.87590   0.89687   0.90303   0.90502
 Alpha virt. eigenvalues --    0.91615   0.93774   0.94132   0.94914   0.96539
 Alpha virt. eigenvalues --    0.96786   0.99040   1.00063   1.02096   1.09315
 Alpha virt. eigenvalues --    1.15173   1.36009   1.40608   1.43147   1.46056
 Alpha virt. eigenvalues --    1.53933   1.56384   1.68847   1.72676   1.78092
 Alpha virt. eigenvalues --    1.81649   1.84045   1.88598   1.90645   1.95006
 Alpha virt. eigenvalues --    1.96344   1.98097   1.99979   2.03653   2.08755
 Alpha virt. eigenvalues --    2.09874   2.15940   2.21636   2.23963   2.25410
 Alpha virt. eigenvalues --    2.32301   2.35389   2.37155   2.42706   2.51252
 Alpha virt. eigenvalues --    2.52451   2.58939   2.68213   2.76325   2.79799
 Alpha virt. eigenvalues --    4.10261   4.17304   4.24093   4.32666   4.45748
 Alpha virt. eigenvalues --    4.58769
  Beta  occ. eigenvalues --  -10.19093 -10.17901 -10.17733 -10.17449 -10.17115
  Beta  occ. eigenvalues --  -10.17026  -0.80447  -0.75395  -0.67173  -0.65083
  Beta  occ. eigenvalues --   -0.58806  -0.53951  -0.46591  -0.43623  -0.43219
  Beta  occ. eigenvalues --   -0.41279  -0.39035  -0.37541  -0.36039  -0.34663
  Beta  occ. eigenvalues --   -0.33708  -0.32242  -0.31266  -0.30693
  Beta virt. eigenvalues --   -0.06110   0.09330   0.11146   0.12806   0.13149
  Beta virt. eigenvalues --    0.15079   0.16367   0.16721   0.17623   0.18034
  Beta virt. eigenvalues --    0.19502   0.19645   0.21722   0.22070   0.23900
  Beta virt. eigenvalues --    0.25829   0.26800   0.27334   0.28149   0.49644
  Beta virt. eigenvalues --    0.51907   0.52599   0.53283   0.54746   0.56231
  Beta virt. eigenvalues --    0.60091   0.62221   0.65830   0.67589   0.68011
  Beta virt. eigenvalues --    0.71248   0.73349   0.74614   0.80218   0.81931
  Beta virt. eigenvalues --    0.85114   0.86783   0.87930   0.89758   0.90438
  Beta virt. eigenvalues --    0.90748   0.92096   0.93971   0.94341   0.95534
  Beta virt. eigenvalues --    0.96965   0.97023   0.99314   1.00570   1.02476
  Beta virt. eigenvalues --    1.09731   1.16396   1.36338   1.40978   1.43958
  Beta virt. eigenvalues --    1.46108   1.54124   1.57011   1.70120   1.73088
  Beta virt. eigenvalues --    1.79344   1.82942   1.84528   1.90906   1.92489
  Beta virt. eigenvalues --    1.96176   1.96659   1.98272   2.00108   2.04113
  Beta virt. eigenvalues --    2.10453   2.11812   2.18154   2.21740   2.24040
  Beta virt. eigenvalues --    2.26817   2.32581   2.35836   2.37481   2.43034
  Beta virt. eigenvalues --    2.52070   2.52951   2.59051   2.68934   2.76629
  Beta virt. eigenvalues --    2.79926   4.11497   4.19015   4.24585   4.32726
  Beta virt. eigenvalues --    4.45876   4.58968
          Condensed to atoms (all electrons):
               1          2          3          4          5          6
     1  C    5.111686   0.366722   0.374523   0.367764   0.373048  -0.045763
     2  H    0.366722   0.584330  -0.031358  -0.030649  -0.029496  -0.003120
     3  H    0.374523  -0.031358   0.573128  -0.031049  -0.034448   0.005769
     4  H    0.367764  -0.030649  -0.031049   0.582516  -0.028616  -0.003230
     5  C    0.373048  -0.029496  -0.034448  -0.028616   4.880685   0.369247
     6  H   -0.045763  -0.003120   0.005769  -0.003230   0.369247   0.635972
     7  C   -0.047147  -0.004609  -0.005476   0.004651   0.382173  -0.047963
     8  H   -0.003681  -0.000244   0.004827  -0.000074  -0.038321   0.006540
     9  H   -0.005035   0.005604  -0.000297   0.000019  -0.037525  -0.003467
    10  C    0.003970  -0.000003   0.000026  -0.000141  -0.032723  -0.005330
    11  H    0.000076  -0.000002   0.000009   0.000000  -0.003561   0.006287
    12  H    0.000002   0.000002   0.000002   0.000003  -0.004299  -0.000266
    13  C   -0.000129  -0.000004   0.000000   0.000002   0.003590   0.000011
    14  H    0.000001   0.000000  -0.000001   0.000000   0.000059   0.000009
    15  H    0.000002   0.000000   0.000000   0.000000  -0.000125   0.000001
    16  H   -0.000005   0.000000   0.000000   0.000000  -0.000023   0.000001
    17  C   -0.052987   0.005107  -0.002081  -0.003980   0.371299  -0.047172
    18  H    0.005116  -0.000206   0.000015  -0.000038  -0.037708  -0.000848
    19  H   -0.006027  -0.000037  -0.000079   0.004435  -0.038305  -0.000717
               7          8          9         10         11         12
     1  C   -0.047147  -0.003681  -0.005035   0.003970   0.000076   0.000002
     2  H   -0.004609  -0.000244   0.005604  -0.000003  -0.000002   0.000002
     3  H   -0.005476   0.004827  -0.000297   0.000026   0.000009   0.000002
     4  H    0.004651  -0.000074   0.000019  -0.000141   0.000000   0.000003
     5  C    0.382173  -0.038321  -0.037525  -0.032723  -0.003561  -0.004299
     6  H   -0.047963   0.006540  -0.003467  -0.005330   0.006287  -0.000266
     7  C    5.012531   0.367202   0.366746   0.386075  -0.042534  -0.037740
     8  H    0.367202   0.613440  -0.039443  -0.038851   0.006019  -0.005716
     9  H    0.366746  -0.039443   0.625125  -0.042411  -0.004885   0.005979
    10  C    0.386075  -0.038851  -0.042411   4.961676   0.375866   0.376139
    11  H   -0.042534   0.006019  -0.004885   0.375866   0.617029  -0.040582
    12  H   -0.037740  -0.005716   0.005979   0.376139  -0.040582   0.603447
    13  C   -0.041498  -0.002895  -0.003866   0.371373  -0.038715  -0.037876
    14  H   -0.004250   0.004635  -0.000406  -0.034870   0.005281  -0.004524
    15  H    0.004050  -0.000048   0.000010  -0.027637  -0.002703  -0.002517
    16  H   -0.004676  -0.000379   0.005417  -0.034843  -0.004567   0.005165
    17  C   -0.047793  -0.003737   0.005478  -0.004851  -0.000768   0.002925
    18  H   -0.006353   0.000094  -0.000060   0.002223   0.000442   0.003012
    19  H    0.004910   0.000020  -0.000186   0.000125  -0.000030  -0.000111
              13         14         15         16         17         18
     1  C   -0.000129   0.000001   0.000002  -0.000005  -0.052987   0.005116
     2  H   -0.000004   0.000000   0.000000   0.000000   0.005107  -0.000206
     3  H    0.000000  -0.000001   0.000000   0.000000  -0.002081   0.000015
     4  H    0.000002   0.000000   0.000000   0.000000  -0.003980  -0.000038
     5  C    0.003590   0.000059  -0.000125  -0.000023   0.371299  -0.037708
     6  H    0.000011   0.000009   0.000001   0.000001  -0.047172  -0.000848
     7  C   -0.041498  -0.004250   0.004050  -0.004676  -0.047793  -0.006353
     8  H   -0.002895   0.004635  -0.000048  -0.000379  -0.003737   0.000094
     9  H   -0.003866  -0.000406   0.000010   0.005417   0.005478  -0.000060
    10  C    0.371373  -0.034870  -0.027637  -0.034843  -0.004851   0.002223
    11  H   -0.038715   0.005281  -0.002703  -0.004567  -0.000768   0.000442
    12  H   -0.037876  -0.004524  -0.002517   0.005165   0.002925   0.003012
    13  C    5.065174   0.377773   0.371637   0.377269   0.000119  -0.000102
    14  H    0.377773   0.577674  -0.031281  -0.032831  -0.000009   0.000008
    15  H    0.371637  -0.031281   0.578594  -0.031322   0.000003   0.000005
    16  H    0.377269  -0.032831  -0.031322   0.579856   0.000001   0.000001
    17  C    0.000119  -0.000009   0.000003   0.000001   5.368563   0.351271
    18  H   -0.000102   0.000008   0.000005   0.000001   0.351271   0.591796
    19  H   -0.000001   0.000000   0.000000   0.000000   0.350585  -0.044091
              19
     1  C   -0.006027
     2  H   -0.000037
     3  H   -0.000079
     4  H    0.004435
     5  C   -0.038305
     6  H   -0.000717
     7  C    0.004910
     8  H    0.000020
     9  H   -0.000186
    10  C    0.000125
    11  H   -0.000030
    12  H   -0.000111
    13  C   -0.000001
    14  H    0.000000
    15  H    0.000000
    16  H    0.000000
    17  C    0.350585
    18  H   -0.044091
    19  H    0.599871
          Atomic-Atomic Spin Densities.
               1          2          3          4          5          6
     1  C    0.017427  -0.001840  -0.005530   0.000398   0.004436  -0.007174
     2  H   -0.001840  -0.001385   0.001248  -0.000006   0.000588   0.001302
     3  H   -0.005530   0.001248   0.003459  -0.000335  -0.000696   0.000782
     4  H    0.000398  -0.000006  -0.000335  -0.000524   0.000435  -0.000546
     5  C    0.004436   0.000588  -0.000696   0.000435  -0.030760   0.009654
     6  H   -0.007174   0.001302   0.000782  -0.000546   0.009654   0.076006
     7  C    0.005597  -0.000547  -0.001446   0.000063   0.005306  -0.007572
     8  H   -0.001439   0.000170   0.000575  -0.000017  -0.000947   0.000889
     9  H   -0.000744  -0.000018   0.000227  -0.000004   0.000653   0.001472
    10  C    0.000102  -0.000005  -0.000016   0.000001   0.000525  -0.001589
    11  H   -0.000020   0.000003   0.000001   0.000000  -0.000009   0.000562
    12  H   -0.000026   0.000001   0.000006   0.000000  -0.000296   0.000369
    13  C    0.000007  -0.000001  -0.000001   0.000000  -0.000020  -0.000061
    14  H    0.000000   0.000000   0.000000   0.000000   0.000000   0.000000
    15  H    0.000000   0.000000   0.000000   0.000000   0.000000   0.000001
    16  H    0.000000   0.000000   0.000000   0.000000   0.000003   0.000003
    17  C   -0.008107   0.000141   0.004447  -0.000148  -0.036652  -0.022303
    18  H    0.000176  -0.000003  -0.000075   0.000020   0.003708  -0.002709
    19  H    0.001046  -0.000057  -0.000312   0.000128   0.003757  -0.002580
               7          8          9         10         11         12
     1  C    0.005597  -0.001439  -0.000744   0.000102  -0.000020  -0.000026
     2  H   -0.000547   0.000170  -0.000018  -0.000005   0.000003   0.000001
     3  H   -0.001446   0.000575   0.000227  -0.000016   0.000001   0.000006
     4  H    0.000063  -0.000017  -0.000004   0.000001   0.000000   0.000000
     5  C    0.005306  -0.000947   0.000653   0.000525  -0.000009  -0.000296
     6  H   -0.007572   0.000889   0.001472  -0.001589   0.000562   0.000369
     7  C    0.020875  -0.006903  -0.002830   0.001013  -0.000117  -0.000351
     8  H   -0.006903   0.004465   0.001616  -0.000422   0.000075   0.000435
     9  H   -0.002830   0.001616  -0.000396  -0.000080   0.000141   0.000056
    10  C    0.001013  -0.000422  -0.000080   0.000061  -0.000612  -0.000867
    11  H   -0.000117   0.000075   0.000141  -0.000612   0.000340   0.000293
    12  H   -0.000351   0.000435   0.000056  -0.000867   0.000293   0.001272
    13  C    0.000096  -0.000369  -0.000235   0.000509  -0.000247  -0.000417
    14  H    0.000004   0.000001  -0.000003   0.000009   0.000000  -0.000004
    15  H    0.000003   0.000008   0.000004   0.000001   0.000023   0.000035
    16  H   -0.000012   0.000018   0.000027  -0.000003   0.000015   0.000011
    17  C   -0.008944   0.005177   0.000207   0.000115  -0.000145   0.000514
    18  H    0.001063  -0.000314  -0.000038   0.000813  -0.000116  -0.000702
    19  H    0.000163  -0.000090  -0.000006   0.000041  -0.000007  -0.000015
              13         14         15         16         17         18
     1  C    0.000007   0.000000   0.000000   0.000000  -0.008107   0.000176
     2  H   -0.000001   0.000000   0.000000   0.000000   0.000141  -0.000003
     3  H   -0.000001   0.000000   0.000000   0.000000   0.004447  -0.000075
     4  H    0.000000   0.000000   0.000000   0.000000  -0.000148   0.000020
     5  C   -0.000020   0.000000   0.000000   0.000003  -0.036652   0.003708
     6  H   -0.000061   0.000000   0.000001   0.000003  -0.022303  -0.002709
     7  C    0.000096   0.000004   0.000003  -0.000012  -0.008944   0.001063
     8  H   -0.000369   0.000001   0.000008   0.000018   0.005177  -0.000314
     9  H   -0.000235  -0.000003   0.000004   0.000027   0.000207  -0.000038
    10  C    0.000509   0.000009   0.000001  -0.000003   0.000115   0.000813
    11  H   -0.000247   0.000000   0.000023   0.000015  -0.000145  -0.000116
    12  H   -0.000417  -0.000004   0.000035   0.000011   0.000514  -0.000702
    13  C    0.000967  -0.000009  -0.000097  -0.000066  -0.000029   0.000008
    14  H   -0.000009  -0.000010   0.000002   0.000001   0.000000   0.000000
    15  H   -0.000097   0.000002   0.000061   0.000014   0.000000  -0.000001
    16  H   -0.000066   0.000001   0.000014  -0.000015   0.000000   0.000000
    17  C   -0.000029   0.000000   0.000000   0.000000   1.132748  -0.013742
    18  H    0.000008   0.000000  -0.000001   0.000000  -0.013742  -0.023866
    19  H    0.000001   0.000000   0.000000   0.000000  -0.013271   0.006302
              19
     1  C    0.001046
     2  H   -0.000057
     3  H   -0.000312
     4  H    0.000128
     5  C    0.003757
     6  H   -0.002580
     7  C    0.000163
     8  H   -0.000090
     9  H   -0.000006
    10  C    0.000041
    11  H   -0.000007
    12  H   -0.000015
    13  C    0.000001
    14  H    0.000000
    15  H    0.000000
    16  H    0.000000
    17  C   -0.013271
    18  H    0.006302
    19  H   -0.026130
 Mulliken charges and spin densities:
               1          2
     1  C   -0.442137   0.004308
     2  H    0.137964  -0.000409
     3  H    0.146490   0.002336
     4  H    0.138385  -0.000535
     5  C   -0.094952  -0.040315
     6  H    0.134039   0.046505
     7  C   -0.238301   0.005462
     8  H    0.130613   0.002928
     9  H    0.123202   0.000049
    10  C   -0.255815  -0.000403
    11  H    0.127338   0.000182
    12  H    0.136954   0.000314
    13  C   -0.441862   0.000035
    14  H    0.142732  -0.000008
    15  H    0.141333   0.000053
    16  H    0.140936  -0.000003
    17  C   -0.291975   1.040010
    18  H    0.135423  -0.029476
    19  H    0.129635  -0.031031
 Sum of Mulliken charges =   0.00000   1.00000
 Mulliken charges and spin densities with hydrogens summed into heavy atoms:
               1          2
     1  C   -0.019298   0.005700
     5  C    0.039086   0.006190
     7  C    0.015514   0.008438
    10  C    0.008477   0.000093
    13  C   -0.016862   0.000077
    17  C   -0.026917   0.979503
 Electronic spatial extent (au):  <R**2>=            886.1319
 Charge=              0.0000 electrons
 Dipole moment (field-independent basis, Debye):
    X=              0.0822    Y=             -0.0752    Z=              0.6186  Tot=              0.6285
 Quadrupole moment (field-independent basis, Debye-Ang):
   XX=            -41.2223   YY=            -40.9070   ZZ=            -41.0704
   XY=              0.2263   XZ=             -0.9436   YZ=              0.7163
 Traceless Quadrupole moment (field-independent basis, Debye-Ang):
   XX=             -0.1557   YY=              0.1595   ZZ=             -0.0038
   XY=              0.2263   XZ=             -0.9436   YZ=              0.7163
 Octapole moment (field-independent basis, Debye-Ang**2):
  XXX=             -1.2528  YYY=             -0.5764  ZZZ=              0.9134  XYY=              1.4000
  XXY=              1.6740  XXZ=              2.5675  XZZ=              1.3994  YZZ=             -1.7857
  YYZ=              2.3046  XYZ=             -1.6887
 Hexadecapole moment (field-independent basis, Debye-Ang**3):
 XXXX=           -900.7636 YYYY=           -239.6926 ZZZZ=            -89.5203 XXXY=              0.5800
 XXXZ=             -3.4374 YYYX=              1.0521 YYYZ=              0.8047 ZZZX=             -2.5589
 ZZZY=              3.4018 XXYY=           -191.5304 XXZZ=           -166.4651 YYZZ=            -58.0250
 XXYZ=              3.0157 YYXZ=             -2.1724 ZZXY=              2.4111
 N-N= 2.421720000011D+02 E-N=-1.029903973474D+03  KE= 2.339695090698D+02
                          Isotropic Fermi Contact Couplings
        Atom                 a.u.       MegaHertz       Gauss      10(-4) cm-1
     1  C(13)              0.00900      10.11212       3.60826       3.37304
     2  H(1)              -0.00043      -1.89992      -0.67794      -0.63374
     3  H(1)              -0.00023      -1.00632      -0.35908      -0.33567
     4  H(1)              -0.00022      -0.99373      -0.35459      -0.33147
     5  C(13)             -0.01068     -12.00998      -4.28546      -4.00610
     6  H(1)               0.02429     108.58028      38.74414      36.21848
     7  C(13)              0.01072      12.05695       4.30222       4.02177
     8  H(1)              -0.00021      -0.92646      -0.33058      -0.30903
     9  H(1)              -0.00032      -1.43231      -0.51108      -0.47777
    10  C(13)             -0.00046      -0.51848      -0.18500      -0.17294
    11  H(1)               0.00003       0.14371       0.05128       0.04794
    12  H(1)               0.00008       0.37027       0.13212       0.12351
    13  C(13)              0.00032       0.36413       0.12993       0.12146
    14  H(1)               0.00000       0.01952       0.00696       0.00651
    15  H(1)               0.00002       0.07799       0.02783       0.02601
    16  H(1)              -0.00001      -0.06338      -0.02261      -0.02114
    17  C(13)              0.30390     341.63917     121.90535     113.95856
    18  H(1)              -0.00400     -17.86993      -6.37643      -5.96077
    19  H(1)              -0.00450     -20.11863      -7.17883      -6.71085
 --------------------------------------------------------
       Center         ----  Spin Dipole Couplings  ----
                      3XX-RR        3YY-RR        3ZZ-RR
 --------------------------------------------------------
     1   Atom       -0.002635      0.011389     -0.008754
     2   Atom       -0.003320      0.005700     -0.002379
     3   Atom       -0.005195      0.010511     -0.005315
     4   Atom        0.001357      0.002349     -0.003706
     5   Atom       -0.021862      0.002703      0.019159
     6   Atom       -0.010532      0.001656      0.008876
     7   Atom        0.009919      0.000703     -0.010622
     8   Atom        0.001263      0.003433     -0.004696
     9   Atom       -0.000607      0.003289     -0.002681
    10   Atom        0.006144     -0.003523     -0.002621
    11   Atom        0.003708     -0.002766     -0.000942
    12   Atom        0.010073     -0.005639     -0.004434
    13   Atom        0.002518     -0.001105     -0.001413
    14   Atom        0.002095     -0.000875     -0.001220
    15   Atom        0.001803     -0.000904     -0.000899
    16   Atom        0.001257     -0.000327     -0.000930
    17   Atom       -0.475163     -0.467382      0.942545
    18   Atom       -0.000202      0.005405     -0.005202
    19   Atom        0.050130     -0.047777     -0.002353
 --------------------------------------------------------
                        XY            XZ            YZ
 --------------------------------------------------------
     1   Atom        0.010827     -0.002491     -0.005763
     2   Atom        0.001952     -0.000253     -0.002245
     3   Atom        0.005895      0.001569      0.002819
     4   Atom        0.007610     -0.002967     -0.003598
     5   Atom       -0.007514      0.007609     -0.028508
     6   Atom       -0.003420      0.002898     -0.006998
     7   Atom       -0.014815      0.002968     -0.003074
     8   Atom       -0.009829     -0.003289      0.002934
     9   Atom       -0.004781      0.000882     -0.001494
    10   Atom       -0.003239      0.002306     -0.000944
    11   Atom       -0.001435      0.003464     -0.001039
    12   Atom        0.000310      0.002213      0.000038
    13   Atom       -0.001358      0.000352     -0.000153
    14   Atom       -0.001340     -0.000508      0.000173
    15   Atom       -0.000485      0.000373     -0.000079
    16   Atom       -0.001318      0.000390     -0.000246
    17   Atom        0.002395      0.018603      0.130410
    18   Atom        0.062161      0.013558      0.019162
    19   Atom       -0.035423     -0.024535      0.013513
 --------------------------------------------------------


 ---------------------------------------------------------------------------------
              Anisotropic Spin Dipole Couplings in Principal Axis System
 ---------------------------------------------------------------------------------

       Atom             a.u.   MegaHertz   Gauss  10(-4) cm-1        Axes

              Baa    -0.0103    -1.388    -0.495    -0.463 -0.1533  0.3239  0.9336
     1 C(13)  Bbb    -0.0084    -1.121    -0.400    -0.374  0.8737 -0.3970  0.2812
              Bcc     0.0187     2.510     0.895     0.837  0.4617  0.8588 -0.2222
 
              Baa    -0.0038    -2.013    -0.718    -0.672  0.9413 -0.2482 -0.2288
     2 H(1)   Bbb    -0.0029    -1.542    -0.550    -0.514  0.2776  0.1834  0.9430
              Bcc     0.0067     3.555     1.269     1.186  0.1921  0.9512 -0.2415
 
              Baa    -0.0074    -3.942    -1.407    -1.315  0.9031 -0.2415 -0.3550
     3 H(1)   Bbb    -0.0056    -3.008    -1.073    -1.003  0.2901 -0.2664  0.9192
              Bcc     0.0130     6.950     2.480     2.318  0.3166  0.9331  0.1705
 
              Baa    -0.0059    -3.140    -1.121    -1.048 -0.6037  0.7134  0.3559
     4 H(1)   Bbb    -0.0051    -2.706    -0.965    -0.902  0.4647 -0.0478  0.8842
              Bcc     0.0110     5.846     2.086     1.950  0.6478  0.6991 -0.3026
 
              Baa    -0.0240    -3.219    -1.149    -1.074  0.9529  0.3016  0.0312
     5 C(13)  Bbb    -0.0184    -2.464    -0.879    -0.822 -0.2557  0.7441  0.6172
              Bcc     0.0424     5.683     2.028     1.896  0.1629 -0.5961  0.7862
 
              Baa    -0.0115    -6.131    -2.188    -2.045  0.9735  0.2197 -0.0631
     6 H(1)   Bbb    -0.0024    -1.277    -0.456    -0.426 -0.1499  0.8222  0.5491
              Bcc     0.0139     7.408     2.644     2.471  0.1725 -0.5251  0.8334
 
              Baa    -0.0116    -1.550    -0.553    -0.517  0.1846  0.4433  0.8772
     7 C(13)  Bbb    -0.0098    -1.319    -0.471    -0.440  0.5756  0.6747 -0.4621
              Bcc     0.0214     2.869     1.024     0.957  0.7966 -0.5902  0.1306
 
              Baa    -0.0077    -4.088    -1.459    -1.364  0.7574  0.6079  0.2384
     8 H(1)   Bbb    -0.0056    -3.010    -1.074    -1.004 -0.0278 -0.3347  0.9419
              Bcc     0.0133     7.098     2.533     2.368 -0.6524  0.7200  0.2366
 
              Baa    -0.0038    -2.046    -0.730    -0.682  0.8129  0.5704  0.1177
     9 H(1)   Bbb    -0.0030    -1.593    -0.568    -0.531 -0.1985  0.0814  0.9767
              Bcc     0.0068     3.638     1.298     1.214 -0.5475  0.8173 -0.1794
 
              Baa    -0.0045    -0.610    -0.218    -0.204  0.2535  0.9534  0.1638
    10 C(13)  Bbb    -0.0032    -0.426    -0.152    -0.142 -0.2695 -0.0930  0.9585
              Bcc     0.0077     1.037     0.370     0.346  0.9290 -0.2871  0.2333
 
              Baa    -0.0032    -1.731    -0.618    -0.577 -0.0640  0.8700  0.4889
    11 H(1)   Bbb    -0.0027    -1.422    -0.508    -0.474 -0.5024 -0.4514  0.7374
              Bcc     0.0059     3.154     1.125     1.052  0.8623 -0.1985  0.4660
 
              Baa    -0.0056    -3.012    -1.075    -1.005 -0.0206  0.9998  0.0059
    12 H(1)   Bbb    -0.0048    -2.542    -0.907    -0.848 -0.1473 -0.0089  0.9890
              Bcc     0.0104     5.554     1.982     1.853  0.9889  0.0195  0.1475
 
              Baa    -0.0016    -0.210    -0.075    -0.070  0.2832  0.9211  0.2673
    13 C(13)  Bbb    -0.0014    -0.193    -0.069    -0.064 -0.1638 -0.2282  0.9597
              Bcc     0.0030     0.403     0.144     0.134  0.9450 -0.3155  0.0863
 
              Baa    -0.0014    -0.744    -0.266    -0.248  0.3766  0.9041  0.2018
    14 H(1)   Bbb    -0.0013    -0.688    -0.246    -0.230  0.0515 -0.2379  0.9699
              Bcc     0.0027     1.432     0.511     0.478  0.9249 -0.3549 -0.1361
 
              Baa    -0.0010    -0.530    -0.189    -0.177  0.1222  0.9428  0.3102
    15 H(1)   Bbb    -0.0009    -0.504    -0.180    -0.168 -0.1783 -0.2866  0.9413
              Bcc     0.0019     1.034     0.369     0.345  0.9764 -0.1703  0.1331
 
              Baa    -0.0011    -0.576    -0.205    -0.192  0.4388  0.8573  0.2691
    16 H(1)   Bbb    -0.0010    -0.531    -0.189    -0.177 -0.2612 -0.1648  0.9511
              Bcc     0.0021     1.106     0.395     0.369  0.8597 -0.4877  0.1516
 
              Baa    -0.4795   -64.339   -22.958   -21.461 -0.1668  0.9821 -0.0879
    17 C(13)  Bbb    -0.4753   -63.780   -22.758   -21.275  0.9859  0.1650 -0.0281
              Bcc     0.9548   128.119    45.716    42.736  0.0131  0.0913  0.9957
 
              Baa    -0.0599   -31.937   -11.396   -10.653  0.7123 -0.6985  0.0682
    18 H(1)   Bbb    -0.0120    -6.389    -2.280    -2.131 -0.2493 -0.1611  0.9549
              Bcc     0.0718    38.326    13.676    12.784  0.6560  0.6972  0.2889
 
              Baa    -0.0598   -31.905   -11.384   -10.642  0.2842  0.9532 -0.1028
    19 H(1)   Bbb    -0.0120    -6.420    -2.291    -2.141  0.3633 -0.0078  0.9317
              Bcc     0.0718    38.325    13.675    12.784  0.8873 -0.3022 -0.3485
 

 ---------------------------------------------------------------------------------

 No NMR shielding tensors so no spin-rotation constants.
 Leave Link  601 at Sat Nov  7 22:37:47 2015, MaxMem=   805306368 cpu:         1.2
 (Enter /home/hetanjin/apps/g09D01/g09/l701.exe)
 Compute integral first derivatives.
 ... and contract with generalized density number  0.
 Leave Link  701 at Sat Nov  7 22:37:48 2015, MaxMem=   805306368 cpu:         0.7
 (Enter /home/hetanjin/apps/g09D01/g09/l702.exe)
 L702 exits ... SP integral derivatives will be done elsewhere.
 Leave Link  702 at Sat Nov  7 22:37:48 2015, MaxMem=   805306368 cpu:         0.1
 (Enter /home/hetanjin/apps/g09D01/g09/l703.exe)
 Compute integral first derivatives, UseDBF=F ICtDFT=           0.
 Integral derivatives from FoFJK, PRISM(SPDF).
 Calling FoFJK, ICntrl=      2127 FMM=F ISym2X=0 I1Cent= 0 IOpClX= 1 NMat=1 NMatS=1 NMatT=0.
 FoFJK:  IHMeth= 1 ICntrl=    2127 DoSepK=F KAlg= 0 I1Cent=   0 FoldK=F
 IRaf=         0 NMat=   1 IRICut=       1 DoRegI=T DoRafI=F ISym2E= 0.
 FoFCou: FMM=F IPFlag=           0 FMFlag=      100000 FMFlg1=         800
         NFxFlg=           0 DoJE=F BraDBF=F KetDBF=F FulRan=T
         wScrn=  0.000000 ICntrl=    2127 IOpCl=  1 I1Cent=           0 NGrid=           0
         NMat0=    1 NMatS0=      1 NMatT0=    0 NMatD0=    1 NMtDS0=    0 NMtDT0=    0
 Symmetry not used in FoFCou.
 Leave Link  703 at Sat Nov  7 22:37:56 2015, MaxMem=   805306368 cpu:        31.3
 (Enter /home/hetanjin/apps/g09D01/g09/l716.exe)
 Dipole        = 3.23375303D-02-2.95743929D-02 2.43361590D-01
 ***** Axes restored to original set *****
 -------------------------------------------------------------------
 Center     Atomic                   Forces (Hartrees/Bohr)
 Number     Number              X              Y              Z
 -------------------------------------------------------------------
      1        6           0.001211924   -0.001839765    0.000289236
      2        1          -0.000002548    0.000090073   -0.000320782
      3        1          -0.000288849    0.000338706   -0.000864958
      4        1          -0.000043720    0.000043431   -0.000004280
      5        6           0.002332011    0.004441185    0.021788952
      6        1           0.000450086    0.003316509   -0.002451288
      7        6          -0.002239963   -0.001230436    0.000772299
      8        1           0.000322993    0.000158691   -0.000985041
      9        1           0.000045434    0.000043154   -0.000253862
     10        6           0.000177802    0.000183632   -0.000186869
     11        1          -0.000149645   -0.000022134   -0.000168816
     12        1           0.000067373   -0.000088739    0.000094398
     13        6           0.000019264   -0.000096211    0.000067941
     14        1           0.000046202    0.000036687   -0.000053924
     15        1           0.000068095    0.000010303   -0.000006062
     16        1           0.000003944    0.000011211   -0.000009409
     17        6          -0.003373336   -0.007563484   -0.046089333
     18        1          -0.003302753    0.002192735    0.014323992
     19        1           0.004655685   -0.000025547    0.014057807
 -------------------------------------------------------------------
 Cartesian Forces:  Max     0.046089333 RMS     0.007451160
 Leave Link  716 at Sat Nov  7 22:37:56 2015, MaxMem=   805306368 cpu:         0.1
 (Enter /home/hetanjin/apps/g09D01/g09/l103.exe)

 GradGradGradGradGradGradGradGradGradGradGradGradGradGradGradGradGradGrad
 Berny optimization.
 FormGI is forming the generalized inverse of G from B-inverse, IUseBI=4.
 Internal  Forces:  Max     0.013578692 RMS     0.003252742
 Search for a local minimum.
 Step number   1 out of a maximum of  103
 All quantities printed in internal units (Hartrees-Bohrs-Radians)
 Swapping is turned off.
 Second derivative matrix not updated -- first step.
 ITU=  0
     Eigenvalues ---    0.00230   0.00282   0.00287   0.00303   0.00334
     Eigenvalues ---    0.03185   0.03462   0.03518   0.03717   0.04696
     Eigenvalues ---    0.04785   0.04813   0.05398   0.05430   0.05465
     Eigenvalues ---    0.05472   0.05559   0.08357   0.08767   0.12226
     Eigenvalues ---    0.12525   0.16000   0.16000   0.16000   0.16000
     Eigenvalues ---    0.16000   0.16000   0.16000   0.16000   0.16752
     Eigenvalues ---    0.18246   0.21893   0.21944   0.28367   0.28825
     Eigenvalues ---    0.28860   0.28964   0.29178   0.33520   0.33530
     Eigenvalues ---    0.33657   0.33717   0.33898   0.33942   0.34005
     Eigenvalues ---    0.34007   0.34055   0.34061   0.34062   0.34118
     Eigenvalues ---    0.34216
 Quadratic step=7.012D-01 exceeds max=3.000D-01 adjusted using Lamda=-4.895D-02.
 Angle between NR and scaled steps=   9.41 degrees.
 Angle between quadratic step and forces=  23.71 degrees.
 Linear search not attempted -- option 19 set.
 Iteration  1 RMS(Cart)=  0.02599148 RMS(Int)=  0.00319555
 Iteration  2 RMS(Cart)=  0.00240002 RMS(Int)=  0.00231333
 Iteration  3 RMS(Cart)=  0.00001159 RMS(Int)=  0.00231332
 Iteration  4 RMS(Cart)=  0.00000013 RMS(Int)=  0.00231332
 ITry= 1 IFail=0 DXMaxC= 1.18D-01 DCOld= 1.00D+10 DXMaxT= 3.00D-01 DXLimC= 3.00D+00 Rises=F
 Variable       Old X    -DE/DX   Delta X   Delta X   Delta X     New X
                                 (Linear)    (Quad)   (Total)
    R1        2.07237   0.00004   0.00000   0.00010   0.00010   2.07247
    R2        2.07502  -0.00091   0.00000  -0.00235  -0.00235   2.07267
    R3        2.07228  -0.00003   0.00000  -0.00007  -0.00007   2.07221
    R4        2.90296   0.00132   0.00000   0.00390   0.00390   2.90686
    R5        2.08149   0.00260   0.00000   0.00677   0.00677   2.08826
    R6        2.91344   0.00153   0.00000   0.00461   0.00461   2.91804
    R7        2.90369  -0.01148   0.00000  -0.03405  -0.03405   2.86964
    R8        2.08131  -0.00099   0.00000  -0.00257  -0.00257   2.07874
    R9        2.07912   0.00003   0.00000   0.00008   0.00008   2.07920
   R10        2.90078  -0.00008   0.00000  -0.00024  -0.00024   2.90054
   R11        2.07811   0.00016   0.00000   0.00043   0.00043   2.07853
   R12        2.07428  -0.00004   0.00000  -0.00012  -0.00012   2.07416
   R13        2.89633  -0.00011   0.00000  -0.00032  -0.00032   2.89602
   R14        2.07322  -0.00006   0.00000  -0.00015  -0.00015   2.07307
   R15        2.07131  -0.00004   0.00000  -0.00011  -0.00011   2.07120
   R16        2.07318  -0.00001   0.00000  -0.00002  -0.00002   2.07316
   R17        2.06967  -0.00040   0.00000  -0.00102  -0.00102   2.06865
   R18        2.07225  -0.00047   0.00000  -0.00121  -0.00121   2.07104
    A1        1.87835   0.00035   0.00000   0.00193   0.00193   1.88028
    A2        1.88223   0.00003   0.00000  -0.00001  -0.00001   1.88223
    A3        1.94449  -0.00014   0.00000  -0.00061  -0.00061   1.94388
    A4        1.87730   0.00019   0.00000   0.00081   0.00081   1.87812
    A5        1.93565  -0.00040   0.00000  -0.00185  -0.00185   1.93381
    A6        1.94287   0.00000   0.00000  -0.00012  -0.00012   1.94275
    A7        1.88002   0.00047   0.00000   0.00161   0.00163   1.88166
    A8        1.92906  -0.00096   0.00000   0.00131   0.00122   1.93028
    A9        1.92774   0.00120   0.00000   0.00837   0.00831   1.93605
   A10        1.87706   0.00039   0.00000   0.00069   0.00071   1.87777
   A11        1.88194  -0.00244   0.00000  -0.02152  -0.02149   1.86045
   A12        1.96473   0.00125   0.00000   0.00840   0.00835   1.97308
   A13        1.90132  -0.00020   0.00000  -0.00157  -0.00157   1.89975
   A14        1.89309   0.00004   0.00000  -0.00010  -0.00010   1.89300
   A15        2.01454  -0.00018   0.00000  -0.00090  -0.00090   2.01363
   A16        1.84789   0.00009   0.00000   0.00117   0.00117   1.84906
   A17        1.90709   0.00025   0.00000   0.00139   0.00139   1.90848
   A18        1.89268   0.00003   0.00000   0.00019   0.00019   1.89287
   A19        1.90542   0.00017   0.00000   0.00105   0.00105   1.90647
   A20        1.92072  -0.00006   0.00000  -0.00058  -0.00058   1.92014
   A21        1.96892  -0.00015   0.00000  -0.00068  -0.00068   1.96825
   A22        1.85242   0.00002   0.00000   0.00045   0.00045   1.85287
   A23        1.90917  -0.00005   0.00000  -0.00034  -0.00034   1.90884
   A24        1.90353   0.00008   0.00000   0.00016   0.00016   1.90369
   A25        1.94027  -0.00006   0.00000  -0.00031  -0.00031   1.93997
   A26        1.94519  -0.00007   0.00000  -0.00035  -0.00035   1.94484
   A27        1.94094   0.00002   0.00000   0.00012   0.00012   1.94107
   A28        1.87895   0.00005   0.00000   0.00018   0.00018   1.87913
   A29        1.87563   0.00004   0.00000   0.00023   0.00023   1.87586
   A30        1.87972   0.00003   0.00000   0.00015   0.00015   1.87987
   A31        1.95757   0.01358   0.00000   0.09766   0.08720   2.04477
   A32        1.93610   0.01318   0.00000   0.09643   0.08585   2.02195
   A33        1.87616  -0.00076   0.00000   0.05770   0.04291   1.91908
    D1       -1.04583  -0.00063   0.00000  -0.00610  -0.00610  -1.05193
    D2        1.00024  -0.00042   0.00000  -0.00360  -0.00361   0.99663
    D3       -3.09704   0.00136   0.00000   0.01421   0.01421  -3.08283
    D4       -3.13776  -0.00072   0.00000  -0.00689  -0.00689   3.13854
    D5       -1.09169  -0.00050   0.00000  -0.00439  -0.00440  -1.09608
    D6        1.09422   0.00128   0.00000   0.01342   0.01342   1.10764
    D7        1.05590  -0.00069   0.00000  -0.00660  -0.00661   1.04930
    D8        3.10197  -0.00048   0.00000  -0.00411  -0.00411   3.09786
    D9       -0.99531   0.00130   0.00000   0.01370   0.01371  -0.98160
   D10        1.12731   0.00047   0.00000   0.00472   0.00472   1.13203
   D11       -0.87637   0.00045   0.00000   0.00421   0.00421  -0.87215
   D12       -3.00345   0.00051   0.00000   0.00466   0.00466  -2.99879
   D13       -3.10798   0.00073   0.00000   0.00777   0.00778  -3.10020
   D14        1.17153   0.00071   0.00000   0.00726   0.00727   1.17880
   D15       -0.95555   0.00077   0.00000   0.00771   0.00771  -0.94783
   D16       -1.03748  -0.00129   0.00000  -0.01336  -0.01337  -1.05085
   D17       -3.04116  -0.00131   0.00000  -0.01387  -0.01388  -3.05504
   D18        1.11494  -0.00125   0.00000  -0.01342  -0.01343   1.10151
   D19        3.06412   0.00840   0.00000   0.09571   0.09877  -3.12029
   D20        0.96587  -0.00901   0.00000  -0.11125  -0.11438   0.85149
   D21        1.01409   0.00860   0.00000   0.10176   0.10486   1.11896
   D22       -1.08416  -0.00881   0.00000  -0.10519  -0.10829  -1.19245
   D23       -1.05354   0.00896   0.00000   0.10987   0.11301  -0.94053
   D24        3.13140  -0.00845   0.00000  -0.09708  -0.10015   3.03125
   D25        0.94556   0.00011   0.00000   0.00095   0.00095   0.94651
   D26       -1.08096   0.00002   0.00000   0.00013   0.00013  -1.08083
   D27        3.07202   0.00006   0.00000   0.00081   0.00081   3.07283
   D28        3.09493  -0.00009   0.00000  -0.00068  -0.00068   3.09425
   D29        1.06841  -0.00018   0.00000  -0.00150  -0.00150   1.06691
   D30       -1.06179  -0.00014   0.00000  -0.00082  -0.00082  -1.06261
   D31       -1.18174   0.00016   0.00000   0.00155   0.00155  -1.18019
   D32        3.07492   0.00007   0.00000   0.00073   0.00074   3.07565
   D33        0.94472   0.00012   0.00000   0.00141   0.00141   0.94613
   D34        1.04570  -0.00005   0.00000  -0.00044  -0.00044   1.04526
   D35       -3.14121  -0.00007   0.00000  -0.00066  -0.00066   3.14132
   D36       -1.04351  -0.00007   0.00000  -0.00061  -0.00061  -1.04412
   D37       -3.11314   0.00003   0.00000   0.00020   0.00020  -3.11294
   D38       -1.01687   0.00000   0.00000  -0.00001  -0.00001  -1.01688
   D39        1.08084   0.00001   0.00000   0.00003   0.00003   1.08087
   D40       -1.09415   0.00007   0.00000   0.00064   0.00064  -1.09351
   D41        1.00212   0.00004   0.00000   0.00042   0.00042   1.00255
   D42        3.09983   0.00005   0.00000   0.00047   0.00047   3.10029
         Item               Value     Threshold  Converged?
 Maximum Force            0.013579     0.000015     NO 
 RMS     Force            0.003253     0.000010     NO 
 Maximum Displacement     0.118222     0.000060     NO 
 RMS     Displacement     0.025043     0.000040     NO 
 Predicted change in Energy=-6.827796D-03
 Lowest energy point so far.  Saving SCF results.
 GradGradGradGradGradGradGradGradGradGradGradGradGradGradGradGradGradGrad

 Leave Link  103 at Sat Nov  7 22:37:56 2015, MaxMem=   805306368 cpu:         0.1
 (Enter /home/hetanjin/apps/g09D01/g09/l202.exe)
                          Input orientation:                          
 ---------------------------------------------------------------------
 Center     Atomic      Atomic             Coordinates (Angstroms)
 Number     Number       Type             X           Y           Z
 ---------------------------------------------------------------------
      1          6           0        2.160203   -1.042567    0.026907
      2          1           0        1.924589   -2.037496   -0.369779
      3          1           0        2.255623   -1.131150    1.115959
      4          1           0        3.138985   -0.746194   -0.368827
      5          6           0        1.073689   -0.019064   -0.344749
      6          1           0        1.021504    0.033171   -1.447338
      7          6           0       -0.307521   -0.483331    0.166279
      8          1           0       -0.291781   -0.501579    1.266038
      9          1           0       -0.464266   -1.525111   -0.151063
     10          6           0       -1.501308    0.354909   -0.311367
     11          1           0       -1.487365    0.412361   -1.409688
     12          1           0       -1.404272    1.386831    0.049804
     13          6           0       -2.847616   -0.212911    0.150813
     14          1           0       -2.904294   -0.255861    1.245529
     15          1           0       -3.683753    0.401832   -0.201678
     16          1           0       -2.999697   -1.231497   -0.227225
     17          6           0        1.449830    1.370710    0.137982
     18          1           0        0.735350    2.177209   -0.055438
     19          1           0        2.464823    1.703358   -0.107445
 ---------------------------------------------------------------------
                    Distance matrix (angstroms):
                    1          2          3          4          5
     1  C    0.000000
     2  H    1.096703   0.000000
     3  H    1.096807   1.771571   0.000000
     4  H    1.096566   1.772631   1.770058   0.000000
     5  C    1.538245   2.190599   2.183431   2.189691   0.000000
     6  H    2.151102   2.502869   3.073952   2.500864   1.105058
     7  C    2.534133   2.772202   2.809140   3.497691   1.544161
     8  H    2.800060   3.153923   2.628336   3.808250   2.166094
     9  H    2.674390   2.452959   3.026277   3.692906   2.161249
    10  C    3.933704   4.178969   4.284876   4.769492   2.602226
    11  H    4.181551   4.327198   4.771926   4.881471   2.806995
    12  H    4.313697   4.794099   4.568561   5.036491   2.876196
    13  C    5.077591   5.135569   5.274251   6.032729   3.957246
    14  H    5.268119   5.394586   5.235233   6.274376   4.290618
    15  H    6.024148   6.118176   6.273945   6.920669   4.778166
    16  H    5.169608   4.991848   5.425182   6.159463   4.251620
    17  C    2.518109   3.478374   2.804468   2.755246   1.518547
    18  H    3.521923   4.390540   3.824740   3.797626   2.240935
    19  H    2.766034   3.788754   3.094335   2.554040   2.226725
[...]
 0165710,0.00198131,0.00323984,0.00092393,-0.00071882,0.27867220,-0.068
 25736,-0.07063548,0.02750886,-0.02676082,-0.00753131,0.01246096,0.0001
 1781,-0.00095187,-0.00031662,0.07199402,0.07429817,0.08617985,0.027171
 79,-0.08509559,-0.01139553,-0.00277808,0.00420669,0.03026735,0.0099634
 7,-0.01095268,-0.09346201,-0.03134201,0.08748680,-0.11611337,0.0462810
 6,-0.01663689,0.00275446,-0.00425956,0.00110908,-0.00234832,0.00144935
 ,-0.00133522,-0.01973407,0.01940261,-0.00986532,0.42639238,0.02729332,
 -0.10088071,0.01326242,0.02323075,-0.01930336,0.01099225,0.00108385,-0
 .00202946,0.00113652,-0.00617281,0.00524316,-0.00369043,0.03339854,0.4
 5681630,-0.01917941,0.02332950,-0.08419324,0.00798388,-0.00697288,0.00
 257665,-0.02450880,0.02179811,-0.00949516,0.00867429,-0.00932361,0.003
 26542,-0.01043140,0.02119923,0.57336967,-0.00357265,0.00285415,-0.0259
 8085,0.00095241,-0.00036771,0.00075812,-0.00323979,0.00351554,-0.00148
 691,0.00083007,-0.00094956,0.00013421,-0.04887923,-0.00459767,-0.00746
 076,0.05662916,0.00338549,-0.00072974,0.02315259,-0.00109362,0.0008251
 2,-0.00016296,0.00357344,-0.00244762,0.00154399,-0.00043195,0.00070405
 ,-0.00068968,-0.00472074,-0.04638107,-0.00816523,0.00050165,0.05779595
 ,-0.00156846,0.00092916,-0.01122061,0.00025848,0.00044686,0.00048734,-
 0.00156107,0.00149371,0.00090680,-0.00038544,-0.00021771,0.00056439,-0
 .00689945,-0.00650219,-0.29068805,0.00796137,0.00761567,0.31875827,-0.
 03140626,-0.00287568,0.00862864,0.00136737,-0.00168230,0.00028842,0.00
 181950,-0.00127471,0.00093636,-0.00253277,0.00224282,-0.00108612,-0.14
 583181,-0.02288147,0.03070308,-0.00138014,-0.00041463,0.00108126,0.452
 60708,0.01967750,0.00701110,-0.00730699,0.00108341,0.00016723,-0.00049
 131,-0.00040611,0.00038443,-0.00026069,0.00433971,-0.00344289,0.001282
 24,-0.02993169,-0.08415750,0.00906259,0.00104794,-0.00005348,-0.000164
 91,0.00899213,0.55996492,-0.00899000,-0.00275260,0.00442465,0.00040593
 ,-0.00009563,-0.00018082,-0.00143828,0.00003027,0.00039542,-0.00296109
 ,0.00170365,-0.00031238,0.03029944,0.00829566,-0.09599495,0.03069126,0
 .01063379,-0.01308204,0.00787709,0.03054937,0.56186094,0.00177368,-0.0
 0042824,0.00102616,-0.00010297,0.00001404,-0.00000705,-0.00030316,0.00
 018923,-0.00077198,0.00020106,-0.00015434,-0.00040550,-0.00204113,0.00
 180402,0.03129344,-0.00530031,-0.00190812,0.00221237,-0.04817678,-0.00
 066963,-0.00210064,0.05635895,0.00034088,-0.00013946,-0.00066651,-0.00
 005232,0.00007268,-0.00009896,0.00019066,0.00025908,-0.00004362,0.0000
 6129,-0.00009956,0.00010363,-0.00069822,-0.00025077,0.01093093,-0.0018
 1921,-0.00011034,0.00124251,-0.00042849,-0.05250091,-0.01853683,-0.000
 44593,0.05286979,-0.00074973,0.00006507,0.00021116,0.00000333,0.000083
 67,0.00004775,0.00070205,-0.00045525,0.00058868,0.00015575,0.00002716,
 0.00044834,0.00079823,-0.00046163,-0.01407879,0.00249544,0.00093512,0.
 00033744,-0.00212821,-0.01833583,-0.29374247,0.00188889,0.01803414,0.3
 2312214,0.00126038,-0.00165992,-0.00047827,-0.00058452,0.00088153,0.00
 026686,-0.00010313,0.00010562,-0.00011613,0.00044026,0.00021050,0.0001
 3849,-0.00660107,-0.02816470,-0.00883507,0.00099525,0.00053876,0.00013
 464,-0.05194006,-0.03022615,-0.00720088,-0.00035604,0.00008205,-0.0001
 4294,0.06182021,0.00157782,0.00032866,-0.00027663,-0.00045770,0.001018
 74,-0.00001115,-0.00010661,0.00004696,0.00001388,0.00012637,0.00042205
 ,0.00026572,-0.00141360,-0.01042424,-0.00312869,0.00011646,0.00019695,
 0.00047087,-0.03141192,-0.28076112,-0.05698417,-0.00022607,-0.00181044
 ,-0.00115113,0.03247991,0.30834070,-0.00069794,-0.00000458,0.00021298,
 -0.00008482,-0.00011770,0.00025045,0.00001250,-0.00020889,-0.00004431,
 -0.00013331,0.00019931,-0.00018180,0.00334250,0.01233368,0.00257260,-0
 .00073516,0.00013977,0.00048387,-0.00779004,-0.05692916,-0.06561042,-0
 .00442988,-0.03268541,-0.00764674,0.00845305,0.06119887,0.06597270,-0.
 00366774,-0.00276330,0.00172612,0.00012921,0.00019717,0.00019080,-0.00
 010889,-0.00004164,-0.00013595,-0.00069505,0.00113000,-0.00054384,-0.0
 2678155,0.01447481,-0.00924760,0.00192984,0.00059567,-0.00120566,-0.13
 653664,0.04386958,-0.03082452,-0.00188766,0.00117762,-0.00071391,0.001
 67019,-0.00138387,0.00081771,0.46078856,-0.00270343,-0.00150922,0.0009
 0178,0.00000262,0.00034950,0.00023215,0.00008544,-0.00009419,0.0000029
 9,-0.00103660,0.00106083,0.00003194,-0.00536252,0.00785624,-0.00689143
 ,-0.00016209,-0.00002852,0.00004000,0.04164248,-0.11545656,0.02258252,
 -0.00213046,0.00100079,-0.00073753,0.02630592,-0.01901295,0.01368626,0
 .01788251,0.56102202,0.00294342,0.00137596,-0.00182225,-0.00019146,0.0
 0021209,0.00000950,0.00006537,0.00000927,0.00042768,0.00121613,-0.0005
 2874,0.00068358,0.00754173,-0.00838136,0.00512153,0.00145723,-0.000540
 83,0.00020132,-0.03039994,0.02283678,-0.09736278,-0.02699947,0.0196139
 2,-0.01339962,0.00653976,-0.00435395,0.00288990,-0.00025251,0.02840611
 ,0.56806433,0.00000371,0.00017850,0.00008631,0.00000102,0.00000611,-0.
 00001458,0.00009580,-0.00008631,0.00022748,-0.00000953,-0.00001878,0.0
 0010679,0.00161153,-0.00011671,-0.00174538,-0.00033487,0.00002651,0.00
 087423,-0.00216527,-0.00219562,-0.02726528,-0.00405200,0.00314152,-0.0
 0188835,0.00096385,-0.00030544,0.00088430,-0.04816269,-0.00058400,-0.0
 0211254,0.05673481,-0.00011328,0.00000238,0.00008061,0.00000093,-0.000
 04222,0.00001142,-0.00005777,-0.00000937,-0.00009592,-0.00001627,0.000
 00969,-0.00008087,-0.00082864,0.00024493,-0.00006471,0.00006025,0.0002
 1998,-0.00031863,0.00130773,0.00095024,0.01966257,0.00319756,-0.001214
 04,0.00187275,-0.00090301,0.00072568,0.00004755,-0.00060313,-0.0535794
 0,-0.02085116,-0.00068387,0.05341746,-0.00011035,-0.00005543,0.0005069
 9,0.00001395,0.00002378,-0.00004309,0.00025657,-0.00011722,0.00008252,
 -0.00010408,0.00003866,0.00002462,0.00100461,0.00004780,0.00006746,-0.
 00087837,-0.00011297,0.00082461,-0.00114882,-0.00085455,-0.01354671,-0
 .00192545,0.00191878,0.00042553,0.00015476,0.00044753,0.00071012,-0.00
 192868,-0.02036522,-0.29800047,0.00176729,0.02022665,0.32595746,-0.000
 13743,0.00010163,-0.00015420,0.00011336,-0.00029370,-0.00004437,0.0000
 4927,0.00001021,0.00003033,-0.00004593,-0.00012775,-0.00000219,0.00158
 055,0.00005410,0.00038453,-0.00012912,-0.00005658,0.00004985,0.0024798
 6,0.02688465,0.00649979,0.00093708,-0.00096601,0.00010349,-0.00411598,
 0.00302398,-0.00221096,-0.05169813,-0.03118412,-0.00749732,-0.00036068
 ,-0.00001081,-0.00011330,0.06074238,0.00040735,0.00003355,0.00011413,-
 0.00016404,0.00026344,0.00001380,-0.00004293,-0.00002258,-0.00001318,0
 .00014686,0.00002376,0.00000963,-0.00097638,-0.00005219,0.00012152,0.0
 0019048,0.00005362,0.00001252,-0.00081592,-0.01867220,-0.00431066,-0.0
 0027273,0.00071602,0.00037567,0.00300524,-0.00076442,0.00193678,-0.031
 03998,-0.28575785,-0.05555898,-0.00019345,-0.00201931,-0.00136397,0.03
 392400,0.31276347,0.00012208,0.00007305,-0.00003955,0.00002692,-0.0000
 3039,-0.00004056,-0.00001451,0.00002892,-0.00000187,0.00001446,-0.0000
 8876,-0.00000446,0.00041403,-0.00062732,0.00021386,-0.00002291,-0.0000
 9937,0.00001726,0.00133446,0.01346652,0.00274972,0.00086424,0.00005102
 ,0.00063327,-0.00213722,0.00198363,0.00007229,-0.00749704,-0.05584879,
 -0.06541429,-0.00431742,-0.03295695,-0.00755769,0.00816602,0.05962440,
 0.06608306,-0.00073527,-0.00062930,0.00056362,0.00003880,0.00000793,0.
 00002407,0.00001520,-0.00002075,-0.00003485,-0.00028727,0.00026712,-0.
 00011970,-0.00178216,0.00239301,-0.00218003,-0.00007266,0.00005415,0.0
 0018380,-0.02991225,-0.00640460,0.00850237,0.00162872,-0.00092896,0.00
 092050,0.00174459,-0.00115496,0.00053305,-0.16671254,-0.03192563,0.036
 48190,-0.00130810,-0.00050690,0.00062485,-0.00565359,-0.00187698,0.002
 25982,0.50223380,0.00136975,0.00075762,-0.00032523,-0.00012160,0.00003
 732,-0.00006670,-0.00002798,-0.00000519,0.00005228,0.00047389,-0.00033
 071,0.00011647,0.00254686,-0.00273321,0.00191335,-0.00008041,-0.000070
 69,0.00003264,0.01590784,0.00740540,-0.00795811,-0.00034916,0.00031078
 ,-0.00023026,0.00109076,0.00053013,-0.00037307,-0.03278682,-0.09338033
 ,0.01359912,0.00258143,0.00053342,-0.00097059,-0.03043689,-0.00906251,
 0.01315000,-0.02962521,0.56425683,-0.00083486,-0.00042142,0.00084092,0
 .00003808,0.00002888,-0.00000964,0.00008354,-0.00007820,-0.00003607,-0
 .00037504,0.00026533,-0.00010639,-0.00180994,0.00195752,-0.00208431,-0
 .00002579,0.00007101,0.00053270,-0.01020568,-0.00566452,0.00577314,-0.
 00127632,-0.00018576,0.00046442,0.00032167,-0.00010881,0.00005556,0.03
 703726,0.01342706,-0.09717922,0.03200082,0.01143028,-0.01152296,-0.007
 03664,-0.00196799,0.00265927,0.03275252,0.00875984,0.55998319,0.000032
 81,0.00002145,-0.00010905,-0.00000409,0.00000048,0.00000372,-0.0000515
 2,0.00002599,-0.00002599,0.00002206,-0.00001636,0.00000158,-0.00009040
 ,-0.00021694,-0.00000107,0.00012314,0.00002654,-0.00030044,0.00206567,
 -0.00004627,0.00150596,-0.00031622,0.00008933,-0.00090256,-0.00009499,
 0.00005401,-0.00009058,-0.00096177,0.00358131,0.03145425,-0.00551936,-
 0.00202024,0.00228656,0.00132441,0.00019516,-0.00077042,-0.04934393,0.
 00101107,0.00500747,0.05249496,0.00000316,-0.00001674,-0.00005907,0.00
 000506,-0.00000351,-0.00000549,0.00000026,0.00001703,0.00000643,-0.000
 00869,-0.00000502,0.00001327,0.00009923,-0.00006767,0.00011506,0.00001
 528,-0.00004054,-0.00003303,0.00042365,-0.00005369,-0.00053106,0.00005
 843,0.00025529,-0.00013428,-0.00002842,0.00002952,-0.00013074,-0.00017
 381,0.00059775,0.01202883,-0.00242488,0.00021414,0.00097100,0.00072859
 ,0.00030867,0.00028576,0.00106702,-0.05267080,-0.02401535,0.00098749,0
 .05132310,0.00005838,0.00004635,-0.00001549,-0.00000493,0.00000140,-0.
 00000461,0.00003160,-0.00000832,0.00002265,0.00003839,-0.00001768,0.00
 000427,0.00007738,0.00001042,0.00046758,-0.00027365,-0.00001439,0.0001
 0787,-0.00102030,0.00007671,0.00035155,0.00082401,-0.00036833,0.000659
 99,0.00003709,0.00000732,0.00000081,0.00070005,-0.00073616,-0.01210073
 ,0.00240892,0.00124257,0.00081383,-0.00001794,0.00044375,0.00060160,0.
 00534811,-0.02394912,-0.30633281,-0.00803812,0.02542046,0.33374870,-0.
 00057796,-0.00042106,0.00035814,0.00004616,0.00001451,0.00000776,0.000
 02441,0.00000081,-0.00003741,-0.00025760,0.00017447,-0.00007055,-0.000
 58932,0.00148075,-0.00122639,0.00000001,0.00000934,0.00010486,-0.00422
 709,-0.00417795,0.00395396,0.00030476,-0.00024049,-0.00004926,0.000275
 59,0.00004537,0.00019504,-0.02115378,0.01691148,-0.01236977,0.00113845
 ,0.00034074,0.00040051,0.00101333,-0.00037819,-0.00055993,-0.19453298,
 0.10672084,-0.07552293,0.00114414,-0.00139355,0.00006173,0.21261384,-0
 .00019139,-0.00010591,0.00007672,0.00000421,-0.00000405,0.00001630,0.0
 0000353,-0.00000786,-0.00000423,-0.00006104,0.00005004,-0.00002206,-0.
 00053237,0.00062258,0.00000169,0.00002231,0.00000675,-0.00000454,-0.00
 149291,-0.00058523,0.00084297,0.00006655,-0.00016416,0.00009547,-0.000
 28972,0.00046479,0.00010109,-0.00969818,0.00651014,-0.00566345,0.00066
 846,0.00019977,-0.00029229,0.00047201,0.00065829,-0.00047530,0.1071807
 7,-0.12758347,0.05475364,-0.00394718,0.00175585,-0.00144081,-0.1164009
 6,0.13465248,0.00019192,0.00009310,-0.00010637,-0.00001223,-0.00000127
 ,-0.00000504,0.00000212,0.00001199,0.00000573,0.00007003,-0.00005527,0
 .00001561,0.00058240,-0.00018175,0.00075031,-0.00011425,-0.00004424,0.
 00000434,0.00177749,0.00114664,-0.00090864,0.00032711,-0.00001613,0.00
 046282,-0.00015197,0.00020518,-0.00013431,0.01044134,-0.00853403,0.004
 80094,-0.00048398,-0.00053453,0.00056392,-0.00071743,-0.00009232,0.000
 21940,-0.07590921,0.05479282,-0.08852503,-0.02507760,0.01914811,-0.011
 68678,0.08165958,-0.06132646,0.09167204,0.00007738,0.00000914,0.000021
 87,-0.00005329,0.00006547,0.00000548,-0.00001298,0.00000054,-0.0000041
 7,0.00001912,0.00000263,0.00000523,0.00001627,0.00022740,0.00023595,0.
 00005246,-0.00001882,-0.00002319,0.00187382,-0.00171623,-0.00042206,-0
 .00009121,0.00009967,-0.00003212,-0.00030527,0.00100464,0.00010449,-0.
 00531583,-0.03003165,-0.00798875,0.00129319,0.00075311,-0.00012577,-0.
 00534329,-0.00166357,0.00255125,-0.05543539,-0.03787632,-0.00999946,-0
 .00081142,0.00066374,-0.00031079,0.00480366,0.02407867,0.00740819,0.05
 929811,-0.00005033,-0.00008342,0.00004320,-0.00001434,0.00003321,0.000
 00485,-0.00000241,0.00000276,-0.00000852,-0.00004252,0.00002176,-0.000
 00626,-0.00003534,0.00034666,0.00011802,0.00001260,-0.00002248,0.00000
 426,0.00098898,0.00051509,0.00004764,-0.00003523,0.00001172,0.00000448
 ,-0.00072438,0.00069603,-0.00021117,-0.00202066,-0.01013521,-0.0019336
 7,0.00007344,0.00039876,0.00050978,-0.00183966,0.00100105,0.00137791,-
 0.03813046,-0.28794280,-0.05839074,0.00024048,-0.00164126,-0.00070022,
 -0.00275679,-0.01654933,-0.00458165,0.04428099,0.31323882,-0.00004944,
 -0.00002823,-0.00001281,0.00000427,-0.00000351,0.00001642,-0.00000399,
 -0.00000791,-0.00000563,0.00000186,0.00001520,-0.00000487,-0.00012353,
 0.00012545,-0.00004131,0.00001562,0.00001904,-0.00003522,-0.00056126,-
 0.00018421,-0.00000446,0.00001509,-0.00015588,0.00000476,-0.00013299,-
 0.00017769,0.00019626,0.00205361,0.01348937,0.00296105,-0.00079754,0.0
 0030383,0.00053982,0.00280667,0.00096127,-0.00001289,-0.01009940,-0.05
 845045,-0.06469391,-0.00490638,-0.03307250,-0.00662709,0.00302802,0.01
 338225,0.00291056,0.00865688,0.06378111,0.06483708,0.00590780,0.016168
 91,0.00655635,-0.00209525,0.00399699,-0.00114071,0.00020147,-0.0007577
 1,0.00029563,0.00102853,0.00071927,-0.00005097,-0.06468153,-0.04164502
 ,0.00770399,0.00114438,0.00156363,0.00075594,-0.00895703,-0.02894583,-
 0.00663316,0.00106018,0.00014750,-0.00063344,-0.00466245,-0.00195317,0
 .00162551,-0.00099184,-0.00078037,0.00014145,0.00006675,0.00013680,-0.
 00013133,-0.00037807,-0.00053387,-0.00042225,0.00022664,-0.00055661,-0
 .00011509,-0.00002471,-0.00000438,0.00007869,0.00004857,0.00011570,-0.
 00000727,-0.00012774,-0.00001200,0.00008458,0.26027109,0.00592465,-0.0
 3390658,-0.00384738,0.00188813,-0.00278244,0.00025400,-0.00168738,0.00
 192471,-0.00097818,-0.00172874,0.00152545,-0.00031393,-0.04225353,-0.1
 9519178,-0.04437158,0.00002928,-0.00637078,-0.00348511,-0.01101150,-0.
 01760515,0.00063567,0.00153330,0.00093964,-0.00121479,-0.00128160,0.00
 031681,0.00003501,0.00117113,0.00094070,-0.00068067,-0.00020286,-0.000
 10482,-0.00015867,-0.00017720,0.00016481,0.00023263,0.00036750,-0.0003
 0066,0.00028875,0.00004693,0.00002237,-0.00006537,0.00020227,0.0000666
 9,-0.00006987,0.00002780,0.00009351,0.00000147,0.16117595,0.46525338,0
 .00430774,0.00240707,0.00356083,-0.00104150,0.00177989,0.00093470,0.00
 014761,0.00112268,0.00097740,-0.00015074,-0.00064773,-0.00017932,0.006
 75719,-0.04432838,-0.09410986,-0.00624075,-0.03317018,-0.00959646,0.00
 111089,0.01321389,0.00471188,0.00032606,0.00149372,0.00066690,0.003768
 98,0.00187287,-0.00051357,-0.00056450,0.00098202,0.00006362,0.00015477
 ,-0.00011762,0.00002416,0.00027211,-0.00076759,0.00002968,0.00029073,-
 0.00036739,0.00019175,-0.00001507,0.00003619,-0.00004124,0.00012866,-0
 .00003221,-0.00005041,-0.00021076,-0.00014068,-0.00001601,-0.20611899,
 0.06799211,0.51285451,-0.00041410,-0.00093919,-0.00064965,0.00024216,-
 0.00016980,-0.00004459,0.00001011,0.00031104,-0.00012332,0.00005558,0.
 00006353,0.00007267,0.00335369,-0.00213398,-0.00410308,0.00023894,-0.0
 0182501,-0.00182385,0.00090876,0.00048773,-0.00164466,0.00026069,0.000
 05875,0.00025415,0.00000070,0.00023621,0.00014507,0.00002687,-0.000190
 75,-0.00011268,0.00007195,0.00001618,0.00006732,-0.00040735,0.00003263
 ,-0.00016848,-0.00009559,0.00011925,0.00002744,-0.00001749,-0.00002096
 ,0.00001340,-0.00000700,-0.00000663,0.00001528,0.00006112,0.00004787,0
 .00000065,-0.04288668,0.00614270,0.07801642,0.03957904,-0.00061742,0.0
 0056319,-0.00039836,0.00012994,-0.00016305,0.00048889,0.00034210,-0.00
 023110,0.00063124,0.00009026,-0.00013809,0.00000652,0.00624304,-0.0024
 5771,-0.02611701,-0.00089014,-0.00480002,-0.00103384,0.00130510,0.0015
 4917,-0.00111218,-0.00038363,-0.00020925,0.00100393,0.00021444,0.00012
 581,0.00041289,-0.00028928,-0.00007408,0.00013634,0.00016600,0.0000108
 9,0.00014610,0.00001530,0.00015703,-0.00007190,-0.00003328,0.00007348,
 -0.00001847,-0.00004057,-0.00000853,0.00002644,-0.00002337,-0.00000674
 ,0.00001396,0.00001848,-0.00000847,-0.00000482,0.00652769,-0.07766233,
 -0.08800027,-0.00864488,0.07532736,-0.00029012,-0.00022372,-0.00045286
 ,0.00013093,-0.00018917,0.00007974,0.00018844,-0.00019429,0.00012549,-
 0.00005960,0.00010513,0.00003982,0.00112924,0.00129415,-0.00424932,0.0
 0003259,-0.00206087,0.00025878,0.00093891,0.00049206,0.00055225,-0.000
 65788,-0.00042164,0.00037098,-0.00012835,0.00006892,0.00025194,-0.0000
 2976,-0.00056667,0.00000977,0.00009551,0.00010943,0.00010417,-0.000374
 81,0.00033749,-0.00011823,-0.00012274,0.00023541,0.00003087,-0.0000109
 9,-0.00002903,0.00001450,-0.00004432,-0.00001329,0.00000604,0.00009626
 ,0.00005611,-0.00002030,0.08415378,-0.09162625,-0.28874429,-0.08635453
 ,0.09885263,0.30084463,-0.00054011,-0.00063543,-0.00011691,0.00010619,
 -0.00025615,0.00010900,0.00005432,0.00011310,0.00002035,0.00001050,-0.
 00003981,0.00009557,-0.00023491,0.00048876,0.00193982,0.00001311,0.000
 19427,0.00015076,-0.00005596,-0.00166256,-0.00025525,0.00010237,0.0001
 9036,-0.00008131,-0.00040751,-0.00025143,0.00005947,0.00012944,-0.0003
 2012,0.00008317,-0.00006857,-0.00006937,-0.00011027,0.00002934,0.00005
 632,0.00015689,-0.00001601,0.00003931,-0.00006706,0.00002872,0.0000027
 7,-0.00001202,-0.00006718,0.00000820,-0.00000149,0.00000128,0.00001977
 ,0.00000728,-0.14515009,-0.12016682,0.11906114,-0.00098141,-0.00412977
 ,0.00130746,0.14704648,-0.00071783,0.00065593,-0.00013943,0.00031563,0
 .00000334,-0.00019903,0.00003350,-0.00008027,-0.00001057,0.00079978,-0
 .00022404,-0.00004137,-0.01840808,-0.00720018,0.01644513,0.00050086,0.
 00125288,-0.00052823,0.00147880,-0.00465884,-0.00270288,0.00014043,0.0
 0006313,0.00022324,-0.00163684,-0.00046964,0.00056951,0.00030217,-0.00
 030966,0.00027439,-0.00003003,0.00004184,-0.00003916,-0.00012176,0.000
 20734,-0.00007505,-0.00010048,0.00017539,-0.00013104,0.00000734,-0.000
 01594,0.00002497,-0.00010822,0.00001938,0.00002573,0.00007430,0.000023
 61,0.00000621,-0.11536349,-0.13732353,0.07667160,0.00641531,0.00795244
 ,-0.00622644,0.12641861,0.13988683,-0.00055979,-0.00038853,-0.00019408
 ,0.00007259,-0.00013452,0.00003737,0.00009914,-0.00004279,0.00005461,-
 0.00005881,0.00021386,0.00009795,-0.00595407,-0.00648203,0.00652988,-0
 .00032646,0.00094972,0.00113738,-0.00033624,-0.00193462,-0.00007389,-0
 .00020319,-0.00020956,0.00042344,-0.00049148,-0.00034258,0.00046169,-0
 .00002293,-0.00010234,0.00004613,0.00001866,0.00003273,0.00002573,-0.0
 0014363,0.00012373,-0.00008986,-0.00001942,0.00003897,-0.00004148,-0.0
 0001126,-0.00001456,0.00001541,-0.00001769,0.00000451,0.00000488,0.000
 03148,0.00002554,0.00000854,0.11385728,0.07737216,-0.13076425,0.016412
 44,0.01503792,-0.00910399,-0.12234662,-0.08414762,0.13142456\\-0.00000
 038,-0.00000004,0.00000008,-0.00000007,-0.00000009,-0.00000020,-0.0000
 0012,-0.00000041,0.00000002,0.00000012,-0.00000016,0.00000023,0.000000
 52,0.00000013,0.00000014,0.00000016,0.00000016,0.00000008,-0.00000046,
 -0.00000011,-0.00000011,-0.00000018,-0.00000021,-0.00000019,-0.0000000
 3,0.00000003,-0.00000032,0.00000046,0.00000035,0.00000010,0.00000018,0
 .00000035,-0.00000001,0.00000011,0.00000020,0.00000005,-0.00000030,-0.
 00000004,-0.00000034,-0.00000010,-0.00000007,-0.00000034,0.00000007,0.
 00000030,-0.00000027,-0.00000007,0.00000020,-0.00000056,-0.00000021,-0
 .00000014,0.00000054,0.00000004,-0.00000031,0.00000045,0.00000023,-0.0
 0000013,0.00000067\\\@


 In the beginning the Universe was created.
 This has made a lot of people very angry
 and been widely regarded as a bad move.
                               -D.Adams
 Job cpu time:       0 days  0 hours 16 minutes 23.8 seconds.
 File lengths (MBytes):  RWF=     64 Int=      0 D2E=      0 Chk=      3 Scr=      1
 Normal termination of Gaussian 09 at Sat Nov  7 22:59:55 2015.
