 Entering Gaussian System, Link 0=/share/apps/g09/g09
 Input=C6H14_4_00_1_opt_B3L.gjf
 Output=C6H14_4_00_1_opt_B3L.log
 Initial command:
 /share/apps/g09/l1.exe /state/partition1/Gau-8987.inp -scrdir=/state/partition1/
 Entering Link 1 = /share/apps/g09/l1.exe PID=      8988.
  
 Copyright (c) 1988,1990,1992,1993,1995,1998,2003,2009, Gaussian, Inc.
                  All Rights Reserved.
  
 This is part of the Gaussian(R) 09 program.  It is based on
 the Gaussian(R) 03 system (copyright 2003, Gaussian, Inc.),
 the Gaussian(R) 98 system (copyright 1998, Gaussian, Inc.),
 the Gaussian(R) 94 system (copyright 1995, Gaussian, Inc.),
 the Gaussian 92(TM) system (copyright 1992, Gaussian, Inc.),
 the Gaussian 90(TM) system (copyright 1990, Gaussian, Inc.),
 the Gaussian 88(TM) system (copyright 1988, Gaussian, Inc.),
 the Gaussian 86(TM) system (copyright 1986, Carnegie Mellon
 University), and the Gaussian 82(TM) system (copyright 1983,
 Carnegie Mellon University). Gaussian is a federally registered
 trademark of Gaussian, Inc.
  
 This software contains proprietary and confidential information,
 including trade secrets, belonging to Gaussian, Inc.
  
 This software is provided under written license and may be
 used, copied, transmitted, or stored only in accord with that
 written license.
  
 The following legend is applicable only to US Government
 contracts under FAR:
  
                    RESTRICTED RIGHTS LEGEND
  
 Use, reproduction and disclosure by the US Government is
 subject to restrictions as set forth in subparagraphs (a)
 and (c) of the Commercial Computer Software - Restricted
 Rights clause in FAR 52.227-19.
  
 Gaussian, Inc.
 340 Quinnipiac St., Bldg. 40, Wallingford CT 06492
  
  
 ---------------------------------------------------------------
 Warning -- This program may not be used in any manner that
 competes with the business of Gaussian, Inc. or will provide
 assistance to any competitor of Gaussian, Inc.  The licensee
 of this program is prohibited from giving any competitor of
 Gaussian, Inc. access to this program.  By using this program,
 the user acknowledges that Gaussian, Inc. is engaged in the
 business of creating and licensing software in the field of
 computational chemistry and represents and warrants to the
 licensee that it is not a competitor of Gaussian, Inc. and that
 it will not use this program in any manner prohibited above.
 ---------------------------------------------------------------
  

 Cite this work as:
 Gaussian 09, Revision A.01,
 M. J. Frisch, G. W. Trucks, H. B. Schlegel, G. E. Scuseria, 
 M. A. Robb, J. R. Cheeseman, G. Scalmani, V. Barone, B. Mennucci, 
 G. A. Petersson, H. Nakatsuji, M. Caricato, X. Li, H. P. Hratchian, 
 A. F. Izmaylov, J. Bloino, G. Zheng, J. L. Sonnenberg, M. Hada, 
 M. Ehara, K. Toyota, R. Fukuda, J. Hasegawa, M. Ishida, T. Nakajima, 
 Y. Honda, O. Kitao, H. Nakai, T. Vreven, J. A. Montgomery, Jr., 
 J. E. Peralta, F. Ogliaro, M. Bearpark, J. J. Heyd, E. Brothers, 
 K. N. Kudin, V. N. Staroverov, R. Kobayashi, J. Normand, 
 K. Raghavachari, A. Rendell, J. C. Burant, S. S. Iyengar, J. Tomasi, 
 M. Cossi, N. Rega, J. M. Millam, M. Klene, J. E. Knox, J. B. Cross, 
 V. Bakken, C. Adamo, J. Jaramillo, R. Gomperts, R. E. Stratmann, 
 O. Yazyev, A. J. Austin, R. Cammi, C. Pomelli, J. W. Ochterski, 
 R. L. Martin, K. Morokuma, V. G. Zakrzewski, G. A. Voth, 
 P. Salvador, J. J. Dannenberg, S. Dapprich, A. D. Daniels, 
 O. Farkas, J. B. Foresman, J. V. Ortiz, J. Cioslowski, 
 and D. J. Fox, Gaussian, Inc., Wallingford CT, 2009.
 
 ******************************************
 Gaussian 09:  EM64L-G09RevA.01  8-May-2009
                18-Sep-2015 
 ******************************************
 %mem=3GB
 %nprocshared=2
 Will use up to    2 processors via shared memory.
 -----------------------------------------
 #p B3LYP/6-31G(d) opt=tight int=ultrafine
 -----------------------------------------
 1/7=10,14=-1,18=20,19=15,26=3,38=1/1,3;
 2/9=110,12=2,17=6,18=5,40=1/2;
 3/5=1,6=6,7=1,11=2,16=1,25=1,30=1,71=1,74=-5,75=-5/1,2,3;
 4//1;
 5/5=2,38=5/2;
 6/7=2,8=2,9=2,10=2,28=1/1;
 7//1,2,3,16;
 1/7=10,14=-1,18=20,19=15/3(2);
 2/9=110/2;
 99//99;
 2/9=110/2;
 3/5=1,6=6,7=1,11=2,16=1,25=1,30=1,71=1,74=-5,75=-5/1,2,3;
 4/5=5,16=3/1;
 5/5=2,38=5/2;
 7//1,2,3,16;
 1/7=10,14=-1,18=20,19=15/3(-5);
 2/9=110/2;
 6/7=2,8=2,9=2,10=2,19=2,28=1/1;
 99/9=1/99;
 Leave Link    1 at Fri Sep 18 13:23:47 2015, MaxMem=  402653184 cpu:       0.1
 (Enter /share/apps/g09/l101.exe)
 ---------------------------------------------
 using B3LYP/6-31G(d) to do opt and freq calc.
 ---------------------------------------------
 Symbolic Z-matrix:
 Charge =  0 Multiplicity = 1
 C                    -1.50202   1.25249   0.05669 
 H                    -1.01348   2.16767  -0.29396 
 H                    -1.6196    1.33498   1.14226 
 H                    -2.50607   1.23212  -0.3802 
 C                    -0.7032    0.00003  -0.3324 
 H                    -0.56544   0.00015  -1.44116 
 C                     0.7032   -0.00004   0.3324 
 H                     0.56544  -0.00017   1.44116 
 C                     1.50204  -1.25248  -0.0567 
 H                     1.61961  -1.33497  -1.14228 
 H                     2.5061   -1.23209   0.38017 
 H                     1.01353  -2.16768   0.29394 
 C                    -1.50204  -1.25249   0.05643 
 H                    -1.01353  -2.16762  -0.29442 
 H                    -1.61961  -1.33522   1.14199 
 H                    -2.5061   -1.23201  -0.38044 
 C                     1.50202   1.2525   -0.05642 
 H                     1.6196    1.33523  -1.14197 
 H                     1.01349   2.16761   0.29443 
 H                     2.50608   1.23203   0.38047 
 
 NAtoms=     20 NQM=     20 NQMF=      0 NMic=      0 NMicF=      0 NTot=     20.
                    Isotopes and Nuclear Properties:
 (Nuclear quadrupole moments (NQMom) in fm**2, nuclear magnetic moments (NMagM)
  in nuclear magnetons)

  Atom         1           2           3           4           5           6           7           8           9          10
 IAtWgt=          12           1           1           1          12           1          12           1          12           1
 AtmWgt=  12.0000000   1.0078250   1.0078250   1.0078250  12.0000000   1.0078250  12.0000000   1.0078250  12.0000000   1.0078250
 NucSpn=           0           1           1           1           0           1           0           1           0           1
 AtZEff=   0.0000000   0.0000000   0.0000000   0.0000000   0.0000000   0.0000000   0.0000000   0.0000000   0.0000000   0.0000000
 NQMom=    0.0000000   0.0000000   0.0000000   0.0000000   0.0000000   0.0000000   0.0000000   0.0000000   0.0000000   0.0000000
 NMagM=    0.0000000   2.7928460   2.7928460   2.7928460   0.0000000   2.7928460   0.0000000   2.7928460   0.0000000   2.7928460

  Atom        11          12          13          14          15          16          17          18          19          20
 IAtWgt=           1           1          12           1           1           1          12           1           1           1
 AtmWgt=   1.0078250   1.0078250  12.0000000   1.0078250   1.0078250   1.0078250  12.0000000   1.0078250   1.0078250   1.0078250
 NucSpn=           1           1           0           1           1           1           0           1           1           1
 AtZEff=   0.0000000   0.0000000   0.0000000   0.0000000   0.0000000   0.0000000   0.0000000   0.0000000   0.0000000   0.0000000
 NQMom=    0.0000000   0.0000000   0.0000000   0.0000000   0.0000000   0.0000000   0.0000000   0.0000000   0.0000000   0.0000000
 NMagM=    2.7928460   2.7928460   0.0000000   2.7928460   2.7928460   2.7928460   0.0000000   2.7928460   2.7928460   2.7928460
 Leave Link  101 at Fri Sep 18 13:23:47 2015, MaxMem=  402653184 cpu:       0.2
 (Enter /share/apps/g09/l103.exe)

 GradGradGradGradGradGradGradGradGradGradGradGradGradGradGradGradGradGrad
 Berny optimization.
 Initialization pass.
                           ----------------------------
                           !    Initial Parameters    !
                           ! (Angstroms and Degrees)  !
 --------------------------                            --------------------------
 ! Name  Definition              Value          Derivative Info.                !
 --------------------------------------------------------------------------------
 ! R1    R(1,2)                  1.0951         estimate D2E/DX2                !
 ! R2    R(1,3)                  1.095          estimate D2E/DX2                !
 ! R3    R(1,4)                  1.0952         estimate D2E/DX2                !
 ! R4    R(1,5)                  1.5356         estimate D2E/DX2                !
 ! R5    R(5,6)                  1.1173         estimate D2E/DX2                !
 ! R6    R(5,7)                  1.5556         estimate D2E/DX2                !
 ! R7    R(5,13)                 1.5356         estimate D2E/DX2                !
 ! R8    R(7,8)                  1.1173         estimate D2E/DX2                !
 ! R9    R(7,9)                  1.5356         estimate D2E/DX2                !
 ! R10   R(7,17)                 1.5356         estimate D2E/DX2                !
 ! R11   R(9,10)                 1.095          estimate D2E/DX2                !
 ! R12   R(9,11)                 1.0952         estimate D2E/DX2                !
 ! R13   R(9,12)                 1.0951         estimate D2E/DX2                !
 ! R14   R(13,14)                1.0951         estimate D2E/DX2                !
 ! R15   R(13,15)                1.095          estimate D2E/DX2                !
 ! R16   R(13,16)                1.0952         estimate D2E/DX2                !
 ! R17   R(17,18)                1.095          estimate D2E/DX2                !
 ! R18   R(17,19)                1.0951         estimate D2E/DX2                !
 ! R19   R(17,20)                1.0952         estimate D2E/DX2                !
 ! A1    A(2,1,3)              107.6008         estimate D2E/DX2                !
 ! A2    A(2,1,4)              107.2662         estimate D2E/DX2                !
 ! A3    A(2,1,5)              111.6187         estimate D2E/DX2                !
 ! A4    A(3,1,4)              107.3632         estimate D2E/DX2                !
 ! A5    A(3,1,5)              111.622          estimate D2E/DX2                !
 ! A6    A(4,1,5)              111.1408         estimate D2E/DX2                !
 ! A7    A(1,5,6)              108.3907         estimate D2E/DX2                !
 ! A8    A(1,5,7)              111.2264         estimate D2E/DX2                !
 ! A9    A(1,5,13)             109.2981         estimate D2E/DX2                !
 ! A10   A(6,5,7)              108.2168         estimate D2E/DX2                !
 ! A11   A(6,5,13)             108.3909         estimate D2E/DX2                !
 ! A12   A(7,5,13)             111.227          estimate D2E/DX2                !
 ! A13   A(5,7,8)              108.2168         estimate D2E/DX2                !
 ! A14   A(5,7,9)              111.2269         estimate D2E/DX2                !
 ! A15   A(5,7,17)             111.2265         estimate D2E/DX2                !
 ! A16   A(8,7,9)              108.3907         estimate D2E/DX2                !
 ! A17   A(8,7,17)             108.3908         estimate D2E/DX2                !
 ! A18   A(9,7,17)             109.2981         estimate D2E/DX2                !
 ! A19   A(7,9,10)             111.622          estimate D2E/DX2                !
 ! A20   A(7,9,11)             111.1408         estimate D2E/DX2                !
 ! A21   A(7,9,12)             111.6188         estimate D2E/DX2                !
 ! A22   A(10,9,11)            107.3631         estimate D2E/DX2                !
 ! A23   A(10,9,12)            107.6008         estimate D2E/DX2                !
 ! A24   A(11,9,12)            107.2662         estimate D2E/DX2                !
 ! A25   A(5,13,14)            111.6189         estimate D2E/DX2                !
 ! A26   A(5,13,15)            111.6222         estimate D2E/DX2                !
 ! A27   A(5,13,16)            111.1409         estimate D2E/DX2                !
 ! A28   A(14,13,15)           107.6006         estimate D2E/DX2                !
 ! A29   A(14,13,16)           107.2661         estimate D2E/DX2                !
 ! A30   A(15,13,16)           107.3631         estimate D2E/DX2                !
 ! A31   A(7,17,18)            111.6222         estimate D2E/DX2                !
 ! A32   A(7,17,19)            111.6187         estimate D2E/DX2                !
 ! A33   A(7,17,20)            111.1409         estimate D2E/DX2                !
 ! A34   A(18,17,19)           107.6006         estimate D2E/DX2                !
 ! A35   A(18,17,20)           107.3631         estimate D2E/DX2                !
 ! A36   A(19,17,20)           107.2661         estimate D2E/DX2                !
 ! D1    D(2,1,5,6)            -56.3297         estimate D2E/DX2                !
 ! D2    D(2,1,5,7)             62.5224         estimate D2E/DX2                !
 ! D3    D(2,1,5,13)          -174.2791         estimate D2E/DX2                !
 ! D4    D(3,1,5,6)           -176.7918         estimate D2E/DX2                !
 ! D5    D(3,1,5,7)            -57.9396         estimate D2E/DX2                !
 ! D6    D(3,1,5,13)            65.2589         estimate D2E/DX2                !
 ! D7    D(4,1,5,6)             63.3767         estimate D2E/DX2                !
 ! D8    D(4,1,5,7)           -177.7712         estimate D2E/DX2                !
 ! D9    D(4,1,5,13)           -54.5727         estimate D2E/DX2                !
 ! D10   D(1,5,7,8)             61.0445         estimate D2E/DX2                !
 ! D11   D(1,5,7,9)           -179.9989         estimate D2E/DX2                !
 ! D12   D(1,5,7,17)           -57.912          estimate D2E/DX2                !
 ! D13   D(6,5,7,8)           -179.9992         estimate D2E/DX2                !
 ! D14   D(6,5,7,9)            -61.0426         estimate D2E/DX2                !
 ! D15   D(6,5,7,17)            61.0443         estimate D2E/DX2                !
 ! D16   D(13,5,7,8)           -61.0424         estimate D2E/DX2                !
 ! D17   D(13,5,7,9)            57.9143         estimate D2E/DX2                !
 ! D18   D(13,5,7,17)         -179.9989         estimate D2E/DX2                !
 ! D19   D(1,5,13,14)          174.2779         estimate D2E/DX2                !
 ! D20   D(1,5,13,15)          -65.2601         estimate D2E/DX2                !
 ! D21   D(1,5,13,16)           54.5716         estimate D2E/DX2                !
 ! D22   D(6,5,13,14)           56.3287         estimate D2E/DX2                !
 ! D23   D(6,5,13,15)          176.7907         estimate D2E/DX2                !
 ! D24   D(6,5,13,16)          -63.3777         estimate D2E/DX2                !
 ! D25   D(7,5,13,14)          -62.5239         estimate D2E/DX2                !
 ! D26   D(7,5,13,15)           57.9381         estimate D2E/DX2                !
 ! D27   D(7,5,13,16)          177.7697         estimate D2E/DX2                !
 ! D28   D(5,7,9,10)            57.9385         estimate D2E/DX2                !
 ! D29   D(5,7,9,11)           177.7699         estimate D2E/DX2                !
 ! D30   D(5,7,9,12)           -62.5237         estimate D2E/DX2                !
 ! D31   D(8,7,9,10)           176.7909         estimate D2E/DX2                !
 ! D32   D(8,7,9,11)           -63.3776         estimate D2E/DX2                !
 ! D33   D(8,7,9,12)            56.3288         estimate D2E/DX2                !
 ! D34   D(17,7,9,10)          -65.2598         estimate D2E/DX2                !
 ! D35   D(17,7,9,11)           54.5717         estimate D2E/DX2                !
 ! D36   D(17,7,9,12)          174.2781         estimate D2E/DX2                !
 ! D37   D(5,7,17,18)          -57.9395         estimate D2E/DX2                !
 ! D38   D(5,7,17,19)           62.5225         estimate D2E/DX2                !
 ! D39   D(5,7,17,20)         -177.7712         estimate D2E/DX2                !
 ! D40   D(8,7,17,18)         -176.7918         estimate D2E/DX2                !
 ! D41   D(8,7,17,19)          -56.3298         estimate D2E/DX2                !
 ! D42   D(8,7,17,20)           63.3765         estimate D2E/DX2                !
 ! D43   D(9,7,17,18)           65.259          estimate D2E/DX2                !
 ! D44   D(9,7,17,19)         -174.2791         estimate D2E/DX2                !
 ! D45   D(9,7,17,20)          -54.5728         estimate D2E/DX2                !
 --------------------------------------------------------------------------------
 Trust Radius=3.00D-01 FncErr=1.00D-07 GrdErr=1.00D-06
 Number of steps in this run= 110 maximum allowed number of steps= 120.
 GradGradGradGradGradGradGradGradGradGradGradGradGradGradGradGradGradGrad

 Leave Link  103 at Fri Sep 18 13:23:47 2015, MaxMem=  402653184 cpu:       0.0
 (Enter /share/apps/g09/l202.exe)
                          Input orientation:                          
 ---------------------------------------------------------------------
 Center     Atomic      Atomic             Coordinates (Angstroms)
 Number     Number       Type             X           Y           Z
 ---------------------------------------------------------------------
      1          6           0       -1.502015    1.252488    0.056688
      2          1           0       -1.013483    2.167671   -0.293956
      3          1           0       -1.619601    1.334980    1.142261
      4          1           0       -2.506074    1.232116   -0.380201
      5          6           0       -0.703201    0.000030   -0.332395
      6          1           0       -0.565437    0.000145   -1.441156
      7          6           0        0.703201   -0.000042    0.332395
      8          1           0        0.565437   -0.000171    1.441156
      9          6           0        1.502036   -1.252484   -0.056704
     10          1           0        1.619610   -1.334969   -1.142279
     11          1           0        2.506101   -1.232092    0.380171
     12          1           0        1.013530   -2.167679    0.293943
     13          6           0       -1.502037   -1.252494    0.056431
     14          1           0       -1.013534   -2.167615   -0.294418
     15          1           0       -1.619608   -1.335221    1.141988
     16          1           0       -2.506103   -1.232006   -0.380437
     17          6           0        1.502016    1.252498   -0.056415
     18          1           0        1.619603    1.335230   -1.141969
     19          1           0        1.013486    2.167607    0.294428
     20          1           0        2.506075    1.232032    0.380470
 ---------------------------------------------------------------------
                    Distance matrix (angstroms):
                    1          2          3          4          5
     1  C    0.000000
     2  H    1.095068   0.000000
     3  H    1.095034   1.767335   0.000000
     4  H    1.095181   1.763669   1.764740   0.000000
     5  C    1.535624   2.190073   2.190089   2.184187   0.000000
     6  H    2.165428   2.492987   3.093071   2.531689   1.117287
     7  C    2.551044   2.835189   2.798853   3.510762   1.555607
     8  H    2.785725   3.194236   2.578053   3.777572   2.180579
     9  C    3.913063   4.252245   4.228133   4.726821   2.551052
    10  H    4.228120   4.463330   4.779146   4.918532   2.798854
    11  H    4.726814   4.939667   4.918542   5.636700   3.510768
    12  H    4.252270   4.821791   4.463367   4.939705   2.835212
    13  C    2.504982   3.472605   2.808535   2.715147   1.535624
    14  H    3.472606   4.335286   3.833997   3.713920   2.190076
    15  H    2.808548   3.834002   2.670201   3.113535   2.190092
    16  H    2.715139   3.713919   3.113505   2.464122   2.184188
    17  C    3.006159   2.687323   3.344865   4.021199   2.551044
    18  H    3.344865   2.888810   3.963603   4.196681   2.798855
    19  H    2.687324   2.110639   2.888812   3.703724   2.835192
    20  H    4.021199   3.703722   4.196680   5.069542   3.510763
                    6          7          8          9         10
     6  H    0.000000
     7  C    2.180579   0.000000
     8  H    3.096223   1.117287   0.000000
     9  C    2.785719   1.535626   2.165431   0.000000
    10  H    2.578039   2.190091   3.093073   1.095034   0.000000
    11  H    3.777563   2.184188   2.531698   1.095181   1.764739
    12  H    3.194240   2.190076   2.492985   1.095068   1.767335
    13  C    2.165431   2.551052   2.785718   3.006203   3.344905
    14  H    2.492987   2.835215   3.194242   2.687390   2.888878
    15  H    3.093075   2.798854   2.578038   3.344902   3.963636
    16  H    2.531700   3.510769   3.777562   4.021244   4.196726
    17  C    2.785724   1.535622   2.165428   2.504982   2.808543
    18  H    2.578054   2.190090   3.093072   2.808538   2.670199
    19  H    3.194236   2.190073   2.492989   3.472607   3.833999
    20  H    3.777572   2.184187   2.531690   2.715149   3.113532
                   11         12         13         14         15
    11  H    0.000000
    12  H    1.763668   0.000000
    13  C    4.021243   2.687388   0.000000
    14  H    3.703796   2.110724   1.095069   0.000000
    15  H    4.196722   2.888872   1.095035   1.767333   0.000000
    16  H    5.069587   3.703794   1.095181   1.763668   1.764739
    17  C    2.715139   3.472604   3.913062   4.252271   4.228120
    18  H    3.113508   3.833998   4.228134   4.463371   4.779148
    19  H    3.713920   4.335286   4.252245   4.821794   4.463334
    20  H    2.464124   3.713921   4.726821   4.939709   4.918532
                   16         17         18         19         20
    16  H    0.000000
    17  C    4.726814   0.000000
    18  H    4.918545   1.095034   0.000000
    19  H    4.939668   1.095069   1.767333   0.000000
    20  H    5.636700   1.095181   1.764739   1.763668   0.000000
 Stoichiometry    C6H14
 Framework group  C1[X(C6H14)]
 Deg. of freedom    54
 Full point group                 C1      NOp   1
 Largest Abelian subgroup         C1      NOp   1
 Largest concise Abelian subgroup C1      NOp   1
                         Standard orientation:                         
 ---------------------------------------------------------------------
 Center     Atomic      Atomic             Coordinates (Angstroms)
 Number     Number       Type             X           Y           Z
 ---------------------------------------------------------------------
      1          6           0       -1.502015    1.252487    0.056688
      2          1           0       -1.013484    2.167671   -0.293956
      3          1           0       -1.619602    1.334979    1.142261
      4          1           0       -2.506074    1.232115   -0.380201
      5          6           0       -0.703201    0.000030   -0.332395
      6          1           0       -0.565437    0.000145   -1.441156
      7          6           0        0.703201   -0.000042    0.332395
      8          1           0        0.565437   -0.000171    1.441156
      9          6           0        1.502036   -1.252484   -0.056704
     10          1           0        1.619610   -1.334969   -1.142279
     11          1           0        2.506101   -1.232091    0.380171
     12          1           0        1.013531   -2.167679    0.293943
     13          6           0       -1.502037   -1.252495    0.056431
     14          1           0       -1.013533   -2.167615   -0.294418
     15          1           0       -1.619608   -1.335222    1.141988
     16          1           0       -2.506103   -1.232007   -0.380437
     17          6           0        1.502016    1.252498   -0.056415
     18          1           0        1.619602    1.335230   -1.141969
     19          1           0        1.013485    2.167607    0.294428
     20          1           0        2.506075    1.232033    0.380470
 ---------------------------------------------------------------------
 Rotational constants (GHZ):      4.1862195      2.9041363      1.8830142
 Leave Link  202 at Fri Sep 18 13:23:47 2015, MaxMem=  402653184 cpu:       0.0
 (Enter /share/apps/g09/l301.exe)
 Standard basis: 6-31G(d) (6D, 7F)
 Ernie: Thresh=  0.10000D-02 Tol=  0.10000D-05 Strict=F.
 There are   118 symmetry adapted basis functions of A   symmetry.
 Integral buffers will be    131072 words long.
 Raffenetti 2 integral format.
 Two-electron integral symmetry is turned on.
   118 basis functions,   224 primitive gaussians,   118 cartesian basis functions
    25 alpha electrons       25 beta electrons
       nuclear repulsion energy       262.2361349937 Hartrees.
 IExCor=  402 DFT=T Ex+Corr=B3LYP ExCW=0 ScaHFX=  0.200000
 ScaDFX=  0.800000  0.720000  1.000000  0.810000 ScalE2=  1.000000  1.000000
 IRadAn=      5 IRanWt=     -1 IRanGd=            0 ICorTp=0
 NAtoms=   20 NActive=   20 NUniq=   20 SFac= 7.50D-01 NAtFMM=   80 NAOKFM=F Big=F
 Leave Link  301 at Fri Sep 18 13:23:48 2015, MaxMem=  402653184 cpu:       0.1
 (Enter /share/apps/g09/l302.exe)
 NPDir=0 NMtPBC=     1 NCelOv=     1 NCel=       1 NClECP=     1 NCelD=      1
         NCelK=      1 NCelE2=     1 NClLst=     1 CellRange=     0.0.
 One-electron integrals computed using PRISM.
 NBasis=   118 RedAO= T  NBF=   118
 NBsUse=   118 1.00D-06 NBFU=   118
 Precomputing XC quadrature grid using
 IXCGrd= 2 IRadAn=           5 IRanWt=          -1 IRanGd=           0 AccXCQ= 1.00D-10.
 NRdTot=    1644 NPtTot=      439424 NUsed=      451205 NTot=      451237
 NSgBfM=   118   118   118   118   118 NAtAll=    20    20.
 Leave Link  302 at Fri Sep 18 13:23:49 2015, MaxMem=  402653184 cpu:       2.0
 (Enter /share/apps/g09/l303.exe)
 DipDrv:  MaxL=1.
 Leave Link  303 at Fri Sep 18 13:23:49 2015, MaxMem=  402653184 cpu:       0.1
 (Enter /share/apps/g09/l401.exe)
 Harris functional with IExCor=  402 diagonalized for initial guess.
 ExpMin= 1.61D-01 ExpMax= 3.05D+03 ExpMxC= 4.57D+02 IAcc=3 IRadAn=         5 AccDes= 0.00D+00
 HarFok:  IExCor=  402 AccDes= 0.00D+00 IRadAn=         5 IDoV= 1
 ScaDFX=  1.000000  1.000000  1.000000  1.000000
 FoFCou: FMM=F IPFlag=           0 FMFlag=      100000 FMFlg1=           0
         NFxFlg=           0 DoJE=T BraDBF=F KetDBF=T FulRan=T
         Omega=  0.000000  0.000000  1.000000  0.000000  0.000000 ICntrl=     500 IOpCl=  0
         NMat0=    1 NMatS0=    1 NMatT0=    0 NMatD0=    1 NMtDS0=    0 NMtDT0=    0
         I1Cent=           4 NGrid=           0.
 Petite list used in FoFCou.
 Harris En= -237.176464065688    
 Initial guess orbital symmetries:
       Occupied  (A) (A) (A) (A) (A) (A) (A) (A) (A) (A) (A) (A)
                 (A) (A) (A) (A) (A) (A) (A) (A) (A) (A) (A) (A)
                 (A)
       Virtual   (A) (A) (A) (A) (A) (A) (A) (A) (A) (A) (A) (A)
                 (A) (A) (A) (A) (A) (A) (A) (A) (A) (A) (A) (A)
                 (A) (A) (A) (A) (A) (A) (A) (A) (A) (A) (A) (A)
                 (A) (A) (A) (A) (A) (A) (A) (A) (A) (A) (A) (A)
                 (A) (A) (A) (A) (A) (A) (A) (A) (A) (A) (A) (A)
                 (A) (A) (A) (A) (A) (A) (A) (A) (A) (A) (A) (A)
                 (A) (A) (A) (A) (A) (A) (A) (A) (A) (A) (A) (A)
                 (A) (A) (A) (A) (A) (A) (A) (A) (A)
 The electronic state of the initial guess is 1-A.
 Leave Link  401 at Fri Sep 18 13:24:02 2015, MaxMem=  402653184 cpu:      18.1
 (Enter /share/apps/g09/l502.exe)
 Closed shell SCF:
 Requested convergence on RMS density matrix=1.00D-08 within 128 cycles.
 Requested convergence on MAX density matrix=1.00D-06.
 Requested convergence on             energy=1.00D-06.
 No special actions if energy rises.
 Using DIIS extrapolation, IDIIS=  1040.
 Integral symmetry usage will be decided dynamically.
       451012 words used for storage of precomputed grid.
 Keep R1 ints in memory in canonical form, NReq=26105067.
 IEnd=      512556 IEndB=      512556 NGot=   402653184 MDV=   377520552
 LenX=   377520552 LenY=   377506187
 Symmetry not used in FoFDir.
 MinBra= 0 MaxBra= 2 Meth= 1.
 IRaf=       0 NMat=   1 IRICut=       1 DoRegI=T DoRafI=F ISym2E= 0 JSym2E=0.
 Integral accuracy reduced to 1.0D-05 until final iterations.

 Cycle   1  Pass 0  IDiag  1:
 E= -236.788956963126    
 DIIS: error= 5.85D-02 at cycle   1 NSaved=   1.
 NSaved= 1 IEnMin= 1 EnMin= -236.788956963126     IErMin= 1 ErrMin= 5.85D-02
 ErrMax= 5.85D-02 EMaxC= 1.00D-01 BMatC= 2.61D-01 BMatP= 2.61D-01
 IDIUse=3 WtCom= 4.15D-01 WtEn= 5.85D-01
 Coeff-Com:  0.100D+01
 Coeff-En:   0.100D+01
 Coeff:      0.100D+01
 Gap=     0.340 Goal=   None    Shift=    0.000
 GapD=    0.340 DampG=1.000 DampE=0.500 DampFc=0.5000 IDamp=-1.
 Damping current iteration by 5.00D-01
 RMSDP=1.03D-02 MaxDP=1.39D-01              OVMax= 1.91D-01

 Cycle   2  Pass 0  IDiag  1:
 E= -236.917611667907     Delta-E=       -0.128654704781 Rises=F Damp=T
 DIIS: error= 1.04D-02 at cycle   2 NSaved=   2.
 NSaved= 2 IEnMin= 2 EnMin= -236.917611667907     IErMin= 2 ErrMin= 1.04D-02
 ErrMax= 1.04D-02 EMaxC= 1.00D-01 BMatC= 9.89D-03 BMatP= 2.61D-01
 IDIUse=3 WtCom= 8.96D-01 WtEn= 1.04D-01
 Coeff-Com:  0.847D-01 0.915D+00
 Coeff-En:   0.142D+00 0.858D+00
 Coeff:      0.906D-01 0.909D+00
 Gap=     0.397 Goal=   None    Shift=    0.000
 RMSDP=1.77D-03 MaxDP=2.31D-02 DE=-1.29D-01 OVMax= 1.05D-01

 Cycle   3  Pass 0  IDiag  1:
 E= -237.080104143292     Delta-E=       -0.162492475386 Rises=F Damp=F
 DIIS: error= 3.63D-03 at cycle   3 NSaved=   3.
 NSaved= 3 IEnMin= 3 EnMin= -237.080104143292     IErMin= 3 ErrMin= 3.63D-03
 ErrMax= 3.63D-03 EMaxC= 1.00D-01 BMatC= 1.39D-03 BMatP= 9.89D-03
 IDIUse=3 WtCom= 9.64D-01 WtEn= 3.63D-02
 Coeff-Com:  0.123D-01 0.216D+00 0.772D+00
 Coeff-En:   0.000D+00 0.000D+00 0.100D+01
 Coeff:      0.119D-01 0.208D+00 0.780D+00
 Gap=     0.381 Goal=   None    Shift=    0.000
 RMSDP=6.02D-04 MaxDP=1.08D-02 DE=-1.62D-01 OVMax= 1.12D-02

 Cycle   4  Pass 0  IDiag  1:
 E= -237.080794334936     Delta-E=       -0.000690191643 Rises=F Damp=F
 DIIS: error= 2.84D-03 at cycle   4 NSaved=   4.
 NSaved= 4 IEnMin= 4 EnMin= -237.080794334936     IErMin= 4 ErrMin= 2.84D-03
 ErrMax= 2.84D-03 EMaxC= 1.00D-01 BMatC= 7.21D-04 BMatP= 1.39D-03
 IDIUse=3 WtCom= 9.72D-01 WtEn= 2.84D-02
 Coeff-Com:  0.510D-03 0.300D-01 0.419D+00 0.550D+00
 Coeff-En:   0.000D+00 0.000D+00 0.337D+00 0.663D+00
 Coeff:      0.495D-03 0.291D-01 0.417D+00 0.553D+00
 Gap=     0.386 Goal=   None    Shift=    0.000
 RMSDP=2.34D-04 MaxDP=4.85D-03 DE=-6.90D-04 OVMax= 5.28D-03

 Cycle   5  Pass 0  IDiag  1:
 E= -237.081480993249     Delta-E=       -0.000686658313 Rises=F Damp=F
 DIIS: error= 2.57D-04 at cycle   5 NSaved=   5.
 NSaved= 5 IEnMin= 5 EnMin= -237.081480993249     IErMin= 5 ErrMin= 2.57D-04
 ErrMax= 2.57D-04 EMaxC= 1.00D-01 BMatC= 9.14D-06 BMatP= 7.21D-04
 IDIUse=3 WtCom= 9.97D-01 WtEn= 2.57D-03
 Coeff-Com:  0.328D-03-0.237D-02 0.895D-01 0.173D+00 0.739D+00
 Coeff-En:   0.000D+00 0.000D+00 0.000D+00 0.000D+00 0.100D+01
 Coeff:      0.327D-03-0.236D-02 0.892D-01 0.173D+00 0.740D+00
 Gap=     0.386 Goal=   None    Shift=    0.000
 RMSDP=2.48D-05 MaxDP=4.81D-04 DE=-6.87D-04 OVMax= 6.05D-04

 Cycle   6  Pass 0  IDiag  1:
 E= -237.081489479358     Delta-E=       -0.000008486109 Rises=F Damp=F
 DIIS: error= 1.63D-05 at cycle   6 NSaved=   6.
 NSaved= 6 IEnMin= 6 EnMin= -237.081489479358     IErMin= 6 ErrMin= 1.63D-05
 ErrMax= 1.63D-05 EMaxC= 1.00D-01 BMatC= 3.00D-08 BMatP= 9.14D-06
 IDIUse=1 WtCom= 1.00D+00 WtEn= 0.00D+00
 Coeff-Com:  0.158D-03-0.725D-03 0.101D-01 0.209D-01 0.112D+00 0.858D+00
 Coeff:      0.158D-03-0.725D-03 0.101D-01 0.209D-01 0.112D+00 0.858D+00
 Gap=     0.386 Goal=   None    Shift=    0.000
 RMSDP=2.48D-06 MaxDP=2.54D-05 DE=-8.49D-06 OVMax= 4.46D-05

 Initial convergence to 1.0D-05 achieved.  Increase integral accuracy.
 Cycle   7  Pass 1  IDiag  1:
 E= -237.081483494046     Delta-E=        0.000005985312 Rises=F Damp=F
 DIIS: error= 1.23D-05 at cycle   1 NSaved=   1.
 NSaved= 1 IEnMin= 1 EnMin= -237.081483494046     IErMin= 1 ErrMin= 1.23D-05
 ErrMax= 1.23D-05 EMaxC= 1.00D-01 BMatC= 1.06D-08 BMatP= 1.06D-08
 IDIUse=1 WtCom= 1.00D+00 WtEn= 0.00D+00
 Coeff-Com:  0.100D+01
 Coeff:      0.100D+01
 Gap=     0.386 Goal=   None    Shift=    0.000
 RMSDP=2.48D-06 MaxDP=2.54D-05 DE= 5.99D-06 OVMax= 4.07D-05

 Cycle   8  Pass 1  IDiag  1:
 E= -237.081483509160     Delta-E=       -0.000000015115 Rises=F Damp=F
 DIIS: error= 1.71D-06 at cycle   2 NSaved=   2.
 NSaved= 2 IEnMin= 2 EnMin= -237.081483509160     IErMin= 2 ErrMin= 1.71D-06
 ErrMax= 1.71D-06 EMaxC= 1.00D-01 BMatC= 3.72D-10 BMatP= 1.06D-08
 IDIUse=1 WtCom= 1.00D+00 WtEn= 0.00D+00
 Coeff-Com:  0.394D-01 0.961D+00
 Coeff:      0.394D-01 0.961D+00
 Gap=     0.386 Goal=   None    Shift=    0.000
 RMSDP=3.55D-07 MaxDP=3.19D-06 DE=-1.51D-08 OVMax= 6.63D-06

 Cycle   9  Pass 1  IDiag  1:
 E= -237.081483509455     Delta-E=       -0.000000000294 Rises=F Damp=F
 DIIS: error= 1.03D-06 at cycle   3 NSaved=   3.
 NSaved= 3 IEnMin= 3 EnMin= -237.081483509455     IErMin= 3 ErrMin= 1.03D-06
 ErrMax= 1.03D-06 EMaxC= 1.00D-01 BMatC= 1.26D-10 BMatP= 3.72D-10
 IDIUse=1 WtCom= 1.00D+00 WtEn= 0.00D+00
 Coeff-Com: -0.171D-01 0.355D+00 0.662D+00
 Coeff:     -0.171D-01 0.355D+00 0.662D+00
 Gap=     0.386 Goal=   None    Shift=    0.000
 RMSDP=1.36D-07 MaxDP=1.51D-06 DE=-2.94D-10 OVMax= 2.72D-06

 Cycle  10  Pass 1  IDiag  1:
 E= -237.081483509574     Delta-E=       -0.000000000119 Rises=F Damp=F
 DIIS: error= 3.54D-07 at cycle   4 NSaved=   4.
 NSaved= 4 IEnMin= 4 EnMin= -237.081483509574     IErMin= 4 ErrMin= 3.54D-07
 ErrMax= 3.54D-07 EMaxC= 1.00D-01 BMatC= 1.38D-11 BMatP= 1.26D-10
 IDIUse=1 WtCom= 1.00D+00 WtEn= 0.00D+00
 Coeff-Com: -0.100D-01 0.148D+00 0.344D+00 0.518D+00
 Coeff:     -0.100D-01 0.148D+00 0.344D+00 0.518D+00
 Gap=     0.386 Goal=   None    Shift=    0.000
 RMSDP=3.91D-08 MaxDP=5.28D-07 DE=-1.19D-10 OVMax= 7.03D-07

 Cycle  11  Pass 1  IDiag  1:
 E= -237.081483509589     Delta-E=       -0.000000000016 Rises=F Damp=F
 DIIS: error= 3.89D-08 at cycle   5 NSaved=   5.
 NSaved= 5 IEnMin= 5 EnMin= -237.081483509589     IErMin= 5 ErrMin= 3.89D-08
 ErrMax= 3.89D-08 EMaxC= 1.00D-01 BMatC= 1.34D-13 BMatP= 1.38D-11
 IDIUse=1 WtCom= 1.00D+00 WtEn= 0.00D+00
 Coeff-Com: -0.159D-02 0.159D-01 0.460D-01 0.123D+00 0.817D+00
 Coeff:     -0.159D-02 0.159D-01 0.460D-01 0.123D+00 0.817D+00
 Gap=     0.386 Goal=   None    Shift=    0.000
 RMSDP=4.35D-09 MaxDP=7.54D-08 DE=-1.57D-11 OVMax= 1.05D-07

 SCF Done:  E(RB3LYP) =  -237.081483510     A.U. after   11 cycles
             Convg  =    0.4348D-08             -V/T =  2.0104
 KE= 2.346385312102D+02 PE=-1.071400257151D+03 EE= 3.374441074375D+02
 Leave Link  502 at Fri Sep 18 13:26:10 2015, MaxMem=  402653184 cpu:     177.0
 (Enter /share/apps/g09/l601.exe)
 Copying SCF densities to generalized density rwf, IOpCl= 0 IROHF=0.

 **********************************************************************

            Population analysis using the SCF density.

 **********************************************************************

 Orbital symmetries:
       Occupied  (A) (A) (A) (A) (A) (A) (A) (A) (A) (A) (A) (A)
                 (A) (A) (A) (A) (A) (A) (A) (A) (A) (A) (A) (A)
                 (A)
       Virtual   (A) (A) (A) (A) (A) (A) (A) (A) (A) (A) (A) (A)
                 (A) (A) (A) (A) (A) (A) (A) (A) (A) (A) (A) (A)
                 (A) (A) (A) (A) (A) (A) (A) (A) (A) (A) (A) (A)
                 (A) (A) (A) (A) (A) (A) (A) (A) (A) (A) (A) (A)
                 (A) (A) (A) (A) (A) (A) (A) (A) (A) (A) (A) (A)
                 (A) (A) (A) (A) (A) (A) (A) (A) (A) (A) (A) (A)
                 (A) (A) (A) (A) (A) (A) (A) (A) (A) (A) (A) (A)
                 (A) (A) (A) (A) (A) (A) (A) (A) (A)
 The electronic state is 1-A.
 Alpha  occ. eigenvalues --  -10.18435 -10.18416 -10.16667 -10.16667 -10.16666
 Alpha  occ. eigenvalues --  -10.16665  -0.81226  -0.74094  -0.68779  -0.66264
 Alpha  occ. eigenvalues --   -0.60124  -0.54264  -0.45059  -0.45019  -0.42572
 Alpha  occ. eigenvalues --   -0.41890  -0.38500  -0.38461  -0.37357  -0.35788
 Alpha  occ. eigenvalues --   -0.35032  -0.33630  -0.31653  -0.30499  -0.30101
 Alpha virt. eigenvalues --    0.08459   0.11494   0.12886   0.13488   0.14259
 Alpha virt. eigenvalues --    0.16267   0.16641   0.17750   0.17982   0.18491
 Alpha virt. eigenvalues --    0.18975   0.20338   0.20723   0.24073   0.24143
 Alpha virt. eigenvalues --    0.25338   0.27049   0.27644   0.28124   0.49846
 Alpha virt. eigenvalues --    0.50697   0.51288   0.51874   0.55076   0.56639
 Alpha virt. eigenvalues --    0.62137   0.63459   0.63759   0.67899   0.73642
 Alpha virt. eigenvalues --    0.74007   0.74410   0.77192   0.81327   0.84041
 Alpha virt. eigenvalues --    0.85184   0.88549   0.88617   0.90436   0.91249
 Alpha virt. eigenvalues --    0.91551   0.91916   0.92791   0.93741   0.94236
 Alpha virt. eigenvalues --    0.95194   0.96876   0.98757   0.99059   1.02470
 Alpha virt. eigenvalues --    1.06308   1.07534   1.34219   1.38823   1.40762
 Alpha virt. eigenvalues --    1.41756   1.57720   1.57779   1.58127   1.69468
 Alpha virt. eigenvalues --    1.74925   1.79548   1.82185   1.85734   1.90745
 Alpha virt. eigenvalues --    1.91304   1.96142   1.99756   2.00899   2.01692
 Alpha virt. eigenvalues --    2.08227   2.12959   2.13189   2.18669   2.24989
 Alpha virt. eigenvalues --    2.26352   2.26508   2.28341   2.36624   2.40228
 Alpha virt. eigenvalues --    2.47697   2.48182   2.50998   2.59315   2.76500
 Alpha virt. eigenvalues --    2.77007   2.77610   4.14375   4.25769   4.29245
 Alpha virt. eigenvalues --    4.29572   4.47104   4.62807
          Condensed to atoms (all electrons):
              1          2          3          4          5          6
     1  C    5.120795   0.370417   0.372448   0.367987   0.378206  -0.045689
     2  H    0.370417   0.576062  -0.032473  -0.030200  -0.028886  -0.003519
     3  H    0.372448  -0.032473   0.583393  -0.032480  -0.034072   0.005660
     4  H    0.367987  -0.030200  -0.032480   0.584525  -0.028857  -0.002813
     5  C    0.378206  -0.028886  -0.034072  -0.028857   4.862554   0.370660
     6  H   -0.045689  -0.003519   0.005660  -0.002813   0.370660   0.647186
     7  C   -0.046282  -0.005846  -0.005942   0.004765   0.397360  -0.043490
     8  H   -0.006159  -0.000050   0.005766  -0.000065  -0.043490   0.006455
     9  C    0.004807   0.000003   0.000058  -0.000149  -0.046281  -0.006160
    10  H    0.000058  -0.000004   0.000011   0.000000  -0.005942   0.005766
    11  H   -0.000149  -0.000002   0.000000   0.000002   0.004765  -0.000065
    12  H    0.000003  -0.000002  -0.000004  -0.000002  -0.005845  -0.000050
    13  C   -0.056513   0.005347  -0.004736  -0.005110   0.378206  -0.045689
    14  H    0.005347  -0.000197  -0.000040  -0.000010  -0.028885  -0.003519
    15  H   -0.004736  -0.000040   0.004320  -0.000207  -0.034072   0.005660
    16  H   -0.005110  -0.000010  -0.000207   0.004787  -0.028857  -0.002812
    17  C   -0.006264   0.001671  -0.000796   0.000225  -0.046282  -0.006159
    18  H   -0.000796   0.000738   0.000127  -0.000044  -0.005942   0.005766
    19  H    0.001671   0.002628   0.000738  -0.000074  -0.005846  -0.000050
    20  H    0.000225  -0.000074  -0.000044  -0.000001   0.004765  -0.000065
              7          8          9         10         11         12
     1  C   -0.046282  -0.006159   0.004807   0.000058  -0.000149   0.000003
     2  H   -0.005846  -0.000050   0.000003  -0.000004  -0.000002  -0.000002
     3  H   -0.005942   0.005766   0.000058   0.000011   0.000000  -0.000004
     4  H    0.004765  -0.000065  -0.000149   0.000000   0.000002  -0.000002
     5  C    0.397360  -0.043490  -0.046281  -0.005942   0.004765  -0.005845
     6  H   -0.043490   0.006455  -0.006160   0.005766  -0.000065  -0.000050
     7  C    4.862554   0.370660   0.378206  -0.034072  -0.028857  -0.028885
     8  H    0.370660   0.647186  -0.045689   0.005660  -0.002812  -0.003519
     9  C    0.378206  -0.045689   5.120792   0.372448   0.367988   0.370416
    10  H   -0.034072   0.005660   0.372448   0.583393  -0.032480  -0.032472
    11  H   -0.028857  -0.002812   0.367988  -0.032480   0.584524  -0.030200
    12  H   -0.028885  -0.003519   0.370416  -0.032472  -0.030200   0.576062
    13  C   -0.046281  -0.006160  -0.006263  -0.000796   0.000225   0.001672
    14  H   -0.005845  -0.000050   0.001672   0.000738  -0.000074   0.002628
    15  H   -0.005942   0.005766  -0.000796   0.000127  -0.000044   0.000738
    16  H    0.004765  -0.000065   0.000225  -0.000044  -0.000001  -0.000074
    17  C    0.378207  -0.045689  -0.056513  -0.004736  -0.005110   0.005347
    18  H   -0.034072   0.005660  -0.004736   0.004320  -0.000207  -0.000040
    19  H   -0.028886  -0.003519   0.005347  -0.000040  -0.000010  -0.000197
    20  H   -0.028857  -0.002813  -0.005110  -0.000207   0.004787  -0.000010
             13         14         15         16         17         18
     1  C   -0.056513   0.005347  -0.004736  -0.005110  -0.006264  -0.000796
     2  H    0.005347  -0.000197  -0.000040  -0.000010   0.001671   0.000738
     3  H   -0.004736  -0.000040   0.004320  -0.000207  -0.000796   0.000127
     4  H   -0.005110  -0.000010  -0.000207   0.004787   0.000225  -0.000044
     5  C    0.378206  -0.028885  -0.034072  -0.028857  -0.046282  -0.005942
     6  H   -0.045689  -0.003519   0.005660  -0.002812  -0.006159   0.005766
     7  C   -0.046281  -0.005845  -0.005942   0.004765   0.378207  -0.034072
     8  H   -0.006160  -0.000050   0.005766  -0.000065  -0.045689   0.005660
     9  C   -0.006263   0.001672  -0.000796   0.000225  -0.056513  -0.004736
    10  H   -0.000796   0.000738   0.000127  -0.000044  -0.004736   0.004320
    11  H    0.000225  -0.000074  -0.000044  -0.000001  -0.005110  -0.000207
    12  H    0.001672   0.002628   0.000738  -0.000074   0.005347  -0.000040
    13  C    5.120792   0.370416   0.372448   0.367988   0.004807   0.000058
    14  H    0.370416   0.576063  -0.032472  -0.030200   0.000003  -0.000004
    15  H    0.372448  -0.032472   0.583393  -0.032480   0.000058   0.000011
    16  H    0.367988  -0.030200  -0.032480   0.584524  -0.000149   0.000000
    17  C    0.004807   0.000003   0.000058  -0.000149   5.120794   0.372448
    18  H    0.000058  -0.000004   0.000011   0.000000   0.372448   0.583393
    19  H    0.000003  -0.000002  -0.000004  -0.000002   0.370416  -0.032473
    20  H   -0.000149  -0.000002   0.000000   0.000002   0.367987  -0.032480
             19         20
     1  C    0.001671   0.000225
     2  H    0.002628  -0.000074
     3  H    0.000738  -0.000044
     4  H   -0.000074  -0.000001
     5  C   -0.005846   0.004765
     6  H   -0.000050  -0.000065
     7  C   -0.028886  -0.028857
     8  H   -0.003519  -0.002813
     9  C    0.005347  -0.005110
    10  H   -0.000040  -0.000207
    11  H   -0.000010   0.004787
    12  H   -0.000197  -0.000010
    13  C    0.000003  -0.000149
    14  H   -0.000002  -0.000002
    15  H   -0.000004   0.000000
    16  H   -0.000002   0.000002
    17  C    0.370416   0.367987
    18  H   -0.032473  -0.032480
    19  H    0.576063  -0.030200
    20  H   -0.030200   0.584525
 Mulliken atomic charges:
              1
     1  C   -0.450265
     2  H    0.144436
     3  H    0.138273
     4  H    0.137721
     5  C   -0.053259
     6  H    0.112930
     7  C   -0.053259
     8  H    0.112930
     9  C   -0.450265
    10  H    0.138273
    11  H    0.137721
    12  H    0.144436
    13  C   -0.450265
    14  H    0.144435
    15  H    0.138273
    16  H    0.137721
    17  C   -0.450266
    18  H    0.138273
    19  H    0.144436
    20  H    0.137721
 Sum of Mulliken atomic charges =   0.00000
 Mulliken charges with hydrogens summed into heavy atoms:
              1
     1  C   -0.029836
     5  C    0.059672
     7  C    0.059672
     9  C   -0.029835
    13  C   -0.029836
    17  C   -0.029836
 Sum of Mulliken charges with hydrogens summed into heavy atoms =   0.00000
 Electronic spatial extent (au):  <R**2>=            742.2159
 Charge=              0.0000 electrons
 Dipole moment (field-independent basis, Debye):
    X=              0.0000    Y=              0.0000    Z=              0.0000  Tot=              0.0000
 Quadrupole moment (field-independent basis, Debye-Ang):
   XX=            -41.9288   YY=            -42.1324   ZZ=            -41.0810
   XY=              0.0000   XZ=              0.1791   YZ=             -0.0001
 Traceless Quadrupole moment (field-independent basis, Debye-Ang):
   XX=             -0.2148   YY=             -0.4183   ZZ=              0.6331
   XY=              0.0000   XZ=              0.1791   YZ=             -0.0001
 Octapole moment (field-independent basis, Debye-Ang**2):
  XXX=              0.0000  YYY=             -0.0001  ZZZ=              0.0000  XYY=              0.0000
  XXY=              0.0000  XXZ=              0.0000  XZZ=              0.0000  YZZ=              0.0000
  YYZ=              0.0000  XYZ=              0.0000
 Hexadecapole moment (field-independent basis, Debye-Ang**3):
 XXXX=           -535.7851 YYYY=           -388.6787 ZZZZ=            -94.8099 XXXY=             -0.0007
 XXXZ=              7.2486 YYYX=             -0.0001 YYYZ=             -0.0158 ZZZX=             -2.7003
 ZZZY=             -0.0163 XXYY=           -162.6419 XXZZ=           -105.7744 YYZZ=            -81.4608
 XXYZ=             -0.0062 YYXZ=              0.4899 ZZXY=              0.0004
 N-N= 2.622361349937D+02 E-N=-1.071400260697D+03  KE= 2.346385312102D+02
 No NMR shielding tensors so no spin-rotation constants.
 Leave Link  601 at Fri Sep 18 13:26:10 2015, MaxMem=  402653184 cpu:       0.5
 (Enter /share/apps/g09/l701.exe)
 Compute integral first derivatives.
 ... and contract with generalized density number  0.
 Leave Link  701 at Fri Sep 18 13:26:11 2015, MaxMem=  402653184 cpu:       0.6
 (Enter /share/apps/g09/l702.exe)
 L702 exits ... SP integral derivatives will be done elsewhere.
 Leave Link  702 at Fri Sep 18 13:26:11 2015, MaxMem=  402653184 cpu:       0.1
 (Enter /share/apps/g09/l703.exe)
 Compute integral first derivatives, UseDBF=F ICtDFT=           0.
 Integral derivatives from FoFDir, PRISM(SPDF).
 Calling FoFJK, ICntrl=      2127 FMM=F ISym2X=0 I1Cent= 0 IOpClX= 0 NMat=1 NMatS=1 NMatT=0.
 FoFCou: FMM=F IPFlag=           0 FMFlag=      100000 FMFlg1=         800
         NFxFlg=           0 DoJE=F BraDBF=F KetDBF=F FulRan=T
         Omega=  0.000000  0.000000  1.000000  0.000000  0.000000 ICntrl=    2127 IOpCl=  0
         NMat0=    1 NMatS0=    1 NMatT0=    0 NMatD0=    1 NMtDS0=    0 NMtDT0=    0
         I1Cent=           0 NGrid=           0.
 Symmetry not used in FoFCou.
 Leave Link  703 at Fri Sep 18 13:26:44 2015, MaxMem=  402653184 cpu:      45.2
 (Enter /share/apps/g09/l716.exe)
 Dipole        = 5.54484352D-08-2.26751064D-07-1.85493313D-07
 ***** Axes restored to original set *****
 -------------------------------------------------------------------
 Center     Atomic                   Forces (Hartrees/Bohr)
 Number     Number              X              Y              Z
 -------------------------------------------------------------------
      1        6          -0.000307221    0.003280034   -0.004971316
      2        1          -0.001661036    0.000217979    0.000238741
      3        1           0.000449044   -0.001054770    0.002002549
      4        1          -0.000848820   -0.000483210   -0.000485170
      5        6          -0.000429549    0.000000056    0.002526520
      6        1          -0.000223980   -0.000001208    0.009736551
      7        6           0.000429565   -0.000000947   -0.002526537
      8        1           0.000223968    0.000001165   -0.009736556
      9        6           0.000306458   -0.003279139    0.004971064
     10        1          -0.000449187    0.001054860   -0.002002385
     11        1           0.000848553    0.000483173    0.000485277
     12        1           0.001659889   -0.000218440   -0.000238746
     13        6          -0.000306234   -0.003279972   -0.004971920
     14        1          -0.001660152   -0.000217664    0.000238813
     15        1           0.000449139    0.001054794    0.002002614
     16        1          -0.000848613    0.000483440   -0.000485160
     17        6           0.000307373    0.003280616    0.004972590
     18        1          -0.000449049   -0.001054669   -0.002003242
     19        1           0.001661093    0.000217456   -0.000238731
     20        1           0.000848758   -0.000483557    0.000485045
 -------------------------------------------------------------------
 Cartesian Forces:  Max     0.009736556 RMS     0.002525280
 Leave Link  716 at Fri Sep 18 13:26:44 2015, MaxMem=  402653184 cpu:       0.0
 (Enter /share/apps/g09/l103.exe)

 GradGradGradGradGradGradGradGradGradGradGradGradGradGradGradGradGradGrad
 Berny optimization.
 Internal  Forces:  Max     0.009690712 RMS     0.001976619
 Search for a local minimum.
 Step number   1 out of a maximum of  110
 All quantities printed in internal units (Hartrees-Bohrs-Radians)
 RMS Force = .19766D-02 SwitMx=.10000D-02 MixMth= 1
 Mixed Optimization -- RFO/linear search
 Second derivative matrix not updated -- first step.
     Eigenvalues ---    0.00230   0.00295   0.00295   0.00295   0.00295
     Eigenvalues ---    0.03588   0.03588   0.04607   0.04607   0.04835
     Eigenvalues ---    0.04835   0.05355   0.05355   0.05355   0.05355
     Eigenvalues ---    0.05426   0.05426   0.05426   0.05426   0.16000
     Eigenvalues ---    0.16000   0.16000   0.16000   0.16000   0.16000
     Eigenvalues ---    0.16000   0.16000   0.16000   0.16000   0.16000
     Eigenvalues ---    0.16000   0.16398   0.16398   0.16765   0.16765
     Eigenvalues ---    0.27180   0.28910   0.28910   0.28910   0.28910
     Eigenvalues ---    0.31841   0.31841   0.34221   0.34221   0.34221
     Eigenvalues ---    0.34221   0.34233   0.34233   0.34233   0.34234
     Eigenvalues ---    0.34237   0.34237   0.34237   0.342371000.00000
     Eigenvalues --- 1000.000001000.000001000.000001000.000001000.00000
     Eigenvalues --- 1000.000001000.000001000.000001000.000001000.00000
     Eigenvalues --- 1000.000001000.000001000.000001000.000001000.00000
     Eigenvalues --- 1000.000001000.000001000.000001000.000001000.00000
     Eigenvalues --- 1000.000001000.000001000.000001000.000001000.00000
     Eigenvalues --- 1000.000001000.000001000.000001000.000001000.00000
     Eigenvalues --- 1000.000001000.000001000.000001000.000001000.00000
     Eigenvalues --- 1000.000001000.000001000.000001000.000001000.00000
     Eigenvalues --- 1000.000001000.000001000.000001000.000001000.00000
 RFO step:  Lambda=-2.61119741D-03 EMin= 2.30000000D-03
 Linear search not attempted -- first point.
 Iteration  1 RMS(Cart)=  0.03615387 RMS(Int)=  0.00057832
 Iteration  2 RMS(Cart)=  0.00065019 RMS(Int)=  0.00021095
 Iteration  3 RMS(Cart)=  0.00000017 RMS(Int)=  0.00021095
 Variable       Old X    -DE/DX   Delta X   Delta X   Delta X     New X
                                 (Linear)    (Quad)   (Total)
    R1        2.06938  -0.00064   0.00000  -0.00184  -0.00184   2.06754
    R2        2.06931   0.00186   0.00000   0.00539   0.00539   2.07470
    R3        2.06959   0.00098   0.00000   0.00284   0.00284   2.07243
    R4        2.90191   0.00202   0.00000   0.00692   0.00692   2.90882
    R5        2.11137  -0.00969   0.00000  -0.03019  -0.03019   2.08118
    R6        2.93967   0.00237   0.00000   0.00864   0.00864   2.94831
    R7        2.90191   0.00202   0.00000   0.00691   0.00691   2.90882
    R8        2.11137  -0.00969   0.00000  -0.03019  -0.03019   2.08118
    R9        2.90191   0.00202   0.00000   0.00691   0.00691   2.90882
   R10        2.90191   0.00202   0.00000   0.00692   0.00692   2.90882
   R11        2.06932   0.00186   0.00000   0.00539   0.00539   2.07470
   R12        2.06959   0.00098   0.00000   0.00284   0.00284   2.07243
   R13        2.06938  -0.00063   0.00000  -0.00184  -0.00184   2.06754
   R14        2.06938  -0.00064   0.00000  -0.00184  -0.00184   2.06754
   R15        2.06932   0.00186   0.00000   0.00539   0.00539   2.07470
   R16        2.06959   0.00098   0.00000   0.00284   0.00284   2.07243
   R17        2.06931   0.00186   0.00000   0.00539   0.00539   2.07470
   R18        2.06938  -0.00064   0.00000  -0.00184  -0.00184   2.06754
   R19        2.06959   0.00098   0.00000   0.00284   0.00284   2.07243
    A1        1.87799   0.00012   0.00000   0.00395   0.00401   1.88200
    A2        1.87215  -0.00071   0.00000  -0.00196  -0.00195   1.87020
    A3        1.94811   0.00267   0.00000   0.01940   0.01944   1.96756
    A4        1.87384   0.00099   0.00000   0.00042   0.00029   1.87413
    A5        1.94817  -0.00224   0.00000  -0.01505  -0.01508   1.93309
    A6        1.93977  -0.00080   0.00000  -0.00666  -0.00673   1.93305
    A7        1.89177  -0.00003   0.00000  -0.01594  -0.01584   1.87593
    A8        1.94127   0.00250   0.00000   0.02872   0.02838   1.96965
    A9        1.90761  -0.00287   0.00000  -0.00350  -0.00454   1.90307
   A10        1.88874  -0.00216   0.00000  -0.02452  -0.02413   1.86461
   A11        1.89178  -0.00003   0.00000  -0.01595  -0.01585   1.87593
   A12        1.94128   0.00249   0.00000   0.02869   0.02836   1.96963
   A13        1.88874  -0.00216   0.00000  -0.02452  -0.02413   1.86461
   A14        1.94128   0.00249   0.00000   0.02870   0.02836   1.96963
   A15        1.94127   0.00250   0.00000   0.02872   0.02838   1.96965
   A16        1.89178  -0.00003   0.00000  -0.01595  -0.01585   1.87592
   A17        1.89178  -0.00003   0.00000  -0.01594  -0.01585   1.87593
   A18        1.90761  -0.00287   0.00000  -0.00350  -0.00454   1.90307
   A19        1.94817  -0.00224   0.00000  -0.01505  -0.01508   1.93309
   A20        1.93977  -0.00080   0.00000  -0.00666  -0.00672   1.93305
   A21        1.94812   0.00267   0.00000   0.01940   0.01944   1.96755
   A22        1.87384   0.00099   0.00000   0.00043   0.00029   1.87413
   A23        1.87799   0.00012   0.00000   0.00395   0.00401   1.88200
   A24        1.87215  -0.00071   0.00000  -0.00196  -0.00195   1.87020
   A25        1.94812   0.00267   0.00000   0.01940   0.01944   1.96755
   A26        1.94818  -0.00224   0.00000  -0.01505  -0.01508   1.93309
   A27        1.93977  -0.00080   0.00000  -0.00666  -0.00672   1.93305
   A28        1.87798   0.00012   0.00000   0.00395   0.00402   1.88200
   A29        1.87215  -0.00071   0.00000  -0.00195  -0.00195   1.87020
   A30        1.87384   0.00099   0.00000   0.00043   0.00029   1.87413
   A31        1.94818  -0.00224   0.00000  -0.01505  -0.01508   1.93309
   A32        1.94811   0.00267   0.00000   0.01940   0.01944   1.96756
   A33        1.93978  -0.00080   0.00000  -0.00666  -0.00673   1.93305
   A34        1.87798   0.00012   0.00000   0.00395   0.00402   1.88200
   A35        1.87384   0.00099   0.00000   0.00042   0.00029   1.87413
   A36        1.87215  -0.00071   0.00000  -0.00196  -0.00195   1.87020
    D1       -0.98314   0.00002   0.00000   0.02471   0.02475  -0.95839
    D2        1.09122  -0.00116   0.00000   0.00171   0.00170   1.09292
    D3       -3.04174   0.00169   0.00000   0.05494   0.05487  -2.98687
    D4       -3.08560  -0.00043   0.00000   0.01664   0.01675  -3.06885
    D5       -1.01124  -0.00162   0.00000  -0.00636  -0.00630  -1.01754
    D6        1.13898   0.00123   0.00000   0.04687   0.04687   1.18585
    D7        1.10613   0.00037   0.00000   0.03075   0.03076   1.13689
    D8       -3.10269  -0.00082   0.00000   0.00775   0.00771  -3.09498
    D9       -0.95247   0.00203   0.00000   0.06098   0.06088  -0.89159
   D10        1.06543  -0.00009   0.00000   0.01787   0.01819   1.08362
   D11       -3.14157   0.00000   0.00000  -0.00005  -0.00005   3.14156
   D12       -1.01076  -0.00017   0.00000   0.03577   0.03641  -0.97434
   D13       -3.14158   0.00000   0.00000  -0.00003  -0.00003   3.14158
   D14       -1.06539   0.00009   0.00000  -0.01795  -0.01827  -1.08366
   D15        1.06542  -0.00009   0.00000   0.01787   0.01819   1.08362
   D16       -1.06539   0.00009   0.00000  -0.01795  -0.01827  -1.08366
   D17        1.01080   0.00017   0.00000  -0.03587  -0.03651   0.97428
   D18       -3.14157   0.00000   0.00000  -0.00005  -0.00005   3.14156
   D19        3.04172  -0.00169   0.00000  -0.05491  -0.05484   2.98688
   D20       -1.13900  -0.00124   0.00000  -0.04684  -0.04684  -1.18584
   D21        0.95245  -0.00203   0.00000  -0.06095  -0.06085   0.89160
   D22        0.98312  -0.00002   0.00000  -0.02469  -0.02473   0.95839
   D23        3.08558   0.00043   0.00000  -0.01662  -0.01673   3.06885
   D24       -1.10615  -0.00037   0.00000  -0.03073  -0.03074  -1.13689
   D25       -1.09125   0.00116   0.00000  -0.00167  -0.00165  -1.09290
   D26        1.01121   0.00162   0.00000   0.00640   0.00635   1.01756
   D27        3.10267   0.00082   0.00000  -0.00770  -0.00767   3.09500
   D28        1.01122   0.00162   0.00000   0.00640   0.00634   1.01756
   D29        3.10267   0.00082   0.00000  -0.00771  -0.00767   3.09500
   D30       -1.09124   0.00116   0.00000  -0.00167  -0.00166  -1.09290
   D31        3.08558   0.00043   0.00000  -0.01662  -0.01673   3.06885
   D32       -1.10615  -0.00037   0.00000  -0.03073  -0.03074  -1.13689
   D33        0.98312  -0.00002   0.00000  -0.02469  -0.02473   0.95839
   D34       -1.13900  -0.00124   0.00000  -0.04685  -0.04685  -1.18584
   D35        0.95246  -0.00203   0.00000  -0.06095  -0.06085   0.89160
   D36        3.04173  -0.00169   0.00000  -0.05491  -0.05484   2.98688
   D37       -1.01124  -0.00162   0.00000  -0.00636  -0.00631  -1.01754
   D38        1.09122  -0.00116   0.00000   0.00171   0.00170   1.09292
   D39       -3.10269  -0.00082   0.00000   0.00775   0.00771  -3.09498
   D40       -3.08560  -0.00043   0.00000   0.01664   0.01675  -3.06885
   D41       -0.98314   0.00002   0.00000   0.02471   0.02475  -0.95839
   D42        1.10613   0.00037   0.00000   0.03075   0.03076   1.13689
   D43        1.13898   0.00123   0.00000   0.04687   0.04686   1.18585
   D44       -3.04174   0.00169   0.00000   0.05494   0.05487  -2.98688
   D45       -0.95247   0.00203   0.00000   0.06097   0.06088  -0.89159
         Item               Value     Threshold  Converged?
 Maximum Force            0.009691     0.000015     NO 
 RMS     Force            0.001977     0.000010     NO 
 Maximum Displacement     0.116266     0.000060     NO 
 RMS     Displacement     0.036100     0.000040     NO 
 Predicted change in Energy=-1.390657D-03
 GradGradGradGradGradGradGradGradGradGradGradGradGradGradGradGradGradGrad

 Leave Link  103 at Fri Sep 18 13:26:44 2015, MaxMem=  402653184 cpu:       0.1
 (Enter /share/apps/g09/l202.exe)
                          Input orientation:                          
 ---------------------------------------------------------------------
 Center     Atomic      Atomic             Coordinates (Angstroms)
 Number     Number       Type             X           Y           Z
 ---------------------------------------------------------------------
      1          6           0       -1.528790    1.253446    0.048172
      2          1           0       -1.075008    2.176499   -0.324783
      3          1           0       -1.633493    1.346417    1.137092
      4          1           0       -2.539183    1.196042   -0.374356
      5          6           0       -0.713034    0.000049   -0.316424
      6          1           0       -0.576985    0.000175   -1.409301
      7          6           0        0.713034   -0.000020    0.316424
      8          1           0        0.576985   -0.000133    1.409301
      9          6           0        1.528753   -1.253446   -0.048153
     10          1           0        1.633458   -1.346432   -1.137072
     11          1           0        2.539144   -1.196071    0.374380
     12          1           0        1.074935   -2.176479    0.324808
     13          6           0       -1.528753   -1.253455    0.047880
     14          1           0       -1.074936   -2.176408   -0.325283
     15          1           0       -1.633458   -1.346680    1.136778
     16          1           0       -2.539145   -1.195987   -0.374641
     17          6           0        1.528791    1.253455   -0.047898
     18          1           0        1.633496    1.346664   -1.136798
     19          1           0        1.075010    2.176427    0.325257
     20          1           0        2.539183    1.195959    0.374619
 ---------------------------------------------------------------------
                    Distance matrix (angstroms):
                    1          2          3          4          5
     1  C    0.000000
     2  H    1.094093   0.000000
     3  H    1.097886   1.771446   0.000000
     4  H    1.096685   1.762827   1.768435   0.000000
     5  C    1.539283   2.206361   2.184642   2.183707   0.000000
     6  H    2.144958   2.482054   3.068011   2.520203   1.101312
     7  C    2.582424   2.888854   2.827115   3.533363   1.560181
     8  H    2.803288   3.236334   2.602597   3.784543   2.154594
     9  C    3.955042   4.315161   4.261912   4.759674   2.582407
    10  H    4.261922   4.517371   4.805854   4.945385   2.827100
    11  H    4.759689   4.992510   4.945390   5.663233   3.533352
    12  H    4.315124   4.898228   4.517321   4.992451   2.888820
    13  C    2.506901   3.479849   2.820761   2.683148   1.539282
    14  H    3.479849   4.352907   3.854974   3.676933   2.206358
    15  H    2.820758   3.854973   2.693097   3.093428   2.184641
    16  H    2.683153   3.676934   3.093439   2.392029   2.183707
    17  C    3.059090   2.776409   3.378296   4.081456   2.582424
    18  H    3.378298   2.946861   3.980426   4.244437   2.827116
    19  H    2.776409   2.246137   2.946859   3.809593   2.888854
    20  H    4.081455   3.809593   4.244435   5.133299   3.533363
                    6          7          8          9         10
     6  H    0.000000
     7  C    2.154594   0.000000
     8  H    3.045679   1.101312   0.000000
     9  C    2.803287   1.539282   2.144954   0.000000
    10  H    2.602598   2.184641   3.068007   1.097886   0.000000
    11  H    3.784545   2.183707   2.520198   1.096685   1.768436
    12  H    3.236324   2.206358   2.482047   1.094094   1.771446
    13  C    2.144953   2.582407   2.803287   3.059013   3.378214
    14  H    2.482048   2.888821   3.236325   2.776303   2.946737
    15  H    3.068008   2.827100   2.602598   3.378214   3.980344
    16  H    2.520198   3.533352   3.784545   4.081383   4.244355
    17  C    2.803288   1.539283   2.144958   2.506901   2.820757
    18  H    2.602598   2.184642   3.068011   2.820760   2.693096
    19  H    3.236333   2.206361   2.482055   3.479849   3.854972
    20  H    3.784544   2.183706   2.520203   2.683149   3.093428
                   11         12         13         14         15
    11  H    0.000000
    12  H    1.762830   0.000000
    13  C    4.081383   2.776302   0.000000
    14  H    3.809484   2.246011   1.094094   0.000000
    15  H    4.244355   2.946736   1.097886   1.771445   0.000000
    16  H    5.133230   3.809483   1.096685   1.762829   1.768436
    17  C    2.683153   3.479848   3.955041   4.315124   4.261922
    18  H    3.093438   3.854973   4.261912   4.517322   4.805854
    19  H    3.676934   4.352907   4.315161   4.898229   4.517372
    20  H    2.392029   3.676934   4.759673   4.992452   4.945385
                   16         17         18         19         20
    16  H    0.000000
    17  C    4.759688   0.000000
    18  H    4.945391   1.097886   0.000000
    19  H    4.992509   1.094093   1.771445   0.000000
    20  H    5.663233   1.096685   1.768435   1.762827   0.000000
 Stoichiometry    C6H14
 Framework group  C1[X(C6H14)]
 Deg. of freedom    54
 Full point group                 C1      NOp   1
 Largest Abelian subgroup         C1      NOp   1
 Largest concise Abelian subgroup C1      NOp   1
                         Standard orientation:                         
 ---------------------------------------------------------------------
 Center     Atomic      Atomic             Coordinates (Angstroms)
 Number     Number       Type             X           Y           Z
 ---------------------------------------------------------------------
      1          6           0        1.528602   -1.253447    0.053721
      2          1           0        1.076211   -2.176459   -0.321020
      3          1           0        1.629254   -1.346537    1.143013
      4          1           0        2.540559   -1.195996   -0.365040
      5          6           0        0.714206   -0.000011   -0.313770
      6          1           0        0.582223   -0.000017   -1.407145
      7          6           0       -0.714206   -0.000011    0.313769
      8          1           0       -0.582223   -0.000018    1.407145
      9          6           0       -1.528564    1.253454   -0.053703
     10          1           0       -1.629218    1.346559   -1.142993
     11          1           0       -2.540520    1.196032    0.365063
     12          1           0       -1.076137    2.176446    0.321045
     13          6           0        1.528563    1.253454    0.053703
     14          1           0        1.076137    2.176447   -0.321045
     15          1           0        1.629217    1.346560    1.142993
     16          1           0        2.540520    1.196033   -0.365063
     17          6           0       -1.528601   -1.253447   -0.053721
     18          1           0       -1.629255   -1.346537   -1.143013
     19          1           0       -1.076210   -2.176460    0.321019
     20          1           0       -2.540558   -1.195997    0.365041
 ---------------------------------------------------------------------
 Rotational constants (GHZ):      4.2011525      2.8204897      1.8440479
 Leave Link  202 at Fri Sep 18 13:26:44 2015, MaxMem=  402653184 cpu:       0.0
 (Enter /share/apps/g09/l301.exe)
 Standard basis: 6-31G(d) (6D, 7F)
 Ernie: Thresh=  0.10000D-02 Tol=  0.10000D-05 Strict=F.
 There are   118 symmetry adapted basis functions of A   symmetry.
 Integral buffers will be    131072 words long.
 Raffenetti 2 integral format.
 Two-electron integral symmetry is turned on.
   118 basis functions,   224 primitive gaussians,   118 cartesian basis functions
    25 alpha electrons       25 beta electrons
       nuclear repulsion energy       260.9447356143 Hartrees.
 IExCor=  402 DFT=T Ex+Corr=B3LYP ExCW=0 ScaHFX=  0.200000
 ScaDFX=  0.800000  0.720000  1.000000  0.810000 ScalE2=  1.000000  1.000000
 IRadAn=      5 IRanWt=     -1 IRanGd=            0 ICorTp=0
 NAtoms=   20 NActive=   20 NUniq=   20 SFac= 7.50D-01 NAtFMM=   80 NAOKFM=F Big=F
 Leave Link  301 at Fri Sep 18 13:26:44 2015, MaxMem=  402653184 cpu:       0.1
 (Enter /share/apps/g09/l302.exe)
 NPDir=0 NMtPBC=     1 NCelOv=     1 NCel=       1 NClECP=     1 NCelD=      1
         NCelK=      1 NCelE2=     1 NClLst=     1 CellRange=     0.0.
 One-electron integrals computed using PRISM.
 NBasis=   118 RedAO= T  NBF=   118
 NBsUse=   118 1.00D-06 NBFU=   118
 Precomputing XC quadrature grid using
 IXCGrd= 2 IRadAn=           5 IRanWt=          -1 IRanGd=           0 AccXCQ= 1.00D-10.
 NRdTot=    1644 NPtTot=      439424 NUsed=      451205 NTot=      451237
 NSgBfM=   118   118   118   118   118 NAtAll=    20    20.
 Leave Link  302 at Fri Sep 18 13:26:46 2015, MaxMem=  402653184 cpu:       2.2
 (Enter /share/apps/g09/l303.exe)
 DipDrv:  MaxL=1.
 Leave Link  303 at Fri Sep 18 13:26:46 2015, MaxMem=  402653184 cpu:       0.1
 (Enter /share/apps/g09/l401.exe)
 Initial guess read from the read-write file.
 B after Tr=     0.000000    0.000000    0.000000
         Rot=    1.000000    0.000000    0.000000    0.000000 Ang=   0.00 deg.
 Guess basis will be translated and rotated to current coordinates.
 Initial guess orbital symmetries:
       Occupied  (A) (A) (A) (A) (A) (A) (A) (A) (A) (A) (A) (A)
                 (A) (A) (A) (A) (A) (A) (A) (A) (A) (A) (A) (A)
                 (A)
       Virtual   (A) (A) (A) (A) (A) (A) (A) (A) (A) (A) (A) (A)
                 (A) (A) (A) (A) (A) (A) (A) (A) (A) (A) (A) (A)
                 (A) (A) (A) (A) (A) (A) (A) (A) (A) (A) (A) (A)
                 (A) (A) (A) (A) (A) (A) (A) (A) (A) (A) (A) (A)
                 (A) (A) (A) (A) (A) (A) (A) (A) (A) (A) (A) (A)
                 (A) (A) (A) (A) (A) (A) (A) (A) (A) (A) (A) (A)
                 (A) (A) (A) (A) (A) (A) (A) (A) (A) (A) (A) (A)
                 (A) (A) (A) (A) (A) (A) (A) (A) (A)
 The electronic state of the initial guess is 1-A.
 Generating alternative initial guess.
 Harris functional with IExCor=  402 diagonalized for initial guess.
 ExpMin= 1.61D-01 ExpMax= 3.05D+03 ExpMxC= 4.57D+02 IAcc=3 IRadAn=         5 AccDes= 0.00D+00
 HarFok:  IExCor=  402 AccDes= 0.00D+00 IRadAn=         5 IDoV= 1
 ScaDFX=  1.000000  1.000000  1.000000  1.000000
 FoFCou: FMM=F IPFlag=           0 FMFlag=      100000 FMFlg1=           0
         NFxFlg=           0 DoJE=T BraDBF=F KetDBF=T FulRan=T
         Omega=  0.000000  0.000000  1.000000  0.000000  0.000000 ICntrl=     500 IOpCl=  0
         NMat0=    1 NMatS0=    1 NMatT0=    0 NMatD0=    1 NMtDS0=    0 NMtDT0=    0
         I1Cent=           4 NGrid=           0.
 Petite list used in FoFCou.
 Harris En= -237.177806879508    
 Leave Link  401 at Fri Sep 18 13:26:59 2015, MaxMem=  402653184 cpu:      18.1
 (Enter /share/apps/g09/l502.exe)
 Closed shell SCF:
 Requested convergence on RMS density matrix=1.00D-08 within 128 cycles.
 Requested convergence on MAX density matrix=1.00D-06.
 Requested convergence on             energy=1.00D-06.
 No special actions if energy rises.
 Using DIIS extrapolation, IDIIS=  1040.
 Integral symmetry usage will be decided dynamically.
       451012 words used for storage of precomputed grid.
 Keep R1 ints in memory in canonical form, NReq=26105067.
 IEnd=      512556 IEndB=      512556 NGot=   402653184 MDV=   377520552
 LenX=   377520552 LenY=   377506187
 Symmetry not used in FoFDir.
 MinBra= 0 MaxBra= 2 Meth= 1.
 IRaf=       0 NMat=   1 IRICut=       1 DoRegI=T DoRafI=F ISym2E= 0 JSym2E=0.
 Integral accuracy reduced to 1.0D-05 until final iterations.

 Cycle   1  Pass 0  IDiag  1:
 E= -227.964636126192    
 DIIS: error= 1.03D-01 at cycle   1 NSaved=   1.
 NSaved= 1 IEnMin= 1 EnMin= -227.964636126192     IErMin= 1 ErrMin= 1.03D-01
 ErrMax= 1.03D-01 EMaxC= 1.00D-01 BMatC= 1.76D+00 BMatP= 1.76D+00
 IDIUse=3 WtCom= 0.00D+00 WtEn= 1.00D+00
 Coeff-Com:  0.100D+01
 Coeff-En:   0.100D+01
 Coeff:      0.100D+01
 Recover alternate guess density for next cycle.
 RMSDP=3.92D-02 MaxDP=5.52D-01              OVMax= 0.00D+00

 Cycle   2  Pass 0  IDiag  1:
 E= -236.792388755531     Delta-E=       -8.827752629340 Rises=F Damp=F
 DIIS: error= 5.81D-02 at cycle   2 NSaved=   2.
 NSaved= 2 IEnMin= 2 EnMin= -236.792388755531     IErMin= 2 ErrMin= 5.81D-02
 ErrMax= 5.81D-02 EMaxC= 1.00D-01 BMatC= 2.58D-01 BMatP= 1.76D+00
 IDIUse=3 WtCom= 4.19D-01 WtEn= 5.81D-01
 Coeff-Com:  0.752D-01 0.925D+00
 Coeff-En:   0.000D+00 0.100D+01
 Coeff:      0.315D-01 0.969D+00
 Gap=     0.333 Goal=   None    Shift=    0.000
 RMSDP=1.03D-02 MaxDP=1.39D-01 DE=-8.83D+00 OVMax= 1.90D-01

 Cycle   3  Pass 0  IDiag  1:
 E= -236.683364530647     Delta-E=        0.109024224884 Rises=F Damp=F
 DIIS: error= 6.54D-02 at cycle   3 NSaved=   3.
 NSaved= 3 IEnMin= 2 EnMin= -236.792388755531     IErMin= 2 ErrMin= 5.81D-02
 ErrMax= 6.54D-02 EMaxC= 1.00D-01 BMatC= 3.62D-01 BMatP= 2.58D-01
 IDIUse=2 WtCom= 0.00D+00 WtEn= 1.00D+00
 Coeff-En:   0.000D+00 0.576D+00 0.424D+00
 Coeff:      0.000D+00 0.576D+00 0.424D+00
 Gap=     0.393 Goal=   None    Shift=    0.000
 RMSDP=5.91D-03 MaxDP=8.73D-02 DE= 1.09D-01 OVMax= 1.01D-01

 Cycle   4  Pass 0  IDiag  1:
 E= -237.080011813832     Delta-E=       -0.396647283185 Rises=F Damp=F
 DIIS: error= 4.85D-03 at cycle   4 NSaved=   4.
 NSaved= 4 IEnMin= 4 EnMin= -237.080011813832     IErMin= 4 ErrMin= 4.85D-03
 ErrMax= 4.85D-03 EMaxC= 1.00D-01 BMatC= 2.38D-03 BMatP= 2.58D-01
 IDIUse=3 WtCom= 9.52D-01 WtEn= 4.85D-02
 Coeff-Com: -0.848D-03 0.127D+00 0.610D-01 0.813D+00
 Coeff-En:   0.000D+00 0.000D+00 0.000D+00 0.100D+01
 Coeff:     -0.807D-03 0.121D+00 0.580D-01 0.822D+00
 Gap=     0.381 Goal=   None    Shift=    0.000
 RMSDP=5.63D-04 MaxDP=8.95D-03 DE=-3.97D-01 OVMax= 1.18D-02

 Cycle   5  Pass 0  IDiag  1:
 E= -237.081516618329     Delta-E=       -0.001504804497 Rises=F Damp=F
 DIIS: error= 2.80D-03 at cycle   5 NSaved=   5.
 NSaved= 5 IEnMin= 5 EnMin= -237.081516618329     IErMin= 5 ErrMin= 2.80D-03
 ErrMax= 2.80D-03 EMaxC= 1.00D-01 BMatC= 8.33D-04 BMatP= 2.38D-03
 IDIUse=3 WtCom= 9.72D-01 WtEn= 2.80D-02
 Coeff-Com: -0.214D-03 0.209D-01-0.726D-02 0.445D+00 0.542D+00
 Coeff-En:   0.000D+00 0.000D+00 0.000D+00 0.208D+00 0.792D+00
 Coeff:     -0.208D-03 0.204D-01-0.706D-02 0.438D+00 0.549D+00
 Gap=     0.386 Goal=   None    Shift=    0.000
 RMSDP=2.45D-04 MaxDP=5.18D-03 DE=-1.50D-03 OVMax= 5.82D-03

 Cycle   6  Pass 0  IDiag  1:
 E= -237.082306782843     Delta-E=       -0.000790164515 Rises=F Damp=F
 DIIS: error= 2.56D-04 at cycle   6 NSaved=   6.
 NSaved= 6 IEnMin= 6 EnMin= -237.082306782843     IErMin= 6 ErrMin= 2.56D-04
 ErrMax= 2.56D-04 EMaxC= 1.00D-01 BMatC= 1.08D-05 BMatP= 8.33D-04
 IDIUse=3 WtCom= 9.97D-01 WtEn= 2.56D-03
 Coeff-Com:  0.504D-04 0.137D-02-0.496D-02 0.941D-01 0.172D+00 0.738D+00
 Coeff-En:   0.000D+00 0.000D+00 0.000D+00 0.000D+00 0.000D+00 0.100D+01
 Coeff:      0.503D-04 0.137D-02-0.495D-02 0.938D-01 0.171D+00 0.738D+00
 Gap=     0.385 Goal=   None    Shift=    0.000
 RMSDP=2.65D-05 MaxDP=5.20D-04 DE=-7.90D-04 OVMax= 6.51D-04

 Cycle   7  Pass 0  IDiag  1:
 E= -237.082316730471     Delta-E=       -0.000009947628 Rises=F Damp=F
 DIIS: error= 1.94D-05 at cycle   7 NSaved=   7.
 NSaved= 7 IEnMin= 7 EnMin= -237.082316730471     IErMin= 7 ErrMin= 1.94D-05
 ErrMax= 1.94D-05 EMaxC= 1.00D-01 BMatC= 6.91D-08 BMatP= 1.08D-05
 IDIUse=1 WtCom= 1.00D+00 WtEn= 0.00D+00
 Coeff-Com:  0.632D-05 0.142D-03-0.857D-03 0.998D-02 0.199D-01 0.108D+00
 Coeff-Com:  0.863D+00
 Coeff:      0.632D-05 0.142D-03-0.857D-03 0.998D-02 0.199D-01 0.108D+00
 Coeff:      0.863D+00
 Gap=     0.385 Goal=   None    Shift=    0.000
 RMSDP=3.29D-06 MaxDP=3.44D-05 DE=-9.95D-06 OVMax= 5.93D-05

 Initial convergence to 1.0D-05 achieved.  Increase integral accuracy.
 Cycle   8  Pass 1  IDiag  1:
 E= -237.082354866167     Delta-E=       -0.000038135696 Rises=F Damp=F
 DIIS: error= 1.97D-05 at cycle   1 NSaved=   1.
 NSaved= 1 IEnMin= 1 EnMin= -237.082354866167     IErMin= 1 ErrMin= 1.97D-05
 ErrMax= 1.97D-05 EMaxC= 1.00D-01 BMatC= 1.73D-08 BMatP= 1.73D-08
 IDIUse=1 WtCom= 1.00D+00 WtEn= 0.00D+00
 Coeff-Com:  0.100D+01
 Coeff:      0.100D+01
 Gap=     0.385 Goal=   None    Shift=    0.000
 RMSDP=3.29D-06 MaxDP=3.44D-05 DE=-3.81D-05 OVMax= 6.92D-05

 Cycle   9  Pass 1  IDiag  1:
 E= -237.082354892701     Delta-E=       -0.000000026534 Rises=F Damp=F
 DIIS: error= 2.60D-06 at cycle   2 NSaved=   2.
 NSaved= 2 IEnMin= 2 EnMin= -237.082354892701     IErMin= 2 ErrMin= 2.60D-06
 ErrMax= 2.60D-06 EMaxC= 1.00D-01 BMatC= 7.88D-10 BMatP= 1.73D-08
 IDIUse=1 WtCom= 1.00D+00 WtEn= 0.00D+00
 Coeff-Com:  0.518D-01 0.948D+00
 Coeff:      0.518D-01 0.948D+00
 Gap=     0.385 Goal=   None    Shift=    0.000
 RMSDP=5.28D-07 MaxDP=6.55D-06 DE=-2.65D-08 OVMax= 1.07D-05

 Cycle  10  Pass 1  IDiag  1:
 E= -237.082354893100     Delta-E=       -0.000000000399 Rises=F Damp=F
 DIIS: error= 2.46D-06 at cycle   3 NSaved=   3.
 NSaved= 3 IEnMin= 3 EnMin= -237.082354893100     IErMin= 3 ErrMin= 2.46D-06
 ErrMax= 2.46D-06 EMaxC= 1.00D-01 BMatC= 4.85D-10 BMatP= 7.88D-10
 IDIUse=1 WtCom= 1.00D+00 WtEn= 0.00D+00
 Coeff-Com: -0.148D-01 0.437D+00 0.578D+00
 Coeff:     -0.148D-01 0.437D+00 0.578D+00
 Gap=     0.385 Goal=   None    Shift=    0.000
 RMSDP=2.06D-07 MaxDP=2.98D-06 DE=-3.99D-10 OVMax= 4.51D-06

 Cycle  11  Pass 1  IDiag  1:
 E= -237.082354893584     Delta-E=       -0.000000000484 Rises=F Damp=F
 DIIS: error= 3.74D-07 at cycle   4 NSaved=   4.
 NSaved= 4 IEnMin= 4 EnMin= -237.082354893584     IErMin= 4 ErrMin= 3.74D-07
 ErrMax= 3.74D-07 EMaxC= 1.00D-01 BMatC= 1.91D-11 BMatP= 4.85D-10
 IDIUse=1 WtCom= 1.00D+00 WtEn= 0.00D+00
 Coeff-Com: -0.903D-02 0.144D+00 0.247D+00 0.618D+00
 Coeff:     -0.903D-02 0.144D+00 0.247D+00 0.618D+00
 Gap=     0.385 Goal=   None    Shift=    0.000
 RMSDP=4.43D-08 MaxDP=6.15D-07 DE=-4.84D-10 OVMax= 9.11D-07

 Cycle  12  Pass 1  IDiag  1:
 E= -237.082354893603     Delta-E=       -0.000000000020 Rises=F Damp=F
 DIIS: error= 3.93D-08 at cycle   5 NSaved=   5.
 NSaved= 5 IEnMin= 5 EnMin= -237.082354893603     IErMin= 5 ErrMin= 3.93D-08
 ErrMax= 3.93D-08 EMaxC= 1.00D-01 BMatC= 2.12D-13 BMatP= 1.91D-11
 IDIUse=1 WtCom= 1.00D+00 WtEn= 0.00D+00
 Coeff-Com: -0.126D-02 0.137D-01 0.264D-01 0.127D+00 0.834D+00
 Coeff:     -0.126D-02 0.137D-01 0.264D-01 0.127D+00 0.834D+00
 Gap=     0.385 Goal=   None    Shift=    0.000
 RMSDP=7.02D-09 MaxDP=9.80D-08 DE=-1.96D-11 OVMax= 1.51D-07

 SCF Done:  E(RB3LYP) =  -237.082354894     A.U. after   12 cycles
             Convg  =    0.7022D-08             -V/T =  2.0105
 KE= 2.346137923171D+02 PE=-1.068795854297D+03 EE= 3.361549714724D+02
 Leave Link  502 at Fri Sep 18 13:29:19 2015, MaxMem=  402653184 cpu:     187.7
 (Enter /share/apps/g09/l701.exe)
 Compute integral first derivatives.
 ... and contract with generalized density number  0.
 Leave Link  701 at Fri Sep 18 13:29:19 2015, MaxMem=  402653184 cpu:       0.6
 (Enter /share/apps/g09/l702.exe)
 L702 exits ... SP integral derivatives will be done elsewhere.
 Leave Link  702 at Fri Sep 18 13:29:19 2015, MaxMem=  402653184 cpu:       0.0
 (Enter /share/apps/g09/l703.exe)
 Compute integral first derivatives, UseDBF=F ICtDFT=           0.
 Integral derivatives from FoFDir, PRISM(SPDF).
 Calling FoFJK, ICntrl=      2127 FMM=F ISym2X=0 I1Cent= 0 IOpClX= 0 NMat=1 NMatS=1 NMatT=0.
 FoFCou: FMM=F IPFlag=           0 FMFlag=      100000 FMFlg1=         800
         NFxFlg=           0 DoJE=F BraDBF=F KetDBF=F FulRan=T
         Omega=  0.000000  0.000000  1.000000  0.000000  0.000000 ICntrl=    2127 IOpCl=  0
         NMat0=    1 NMatS0=    1 NMatT0=    0 NMatD0=    1 NMtDS0=    0 NMtDT0=    0
         I1Cent=           0 NGrid=           0.
 Symmetry not used in FoFCou.
 Leave Link  703 at Fri Sep 18 13:29:54 2015, MaxMem=  402653184 cpu:      46.5
 (Enter /share/apps/g09/l716.exe)
 Dipole        =-4.82689799D-09-1.01308966D-06 6.64554567D-09
 ***** Axes restored to original set *****
 -------------------------------------------------------------------
 Center     Atomic                   Forces (Hartrees/Bohr)
 Number     Number              X              Y              Z
 -------------------------------------------------------------------
      1        6           0.000943508    0.000163148    0.000788923
      2        1           0.000734028    0.000025283    0.000113149
      3        1          -0.000151189    0.000308341    0.000354986
      4        1           0.000354135   -0.000471847   -0.000038258
      5        6           0.001912796    0.000000296   -0.001865637
      6        1           0.000182641    0.000000411   -0.000783788
      7        6          -0.001912808   -0.000000833    0.001865632
      8        1          -0.000182648    0.000000285    0.000783791
      9        6          -0.000942180   -0.000163831   -0.000788480
     10        1           0.000151313   -0.000308435   -0.000355113
     11        1          -0.000354051    0.000471819    0.000038140
     12        1          -0.000732662   -0.000024570   -0.000113215
     13        6           0.000942044   -0.000164533    0.000788519
     14        1           0.000732670   -0.000024468    0.000113198
     15        1          -0.000151317   -0.000308423    0.000355041
[...]
                          Input orientation:                          
 ---------------------------------------------------------------------
 Center     Atomic      Atomic             Coordinates (Angstroms)
 Number     Number       Type             X           Y           Z
 ---------------------------------------------------------------------
      1          6           0       -1.517617    1.254738    0.050963
      2          1           0       -1.053322    2.175914   -0.313886
      3          1           0       -1.627442    1.342818    1.140279
      4          1           0       -2.525393    1.204167   -0.377780
      5          6           0       -0.707721    0.000039   -0.319462
      6          1           0       -0.570129    0.000162   -1.413130
      7          6           0        0.707721   -0.000031    0.319462
      8          1           0        0.570129   -0.000147    1.413130
      9          6           0        1.517610   -1.254737   -0.050956
     10          1           0        1.627439   -1.342821   -1.140270
     11          1           0        2.525385   -1.204171    0.377792
     12          1           0        1.053306   -2.175908    0.313895
     13          6           0       -1.517611   -1.254747    0.050682
     14          1           0       -1.053308   -2.175838   -0.314370
     15          1           0       -1.627440   -1.343069    1.139977
     16          1           0       -2.525385   -1.204087   -0.378055
     17          6           0        1.517618    1.254748   -0.050689
     18          1           0        1.627444    1.343066   -1.139985
     19          1           0        1.053324    2.175845    0.314362
     20          1           0        2.525394    1.204083    0.378043
 ---------------------------------------------------------------------
                    Distance matrix (angstroms):
                    1          2          3          4          5
     1  C    0.000000
     2  H    1.094189   0.000000
     3  H    1.098375   1.771513   0.000000
     4  H    1.096353   1.765041   1.769192   0.000000
     5  C    1.538641   2.203157   2.186272   2.181114   0.000000
     6  H    2.148317   2.485097   3.072545   2.518856   1.102290
     7  C    2.568787   2.870042   2.816021   3.519839   1.552964
     8  H    2.790864   3.217673   2.589850   3.773591   2.152853
     9  C    3.939601   4.295136   4.249434   4.743301   2.568785
    10  H    4.249439   4.500098   4.796646   4.930979   2.816021
    11  H    4.743303   4.970969   4.930975   5.646356   3.519838
    12  H    4.295127   4.875484   4.500084   4.970957   2.870035
    13  C    2.509485   3.481079   2.818977   2.691740   1.538641
    14  H    3.481079   4.351752   3.850530   3.687207   2.203157
    15  H    2.818974   3.850529   2.685887   3.098115   2.186272
    16  H    2.691742   3.687207   3.098123   2.408254   2.181114
    17  C    3.036937   2.743638   3.364159   4.056537   2.568787
    18  H    3.364159   2.926188   3.974152   4.224489   2.816021
    19  H    2.743638   2.198329   2.926188   3.772324   2.870042
    20  H    4.056537   3.772324   4.224489   5.107027   3.519839
                    6          7          8          9         10
     6  H    0.000000
     7  C    2.152853   0.000000
     8  H    3.047612   1.102290   0.000000
     9  C    2.790868   1.538641   2.148316   0.000000
    10  H    2.589858   2.186272   3.072545   1.098375   0.000000
    11  H    3.773596   2.181114   2.518854   1.096353   1.769192
    12  H    3.217676   2.203157   2.485098   1.094189   1.771513
    13  C    2.148316   2.568785   2.790868   3.036922   3.364144
    14  H    2.485098   2.870035   3.217676   2.743617   2.926163
    15  H    3.072545   2.816021   2.589858   3.364144   3.974137
    16  H    2.518854   3.519838   3.773596   4.056522   4.224473
    17  C    2.790864   1.538641   2.148317   2.509485   2.818974
    18  H    2.589850   2.186272   3.072545   2.818977   2.685887
    19  H    3.217673   2.203157   2.485097   3.481079   3.850529
    20  H    3.773591   2.181114   2.518856   2.691740   3.098115
                   11         12         13         14         15
    11  H    0.000000
    12  H    1.765041   0.000000
    13  C    4.056522   2.743617   0.000000
    14  H    3.772302   2.198304   1.094189   0.000000
    15  H    4.224473   2.926163   1.098375   1.771513   0.000000
    16  H    5.107013   3.772302   1.096353   1.765041   1.769192
    17  C    2.691742   3.481079   3.939601   4.295127   4.249439
    18  H    3.098123   3.850530   4.249434   4.500084   4.796646
    19  H    3.687207   4.351752   4.295136   4.875484   4.500098
    20  H    2.408254   3.687207   4.743301   4.970957   4.930979
                   16         17         18         19         20
    16  H    0.000000
    17  C    4.743303   0.000000
    18  H    4.930975   1.098375   0.000000
    19  H    4.970969   1.094189   1.771513   0.000000
    20  H    5.646356   1.096353   1.769192   1.765041   0.000000
 Stoichiometry    C6H14
 Framework group  C2[X(C6H14)]
 Deg. of freedom    28
 Full point group                 C2      NOp   2
 Largest Abelian subgroup         C2      NOp   2
 Largest concise Abelian subgroup C2      NOp   2
                         Standard orientation:                         
 ---------------------------------------------------------------------
 Center     Atomic      Atomic             Coordinates (Angstroms)
 Number     Number       Type             X           Y           Z
 ---------------------------------------------------------------------
      1          6           0        0.000004    1.518469   -1.254742
      2          1           0       -0.349202    1.042219   -2.175878
      3          1           0        1.085023    1.664691   -1.342941
      4          1           0       -0.462224    2.511330   -1.204123
      5          6           0       -0.342970    0.696632   -0.000002
      6          1           0       -1.431421    0.522513   -0.000006
      7          6           0        0.342970   -0.696632   -0.000002
      8          1           0        1.431421   -0.522513   -0.000006
      9          6           0        0.000004   -1.518461    1.254744
     10          1           0       -1.085015   -1.664687    1.342947
     11          1           0        0.462235   -2.511321    1.204131
     12          1           0        0.349211   -1.042203    2.175875
     13          6           0       -0.000004    1.518461    1.254744
     14          1           0       -0.349211    1.042203    2.175875
     15          1           0        1.085015    1.664687    1.342947
     16          1           0       -0.462235    2.511321    1.204131
     17          6           0       -0.000004   -1.518469   -1.254742
     18          1           0       -1.085023   -1.664691   -1.342941
     19          1           0        0.349202   -1.042219   -2.175878
     20          1           0        0.462224   -2.511330   -1.204123
 ---------------------------------------------------------------------
 Rotational constants (GHZ):      4.1913513      2.8568727      1.8589265
 Leave Link  202 at Fri Sep 18 13:52:16 2015, MaxMem=  402653184 cpu:       0.0
 (Enter /share/apps/g09/l601.exe)
 Copying SCF densities to generalized density rwf, IOpCl= 0 IROHF=0.

 **********************************************************************

            Population analysis using the SCF density.

 **********************************************************************

 Orbital symmetries:
       Occupied  (A) (B) (B) (A) (B) (A) (A) (B) (A) (B) (A) (B)
                 (B) (A) (A) (A) (B) (B) (A) (B) (A) (B) (A) (B)
                 (A)
       Virtual   (A) (B) (B) (A) (A) (B) (A) (A) (B) (A) (A) (B)
                 (B) (B) (B) (A) (A) (B) (B) (A) (A) (B) (B) (A)
                 (B) (B) (A) (A) (B) (A) (A) (B) (B) (B) (A) (A)
                 (A) (B) (A) (B) (B) (B) (A) (A) (A) (B) (B) (A)
                 (A) (B) (B) (A) (B) (B) (B) (A) (A) (A) (B) (A)
                 (B) (B) (A) (A) (B) (A) (B) (A) (B) (A) (A) (B)
                 (B) (A) (B) (A) (A) (B) (A) (B) (B) (A) (B) (A)
                 (A) (B) (B) (A) (B) (B) (A) (A) (B)
 The electronic state is 1-A.
 Alpha  occ. eigenvalues --  -10.18292 -10.18273 -10.16768 -10.16768 -10.16767
 Alpha  occ. eigenvalues --  -10.16767  -0.81124  -0.74151  -0.68615  -0.66279
 Alpha  occ. eigenvalues --   -0.60292  -0.54324  -0.45147  -0.44959  -0.42539
 Alpha  occ. eigenvalues --   -0.41624  -0.38760  -0.38358  -0.37339  -0.35833
 Alpha  occ. eigenvalues --   -0.35052  -0.33586  -0.31391  -0.30731  -0.30210
 Alpha virt. eigenvalues --    0.08375   0.11728   0.12948   0.13407   0.14207
 Alpha virt. eigenvalues --    0.16116   0.16416   0.17885   0.17995   0.18740
 Alpha virt. eigenvalues --    0.18869   0.20584   0.20628   0.23733   0.23786
 Alpha virt. eigenvalues --    0.25390   0.26828   0.27882   0.28062   0.49482
 Alpha virt. eigenvalues --    0.50431   0.51463   0.51673   0.54991   0.56500
 Alpha virt. eigenvalues --    0.62309   0.63134   0.63450   0.67424   0.73754
 Alpha virt. eigenvalues --    0.73804   0.74257   0.77893   0.80935   0.83959
 Alpha virt. eigenvalues --    0.85244   0.88776   0.88806   0.89802   0.91569
 Alpha virt. eigenvalues --    0.91721   0.91801   0.92668   0.93659   0.94282
 Alpha virt. eigenvalues --    0.95591   0.96320   0.98834   0.98955   1.01597
 Alpha virt. eigenvalues --    1.05558   1.06258   1.33077   1.38408   1.41104
 Alpha virt. eigenvalues --    1.41780   1.56950   1.57580   1.57906   1.69339
 Alpha virt. eigenvalues --    1.75376   1.79395   1.81620   1.84687   1.91747
 Alpha virt. eigenvalues --    1.92039   1.96212   2.01205   2.01303   2.02798
 Alpha virt. eigenvalues --    2.07506   2.12110   2.13077   2.18073   2.24879
 Alpha virt. eigenvalues --    2.25795   2.26149   2.28308   2.35801   2.41305
 Alpha virt. eigenvalues --    2.45996   2.48292   2.52164   2.59522   2.75755
 Alpha virt. eigenvalues --    2.76999   2.77612   4.13633   4.25464   4.29096
 Alpha virt. eigenvalues --    4.29280   4.47133   4.62548
          Condensed to atoms (all electrons):
              1          2          3          4          5          6
     1  C    5.118846   0.370583   0.371261   0.368664   0.378428  -0.047007
     2  H    0.370583   0.573691  -0.032066  -0.030495  -0.027416  -0.003736
     3  H    0.371261  -0.032066   0.585548  -0.032085  -0.035194   0.005945
     4  H    0.368664  -0.030495  -0.032085   0.583744  -0.029183  -0.002848
     5  C    0.378428  -0.027416  -0.035194  -0.029183   4.858093   0.370569
     6  H   -0.047007  -0.003736   0.005945  -0.002848   0.370569   0.650124
     7  C   -0.044148  -0.005102  -0.006048   0.004611   0.400525  -0.046177
     8  H   -0.006372  -0.000094   0.005970  -0.000078  -0.046177   0.007282
     9  C    0.004645  -0.000005   0.000035  -0.000141  -0.044149  -0.006372
    10  H    0.000035  -0.000004   0.000011   0.000000  -0.006047   0.005970
    11  H   -0.000141  -0.000001   0.000000   0.000002   0.004611  -0.000078
    12  H   -0.000005  -0.000002  -0.000004  -0.000001  -0.005103  -0.000094
    13  C   -0.055924   0.005165  -0.004545  -0.005452   0.378428  -0.047007
    14  H    0.005165  -0.000186  -0.000056   0.000014  -0.027416  -0.003736
    15  H   -0.004545  -0.000056   0.004287  -0.000205  -0.035194   0.005945
    16  H   -0.005452   0.000014  -0.000205   0.005169  -0.029183  -0.002849
    17  C   -0.005240   0.001985  -0.000756   0.000180  -0.044148  -0.006372
    18  H   -0.000756   0.000633   0.000128  -0.000041  -0.006048   0.005970
    19  H    0.001985   0.002209   0.000633  -0.000061  -0.005102  -0.000094
    20  H    0.000180  -0.000061  -0.000041  -0.000001   0.004611  -0.000078
              7          8          9         10         11         12
     1  C   -0.044148  -0.006372   0.004645   0.000035  -0.000141  -0.000005
     2  H   -0.005102  -0.000094  -0.000005  -0.000004  -0.000001  -0.000002
     3  H   -0.006048   0.005970   0.000035   0.000011   0.000000  -0.000004
     4  H    0.004611  -0.000078  -0.000141   0.000000   0.000002  -0.000001
     5  C    0.400525  -0.046177  -0.044149  -0.006047   0.004611  -0.005103
     6  H   -0.046177   0.007282  -0.006372   0.005970  -0.000078  -0.000094
     7  C    4.858093   0.370569   0.378428  -0.035194  -0.029183  -0.027416
     8  H    0.370569   0.650124  -0.047007   0.005945  -0.002849  -0.003736
     9  C    0.378428  -0.047007   5.118847   0.371261   0.368664   0.370584
    10  H   -0.035194   0.005945   0.371261   0.585548  -0.032085  -0.032066
    11  H   -0.029183  -0.002849   0.368664  -0.032085   0.583745  -0.030495
    12  H   -0.027416  -0.003736   0.370584  -0.032066  -0.030495   0.573691
    13  C   -0.044149  -0.006372  -0.005240  -0.000756   0.000180   0.001985
    14  H   -0.005103  -0.000094   0.001985   0.000633  -0.000061   0.002209
    15  H   -0.006047   0.005970  -0.000756   0.000128  -0.000041   0.000633
    16  H    0.004611  -0.000078   0.000180  -0.000041  -0.000001  -0.000061
    17  C    0.378428  -0.047007  -0.055924  -0.004545  -0.005452   0.005165
    18  H   -0.035194   0.005945  -0.004545   0.004287  -0.000205  -0.000056
    19  H   -0.027416  -0.003736   0.005165  -0.000056   0.000014  -0.000186
    20  H   -0.029183  -0.002848  -0.005452  -0.000205   0.005169   0.000014
             13         14         15         16         17         18
     1  C   -0.055924   0.005165  -0.004545  -0.005452  -0.005240  -0.000756
     2  H    0.005165  -0.000186  -0.000056   0.000014   0.001985   0.000633
     3  H   -0.004545  -0.000056   0.004287  -0.000205  -0.000756   0.000128
     4  H   -0.005452   0.000014  -0.000205   0.005169   0.000180  -0.000041
     5  C    0.378428  -0.027416  -0.035194  -0.029183  -0.044148  -0.006048
     6  H   -0.047007  -0.003736   0.005945  -0.002849  -0.006372   0.005970
     7  C   -0.044149  -0.005103  -0.006047   0.004611   0.378428  -0.035194
     8  H   -0.006372  -0.000094   0.005970  -0.000078  -0.047007   0.005945
     9  C   -0.005240   0.001985  -0.000756   0.000180  -0.055924  -0.004545
    10  H   -0.000756   0.000633   0.000128  -0.000041  -0.004545   0.004287
    11  H    0.000180  -0.000061  -0.000041  -0.000001  -0.005452  -0.000205
    12  H    0.001985   0.002209   0.000633  -0.000061   0.005165  -0.000056
    13  C    5.118847   0.370584   0.371261   0.368664   0.004645   0.000035
    14  H    0.370584   0.573691  -0.032066  -0.030495  -0.000005  -0.000004
    15  H    0.371261  -0.032066   0.585548  -0.032085   0.000035   0.000011
    16  H    0.368664  -0.030495  -0.032085   0.583745  -0.000141   0.000000
    17  C    0.004645  -0.000005   0.000035  -0.000141   5.118846   0.371261
    18  H    0.000035  -0.000004   0.000011   0.000000   0.371261   0.585548
    19  H   -0.000005  -0.000002  -0.000004  -0.000001   0.370583  -0.032066
    20  H   -0.000141  -0.000001   0.000000   0.000002   0.368664  -0.032085
             19         20
     1  C    0.001985   0.000180
     2  H    0.002209  -0.000061
     3  H    0.000633  -0.000041
     4  H   -0.000061  -0.000001
     5  C   -0.005102   0.004611
     6  H   -0.000094  -0.000078
     7  C   -0.027416  -0.029183
     8  H   -0.003736  -0.002848
     9  C    0.005165  -0.005452
    10  H   -0.000056  -0.000205
    11  H    0.000014   0.005169
    12  H   -0.000186   0.000014
    13  C   -0.000005  -0.000141
    14  H   -0.000002  -0.000001
    15  H   -0.000004   0.000000
    16  H   -0.000001   0.000002
    17  C    0.370583   0.368664
    18  H   -0.032066  -0.032085
    19  H    0.573691  -0.030495
    20  H   -0.030495   0.583744
 Mulliken atomic charges:
              1
     1  C   -0.450202
     2  H    0.144946
     3  H    0.137181
     4  H    0.138206
     5  C   -0.054905
     6  H    0.114643
     7  C   -0.054905
     8  H    0.114643
     9  C   -0.450202
    10  H    0.137181
    11  H    0.138206
    12  H    0.144946
    13  C   -0.450202
    14  H    0.144946
    15  H    0.137181
    16  H    0.138206
    17  C   -0.450202
    18  H    0.137181
    19  H    0.144946
    20  H    0.138206
 Sum of Mulliken atomic charges =   0.00000
 Mulliken charges with hydrogens summed into heavy atoms:
              1
     1  C   -0.029869
     5  C    0.059738
     7  C    0.059738
     9  C   -0.029869
    13  C   -0.029869
    17  C   -0.029869
 Sum of Mulliken charges with hydrogens summed into heavy atoms =   0.00000
 Electronic spatial extent (au):  <R**2>=            748.8294
 Charge=              0.0000 electrons
 Dipole moment (field-independent basis, Debye):
    X=              0.0000    Y=              0.0000    Z=              0.0000  Tot=              0.0000
 Quadrupole moment (field-independent basis, Debye-Ang):
   XX=            -41.1500   YY=            -41.8649   ZZ=            -42.0234
   XY=             -0.2363   XZ=              0.0000   YZ=              0.0000
 Traceless Quadrupole moment (field-independent basis, Debye-Ang):
   XX=              0.5295   YY=             -0.1855   ZZ=             -0.3440
   XY=             -0.2363   XZ=              0.0000   YZ=              0.0000
 Octapole moment (field-independent basis, Debye-Ang**2):
  XXX=              0.0000  YYY=              0.0000  ZZZ=              0.0000  XYY=              0.0000
  XXY=              0.0000  XXZ=              0.0000  XZZ=              0.0000  YZZ=              0.0000
  YYZ=              0.0000  XYZ=              0.0000
 Hexadecapole moment (field-independent basis, Debye-Ang**3):
 XXXX=            -94.7892 YYYY=           -546.1882 ZZZZ=           -387.7004 XXXY=             10.7002
 XXXZ=              0.0000 YYYX=              0.1252 YYYZ=              0.0000 ZZZX=              0.0000
 ZZZY=              0.0000 XXYY=           -106.7933 XXZZ=            -81.3079 YYZZ=           -164.6339
 XXYZ=              0.0000 YYXZ=              0.0000 ZZXY=              2.0512
 N-N= 2.615090386636D+02 E-N=-1.069938363496D+03  KE= 2.346307428653D+02
 Symmetry A    KE= 1.181790383829D+02
 Symmetry B    KE= 1.164517044824D+02
 No NMR shielding tensors so no spin-rotation constants.
 Leave Link  601 at Fri Sep 18 13:52:17 2015, MaxMem=  402653184 cpu:       0.5
 (Enter /share/apps/g09/l9999.exe)
 1\1\GINC-COMPUTE-0-15\FOpt\RB3LYP\6-31G(d)\C6H14\HETANJIN\18-Sep-2015\
 0\\#p B3LYP/6-31G(d) opt=tight int=ultrafine\\using B3LYP/6-31G(d) to 
 do opt and freq calc.\\0,1\C,-1.5176171657,1.2547384699,0.0509634552\H
 ,-1.0533218073,2.1759139707,-0.3138863677\H,-1.6274424115,1.3428181981
 ,1.1402785725\H,-2.5253932098,1.2041670526,-0.3777799291\C,-0.70772073
 96,0.0000392606,-0.3194617821\H,-0.5701290899,0.0001619969,-1.41313036
 22\C,0.7077209399,-0.0000310501,0.3194618829\H,0.5701292902,-0.0001471
 294,1.4131304637\C,1.5176102209,-1.25473694,-0.05095561\H,1.627439291,
 -1.3428210841,-1.1402699683\H,2.5253847906,-1.2041713554,0.3777919145\
 H,1.0533062837,-2.1759078572,0.313895215\C,-1.5176109473,-1.2547469206
 ,0.0506816055\H,-1.0533076905,-2.1758384554,-0.3143704452\H,-1.6274400
 826,-1.3430689475,1.1399766953\H,-2.5253854797,-1.204086931,-0.3780548
 624\C,1.5176182927,1.2547484523,-0.0506892505\H,1.6274436037,1.3430660
 634,-1.1399851004\H,1.0533236147,2.1758445708,0.3143617989\H,2.5253942
 994,1.2040826307,0.3780430759\\Version=EM64L-G09RevA.01\State=1-A\HF=-
 237.0825128\RMSD=1.716e-09\RMSF=5.156e-06\Dipole=0.,0.0000003,0.\Quadr
 upole=-0.1255435,-0.2557534,0.3812968,-0.0000211,0.1930516,-0.0000697\
 PG=C02 [X(C6H14)]\\@


 MAN IS A SINGULAR CREATURE.  HE HAS A SET OF GIFTS
 WHICH MAKE HIM UNIQUE AMONG THE ANIMALS: SO THAT, 
 UNLIKE THEM, HE IS NOT A FIGURE IN THE LANDSCAPE --
 HE IS A SHAPER OF THE LANDSCAPE.

                       -- JACOB BRONOWSKI
 Job cpu time:  0 days  0 hours 38 minutes 50.8 seconds.
 File lengths (MBytes):  RWF=     15 Int=      0 D2E=      0 Chk=      2 Scr=      1
 Normal termination of Gaussian 09 at Fri Sep 18 13:52:17 2015.
