 Entering Gaussian System, Link 0=/share/apps/g09/g09
 Input=C6H14_1_2_opt_B3L.gjf
 Output=C6H14_1_2_opt_B3L.log
 Initial command:
 /share/apps/g09/l1.exe /state/partition1/Gau-15943.inp -scrdir=/state/partition1/
 Entering Link 1 = /share/apps/g09/l1.exe PID=     15951.
  
 Copyright (c) 1988,1990,1992,1993,1995,1998,2003,2009, Gaussian, Inc.
                  All Rights Reserved.
  
 This is part of the Gaussian(R) 09 program.  It is based on
 the Gaussian(R) 03 system (copyright 2003, Gaussian, Inc.),
 the Gaussian(R) 98 system (copyright 1998, Gaussian, Inc.),
 the Gaussian(R) 94 system (copyright 1995, Gaussian, Inc.),
 the Gaussian 92(TM) system (copyright 1992, Gaussian, Inc.),
 the Gaussian 90(TM) system (copyright 1990, Gaussian, Inc.),
 the Gaussian 88(TM) system (copyright 1988, Gaussian, Inc.),
 the Gaussian 86(TM) system (copyright 1986, Carnegie Mellon
 University), and the Gaussian 82(TM) system (copyright 1983,
 Carnegie Mellon University). Gaussian is a federally registered
 trademark of Gaussian, Inc.
  
 This software contains proprietary and confidential information,
 including trade secrets, belonging to Gaussian, Inc.
  
 This software is provided under written license and may be
 used, copied, transmitted, or stored only in accord with that
 written license.
  
 The following legend is applicable only to US Government
 contracts under FAR:
  
                    RESTRICTED RIGHTS LEGEND
  
 Use, reproduction and disclosure by the US Government is
 subject to restrictions as set forth in subparagraphs (a)
 and (c) of the Commercial Computer Software - Restricted
 Rights clause in FAR 52.227-19.
  
 Gaussian, Inc.
 340 Quinnipiac St., Bldg. 40, Wallingford CT 06492
  
  
 ---------------------------------------------------------------
 Warning -- This program may not be used in any manner that
 competes with the business of Gaussian, Inc. or will provide
 assistance to any competitor of Gaussian, Inc.  The licensee
 of this program is prohibited from giving any competitor of
 Gaussian, Inc. access to this program.  By using this program,
 the user acknowledges that Gaussian, Inc. is engaged in the
 business of creating and licensing software in the field of
 computational chemistry and represents and warrants to the
 licensee that it is not a competitor of Gaussian, Inc. and that
 it will not use this program in any manner prohibited above.
 ---------------------------------------------------------------
  

 Cite this work as:
 Gaussian 09, Revision A.01,
 M. J. Frisch, G. W. Trucks, H. B. Schlegel, G. E. Scuseria, 
 M. A. Robb, J. R. Cheeseman, G. Scalmani, V. Barone, B. Mennucci, 
 G. A. Petersson, H. Nakatsuji, M. Caricato, X. Li, H. P. Hratchian, 
 A. F. Izmaylov, J. Bloino, G. Zheng, J. L. Sonnenberg, M. Hada, 
 M. Ehara, K. Toyota, R. Fukuda, J. Hasegawa, M. Ishida, T. Nakajima, 
 Y. Honda, O. Kitao, H. Nakai, T. Vreven, J. A. Montgomery, Jr., 
 J. E. Peralta, F. Ogliaro, M. Bearpark, J. J. Heyd, E. Brothers, 
 K. N. Kudin, V. N. Staroverov, R. Kobayashi, J. Normand, 
 K. Raghavachari, A. Rendell, J. C. Burant, S. S. Iyengar, J. Tomasi, 
 M. Cossi, N. Rega, J. M. Millam, M. Klene, J. E. Knox, J. B. Cross, 
 V. Bakken, C. Adamo, J. Jaramillo, R. Gomperts, R. E. Stratmann, 
 O. Yazyev, A. J. Austin, R. Cammi, C. Pomelli, J. W. Ochterski, 
 R. L. Martin, K. Morokuma, V. G. Zakrzewski, G. A. Voth, 
 P. Salvador, J. J. Dannenberg, S. Dapprich, A. D. Daniels, 
 O. Farkas, J. B. Foresman, J. V. Ortiz, J. Cioslowski, 
 and D. J. Fox, Gaussian, Inc., Wallingford CT, 2009.
 
 ******************************************
 Gaussian 09:  EM64L-G09RevA.01  8-May-2009
                 4-Oct-2015 
 ******************************************
 %mem=6GB
 %nprocshared=4
 Will use up to    4 processors via shared memory.
 ----------------------------------------------
 #p B3LYP/6-31G(d) opt=tight int=ultrafine freq
 ----------------------------------------------
 1/7=10,14=-1,18=20,19=15,26=3,38=1/1,3;
 2/9=110,12=2,17=6,18=5,40=1/2;
 3/5=1,6=6,7=1,11=2,16=1,25=1,30=1,71=1,74=-5,75=-5/1,2,3;
 4//1;
 5/5=2,38=5/2;
 6/7=2,8=2,9=2,10=2,28=1/1;
 7//1,2,3,16;
 1/7=10,14=-1,18=20,19=15/3(2);
 2/9=110/2;
 99//99;
 2/9=110/2;
 3/5=1,6=6,7=1,11=2,16=1,25=1,30=1,71=1,74=-5,75=-5/1,2,3;
 4/5=5,16=3/1;
 5/5=2,38=5/2;
 7//1,2,3,16;
 1/7=10,14=-1,18=20,19=15/3(-5);
 2/9=110/2;
 6/7=2,8=2,9=2,10=2,19=2,28=1/1;
 99/9=1/99;
 Leave Link    1 at Sun Oct  4 11:28:17 2015, MaxMem=  805306368 cpu:       0.2
 (Enter /share/apps/g09/l101.exe)
 ---------------------------------------------
 using B3LYP/6-31G(d) to do opt and freq calc.
 ---------------------------------------------
 Symbolic Z-matrix:
 Charge =  0 Multiplicity = 1
 C                     3.22469  -0.20857   0. 
 H                     3.31482  -0.85122  -0.88471 
 H                     3.31482  -0.85122   0.88471 
 H                     4.07839   0.47921  0. 
 C                     1.89315   0.54945   0. 
 H                     1.84803   1.20976   0.87796 
 H                     1.84803   1.20976  -0.87796 
 C                     0.66904  -0.37514   0. 
 H                     0.71502  -1.03648   0.87843 
 H                     0.71502  -1.03648  -0.87843 
 C                    -0.66904   0.37514   0. 
 H                    -0.71502   1.03648  -0.87843 
 H                    -0.71502   1.03648   0.87843 
 C                    -1.89315  -0.54945   0. 
 H                    -1.84803  -1.20976   0.87796 
 H                    -1.84803  -1.20976  -0.87796 
 C                    -3.22469   0.20857   0. 
 H                    -3.31482   0.85122  -0.88471 
 H                    -4.07839  -0.47921   0. 
 H                    -3.31482   0.85122   0.88471 
 
 NAtoms=     20 NQM=     20 NQMF=      0 NMic=      0 NMicF=      0 NTot=     20.
                    Isotopes and Nuclear Properties:
 (Nuclear quadrupole moments (NQMom) in fm**2, nuclear magnetic moments (NMagM)
  in nuclear magnetons)

  Atom         1           2           3           4           5           6           7           8           9          10
 IAtWgt=          12           1           1           1          12           1           1          12           1           1
 AtmWgt=  12.0000000   1.0078250   1.0078250   1.0078250  12.0000000   1.0078250   1.0078250  12.0000000   1.0078250   1.0078250
 NucSpn=           0           1           1           1           0           1           1           0           1           1
 AtZEff=   0.0000000   0.0000000   0.0000000   0.0000000   0.0000000   0.0000000   0.0000000   0.0000000   0.0000000   0.0000000
 NQMom=    0.0000000   0.0000000   0.0000000   0.0000000   0.0000000   0.0000000   0.0000000   0.0000000   0.0000000   0.0000000
 NMagM=    0.0000000   2.7928460   2.7928460   2.7928460   0.0000000   2.7928460   2.7928460   0.0000000   2.7928460   2.7928460

  Atom        11          12          13          14          15          16          17          18          19          20
 IAtWgt=          12           1           1          12           1           1          12           1           1           1
 AtmWgt=  12.0000000   1.0078250   1.0078250  12.0000000   1.0078250   1.0078250  12.0000000   1.0078250   1.0078250   1.0078250
 NucSpn=           0           1           1           0           1           1           0           1           1           1
 AtZEff=   0.0000000   0.0000000   0.0000000   0.0000000   0.0000000   0.0000000   0.0000000   0.0000000   0.0000000   0.0000000
 NQMom=    0.0000000   0.0000000   0.0000000   0.0000000   0.0000000   0.0000000   0.0000000   0.0000000   0.0000000   0.0000000
 NMagM=    0.0000000   2.7928460   2.7928460   0.0000000   2.7928460   2.7928460   0.0000000   2.7928460   2.7928460   2.7928460
 Leave Link  101 at Sun Oct  4 11:28:18 2015, MaxMem=  805306368 cpu:       0.3
 (Enter /share/apps/g09/l103.exe)

 GradGradGradGradGradGradGradGradGradGradGradGradGradGradGradGradGradGrad
 Berny optimization.
 Initialization pass.
                           ----------------------------
                           !    Initial Parameters    !
                           ! (Angstroms and Degrees)  !
 --------------------------                            --------------------------
 ! Name  Definition              Value          Derivative Info.                !
 --------------------------------------------------------------------------------
 ! R1    R(1,2)                  1.0972         estimate D2E/DX2                !
 ! R2    R(1,3)                  1.0972         estimate D2E/DX2                !
 ! R3    R(1,4)                  1.0963         estimate D2E/DX2                !
 ! R4    R(1,5)                  1.5322         estimate D2E/DX2                !
 ! R5    R(5,6)                  1.0995         estimate D2E/DX2                !
 ! R6    R(5,7)                  1.0995         estimate D2E/DX2                !
 ! R7    R(5,8)                  1.534          estimate D2E/DX2                !
 ! R8    R(8,9)                  1.1005         estimate D2E/DX2                !
 ! R9    R(8,10)                 1.1005         estimate D2E/DX2                !
 ! R10   R(8,11)                 1.5341         estimate D2E/DX2                !
 ! R11   R(11,12)                1.1005         estimate D2E/DX2                !
 ! R12   R(11,13)                1.1005         estimate D2E/DX2                !
 ! R13   R(11,14)                1.534          estimate D2E/DX2                !
 ! R14   R(14,15)                1.0995         estimate D2E/DX2                !
 ! R15   R(14,16)                1.0995         estimate D2E/DX2                !
 ! R16   R(14,17)                1.5322         estimate D2E/DX2                !
 ! R17   R(17,18)                1.0972         estimate D2E/DX2                !
 ! R18   R(17,19)                1.0963         estimate D2E/DX2                !
 ! R19   R(17,20)                1.0972         estimate D2E/DX2                !
 ! A1    A(2,1,3)              107.4794         estimate D2E/DX2                !
 ! A2    A(2,1,4)              107.6677         estimate D2E/DX2                !
 ! A3    A(2,1,5)              111.1716         estimate D2E/DX2                !
 ! A4    A(3,1,4)              107.6677         estimate D2E/DX2                !
 ! A5    A(3,1,5)              111.1716         estimate D2E/DX2                !
 ! A6    A(4,1,5)              111.4918         estimate D2E/DX2                !
 ! A7    A(1,5,6)              109.4378         estimate D2E/DX2                !
 ! A8    A(1,5,7)              109.4377         estimate D2E/DX2                !
 ! A9    A(1,5,8)              113.284          estimate D2E/DX2                !
 ! A10   A(6,5,7)              105.9778         estimate D2E/DX2                !
 ! A11   A(6,5,8)              109.2215         estimate D2E/DX2                !
 ! A12   A(7,5,8)              109.2215         estimate D2E/DX2                !
 ! A13   A(5,8,9)              109.1988         estimate D2E/DX2                !
 ! A14   A(5,8,10)             109.1988         estimate D2E/DX2                !
 ! A15   A(5,8,11)             113.6562         estimate D2E/DX2                !
 ! A16   A(9,8,10)             105.9172         estimate D2E/DX2                !
 ! A17   A(9,8,11)             109.2902         estimate D2E/DX2                !
 ! A18   A(10,8,11)            109.2902         estimate D2E/DX2                !
 ! A19   A(8,11,12)            109.2902         estimate D2E/DX2                !
 ! A20   A(8,11,13)            109.2902         estimate D2E/DX2                !
 ! A21   A(8,11,14)            113.6562         estimate D2E/DX2                !
 ! A22   A(12,11,13)           105.9173         estimate D2E/DX2                !
 ! A23   A(12,11,14)           109.1988         estimate D2E/DX2                !
 ! A24   A(13,11,14)           109.1988         estimate D2E/DX2                !
 ! A25   A(11,14,15)           109.2215         estimate D2E/DX2                !
 ! A26   A(11,14,16)           109.2215         estimate D2E/DX2                !
 ! A27   A(11,14,17)           113.284          estimate D2E/DX2                !
 ! A28   A(15,14,16)           105.9778         estimate D2E/DX2                !
 ! A29   A(15,14,17)           109.4378         estimate D2E/DX2                !
 ! A30   A(16,14,17)           109.4377         estimate D2E/DX2                !
 ! A31   A(14,17,18)           111.1716         estimate D2E/DX2                !
 ! A32   A(14,17,19)           111.4918         estimate D2E/DX2                !
 ! A33   A(14,17,20)           111.1716         estimate D2E/DX2                !
 ! A34   A(18,17,19)           107.6677         estimate D2E/DX2                !
 ! A35   A(18,17,20)           107.4795         estimate D2E/DX2                !
 ! A36   A(19,17,20)           107.6677         estimate D2E/DX2                !
 ! D1    D(2,1,5,6)           -178.0146         estimate D2E/DX2                !
 ! D2    D(2,1,5,7)            -62.2878         estimate D2E/DX2                !
 ! D3    D(2,1,5,8)             59.8488         estimate D2E/DX2                !
 ! D4    D(3,1,5,6)             62.2877         estimate D2E/DX2                !
 ! D5    D(3,1,5,7)            178.0146         estimate D2E/DX2                !
 ! D6    D(3,1,5,8)            -59.8489         estimate D2E/DX2                !
 ! D7    D(4,1,5,6)            -57.8635         estimate D2E/DX2                !
 ! D8    D(4,1,5,7)             57.8634         estimate D2E/DX2                !
 ! D9    D(4,1,5,8)            179.9999         estimate D2E/DX2                !
 ! D10   D(1,5,8,9)             57.6943         estimate D2E/DX2                !
 ! D11   D(1,5,8,10)           -57.6943         estimate D2E/DX2                !
 ! D12   D(1,5,8,11)           180.0            estimate D2E/DX2                !
 ! D13   D(6,5,8,9)            -64.5627         estimate D2E/DX2                !
 ! D14   D(6,5,8,10)          -179.9513         estimate D2E/DX2                !
 ! D15   D(6,5,8,11)            57.743          estimate D2E/DX2                !
 ! D16   D(7,5,8,9)            179.9513         estimate D2E/DX2                !
 ! D17   D(7,5,8,10)            64.5627         estimate D2E/DX2                !
 ! D18   D(7,5,8,11)           -57.743          estimate D2E/DX2                !
 ! D19   D(5,8,11,12)           57.7448         estimate D2E/DX2                !
 ! D20   D(5,8,11,13)          -57.7448         estimate D2E/DX2                !
 ! D21   D(5,8,11,14)          180.0            estimate D2E/DX2                !
 ! D22   D(9,8,11,12)          180.0            estimate D2E/DX2                !
 ! D23   D(9,8,11,13)           64.5104         estimate D2E/DX2                !
 ! D24   D(9,8,11,14)          -57.7448         estimate D2E/DX2                !
 ! D25   D(10,8,11,12)         -64.5104         estimate D2E/DX2                !
 ! D26   D(10,8,11,13)         180.0            estimate D2E/DX2                !
 ! D27   D(10,8,11,14)          57.7448         estimate D2E/DX2                !
 ! D28   D(8,11,14,15)          57.743          estimate D2E/DX2                !
 ! D29   D(8,11,14,16)         -57.743          estimate D2E/DX2                !
 ! D30   D(8,11,14,17)         180.0            estimate D2E/DX2                !
 ! D31   D(12,11,14,15)       -179.9513         estimate D2E/DX2                !
 ! D32   D(12,11,14,16)         64.5627         estimate D2E/DX2                !
 ! D33   D(12,11,14,17)        -57.6943         estimate D2E/DX2                !
 ! D34   D(13,11,14,15)        -64.5627         estimate D2E/DX2                !
 ! D35   D(13,11,14,16)        179.9513         estimate D2E/DX2                !
 ! D36   D(13,11,14,17)         57.6943         estimate D2E/DX2                !
 ! D37   D(11,14,17,18)         59.8489         estimate D2E/DX2                !
 ! D38   D(11,14,17,19)        180.0            estimate D2E/DX2                !
 ! D39   D(11,14,17,20)        -59.8489         estimate D2E/DX2                !
 ! D40   D(15,14,17,18)       -178.0145         estimate D2E/DX2                !
 ! D41   D(15,14,17,19)        -57.8634         estimate D2E/DX2                !
 ! D42   D(15,14,17,20)         62.2877         estimate D2E/DX2                !
 ! D43   D(16,14,17,18)        -62.2877         estimate D2E/DX2                !
 ! D44   D(16,14,17,19)         57.8635         estimate D2E/DX2                !
 ! D45   D(16,14,17,20)        178.0146         estimate D2E/DX2                !
 --------------------------------------------------------------------------------
 Trust Radius=3.00D-01 FncErr=1.00D-07 GrdErr=1.00D-06
 Number of steps in this run= 110 maximum allowed number of steps= 120.
 GradGradGradGradGradGradGradGradGradGradGradGradGradGradGradGradGradGrad

 Leave Link  103 at Sun Oct  4 11:28:18 2015, MaxMem=  805306368 cpu:       0.0
 (Enter /share/apps/g09/l202.exe)
                          Input orientation:                          
 ---------------------------------------------------------------------
 Center     Atomic      Atomic             Coordinates (Angstroms)
 Number     Number       Type             X           Y           Z
 ---------------------------------------------------------------------
      1          6           0        3.224688   -0.208571    0.000000
      2          1           0        3.314817   -0.851224   -0.884711
      3          1           0        3.314818   -0.851223    0.884712
      4          1           0        4.078391    0.479205   -0.000001
      5          6           0        1.893150    0.549446    0.000000
      6          1           0        1.848031    1.209762    0.877958
      7          1           0        1.848031    1.209761   -0.877958
      8          6           0        0.669036   -0.375136    0.000000
      9          1           0        0.715022   -1.036478    0.878429
     10          1           0        0.715022   -1.036478   -0.878429
     11          6           0       -0.669036    0.375136    0.000000
     12          1           0       -0.715022    1.036478   -0.878429
     13          1           0       -0.715022    1.036478    0.878430
     14          6           0       -1.893150   -0.549446    0.000000
     15          1           0       -1.848031   -1.209762    0.877958
     16          1           0       -1.848031   -1.209761   -0.877958
     17          6           0       -3.224688    0.208571    0.000000
     18          1           0       -3.314817    0.851223   -0.884712
     19          1           0       -4.078391   -0.479205    0.000000
     20          1           0       -3.314817    0.851223    0.884712
 ---------------------------------------------------------------------
                    Distance matrix (angstroms):
                    1          2          3          4          5
     1  C    0.000000
     2  H    1.097196   0.000000
     3  H    1.097197   1.769423   0.000000
     4  H    1.096287   1.770819   1.770819   0.000000
     5  C    1.532183   2.183055   2.183055   2.186370   0.000000
     6  H    2.162791   3.083201   2.529658   2.505800   1.099483
     7  H    2.162790   2.529657   3.083200   2.505799   1.099483
     8  C    2.561074   2.830111   2.830112   3.514769   1.534049
     9  H    2.784868   3.146731   2.606396   3.792253   2.162123
    10  H    2.784868   2.606395   3.146732   3.792253   2.162123
    11  C    3.937233   4.261192   4.261193   4.748568   2.568108
    12  H    4.224109   4.450063   4.786616   4.904997   2.794888
    13  H    4.224110   4.786615   4.450063   4.904998   2.794888
    14  C    5.129177   5.291191   5.291192   6.059490   3.942541
    15  H    5.244585   5.467225   5.175288   6.224620   4.226353
    16  H    5.244585   5.175287   5.467226   6.224620   4.226352
    17  C    6.462852   6.683637   6.683638   7.308092   5.129177
    18  H    6.683637   6.844733   7.069741   7.455242   5.291191
    19  H    7.308092   7.455242   7.455243   8.212895   6.059490
    20  H    6.683637   7.069740   6.844734   7.455242   5.291191
                    6          7          8          9         10
     6  H    0.000000
     7  H    1.755916   0.000000
     8  C    2.161652   2.161652   0.000000
     9  H    2.515811   3.068256   1.100511   0.000000
    10  H    3.068257   2.515810   1.100511   1.756858   0.000000
    11  C    2.793392   2.793391   1.534062   2.163310   2.163310
    12  H    3.111939   2.568904   2.163310   3.070622   2.518367
    13  H    2.568904   3.111939   2.163310   2.518367   3.070623
    14  C    4.226353   4.226352   2.568108   2.794888   2.794888
    15  H    4.417575   4.753757   2.793392   2.568904   3.111939
    16  H    4.753757   4.417574   2.793391   3.111939   2.568904
    17  C    5.244585   5.244585   3.937233   4.224109   4.224109
    18  H    5.467226   5.175287   4.261192   4.786615   4.450063
    19  H    6.224620   6.224620   4.748568   4.904997   4.904997
    20  H    5.175287   5.467225   4.261192   4.450063   4.786615
                   11         12         13         14         15
    11  C    0.000000
    12  H    1.100511   0.000000
    13  H    1.100512   1.756859   0.000000
    14  C    1.534049   2.162123   2.162124   0.000000
    15  H    2.161652   3.068257   2.515811   1.099483   0.000000
    16  H    2.161652   2.515810   3.068256   1.099483   1.755916
    17  C    2.561074   2.784868   2.784869   1.532183   2.162791
    18  H    2.830112   2.606395   3.146732   2.183054   3.083201
    19  H    3.514769   3.792253   3.792253   2.186370   2.505799
    20  H    2.830112   3.146732   2.606395   2.183054   2.529657
                   16         17         18         19         20
    16  H    0.000000
    17  C    2.162790   0.000000
    18  H    2.529656   1.097196   0.000000
    19  H    2.505799   1.096287   1.770819   0.000000
    20  H    3.083200   1.097196   1.769424   1.770819   0.000000
 Stoichiometry    C6H14
 Framework group  C2[X(C6H14)]
 Deg. of freedom    28
 Full point group                 C2      NOp   2
 Largest Abelian subgroup         C2      NOp   2
 Largest concise Abelian subgroup C2      NOp   2
                         Standard orientation:                         
 ---------------------------------------------------------------------
 Center     Atomic      Atomic             Coordinates (Angstroms)
 Number     Number       Type             X           Y           Z
 ---------------------------------------------------------------------
      1          6           0       -1.414093    2.905591    0.000000
      2          1           0       -0.900187    3.301857   -0.884711
      3          1           0       -0.900188    3.301857    0.884712
      4          1           0       -2.434155    3.307235   -0.000001
      5          6           0       -1.414093    1.373408    0.000000
      6          1           0       -1.965616    1.007519    0.877958
      7          1           0       -1.965615    1.007520   -0.877958
      8          6           0       -0.004982    0.767015    0.000000
      9          1           0        0.547005    1.134164    0.878429
     10          1           0        0.547005    1.134164   -0.878429
     11          6           0        0.004982   -0.767015    0.000000
     12          1           0       -0.547005   -1.134164   -0.878429
     13          1           0       -0.547005   -1.134164    0.878429
     14          6           0        1.414093   -1.373408    0.000000
     15          1           0        1.965616   -1.007519    0.877958
     16          1           0        1.965615   -1.007520   -0.877958
     17          6           0        1.414093   -2.905591    0.000000
     18          1           0        0.900187   -3.301857   -0.884711
     19          1           0        2.434155   -3.307235   -0.000001
     20          1           0        0.900188   -3.301857    0.884712
 ---------------------------------------------------------------------
 Rotational constants (GHZ):     14.5851693      1.1246754      1.0862320
 Leave Link  202 at Sun Oct  4 11:28:19 2015, MaxMem=  805306368 cpu:       0.0
 (Enter /share/apps/g09/l301.exe)
 Standard basis: 6-31G(d) (6D, 7F)
 Ernie: Thresh=  0.10000D-02 Tol=  0.10000D-05 Strict=F.
 There are    59 symmetry adapted basis functions of A   symmetry.
 There are    59 symmetry adapted basis functions of B   symmetry.
 Integral buffers will be    131072 words long.
 Raffenetti 2 integral format.
 Two-electron integral symmetry is turned on.
   118 basis functions,   224 primitive gaussians,   118 cartesian basis functions
    25 alpha electrons       25 beta electrons
       nuclear repulsion energy       243.1171831694 Hartrees.
 IExCor=  402 DFT=T Ex+Corr=B3LYP ExCW=0 ScaHFX=  0.200000
 ScaDFX=  0.800000  0.720000  1.000000  0.810000 ScalE2=  1.000000  1.000000
 IRadAn=      5 IRanWt=     -1 IRanGd=            0 ICorTp=0
 NAtoms=   20 NActive=   20 NUniq=   10 SFac= 3.00D+00 NAtFMM=   80 NAOKFM=F Big=F
 Leave Link  301 at Sun Oct  4 11:28:20 2015, MaxMem=  805306368 cpu:       0.2
 (Enter /share/apps/g09/l302.exe)
 NPDir=0 NMtPBC=     1 NCelOv=     1 NCel=       1 NClECP=     1 NCelD=      1
         NCelK=      1 NCelE2=     1 NClLst=     1 CellRange=     0.0.
 One-electron integrals computed using PRISM.
 One-electron integral symmetry used in STVInt
 NBasis=   118 RedAO= T  NBF=    59    59
 NBsUse=   118 1.00D-06 NBFU=    59    59
 Precomputing XC quadrature grid using
 IXCGrd= 2 IRadAn=           5 IRanWt=          -1 IRanGd=           0 AccXCQ= 1.00D-10.
 NRdTot=    1658 NPtTot=      444860 NUsed=      456739 NTot=      456771
 NSgBfM=   118   118   118   118   118 NAtAll=    20    20.
 Leave Link  302 at Sun Oct  4 11:28:22 2015, MaxMem=  805306368 cpu:       2.1
 (Enter /share/apps/g09/l303.exe)
 DipDrv:  MaxL=1.
 Leave Link  303 at Sun Oct  4 11:28:23 2015, MaxMem=  805306368 cpu:       0.7
 (Enter /share/apps/g09/l401.exe)
 Harris functional with IExCor=  402 diagonalized for initial guess.
 ExpMin= 1.61D-01 ExpMax= 3.05D+03 ExpMxC= 4.57D+02 IAcc=3 IRadAn=         5 AccDes= 0.00D+00
 HarFok:  IExCor=  402 AccDes= 0.00D+00 IRadAn=         5 IDoV= 1
 ScaDFX=  1.000000  1.000000  1.000000  1.000000
 FoFCou: FMM=F IPFlag=           0 FMFlag=      100000 FMFlg1=           0
         NFxFlg=           0 DoJE=T BraDBF=F KetDBF=T FulRan=T
         Omega=  0.000000  0.000000  1.000000  0.000000  0.000000 ICntrl=     500 IOpCl=  0
         NMat0=    1 NMatS0=    1 NMatT0=    0 NMatD0=    1 NMtDS0=    0 NMtDT0=    0
         I1Cent=           4 NGrid=           0.
 Petite list used in FoFCou.
 Harris En= -237.184024131753    
 Initial guess orbital symmetries:
       Occupied  (B) (A) (B) (A) (A) (B) (A) (B) (A) (B) (A) (B)
                 (A) (A) (B) (B) (A) (B) (A) (B) (B) (A) (A) (A)
                 (B)
       Virtual   (A) (B) (B) (A) (A) (B) (B) (A) (B) (A) (A) (B)
                 (A) (B) (B) (B) (A) (A) (B) (A) (B) (A) (B) (A)
                 (B) (A) (A) (B) (B) (A) (B) (A) (A) (B) (B) (B)
                 (A) (A) (B) (A) (B) (A) (B) (B) (B) (A) (A) (A)
                 (B) (A) (A) (B) (B) (A) (B) (A) (B) (A) (A) (B)
                 (B) (A) (A) (A) (B) (A) (B) (B) (B) (A) (A) (B)
                 (B) (A) (B) (A) (B) (A) (B) (A) (B) (A) (A) (B)
                 (B) (A) (B) (A) (B) (A) (B) (A) (B)
 The electronic state of the initial guess is 1-A.
 Leave Link  401 at Sun Oct  4 11:28:26 2015, MaxMem=  805306368 cpu:       6.5
 (Enter /share/apps/g09/l502.exe)
 Closed shell SCF:
 Requested convergence on RMS density matrix=1.00D-08 within 128 cycles.
 Requested convergence on MAX density matrix=1.00D-06.
 Requested convergence on             energy=1.00D-06.
 No special actions if energy rises.
 Using DIIS extrapolation, IDIIS=  1040.
 Integral symmetry usage will be decided dynamically.
       456546 words used for storage of precomputed grid.
 Keep R1 ints in memory in canonical form, NReq=26110771.
 IEnd=      518260 IEndB=      518260 NGot=   805306368 MDV=   780168032
 LenX=   780168032 LenY=   780153667
 Symmetry not used in FoFDir.
 MinBra= 0 MaxBra= 2 Meth= 1.
 IRaf=       0 NMat=   1 IRICut=       1 DoRegI=T DoRafI=F ISym2E= 0 JSym2E=0.
 Integral accuracy reduced to 1.0D-05 until final iterations.

 Cycle   1  Pass 0  IDiag  1:
 E= -236.797461612045    
 DIIS: error= 5.91D-02 at cycle   1 NSaved=   1.
 NSaved= 1 IEnMin= 1 EnMin= -236.797461612045     IErMin= 1 ErrMin= 5.91D-02
 ErrMax= 5.91D-02 EMaxC= 1.00D-01 BMatC= 2.52D-01 BMatP= 2.52D-01
 IDIUse=3 WtCom= 4.09D-01 WtEn= 5.91D-01
 Coeff-Com:  0.100D+01
 Coeff-En:   0.100D+01
 Coeff:      0.100D+01
 Gap=     0.368 Goal=   None    Shift=    0.000
 GapD=    0.368 DampG=1.000 DampE=0.500 DampFc=0.5000 IDamp=-1.
 Damping current iteration by 5.00D-01
 RMSDP=9.95D-03 MaxDP=1.42D-01              OVMax= 1.93D-01

 Cycle   2  Pass 0  IDiag  1:
 E= -236.926988485816     Delta-E=       -0.129526873771 Rises=F Damp=T
 DIIS: error= 9.95D-03 at cycle   2 NSaved=   2.
 NSaved= 2 IEnMin= 2 EnMin= -236.926988485816     IErMin= 2 ErrMin= 9.95D-03
 ErrMax= 9.95D-03 EMaxC= 1.00D-01 BMatC= 8.74D-03 BMatP= 2.52D-01
 IDIUse=3 WtCom= 9.00D-01 WtEn= 9.95D-02
 Coeff-Com:  0.749D-01 0.925D+00
 Coeff-En:   0.119D+00 0.881D+00
 Coeff:      0.792D-01 0.921D+00
 Gap=     0.400 Goal=   None    Shift=    0.000
 RMSDP=1.36D-03 MaxDP=2.06D-02 DE=-1.30D-01 OVMax= 1.01D-01

 Cycle   3  Pass 0  IDiag  1:
 E= -237.085118613307     Delta-E=       -0.158130127491 Rises=F Damp=F
 DIIS: error= 2.10D-03 at cycle   3 NSaved=   3.
 NSaved= 3 IEnMin= 3 EnMin= -237.085118613307     IErMin= 3 ErrMin= 2.10D-03
 ErrMax= 2.10D-03 EMaxC= 1.00D-01 BMatC= 3.79D-04 BMatP= 8.74D-03
 IDIUse=3 WtCom= 9.79D-01 WtEn= 2.10D-02
 Coeff-Com:  0.259D-02 0.111D+00 0.886D+00
 Coeff-En:   0.000D+00 0.000D+00 0.100D+01
 Coeff:      0.254D-02 0.109D+00 0.889D+00
 Gap=     0.396 Goal=   None    Shift=    0.000
 RMSDP=2.89D-04 MaxDP=3.86D-03 DE=-1.58D-01 OVMax= 6.96D-03

 Cycle   4  Pass 0  IDiag  1:
 E= -237.085366595500     Delta-E=       -0.000247982193 Rises=F Damp=F
 DIIS: error= 1.02D-03 at cycle   4 NSaved=   4.
 NSaved= 4 IEnMin= 4 EnMin= -237.085366595500     IErMin= 4 ErrMin= 1.02D-03
 ErrMax= 1.02D-03 EMaxC= 1.00D-01 BMatC= 1.34D-04 BMatP= 3.79D-04
 IDIUse=3 WtCom= 9.90D-01 WtEn= 1.02D-02
 Coeff-Com:  0.162D-03 0.173D-01 0.372D+00 0.610D+00
 Coeff-En:   0.000D+00 0.000D+00 0.180D+00 0.820D+00
 Coeff:      0.161D-03 0.171D-01 0.370D+00 0.612D+00
 Gap=     0.397 Goal=   None    Shift=    0.000
 RMSDP=1.18D-04 MaxDP=2.10D-03 DE=-2.48D-04 OVMax= 2.89D-03

 Cycle   5  Pass 0  IDiag  1:
 E= -237.085487327733     Delta-E=       -0.000120732234 Rises=F Damp=F
 DIIS: error= 3.45D-04 at cycle   5 NSaved=   5.
 NSaved= 5 IEnMin= 5 EnMin= -237.085487327733     IErMin= 5 ErrMin= 3.45D-04
 ErrMax= 3.45D-04 EMaxC= 1.00D-01 BMatC= 1.34D-05 BMatP= 1.34D-04
 IDIUse=3 WtCom= 9.97D-01 WtEn= 3.45D-03
 Coeff-Com:  0.252D-03-0.174D-02 0.102D+00 0.291D+00 0.608D+00
 Coeff-En:   0.000D+00 0.000D+00 0.000D+00 0.000D+00 0.100D+01
 Coeff:      0.251D-03-0.173D-02 0.102D+00 0.290D+00 0.610D+00
 Gap=     0.397 Goal=   None    Shift=    0.000
 RMSDP=2.76D-05 MaxDP=5.65D-04 DE=-1.21D-04 OVMax= 7.16D-04

 Cycle   6  Pass 0  IDiag  1:
 E= -237.085500101966     Delta-E=       -0.000012774233 Rises=F Damp=F
 DIIS: error= 3.23D-05 at cycle   6 NSaved=   6.
 NSaved= 6 IEnMin= 6 EnMin= -237.085500101966     IErMin= 6 ErrMin= 3.23D-05
 ErrMax= 3.23D-05 EMaxC= 1.00D-01 BMatC= 1.27D-07 BMatP= 1.34D-05
 IDIUse=1 WtCom= 1.00D+00 WtEn= 0.00D+00
 Coeff-Com:  0.162D-03-0.989D-03 0.275D-01 0.865D-01 0.207D+00 0.680D+00
 Coeff:      0.162D-03-0.989D-03 0.275D-01 0.865D-01 0.207D+00 0.680D+00
 Gap=     0.397 Goal=   None    Shift=    0.000
 RMSDP=3.93D-06 MaxDP=6.78D-05 DE=-1.28D-05 OVMax= 8.22D-05

 Initial convergence to 1.0D-05 achieved.  Increase integral accuracy.
 Cycle   7  Pass 1  IDiag  1:
 E= -237.085479976457     Delta-E=        0.000020125509 Rises=F Damp=F
 DIIS: error= 1.25D-05 at cycle   1 NSaved=   1.
 NSaved= 1 IEnMin= 1 EnMin= -237.085479976457     IErMin= 1 ErrMin= 1.25D-05
 ErrMax= 1.25D-05 EMaxC= 1.00D-01 BMatC= 2.23D-08 BMatP= 2.23D-08
 IDIUse=1 WtCom= 1.00D+00 WtEn= 0.00D+00
 Coeff-Com:  0.100D+01
 Coeff:      0.100D+01
 Gap=     0.397 Goal=   None    Shift=    0.000
 RMSDP=3.93D-06 MaxDP=6.78D-05 DE= 2.01D-05 OVMax= 6.21D-05

 Cycle   8  Pass 1  IDiag  1:
 E= -237.085479973060     Delta-E=        0.000000003397 Rises=F Damp=F
 DIIS: error= 1.38D-05 at cycle   2 NSaved=   2.
 NSaved= 2 IEnMin= 1 EnMin= -237.085479976457     IErMin= 1 ErrMin= 1.25D-05
 ErrMax= 1.38D-05 EMaxC= 1.00D-01 BMatC= 2.96D-08 BMatP= 2.23D-08
 IDIUse=1 WtCom= 1.00D+00 WtEn= 0.00D+00
 Coeff-Com:  0.538D+00 0.462D+00
 Coeff:      0.538D+00 0.462D+00
 Gap=     0.397 Goal=   None    Shift=    0.000
 RMSDP=1.30D-06 MaxDP=2.70D-05 DE= 3.40D-09 OVMax= 3.29D-05

 Cycle   9  Pass 1  IDiag  1:
 E= -237.085480001377     Delta-E=       -0.000000028318 Rises=F Damp=F
 DIIS: error= 9.38D-07 at cycle   3 NSaved=   3.
 NSaved= 3 IEnMin= 3 EnMin= -237.085480001377     IErMin= 3 ErrMin= 9.38D-07
 ErrMax= 9.38D-07 EMaxC= 1.00D-01 BMatC= 1.10D-10 BMatP= 2.23D-08
 IDIUse=1 WtCom= 1.00D+00 WtEn= 0.00D+00
 Coeff-Com: -0.189D-02 0.464D-01 0.955D+00
 Coeff:     -0.189D-02 0.464D-01 0.955D+00
 Gap=     0.397 Goal=   None    Shift=    0.000
 RMSDP=1.25D-07 MaxDP=2.43D-06 DE=-2.83D-08 OVMax= 2.66D-06

 Cycle  10  Pass 1  IDiag  1:
 E= -237.085480001457     Delta-E=       -0.000000000080 Rises=F Damp=F
 DIIS: error= 5.13D-07 at cycle   4 NSaved=   4.
 NSaved= 4 IEnMin= 4 EnMin= -237.085480001457     IErMin= 4 ErrMin= 5.13D-07
 ErrMax= 5.13D-07 EMaxC= 1.00D-01 BMatC= 3.20D-11 BMatP= 1.10D-10
 IDIUse=1 WtCom= 1.00D+00 WtEn= 0.00D+00
 Coeff-Com: -0.135D-01 0.124D-01 0.477D+00 0.524D+00
 Coeff:     -0.135D-01 0.124D-01 0.477D+00 0.524D+00
 Gap=     0.397 Goal=   None    Shift=    0.000
 RMSDP=4.88D-08 MaxDP=8.61D-07 DE=-7.99D-11 OVMax= 1.13D-06

 Cycle  11  Pass 1  IDiag  1:
 E= -237.085480001488     Delta-E=       -0.000000000031 Rises=F Damp=F
 DIIS: error= 8.98D-08 at cycle   5 NSaved=   5.
 NSaved= 5 IEnMin= 5 EnMin= -237.085480001488     IErMin= 5 ErrMin= 8.98D-08
 ErrMax= 8.98D-08 EMaxC= 1.00D-01 BMatC= 7.27D-13 BMatP= 3.20D-11
 IDIUse=1 WtCom= 1.00D+00 WtEn= 0.00D+00
 Coeff-Com: -0.450D-02 0.175D-02 0.110D+00 0.194D+00 0.699D+00
 Coeff:     -0.450D-02 0.175D-02 0.110D+00 0.194D+00 0.699D+00
 Gap=     0.397 Goal=   None    Shift=    0.000
 RMSDP=8.97D-09 MaxDP=1.17D-07 DE=-3.06D-11 OVMax= 2.31D-07

 SCF Done:  E(RB3LYP) =  -237.085480001     A.U. after   11 cycles
             Convg  =    0.8973D-08             -V/T =  2.0105
 KE= 2.346213791854D+02 PE=-1.033153411701D+03 EE= 3.183293693443D+02
 Leave Link  502 at Sun Oct  4 11:28:41 2015, MaxMem=  805306368 cpu:      54.3
 (Enter /share/apps/g09/l601.exe)
 Copying SCF densities to generalized density rwf, IOpCl= 0 IROHF=0.

 **********************************************************************

            Population analysis using the SCF density.

 **********************************************************************

 Orbital symmetries:
       Occupied  (B) (A) (A) (B) (B) (A) (A) (B) (A) (B) (A) (B)
                 (A) (B) (A) (B) (A) (B) (A) (B) (B) (A) (A) (B)
                 (A)
       Virtual   (A) (B) (A) (B) (A) (B) (A) (B) (B) (A) (A) (B)
                 (A) (B) (B) (A) (B) (A) (B) (A) (B) (A) (B) (A)
                 (A) (B) (A) (B) (B) (A) (B) (A) (A) (B) (B) (B)
                 (A) (A) (B) (B) (A) (A) (B) (B) (B) (A) (A) (A)
                 (B) (A) (A) (B) (B) (A) (A) (B) (B) (A) (A) (B)
                 (B) (A) (B) (A) (A) (A) (B) (B) (B) (A) (A) (B)
                 (B) (A) (B) (A) (B) (A) (B) (A) (B) (A) (A) (B)
                 (B) (A) (B) (A) (B) (A) (B) (A) (B)
 The electronic state is 1-A.
 Alpha  occ. eigenvalues --  -10.17595 -10.17594 -10.17374 -10.17353 -10.16995
 Alpha  occ. eigenvalues --  -10.16995  -0.79885  -0.76125  -0.70299  -0.63362
 Alpha  occ. eigenvalues --   -0.57765  -0.57012  -0.47311  -0.44028  -0.42896
 Alpha  occ. eigenvalues --   -0.41547  -0.39474  -0.37570  -0.37359  -0.35091
 Alpha  occ. eigenvalues --   -0.33673  -0.32369  -0.32019  -0.31656  -0.30439
 Alpha virt. eigenvalues --    0.09278   0.10455   0.12309   0.13235   0.13692
 Alpha virt. eigenvalues --    0.16284   0.16855   0.16933   0.18622   0.19176
 Alpha virt. eigenvalues --    0.19429   0.20003   0.20556   0.20662   0.22948
 Alpha virt. eigenvalues --    0.24336   0.26521   0.28154   0.29358   0.49408
 Alpha virt. eigenvalues --    0.49778   0.51194   0.55116   0.56039   0.57721
 Alpha virt. eigenvalues --    0.58640   0.60588   0.62902   0.65305   0.69031
 Alpha virt. eigenvalues --    0.69288   0.72654   0.76954   0.79509   0.82028
 Alpha virt. eigenvalues --    0.82085   0.84913   0.88240   0.88646   0.90532
 Alpha virt. eigenvalues --    0.90603   0.92590   0.93655   0.94174   0.95371
 Alpha virt. eigenvalues --    0.95557   0.96353   0.96966   0.99180   1.00638
 Alpha virt. eigenvalues --    1.01874   1.15002   1.29605   1.40626   1.40675
 Alpha virt. eigenvalues --    1.45704   1.46016   1.52498   1.55172   1.64064
 Alpha virt. eigenvalues --    1.75846   1.82558   1.87281   1.87572   1.90070
 Alpha virt. eigenvalues --    1.93835   1.94753   1.95430   2.00319   2.02103
 Alpha virt. eigenvalues --    2.03117   2.07162   2.10580   2.22839   2.23323
 Alpha virt. eigenvalues --    2.25559   2.32605   2.33548   2.33922   2.42613
 Alpha virt. eigenvalues --    2.42859   2.45072   2.56730   2.60700   2.63347
 Alpha virt. eigenvalues --    2.77665   2.82248   4.11672   4.18812   4.28523
 Alpha virt. eigenvalues --    4.36632   4.44776   4.56158
          Condensed to atoms (all electrons):
              1          2          3          4          5          6
     1  C    5.065614   0.377404   0.377404   0.371443   0.370842  -0.038634
     2  H    0.377404   0.580080  -0.032924  -0.031412  -0.034748   0.005274
     3  H    0.377404  -0.032924   0.580080  -0.031412  -0.034748  -0.004514
     4  H    0.371443  -0.031412  -0.031412   0.579182  -0.027158  -0.002710
     5  C    0.370842  -0.034748  -0.034748  -0.027158   4.953540   0.376469
     6  H   -0.038634   0.005274  -0.004514  -0.002710   0.376469   0.613438
     7  H   -0.038634  -0.004514   0.005274  -0.002710   0.376469  -0.040273
     8  C   -0.041940  -0.004489  -0.004489   0.004066   0.386221  -0.040265
     9  H   -0.002903  -0.000394   0.004888  -0.000034  -0.040528  -0.005509
    10  H   -0.002903   0.004888  -0.000394  -0.000034  -0.040528   0.005998
    11  C    0.003549   0.000031   0.000031  -0.000129  -0.035387  -0.003547
    12  H    0.000033   0.000003   0.000006   0.000002  -0.003535  -0.000455
    13  H    0.000033   0.000006   0.000003   0.000002  -0.003535   0.005131
    14  C   -0.000117   0.000001   0.000001   0.000001   0.003397   0.000023
    15  H    0.000001   0.000000  -0.000001   0.000000   0.000023   0.000005
    16  H    0.000001  -0.000001   0.000000   0.000000   0.000023   0.000006
    17  C    0.000001   0.000000   0.000000   0.000000  -0.000117   0.000001
    18  H    0.000000   0.000000   0.000000   0.000000   0.000001   0.000000
    19  H    0.000000   0.000000   0.000000   0.000000   0.000001   0.000000
    20  H    0.000000   0.000000   0.000000   0.000000   0.000001  -0.000001
              7          8          9         10         11         12
     1  C   -0.038634  -0.041940  -0.002903  -0.002903   0.003549   0.000033
     2  H   -0.004514  -0.004489  -0.000394   0.004888   0.000031   0.000003
     3  H    0.005274  -0.004489   0.004888  -0.000394   0.000031   0.000006
     4  H   -0.002710   0.004066  -0.000034  -0.000034  -0.000129   0.000002
     5  C    0.376469   0.386221  -0.040528  -0.040528  -0.035387  -0.003535
     6  H   -0.040273  -0.040265  -0.005509   0.005998  -0.003547  -0.000455
     7  H    0.613438  -0.040265   0.005998  -0.005509  -0.003547   0.005131
     8  C   -0.040265   4.976579   0.372232   0.372232   0.383267  -0.039439
     9  H    0.005998   0.372232   0.619215  -0.041025  -0.039439   0.005954
    10  H   -0.005509   0.372232  -0.041025   0.619215  -0.039439  -0.005416
    11  C   -0.003547   0.383267  -0.039439  -0.039439   4.976579   0.372232
    12  H    0.005131  -0.039439   0.005954  -0.005416   0.372232   0.619215
    13  H   -0.000455  -0.039439  -0.005416   0.005954   0.372232  -0.041025
    14  C    0.000023  -0.035387  -0.003535  -0.003535   0.386221  -0.040528
    15  H    0.000006  -0.003547   0.005131  -0.000455  -0.040265   0.005998
    16  H    0.000005  -0.003547  -0.000455   0.005131  -0.040265  -0.005509
    17  C    0.000001   0.003549   0.000033   0.000033  -0.041940  -0.002903
    18  H   -0.000001   0.000031   0.000006   0.000003  -0.004489   0.004888
    19  H    0.000000  -0.000129   0.000002   0.000002   0.004066  -0.000034
    20  H    0.000000   0.000031   0.000003   0.000006  -0.004489  -0.000394
             13         14         15         16         17         18
     1  C    0.000033  -0.000117   0.000001   0.000001   0.000001   0.000000
     2  H    0.000006   0.000001   0.000000  -0.000001   0.000000   0.000000
     3  H    0.000003   0.000001  -0.000001   0.000000   0.000000   0.000000
     4  H    0.000002   0.000001   0.000000   0.000000   0.000000   0.000000
     5  C   -0.003535   0.003397   0.000023   0.000023  -0.000117   0.000001
     6  H    0.005131   0.000023   0.000005   0.000006   0.000001   0.000000
     7  H   -0.000455   0.000023   0.000006   0.000005   0.000001  -0.000001
     8  C   -0.039439  -0.035387  -0.003547  -0.003547   0.003549   0.000031
     9  H   -0.005416  -0.003535   0.005131  -0.000455   0.000033   0.000006
    10  H    0.005954  -0.003535  -0.000455   0.005131   0.000033   0.000003
    11  C    0.372232   0.386221  -0.040265  -0.040265  -0.041940  -0.004489
    12  H   -0.041025  -0.040528   0.005998  -0.005509  -0.002903   0.004888
    13  H    0.619215  -0.040528  -0.005509   0.005998  -0.002903  -0.000394
    14  C   -0.040528   4.953540   0.376469   0.376469   0.370842  -0.034748
    15  H   -0.005509   0.376469   0.613438  -0.040273  -0.038634   0.005274
    16  H    0.005998   0.376469  -0.040273   0.613438  -0.038634  -0.004514
    17  C   -0.002903   0.370842  -0.038634  -0.038634   5.065614   0.377404
    18  H   -0.000394  -0.034748   0.005274  -0.004514   0.377404   0.580080
    19  H   -0.000034  -0.027158  -0.002710  -0.002710   0.371443  -0.031412
    20  H    0.004888  -0.034748  -0.004514   0.005274   0.377404  -0.032924
             19         20
     1  C    0.000000   0.000000
     2  H    0.000000   0.000000
     3  H    0.000000   0.000000
     4  H    0.000000   0.000000
     5  C    0.000001   0.000001
     6  H    0.000000  -0.000001
     7  H    0.000000   0.000000
     8  C   -0.000129   0.000031
     9  H    0.000002   0.000003
    10  H    0.000002   0.000006
    11  C    0.004066  -0.004489
    12  H   -0.000034  -0.000394
    13  H   -0.000034   0.004888
    14  C   -0.027158  -0.034748
    15  H   -0.002710  -0.004514
    16  H   -0.002710   0.005274
    17  C    0.371443   0.377404
    18  H   -0.031412  -0.032924
    19  H    0.579182  -0.031412
    20  H   -0.031412   0.580080
 Mulliken atomic charges:
              1
     1  C   -0.441196
     2  H    0.140795
     3  H    0.140795
     4  H    0.140903
     5  C   -0.246702
     6  H    0.129563
     7  H    0.129563
     8  C   -0.245274
     9  H    0.125777
    10  H    0.125777
    11  C   -0.245274
    12  H    0.125777
    13  H    0.125777
    14  C   -0.246702
    15  H    0.129563
    16  H    0.129563
    17  C   -0.441196
    18  H    0.140795
    19  H    0.140903
    20  H    0.140795
 Sum of Mulliken atomic charges =   0.00000
 Mulliken charges with hydrogens summed into heavy atoms:
              1
     1  C   -0.018703
     5  C    0.012423
     8  C    0.006280
    11  C    0.006280
    14  C    0.012423
    17  C   -0.018703
 Sum of Mulliken charges with hydrogens summed into heavy atoms =   0.00000
 Electronic spatial extent (au):  <R**2>=           1145.3448
 Charge=              0.0000 electrons
 Dipole moment (field-independent basis, Debye):
    X=              0.0000    Y=              0.0000    Z=              0.0000  Tot=              0.0000
 Quadrupole moment (field-independent basis, Debye-Ang):
   XX=            -41.5769   YY=            -42.5261   ZZ=            -40.7752
   XY=              0.1073   XZ=              0.0000   YZ=              0.0000
 Traceless Quadrupole moment (field-independent basis, Debye-Ang):
   XX=              0.0491   YY=             -0.9000   ZZ=              0.8509
   XY=              0.1073   XZ=              0.0000   YZ=              0.0000
 Octapole moment (field-independent basis, Debye-Ang**2):
  XXX=              0.0000  YYY=              0.0000  ZZZ=              0.0000  XYY=              0.0000
  XXY=              0.0000  XXZ=              0.0000  XZZ=              0.0000  YZZ=              0.0000
  YYZ=              0.0000  XYZ=              0.0000
 Hexadecapole moment (field-independent basis, Debye-Ang**3):
 XXXX=           -432.5956 YYYY=          -1095.6117 ZZZZ=            -83.9512 XXXY=            258.0260
 XXXZ=              0.0000 YYYX=            270.7335 YYYZ=              0.0000 ZZZX=              0.0000
 ZZZY=              0.0000 XXYY=           -249.0724 XXZZ=            -86.4344 YYZZ=           -188.2575
 XXYZ=              0.0000 YYXZ=              0.0000 ZZXY=             89.9220
 N-N= 2.431171831694D+02 E-N=-1.033153406328D+03  KE= 2.346213791854D+02
 Symmetry A    KE= 1.187092023740D+02
 Symmetry B    KE= 1.159121768115D+02
 No NMR shielding tensors so no spin-rotation constants.
 Leave Link  601 at Sun Oct  4 11:28:41 2015, MaxMem=  805306368 cpu:       1.0
 (Enter /share/apps/g09/l701.exe)
 Compute integral first derivatives.
 ... and contract with generalized density number  0.
 Leave Link  701 at Sun Oct  4 11:28:42 2015, MaxMem=  805306368 cpu:       1.0
 (Enter /share/apps/g09/l702.exe)
 L702 exits ... SP integral derivatives will be done elsewhere.
 Leave Link  702 at Sun Oct  4 11:28:42 2015, MaxMem=  805306368 cpu:       0.0
 (Enter /share/apps/g09/l703.exe)
 Compute integral first derivatives, UseDBF=F ICtDFT=           0.
 Integral derivatives from FoFDir, PRISM(SPDF).
 Calling FoFJK, ICntrl=      2127 FMM=F ISym2X=1 I1Cent= 0 IOpClX= 0 NMat=1 NMatS=1 NMatT=0.
 FoFCou: FMM=F IPFlag=           0 FMFlag=      100000 FMFlg1=         800
         NFxFlg=           0 DoJE=F BraDBF=F KetDBF=F FulRan=T
         Omega=  0.000000  0.000000  1.000000  0.000000  0.000000 ICntrl=    2127 IOpCl=  0
         NMat0=    1 NMatS0=    1 NMatT0=    0 NMatD0=    1 NMtDS0=    0 NMtDT0=    0
         I1Cent=           0 NGrid=           0.
 Petite list used in FoFCou.
 Leave Link  703 at Sun Oct  4 11:28:47 2015, MaxMem=  805306368 cpu:      13.9
 (Enter /share/apps/g09/l716.exe)
 Dipole        = 4.66293670D-15-1.77635684D-15-5.09780596D-07
 ***** Axes restored to original set *****
 -------------------------------------------------------------------
 Center     Atomic                   Forces (Hartrees/Bohr)
 Number     Number              X              Y              Z
 -------------------------------------------------------------------
      1        6           0.000039800   -0.000057977    0.000000128
      2        1           0.000009799    0.000033100    0.000062684
      3        1           0.000009781    0.000033211   -0.000062820
      4        1          -0.000129807   -0.000060355    0.000000016
      5        6           0.000071354    0.000180629    0.000000222
      6        1          -0.000024225   -0.000045806   -0.000024684
      7        1          -0.000024231   -0.000045566    0.000024417
      8        6          -0.000115688   -0.000149180    0.000000022
      9        1           0.000006721    0.000046568   -0.000022585
     10        1           0.000006730    0.000046583    0.000022599
     11        6           0.000115688    0.000149180    0.000000022
     12        1          -0.000006730   -0.000046583    0.000022599
     13        1          -0.000006721   -0.000046568   -0.000022585
     14        6          -0.000071354   -0.000180629    0.000000222
     15        1           0.000024225    0.000045806   -0.000024684
     16        1           0.000024231    0.000045566    0.000024417
     17        6          -0.000039800    0.000057977    0.000000128
     18        1          -0.000009799   -0.000033100    0.000062684
     19        1           0.000129807    0.000060355    0.000000016
     20        1          -0.000009781   -0.000033211   -0.000062820
 -------------------------------------------------------------------
 Cartesian Forces:  Max     0.000180629 RMS     0.000063525
 Leave Link  716 at Sun Oct  4 11:28:47 2015, MaxMem=  805306368 cpu:       0.1
 (Enter /share/apps/g09/l103.exe)

 GradGradGradGradGradGradGradGradGradGradGradGradGradGradGradGradGradGrad
 Berny optimization.
 Internal  Forces:  Max     0.000139068 RMS     0.000037416
 Search for a local minimum.
 Step number   1 out of a maximum of  110
 All quantities printed in internal units (Hartrees-Bohrs-Radians)
 RMS Force = .37416D-04 SwitMx=.10000D-02 MixMth= 2
 Mixed Optimization -- En-DIIS/RFO-DIIS
 Second derivative matrix not updated -- first step.
     Eigenvalues ---    0.00315   0.00316   0.00316   0.00340   0.00340
     Eigenvalues ---    0.03378   0.03378   0.03423   0.03423   0.04762
     Eigenvalues ---    0.04762   0.04779   0.04779   0.05432   0.05432
     Eigenvalues ---    0.05478   0.05478   0.08444   0.08444   0.08500
     Eigenvalues ---    0.08500   0.12288   0.12288   0.12330   0.12330
     Eigenvalues ---    0.16000   0.16000   0.16000   0.16000   0.16000
     Eigenvalues ---    0.16000   0.21899   0.21899   0.21905   0.21905
     Eigenvalues ---    0.29052   0.29053   0.29053   0.29223   0.29223
     Eigenvalues ---    0.33626   0.33626   0.33626   0.33626   0.33739
     Eigenvalues ---    0.33739   0.33739   0.33739   0.33994   0.33994
     Eigenvalues ---    0.33994   0.33994   0.34096   0.340961000.00000
     Eigenvalues --- 1000.000001000.000001000.000001000.000001000.00000
     Eigenvalues --- 1000.000001000.000001000.000001000.000001000.00000
     Eigenvalues --- 1000.000001000.000001000.000001000.000001000.00000
     Eigenvalues --- 1000.000001000.000001000.000001000.000001000.00000
     Eigenvalues --- 1000.000001000.000001000.000001000.000001000.00000
     Eigenvalues --- 1000.000001000.000001000.000001000.000001000.00000
     Eigenvalues --- 1000.000001000.000001000.000001000.000001000.00000
     Eigenvalues --- 1000.000001000.000001000.000001000.000001000.00000
     Eigenvalues --- 1000.000001000.000001000.000001000.000001000.00000
 RFO step:  Lambda=-6.54436386D-07 EMin= 3.15379530D-03
 Linear search not attempted -- first point.
 Iteration  1 RMS(Cart)=  0.00042993 RMS(Int)=  0.00000004
 Iteration  2 RMS(Cart)=  0.00000006 RMS(Int)=  0.00000003
 ClnCor:  largest displacement from symmetrization is 2.85D-09 for atom    13.
 Variable       Old X    -DE/DX   Delta X   Delta X   Delta X     New X
                                 (Linear)    (Quad)   (Total)
    R1        2.07340  -0.00007   0.00000  -0.00020  -0.00020   2.07320
    R2        2.07340  -0.00007   0.00000  -0.00020  -0.00020   2.07320
    R3        2.07168  -0.00014   0.00000  -0.00041  -0.00041   2.07127
    R4        2.89541  -0.00004   0.00000  -0.00012  -0.00012   2.89528
    R5        2.07772  -0.00005   0.00000  -0.00014  -0.00014   2.07758
    R6        2.07772  -0.00005   0.00000  -0.00014  -0.00014   2.07758
    R7        2.89893  -0.00002   0.00000  -0.00006  -0.00006   2.89888
    R8        2.07967  -0.00005   0.00000  -0.00014  -0.00014   2.07953
    R9        2.07967  -0.00005   0.00000  -0.00014  -0.00014   2.07953
   R10        2.89896  -0.00012   0.00000  -0.00042  -0.00042   2.89854
   R11        2.07967  -0.00005   0.00000  -0.00014  -0.00014   2.07953
   R12        2.07967  -0.00005   0.00000  -0.00014  -0.00014   2.07953
   R13        2.89893  -0.00002   0.00000  -0.00006  -0.00006   2.89888
   R14        2.07772  -0.00005   0.00000  -0.00014  -0.00014   2.07758
   R15        2.07772  -0.00005   0.00000  -0.00014  -0.00014   2.07758
   R16        2.89541  -0.00004   0.00000  -0.00012  -0.00012   2.89528
   R17        2.07340  -0.00007   0.00000  -0.00020  -0.00020   2.07320
   R18        2.07168  -0.00014   0.00000  -0.00041  -0.00041   2.07127
   R19        2.07340  -0.00007   0.00000  -0.00020  -0.00020   2.07320
    A1        1.87587  -0.00002   0.00000  -0.00004  -0.00004   1.87583
    A2        1.87916   0.00001   0.00000   0.00001   0.00001   1.87917
    A3        1.94031   0.00003   0.00000   0.00022   0.00022   1.94053
    A4        1.87916   0.00001   0.00000   0.00001   0.00001   1.87917
    A5        1.94031   0.00003   0.00000   0.00022   0.00022   1.94053
    A6        1.94590  -0.00006   0.00000  -0.00043  -0.00043   1.94547
    A7        1.91005   0.00003   0.00000   0.00023   0.00023   1.91027
    A8        1.91005   0.00003   0.00000   0.00023   0.00023   1.91027
    A9        1.97718  -0.00006   0.00000  -0.00035  -0.00035   1.97683
   A10        1.84966   0.00000   0.00000   0.00027   0.00027   1.84993
   A11        1.90628   0.00000   0.00000  -0.00017  -0.00017   1.90611
   A12        1.90628   0.00000   0.00000  -0.00017  -0.00017   1.90611
   A13        1.90588   0.00001   0.00000  -0.00003  -0.00003   1.90585
   A14        1.90588   0.00001   0.00000  -0.00003  -0.00003   1.90585
   A15        1.98367  -0.00008   0.00000  -0.00044  -0.00044   1.98323
   A16        1.84860   0.00000   0.00000   0.00032   0.00032   1.84892
   A17        1.90747   0.00003   0.00000   0.00012   0.00012   1.90759
   A18        1.90747   0.00003   0.00000   0.00012   0.00012   1.90759
   A19        1.90747   0.00003   0.00000   0.00012   0.00012   1.90759
   A20        1.90747   0.00003   0.00000   0.00012   0.00012   1.90759
   A21        1.98367  -0.00008   0.00000  -0.00044  -0.00044   1.98323
   A22        1.84860   0.00000   0.00000   0.00032   0.00032   1.84892
   A23        1.90588   0.00001   0.00000  -0.00003  -0.00003   1.90585
   A24        1.90588   0.00001   0.00000  -0.00003  -0.00003   1.90585
   A25        1.90628   0.00000   0.00000  -0.00017  -0.00017   1.90611
   A26        1.90628   0.00000   0.00000  -0.00017  -0.00017   1.90611
   A27        1.97718  -0.00006   0.00000  -0.00035  -0.00035   1.97683
   A28        1.84966   0.00000   0.00000   0.00027   0.00027   1.84993
   A29        1.91005   0.00003   0.00000   0.00023   0.00023   1.91027
   A30        1.91005   0.00003   0.00000   0.00023   0.00023   1.91027
   A31        1.94031   0.00003   0.00000   0.00022   0.00022   1.94053
   A32        1.94590  -0.00006   0.00000  -0.00043  -0.00043   1.94547
   A33        1.94031   0.00003   0.00000   0.00022   0.00022   1.94053
   A34        1.87916   0.00001   0.00000   0.00001   0.00001   1.87917
   A35        1.87587  -0.00002   0.00000  -0.00004  -0.00004   1.87583
   A36        1.87916   0.00001   0.00000   0.00001   0.00001   1.87917
    D1       -3.10694  -0.00001   0.00000  -0.00016  -0.00016  -3.10711
    D2       -1.08713   0.00003   0.00000   0.00042   0.00042  -1.08671
    D3        1.04456   0.00001   0.00000   0.00013   0.00013   1.04468
    D4        1.08713  -0.00003   0.00000  -0.00042  -0.00042   1.08671
    D5        3.10694   0.00001   0.00000   0.00017   0.00017   3.10711
    D6       -1.04456  -0.00001   0.00000  -0.00012  -0.00012  -1.04468
    D7       -1.00991  -0.00002   0.00000  -0.00029  -0.00029  -1.01020
    D8        1.00991   0.00002   0.00000   0.00029   0.00029   1.01020
    D9        3.14159   0.00000   0.00000   0.00000   0.00000   3.14159
   D10        1.00696   0.00001   0.00000   0.00017   0.00017   1.00713
   D11       -1.00696  -0.00001   0.00000  -0.00017  -0.00017  -1.00713
   D12        3.14159   0.00000   0.00000   0.00000   0.00000   3.14159
   D13       -1.12683   0.00001   0.00000   0.00025   0.00025  -1.12659
   D14       -3.14074  -0.00001   0.00000  -0.00010  -0.00010  -3.14085
   D15        1.00780   0.00000   0.00000   0.00007   0.00007   1.00788
   D16        3.14074   0.00001   0.00000   0.00010   0.00010   3.14085
   D17        1.12683  -0.00001   0.00000  -0.00025  -0.00025   1.12659
   D18       -1.00781   0.00000   0.00000  -0.00007  -0.00007  -1.00788
   D19        1.00784   0.00002   0.00000   0.00025   0.00025   1.00809
   D20       -1.00784  -0.00002   0.00000  -0.00025  -0.00025  -1.00809
   D21        3.14159   0.00000   0.00000   0.00000   0.00000   3.14159
   D22       -3.14159   0.00000   0.00000   0.00000   0.00000   3.14159
   D23        1.12592  -0.00003   0.00000  -0.00051  -0.00051   1.12541
   D24       -1.00784  -0.00002   0.00000  -0.00025  -0.00025  -1.00809
   D25       -1.12592   0.00003   0.00000   0.00051   0.00051  -1.12541
   D26       -3.14159   0.00000   0.00000   0.00000   0.00000   3.14159
   D27        1.00784   0.00002   0.00000   0.00025   0.00025   1.00809
   D28        1.00780   0.00000   0.00000   0.00007   0.00007   1.00788
   D29       -1.00781   0.00000   0.00000  -0.00007  -0.00007  -1.00788
   D30        3.14159   0.00000   0.00000   0.00000   0.00000   3.14159
   D31       -3.14074  -0.00001   0.00000  -0.00010  -0.00010  -3.14085
   D32        1.12683  -0.00001   0.00000  -0.00025  -0.00025   1.12659
   D33       -1.00696  -0.00001   0.00000  -0.00017  -0.00017  -1.00713
   D34       -1.12683   0.00001   0.00000   0.00025   0.00025  -1.12659
   D35        3.14074   0.00001   0.00000   0.00010   0.00010   3.14085
   D36        1.00696   0.00001   0.00000   0.00017   0.00017   1.00713
   D37        1.04456   0.00001   0.00000   0.00013   0.00013   1.04468
   D38        3.14159   0.00000   0.00000   0.00000   0.00000   3.14159
   D39       -1.04456  -0.00001   0.00000  -0.00012  -0.00012  -1.04468
   D40       -3.10694  -0.00001   0.00000  -0.00016  -0.00016  -3.10711
   D41       -1.00991  -0.00002   0.00000  -0.00029  -0.00029  -1.01020
   D42        1.08713  -0.00003   0.00000  -0.00042  -0.00042   1.08671
   D43       -1.08713   0.00003   0.00000   0.00042   0.00042  -1.08671
   D44        1.00991   0.00002   0.00000   0.00029   0.00029   1.01020
   D45        3.10694   0.00001   0.00000   0.00017   0.00017   3.10711
         Item               Value     Threshold  Converged?
 Maximum Force            0.000139     0.000015     NO 
 RMS     Force            0.000037     0.000010     NO 
 Maximum Displacement     0.001731     0.000060     NO 
 RMS     Displacement     0.000430     0.000040     NO 
 Predicted change in Energy=-3.272381D-07
 GradGradGradGradGradGradGradGradGradGradGradGradGradGradGradGradGradGrad

 Leave Link  103 at Sun Oct  4 11:28:47 2015, MaxMem=  805306368 cpu:       0.1
 (Enter /share/apps/g09/l202.exe)
                          Input orientation:                          
 ---------------------------------------------------------------------
 Center     Atomic      Atomic             Coordinates (Angstroms)
 Number     Number       Type             X           Y           Z
 ---------------------------------------------------------------------
      1          6           0        3.224119   -0.208684    0.000000
      2          1           0        3.314406   -0.851268   -0.884612
      3          1           0        3.314406   -0.851267    0.884613
      4          1           0        4.077475    0.479178    0.000000
      5          6           0        1.892766    0.549528    0.000000
      6          1           0        1.847412    1.209665    0.877990
      7          1           0        1.847412    1.209664   -0.877991
      8          6           0        0.668842   -0.375257    0.000000
      9          1           0        0.714877   -1.036412    0.878477
     10          1           0        0.714877   -1.036412   -0.878477
     11          6           0       -0.668842    0.375257    0.000000
     12          1           0       -0.714877    1.036412   -0.878477
     13          1           0       -0.714877    1.036412    0.878477
     14          6           0       -1.892766   -0.549529    0.000000
     15          1           0       -1.847412   -1.209665    0.877990
     16          1           0       -1.847412   -1.209664   -0.877991
     17          6           0       -3.224119    0.208684    0.000000
     18          1           0       -3.314406    0.851268   -0.884612
     19          1           0       -4.077475   -0.479179    0.000000
     20          1           0       -3.314406    0.851267    0.884613
 ---------------------------------------------------------------------
                    Distance matrix (angstroms):
                    1          2          3          4          5
     1  C    0.000000
     2  H    1.097089   0.000000
     3  H    1.097089   1.769225   0.000000
     4  H    1.096071   1.770565   1.770565   0.000000
     5  C    1.532119   2.183078   2.183078   2.185841   0.000000
     6  H    2.162846   3.083226   2.529734   2.505526   1.099411
     7  H    2.162846   2.529735   3.083226   2.505526   1.099411
     8  C    2.560701   2.829864   2.829865   3.514091   1.534020
     9  H    2.784448   3.146476   2.606121   3.791543   2.162025
    10  H    2.784448   2.606121   3.146476   3.791543   2.162025
    11  C    3.936513   4.260653   4.260653   4.747454   2.567529
    12  H    4.223468   4.449550   4.786119   4.903965   2.794383
    13  H    4.223468   4.786119   4.449550   4.903965   2.794384
    14  C    5.128225   5.290390   5.290390   6.058219   3.941850
    15  H    5.243401   5.466221   5.174249   6.223129   4.225465
    16  H    5.243401   5.174249   5.466222   6.223129   4.225465
    17  C    6.461731   6.682690   6.682690   7.306603   5.128225
    18  H    6.682690   6.843959   7.068941   7.453918   5.290390
    19  H    7.306603   7.453918   7.453918   8.211069   6.058219
    20  H    6.682690   7.068941   6.843959   7.453918   5.290390
                    6          7          8          9         10
     6  H    0.000000
     7  H    1.755981   0.000000
     8  C    2.161450   2.161451   0.000000
     9  H    2.515451   3.068008   1.100440   0.000000
    10  H    3.068008   2.515451   1.100440   1.756953   0.000000
    11  C    2.792604   2.792604   1.533841   2.163148   2.163148
    12  H    3.111353   2.568140   2.163148   3.070453   2.518094
    13  H    2.568140   3.111353   2.163148   2.518094   3.070453
    14  C    4.225465   4.225465   2.567529   2.794384   2.794383
    15  H    4.416432   4.752719   2.792604   2.568140   3.111353
    16  H    4.752719   4.416432   2.792604   3.111353   2.568140
    17  C    5.243401   5.243401   3.936513   4.223468   4.223468
    18  H    5.466221   5.174249   4.260653   4.786119   4.449550
    19  H    6.223129   6.223129   4.747454   4.903965   4.903965
    20  H    5.174249   5.466222   4.260653   4.449550   4.786119
                   11         12         13         14         15
    11  C    0.000000
    12  H    1.100440   0.000000
    13  H    1.100440   1.756953   0.000000
    14  C    1.534020   2.162025   2.162025   0.000000
    15  H    2.161450   3.068008   2.515451   1.099411   0.000000
    16  H    2.161451   2.515451   3.068008   1.099411   1.755981
    17  C    2.560701   2.784448   2.784448   1.532119   2.162846
    18  H    2.829864   2.606121   3.146476   2.183078   3.083226
    19  H    3.514091   3.791543   3.791543   2.185841   2.505526
    20  H    2.829865   3.146476   2.606121   2.183078   2.529734
                   16         17         18         19         20
    16  H    0.000000
    17  C    2.162846   0.000000
    18  H    2.529735   1.097089   0.000000
    19  H    2.505526   1.096071   1.770565   0.000000
    20  H    3.083226   1.097089   1.769225   1.770565   0.000000
 Stoichiometry    C6H14
 Framework group  C2[X(C6H14)]
 Deg. of freedom    28
 Full point group                 C2      NOp   2
 Largest Abelian subgroup         C2      NOp   2
 Largest concise Abelian subgroup C2      NOp   2
                         Standard orientation:                         
 ---------------------------------------------------------------------
 Center     Atomic      Atomic             Coordinates (Angstroms)
 Number     Number       Type             X           Y           Z
 ---------------------------------------------------------------------
      1          6           0       -1.414209    2.904911    0.000000
      2          1           0       -0.900509    3.301367   -0.884612
      3          1           0       -0.900510    3.301367    0.884613
      4          1           0       -2.434243    3.306036    0.000000
      5          6           0       -1.414209    1.372792    0.000000
      6          1           0       -1.965397    1.006694    0.877990
      7          1           0       -1.965397    1.006694   -0.877991
      8          6           0       -0.004912    0.766905    0.000000
      9          1           0        0.546825    1.134099    0.878477
     10          1           0        0.546825    1.134099   -0.878477
     11          6           0        0.004912   -0.766905    0.000000
     12          1           0       -0.546825   -1.134099   -0.878477
     13          1           0       -0.546825   -1.134099    0.878477
     14          6           0        1.414209   -1.372792    0.000000
     15          1           0        1.965397   -1.006694    0.877990
     16          1           0        1.965397   -1.006694   -0.877991
     17          6           0        1.414209   -2.904911    0.000000
     18          1           0        0.900509   -3.301367   -0.884612
     19          1           0        2.434243   -3.306036    0.000000
     20          1           0        0.900510   -3.301367    0.884613
 ---------------------------------------------------------------------
 Rotational constants (GHZ):     14.5834152      1.1250898      1.0866082
 Leave Link  202 at Sun Oct  4 11:28:47 2015, MaxMem=  805306368 cpu:       0.0
 (Enter /share/apps/g09/l301.exe)
 Standard basis: 6-31G(d) (6D, 7F)
 Ernie: Thresh=  0.10000D-02 Tol=  0.10000D-05 Strict=F.
 There are    59 symmetry adapted basis functions of A   symmetry.
 There are    59 symmetry adapted basis functions of B   symmetry.
 Integral buffers will be    131072 words long.
 Raffenetti 2 integral format.
 Two-electron integral symmetry is turned on.
   118 basis functions,   224 primitive gaussians,   118 cartesian basis functions
    25 alpha electrons       25 beta electrons
       nuclear repulsion energy       243.1446602964 Hartrees.
 IExCor=  402 DFT=T Ex+Corr=B3LYP ExCW=0 ScaHFX=  0.200000
 ScaDFX=  0.800000  0.720000  1.000000  0.810000 ScalE2=  1.000000  1.000000
 IRadAn=      5 IRanWt=     -1 IRanGd=            0 ICorTp=0
 NAtoms=   20 NActive=   20 NUniq=   10 SFac= 3.00D+00 NAtFMM=   80 NAOKFM=F Big=F
 Leave Link  301 at Sun Oct  4 11:28:47 2015, MaxMem=  805306368 cpu:       0.2
 (Enter /share/apps/g09/l302.exe)
 NPDir=0 NMtPBC=     1 NCelOv=     1 NCel=       1 NClECP=     1 NCelD=      1
         NCelK=      1 NCelE2=     1 NClLst=     1 CellRange=     0.0.
 One-electron integrals computed using PRISM.
 One-electron integral symmetry used in STVInt
 NBasis=   118 RedAO= T  NBF=    59    59
 NBsUse=   118 1.00D-06 NBFU=    59    59
 Precomputing XC quadrature grid using
 IXCGrd= 2 IRadAn=           5 IRanWt=          -1 IRanGd=           0 AccXCQ= 1.00D-10.
 NRdTot=    1658 NPtTot=      444860 NUsed=      456739 NTot=      456771
 NSgBfM=   118   118   118   118   118 NAtAll=    20    20.
 Leave Link  302 at Sun Oct  4 11:28:48 2015, MaxMem=  805306368 cpu:       2.3
 (Enter /share/apps/g09/l303.exe)
 DipDrv:  MaxL=1.
 Leave Link  303 at Sun Oct  4 11:28:48 2015, MaxMem=  805306368 cpu:       0.1
 (Enter /share/apps/g09/l401.exe)
 Initial guess read from the read-write file.
 B after Tr=     0.000000    0.000000    0.000000
         Rot=    1.000000    0.000000    0.000000    0.000000 Ang=   0.00 deg.
 Guess basis will be translated and rotated to current coordinates.
 Initial guess orbital symmetries:
       Occupied  (B) (A) (A) (B) (B) (A) (A) (B) (A) (B) (A) (B)
                 (A) (B) (A) (B) (A) (B) (A) (B) (B) (A) (A) (B)
                 (A)
       Virtual   (A) (B) (A) (B) (A) (B) (A) (B) (B) (A) (A) (B)
                 (A) (B) (B) (A) (B) (A) (B) (A) (B) (A) (B) (A)
                 (A) (B) (A) (B) (B) (A) (B) (A) (A) (B) (B) (B)
                 (A) (A) (B) (B) (A) (A) (B) (B) (B) (A) (A) (A)
                 (B) (A) (A) (B) (B) (A) (A) (B) (B) (A) (A) (B)
                 (B) (A) (B) (A) (A) (A) (B) (B) (B) (A) (A) (B)
                 (B) (A) (B) (A) (B) (A) (B) (A) (B) (A) (A) (B)
                 (B) (A) (B) (A) (B) (A) (B) (A) (B)
 The electronic state of the initial guess is 1-A.
 Leave Link  401 at Sun Oct  4 11:28:48 2015, MaxMem=  805306368 cpu:       0.5
 (Enter /share/apps/g09/l502.exe)
 Closed shell SCF:
 Requested convergence on RMS density matrix=1.00D-08 within 128 cycles.
 Requested convergence on MAX density matrix=1.00D-06.
 Requested convergence on             energy=1.00D-06.
 No special actions if energy rises.
 Using DIIS extrapolation, IDIIS=  1040.
 Integral symmetry usage will be decided dynamically.
       456546 words used for storage of precomputed grid.
 Keep R1 ints in memory in canonical form, NReq=26110771.
 IEnd=      518260 IEndB=      518260 NGot=   805306368 MDV=   780168032
 LenX=   780168032 LenY=   780153667
 Symmetry not used in FoFDir.
 MinBra= 0 MaxBra= 2 Meth= 1.
 IRaf=       0 NMat=   1 IRICut=       1 DoRegI=T DoRafI=F ISym2E= 0 JSym2E=0.

 Cycle   1  Pass 1  IDiag  1:
 E= -237.085480158187    
 DIIS: error= 2.45D-05 at cycle   1 NSaved=   1.
 NSaved= 1 IEnMin= 1 EnMin= -237.085480158187     IErMin= 1 ErrMin= 2.45D-05
 ErrMax= 2.45D-05 EMaxC= 1.00D-01 BMatC= 8.82D-08 BMatP= 8.82D-08
 IDIUse=1 WtCom= 1.00D+00 WtEn= 0.00D+00
 Coeff-Com:  0.100D+01
 Coeff:      0.100D+01
 Gap=     0.397 Goal=   None    Shift=    0.000
 RMSDP=3.61D-06 MaxDP=4.79D-05              OVMax= 1.04D-04

 Cycle   2  Pass 1  IDiag  1:
 E= -237.085480282048     Delta-E=       -0.000000123861 Rises=F Damp=F
 DIIS: error= 1.44D-05 at cycle   2 NSaved=   2.
 NSaved= 2 IEnMin= 2 EnMin= -237.085480282048     IErMin= 2 ErrMin= 1.44D-05
 ErrMax= 1.44D-05 EMaxC= 1.00D-01 BMatC= 1.35D-08 BMatP= 8.82D-08
 IDIUse=1 WtCom= 1.00D+00 WtEn= 0.00D+00
 Coeff-Com:  0.184D+00 0.816D+00
 Coeff:      0.184D+00 0.816D+00
 Gap=     0.397 Goal=   None    Shift=    0.000
 RMSDP=1.63D-06 MaxDP=3.37D-05 DE=-1.24D-07 OVMax= 3.51D-05

 Cycle   3  Pass 1  IDiag  1:
 E= -237.085480288896     Delta-E=       -0.000000006849 Rises=F Damp=F
 DIIS: error= 1.07D-05 at cycle   3 NSaved=   3.
 NSaved= 3 IEnMin= 3 EnMin= -237.085480288896     IErMin= 3 ErrMin= 1.07D-05
 ErrMax= 1.07D-05 EMaxC= 1.00D-01 BMatC= 7.41D-09 BMatP= 1.35D-08
 IDIUse=1 WtCom= 1.00D+00 WtEn= 0.00D+00
 Coeff-Com: -0.172D-01 0.424D+00 0.593D+00
 Coeff:     -0.172D-01 0.424D+00 0.593D+00
 Gap=     0.397 Goal=   None    Shift=    0.000
 RMSDP=6.75D-07 MaxDP=1.50D-05 DE=-6.85D-09 OVMax= 1.43D-05

 Cycle   4  Pass 1  IDiag  1:
 E= -237.085480296497     Delta-E=       -0.000000007601 Rises=F Damp=F
 DIIS: error= 6.71D-07 at cycle   4 NSaved=   4.
 NSaved= 4 IEnMin= 4 EnMin= -237.085480296497     IErMin= 4 ErrMin= 6.71D-07
 ErrMax= 6.71D-07 EMaxC= 1.00D-01 BMatC= 3.12D-11 BMatP= 7.41D-09
 IDIUse=1 WtCom= 1.00D+00 WtEn= 0.00D+00
 Coeff-Com: -0.883D-02 0.951D-01 0.153D+00 0.761D+00
 Coeff:     -0.883D-02 0.951D-01 0.153D+00 0.761D+00
 Gap=     0.397 Goal=   None    Shift=    0.000
 RMSDP=6.23D-08 MaxDP=7.32D-07 DE=-7.60D-09 OVMax= 1.24D-06

 Cycle   5  Pass 1  IDiag  1:
 E= -237.085480296529     Delta-E=       -0.000000000032 Rises=F Damp=F
 DIIS: error= 1.14D-07 at cycle   5 NSaved=   5.
 NSaved= 5 IEnMin= 5 EnMin= -237.085480296529     IErMin= 5 ErrMin= 1.14D-07
 ErrMax= 1.14D-07 EMaxC= 1.00D-01 BMatC= 1.54D-12 BMatP= 3.12D-11
 IDIUse=1 WtCom= 1.00D+00 WtEn= 0.00D+00
 Coeff-Com: -0.237D-02 0.202D-01 0.336D-01 0.241D+00 0.707D+00
 Coeff:     -0.237D-02 0.202D-01 0.336D-01 0.241D+00 0.707D+00
 Gap=     0.397 Goal=   None    Shift=    0.000
 RMSDP=1.40D-08 MaxDP=2.54D-07 DE=-3.21D-11 OVMax= 3.19D-07

 Cycle   6  Pass 1  IDiag  1:
 E= -237.085480296529     Delta-E=        0.000000000000 Rises=F Damp=F
 DIIS: error= 5.62D-08 at cycle   6 NSaved=   6.
 NSaved= 6 IEnMin= 5 EnMin= -237.085480296529     IErMin= 6 ErrMin= 5.62D-08
 ErrMax= 5.62D-08 EMaxC= 1.00D-01 BMatC= 3.76D-13 BMatP= 1.54D-12
 IDIUse=1 WtCom= 1.00D+00 WtEn= 0.00D+00
 Coeff-Com: -0.353D-03 0.965D-03 0.204D-02 0.471D-01 0.359D+00 0.592D+00
 Coeff:     -0.353D-03 0.965D-03 0.204D-02 0.471D-01 0.359D+00 0.592D+00
 Gap=     0.397 Goal=   None    Shift=    0.000
 RMSDP=5.42D-09 MaxDP=1.16D-07 DE= 1.71D-13 OVMax= 1.36D-07

 SCF Done:  E(RB3LYP) =  -237.085480297     A.U. after    6 cycles
             Convg  =    0.5417D-08             -V/T =  2.0105
 KE= 2.346241223357D+02 PE=-1.033210854495D+03 EE= 3.183565915669D+02
 Leave Link  502 at Sun Oct  4 11:29:02 2015, MaxMem=  805306368 cpu:      51.9
 (Enter /share/apps/g09/l701.exe)
 Compute integral first derivatives.
 ... and contract with generalized density number  0.
 Leave Link  701 at Sun Oct  4 11:29:02 2015, MaxMem=  805306368 cpu:       1.4
 (Enter /share/apps/g09/l702.exe)
 L702 exits ... SP integral derivatives will be done elsewhere.
 Leave Link  702 at Sun Oct  4 11:29:02 2015, MaxMem=  805306368 cpu:       0.1
 (Enter /share/apps/g09/l703.exe)
 Compute integral first derivatives, UseDBF=F ICtDFT=           0.
 Integral derivatives from FoFDir, PRISM(SPDF).
 Calling FoFJK, ICntrl=      2127 FMM=F ISym2X=1 I1Cent= 0 IOpClX= 0 NMat=1 NMatS=1 NMatT=0.
 FoFCou: FMM=F IPFlag=           0 FMFlag=      100000 FMFlg1=         800
         NFxFlg=           0 DoJE=F BraDBF=F KetDBF=F FulRan=T
         Omega=  0.000000  0.000000  1.000000  0.000000  0.000000 ICntrl=    2127 IOpCl=  0
         NMat0=    1 NMatS0=    1 NMatT0=    0 NMatD0=    1 NMtDS0=    0 NMtDT0=    0
         I1Cent=           0 NGrid=           0.
 Petite list used in FoFCou.
 Leave Link  703 at Sun Oct  4 11:29:07 2015, MaxMem=  805306368 cpu:      16.1
 (Enter /share/apps/g09/l716.exe)
 Dipole        =-3.99680289D-15-1.77635684D-15 3.03206149D-09
 ***** Axes restored to original set *****
 -------------------------------------------------------------------
 Center     Atomic                   Forces (Hartrees/Bohr)
 Number     Number              X              Y              Z
 -------------------------------------------------------------------
      1        6           0.000012239    0.000009675   -0.000000008
      2        1          -0.000004130    0.000001890    0.000001354
      3        1          -0.000004138    0.000001889   -0.000001353
      4        1           0.000012476    0.000000910   -0.000000002
      5        6           0.000041985    0.000021492    0.000000033
      6        1           0.000000278   -0.000008805   -0.000002430
      7        1           0.000000270   -0.000008815    0.000002424
      8        6          -0.000039905   -0.000028549   -0.000000021
      9        1           0.000003402    0.000006758   -0.000003255
     10        1           0.000003392    0.000006750    0.000003257
     11        6           0.000039905    0.000028549   -0.000000021
     12        1          -0.000003392   -0.000006750    0.000003257
     13        1          -0.000003402   -0.000006758   -0.000003255
     14        6          -0.000041985   -0.000021492    0.000000033
     15        1          -0.000000278    0.000008805   -0.000002430
     16        1          -0.000000270    0.000008815    0.000002424
     17        6          -0.000012239   -0.000009675   -0.000000008
     18        1           0.000004130   -0.000001890    0.000001354
     19        1          -0.000012476   -0.000000910   -0.000000002
     20        1           0.000004138   -0.000001889   -0.000001353
 -------------------------------------------------------------------
 Cartesian Forces:  Max     0.000041985 RMS     0.000013391
 Leave Link  716 at Sun Oct  4 11:29:07 2015, MaxMem=  805306368 cpu:       0.1
 (Enter /share/apps/g09/l103.exe)

 GradGradGradGradGradGradGradGradGradGradGradGradGradGradGradGradGradGrad
 Berny optimization.
 Using GEDIIS/GDIIS optimizer.
 Internal  Forces:  Max     0.000057434 RMS     0.000010605
 Search for a local minimum.
 Step number   2 out of a maximum of  110
 All quantities printed in internal units (Hartrees-Bohrs-Radians)
 RMS Force = .10605D-04 SwitMx=.10000D-02 MixMth= 2
 Mixed Optimization -- En-DIIS/RFO-DIIS
 Swaping is turned off.
 Update second derivatives using D2CorX and points    1    2
 DE= -2.95D-07 DEPred=-3.27D-07 R= 9.02D-01
 Trust test= 9.02D-01 RLast= 2.28D-03 DXMaxT set to 3.00D-01
     Eigenvalues ---    0.00315   0.00316   0.00316   0.00340   0.00340
     Eigenvalues ---    0.03381   0.03381   0.03425   0.03425   0.04630
     Eigenvalues ---    0.04763   0.04773   0.04780   0.05434   0.05434
     Eigenvalues ---    0.05476   0.05532   0.08266   0.08440   0.08496
     Eigenvalues ---    0.08504   0.12285   0.12285   0.12327   0.12327
     Eigenvalues ---    0.16000   0.16000   0.16000   0.16000   0.16000
     Eigenvalues ---    0.16318   0.21838   0.21899   0.21905   0.23267
     Eigenvalues ---    0.27749   0.29053   0.29198   0.29223   0.30548
     Eigenvalues ---    0.33294   0.33626   0.33626   0.33626   0.33683
     Eigenvalues ---    0.33739   0.33739   0.33739   0.33969   0.33994
     Eigenvalues ---    0.33994   0.33994   0.34096   0.366381000.00000
     Eigenvalues --- 1000.000001000.000001000.000001000.000001000.00000
     Eigenvalues --- 1000.000001000.000001000.000001000.000001000.00000
     Eigenvalues --- 1000.000001000.000001000.000001000.000001000.00000
     Eigenvalues --- 1000.000001000.000001000.000001000.000001000.00000
     Eigenvalues --- 1000.000001000.000001000.000001000.000001000.00000
     Eigenvalues --- 1000.000001000.000001000.000001000.000001000.00000
     Eigenvalues --- 1000.000001000.000001000.000001000.000001000.00000
     Eigenvalues --- 1000.000001000.000001000.000001000.000001000.00000
     Eigenvalues --- 1000.000001000.000001000.000001000.000001000.00000
 En-DIIS/RFO-DIIS IScMMF=        0 using points:     2    1
 RFO step:  Lambda=-2.02704470D-08.
 DIIS coeffs:      0.90409      0.09591
 Iteration  1 RMS(Cart)=  0.00010685 RMS(Int)=  0.00000000
 Iteration  2 RMS(Cart)=  0.00000000 RMS(Int)=  0.00000000
 ClnCor:  largest displacement from symmetrization is 2.37D-09 for atom    19.
 Variable       Old X    -DE/DX   Delta X   Delta X   Delta X     New X
                                  (DIIS)     (GDIIS)  (Total)
    R1        2.07320   0.00000   0.00002  -0.00004  -0.00002   2.07318
    R2        2.07320   0.00000   0.00002  -0.00004  -0.00002   2.07318
    R3        2.07127   0.00001   0.00004  -0.00003   0.00001   2.07128
    R4        2.89528   0.00001   0.00001   0.00001   0.00002   2.89530
    R5        2.07758  -0.00001   0.00001  -0.00004  -0.00003   2.07756
    R6        2.07758  -0.00001   0.00001  -0.00004  -0.00003   2.07756
    R7        2.89888   0.00006   0.00001   0.00017   0.00018   2.89905
    R8        2.07953  -0.00001   0.00001  -0.00004  -0.00002   2.07951
    R9        2.07953  -0.00001   0.00001  -0.00004  -0.00002   2.07951
   R10        2.89854   0.00002   0.00004   0.00001   0.00005   2.89859
   R11        2.07953  -0.00001   0.00001  -0.00004  -0.00002   2.07951
   R12        2.07953  -0.00001   0.00001  -0.00004  -0.00002   2.07951
   R13        2.89888   0.00006   0.00001   0.00017   0.00018   2.89905
   R14        2.07758  -0.00001   0.00001  -0.00004  -0.00003   2.07756
[...]
 0.11739370,-0.00621603,0.14907018,0.00001531,0.00094526,0.00090760,-0.
 00015512,0.00055154,0.00167232,0.00041583,-0.00016316,0.00086620,0.000
 61283,0.00003901,0.00005120,0.00798454,-0.11777018,-0.21482012,-0.0089
 4466,0.13152270,0.23041907,-0.00277024,0.01857941,-0.02539832,0.001270
 83,-0.00060504,0.00052365,-0.00530677,0.00352168,0.00033640,0.00105256
 ,-0.00084239,-0.00016886,-0.04853490,0.00579381,-0.00785556,-0.0003302
 1,-0.00092529,0.00104067,0.05730018,0.00159016,-0.01038711,0.01375977,
 -0.00070430,0.00010024,-0.00007062,0.00317920,-0.00085365,-0.00024101,
 -0.00003328,0.00079329,-0.00035958,0.00589243,-0.13712648,0.11739367,-
 0.00092529,0.01271339,-0.01586138,-0.00621602,0.14907013,-0.00001531,-
 0.00094525,0.00090760,-0.00041583,0.00016316,0.00086620,0.00015512,-0.
 00055154,0.00167232,-0.00061283,-0.00003901,0.00005120,-0.00798453,0.1
 1777015,-0.21482012,-0.00104067,0.01586138,-0.02235378,0.00894465,-0.1
 3152267,0.23041908,-0.03012224,-0.01732091,0.,0.00197391,-0.00107874,-
 0.00031140,0.00197391,-0.00107874,0.00031140,-0.00395441,0.00240007,0.
 ,-0.14089017,-0.05196213,0.,-0.00066385,-0.00058478,-0.00015238,-0.000
 66385,-0.00058478,0.00015238,0.45934524,0.01192565,0.01376748,0.,0.000
 93785,0.00035321,0.00003515,0.00093785,0.00035321,-0.00003515,0.005846
 71,-0.00198713,0.,-0.05305008,-0.12535914,0.,-0.01647726,-0.01385801,0
 .00020204,-0.01647725,-0.01385801,-0.00020204,-0.00546672,0.53399159,0
 .,0.,-0.00011297,0.00128336,0.00039833,0.00003020,-0.00128336,-0.00039
 833,0.00003020,0.,0.,0.00023031,0.,0.,-0.08173029,-0.02297756,-0.01818
 370,-0.00001726,0.02297756,0.01818370,-0.00001726,0.,0.,0.58932058,0.0
 0170107,-0.00060527,0.00106314,-0.00009607,0.00004283,0.00001211,-0.00
 030783,0.00051089,-0.00062559,0.00031252,0.00013180,-0.00031475,-0.000
 70256,-0.01644000,0.02292063,0.00101037,0.00078780,-0.00046642,-0.0043
 5658,-0.00366116,-0.00007689,-0.04862919,0.00616510,-0.00806201,0.0570
 5939,0.00123311,0.00053427,-0.00022784,-0.00009429,0.00008493,-0.00008
 379,-0.00064230,0.00068534,-0.00028109,0.00010990,0.00005460,-0.000363
 29,-0.00039340,-0.01384095,0.01814001,0.00079818,0.00040254,-0.0001590
 1,-0.00356162,-0.00212642,-0.00019957,0.00612040,-0.13554194,0.1160133
 5,-0.00637957,0.14816076,-0.00023648,-0.00010844,0.00007615,-0.0000337
 9,0.00006934,-0.00005019,0.00068167,-0.00019585,0.00024589,0.00017025,
 -0.00026336,0.00026462,-0.00009258,-0.00020880,-0.00007933,0.00047973,
 0.00018532,0.00095906,-0.00012542,-0.00020118,0.00174940,-0.00807699,0
 .11616051,-0.21306546,0.00903023,-0.13050301,0.22896627,0.00170107,-0.
 00060527,-0.00106314,-0.00030783,0.00051089,0.00062559,-0.00009607,0.0
 0004283,-0.00001211,0.00031252,0.00013180,0.00031475,-0.00070256,-0.01
 644000,-0.02292063,-0.00435658,-0.00366116,0.00007689,0.00101037,0.000
 78780,0.00046642,-0.04862919,0.00616510,0.00806201,-0.00030893,-0.0008
 7426,-0.00105861,0.05705939,0.00123311,0.00053427,0.00022784,-0.000642
 30,0.00068534,0.00028109,-0.00009429,0.00008493,0.00008379,0.00010990,
 0.00005460,0.00036329,-0.00039340,-0.01384095,-0.01814001,-0.00356162,
 -0.00212642,0.00019957,0.00079818,0.00040254,0.00015901,0.00612040,-0.
 13554195,-0.11601335,-0.00087426,0.01255368,0.01588519,-0.00637957,0.1
 4816077,0.00023648,0.00010844,0.00007615,-0.00068167,0.00019585,0.0002
 4589,0.00003379,-0.00006934,-0.00005019,-0.00017025,0.00026336,0.00026
 462,0.00009259,0.00020880,-0.00007933,0.00012542,0.00020118,0.00174940
 ,-0.00047973,-0.00018531,0.00095906,0.00807699,-0.11616051,-0.21306544
 ,0.00105861,-0.01588519,-0.02230490,-0.00903023,0.13050301,0.22896625,
 -0.00236405,-0.00324423,0.,-0.00010518,-0.00000053,0.00013817,-0.00010
 518,-0.00000053,-0.00013817,-0.00077822,0.00085186,0.,-0.02915763,0.01
 150398,0.,0.00177917,0.00130103,0.00034427,0.00177917,0.00130103,-0.00
 034427,-0.15464786,0.04797047,0.,-0.00307018,0.00187643,-0.00004086,-0
 .00307018,0.00187643,0.00004086,0.45934524,-0.00370309,-0.00443677,0.,
 0.00011307,0.00013236,0.00030712,0.00011307,0.00013236,-0.00030712,-0.
 00200973,0.00088478,0.,-0.01699336,0.01463600,0.,-0.00078784,0.0002336
 0,-0.00004602,-0.00078784,0.00023360,0.00004602,0.04797047,-0.11184106
 ,0.,0.01778916,-0.01114709,-0.00027004,0.01778916,-0.01114709,0.000270
 04,-0.00546672,0.53399159,0.,0.,-0.00064138,-0.00015080,0.00019926,0.0
 0028788,0.00015080,-0.00019926,0.00028788,0.,0.,0.00059543,0.,0.,-0.00
 068127,-0.00117688,0.00002882,-0.00004843,0.00117688,-0.00002882,-0.00
 004843,0.,0.,-0.08137556,-0.02510908,0.01470320,0.00001064,0.02510908,
 -0.01470320,0.00001064,0.,0.,0.58932058,-0.00006188,0.00004746,0.00016
 549,0.00002238,0.00001424,-0.00001700,0.00014538,-0.00020163,0.0001791
 8,-0.00001240,-0.00008393,0.00007812,0.00175858,0.00099393,-0.00116658
 ,-0.00008252,-0.00007539,0.00001010,-0.00036999,-0.00061569,0.00066481
 ,-0.00307018,0.01778916,-0.02510908,-0.00522753,0.00311700,0.00015235,
 0.00121597,-0.00066330,0.00050356,-0.04862919,0.00616510,-0.00806201,0
 .05705939,0.00004063,0.00013513,-0.00027107,0.00000728,-0.00005111,0.0
 0000879,-0.00022397,0.00005574,-0.00006514,0.00005622,0.00003371,-0.00
 004183,-0.00105801,0.00020706,-0.00018962,0.00005508,0.00008625,-0.000
 08856,0.00047651,0.00072335,-0.00025718,0.00187643,-0.01114709,0.01470
 320,0.00311700,-0.00122089,-0.00014223,-0.00066330,0.00021104,-0.00010
 691,0.00612040,-0.13554195,0.11601335,-0.00637957,0.14816077,-0.000170
 79,-0.00033138,0.00033256,0.00002331,0.00000163,-0.00001832,0.00019505
 ,-0.00006888,-0.00001352,-0.00011296,0.00003239,-0.00001965,0.00034469
 ,0.00010846,-0.00004522,0.00000280,0.00009211,-0.00002277,-0.00062805,
 -0.00034869,0.00034870,-0.00004086,-0.00027004,0.00001064,0.00015235,-
 0.00014223,0.00171419,-0.00050356,0.00010691,0.00095188,-0.00807699,0.
 11616051,-0.21306544,0.00903023,-0.13050301,0.22896625,-0.00006188,0.0
 0004746,-0.00016549,0.00014538,-0.00020163,-0.00017918,0.00002238,0.00
 001424,0.00001700,-0.00001240,-0.00008393,-0.00007812,0.00175858,0.000
 99393,0.00116658,-0.00036999,-0.00061569,-0.00066481,-0.00008252,-0.00
 007539,-0.00001010,-0.00307018,0.01778916,0.02510908,0.00121597,-0.000
 66330,-0.00050356,-0.00522753,0.00311700,-0.00015235,-0.04862919,0.006
 16510,0.00806201,-0.00030893,-0.00087426,-0.00105861,0.05705939,0.0000
 4063,0.00013513,0.00027107,-0.00022397,0.00005574,0.00006514,0.0000072
 8,-0.00005111,-0.00000879,0.00005622,0.00003371,0.00004183,-0.00105801
 ,0.00020706,0.00018962,0.00047651,0.00072335,0.00025718,0.00005508,0.0
 0008625,0.00008856,0.00187643,-0.01114709,-0.01470320,-0.00066330,0.00
 021104,0.00010691,0.00311700,-0.00122089,0.00014223,0.00612040,-0.1355
 4194,-0.11601335,-0.00087426,0.01255368,0.01588519,-0.00637957,0.14816
 076,0.00017079,0.00033138,0.00033256,-0.00019505,0.00006888,-0.0000135
 2,-0.00002331,-0.00000163,-0.00001832,0.00011296,-0.00003239,-0.000019
 65,-0.00034469,-0.00010846,-0.00004522,0.00062805,0.00034869,0.0003487
 0,-0.00000280,-0.00009211,-0.00002277,0.00004086,0.00027004,0.00001064
 ,0.00050356,-0.00010691,0.00095188,-0.00015235,0.00014223,0.00171419,0
 .00807699,-0.11616051,-0.21306546,0.00105861,-0.01588519,-0.02230490,-
 0.00903023,0.13050301,0.22896627,-0.00053314,-0.00130448,0.,0.00003596
 ,0.00000942,0.00004788,0.00003596,0.00000942,-0.00004788,-0.00041209,0
 .00024917,0.,-0.00279589,0.00350427,0.,-0.00006297,-0.00007438,-0.0002
 1182,-0.00006297,-0.00007438,0.00021182,-0.02915763,-0.01699336,0.,0.0
 0175858,-0.00105801,0.00034469,0.00175858,-0.00105801,-0.00034469,-0.1
 4089017,-0.05305008,0.,-0.00070256,-0.00039340,-0.00009259,-0.00070256
 ,-0.00039340,0.00009258,0.45909255,0.00126651,0.00151501,0.,-0.0000840
 0,-0.00002085,-0.00007214,-0.00008400,-0.00002085,0.00007214,0.0007234
 6,-0.00026384,0.,0.00350427,-0.00397030,0.,-0.00012578,0.00011005,0.00
 030897,-0.00012578,0.00011005,-0.00030897,0.01150398,0.01463600,0.,0.0
 0099393,0.00020706,0.00010846,0.00099393,0.00020706,-0.00010846,-0.051
 96213,-0.12535914,0.,-0.01644000,-0.01384095,-0.00020880,-0.01644000,-
 0.01384095,0.00020880,-0.01036259,0.53550038,0.,0.,0.00065219,-0.00007
 245,0.00004695,-0.00003280,0.00007245,-0.00004695,-0.00003280,0.,0.,-0
 .00000696,0.,0.,-0.00080961,0.00008767,0.00027151,0.00032964,-0.000087
 67,-0.00027151,0.00032964,0.,0.,-0.00068127,-0.00116658,-0.00018962,-0
 .00004522,0.00116658,0.00018962,-0.00004522,0.,0.,-0.08173029,0.022920
 63,0.01814001,-0.00007933,-0.02292063,-0.01814001,-0.00007933,0.,-0.00
 000002,0.59289173,0.00002760,0.00007470,-0.00006573,-0.00000681,0.0000
 0213,0.00000266,-0.00005449,0.00002958,-0.00001771,0.00001438,-0.00000
 958,-0.00000357,-0.00006297,-0.00012578,-0.00008767,0.00001982,0.00000
 005,0.00001732,0.00006443,0.00021970,-0.00018637,0.00177917,-0.0007878
 4,0.00117688,-0.00036999,0.00047651,-0.00062805,-0.00008252,0.00005508
 ,-0.00000280,-0.00066385,-0.01647726,0.02297756,-0.00435658,-0.0035616
 2,-0.00012542,0.00101037,0.00079818,-0.00047973,-0.04853489,0.00579382
 ,-0.00785557,0.05730018,-0.00001327,0.00000656,-0.00005312,-0.00000294
 ,0.00000495,0.00000035,-0.00004389,0.00002499,-0.00000969,-0.00001996,
 -0.00000327,0.00000322,-0.00007438,0.00011005,-0.00027151,0.00000005,-
 0.00005065,0.00001004,0.00021970,0.00013623,-0.00010507,0.00130103,0.0
 0023360,-0.00002882,-0.00061569,0.00072335,-0.00034869,-0.00007539,0.0
 0008625,-0.00009211,-0.00058478,-0.01385801,0.01818370,-0.00366116,-0.
 00212642,-0.00020118,0.00078780,0.00040254,-0.00018532,0.00589243,-0.1
 3712651,0.11739370,-0.00621603,0.14907018,0.00005165,0.00007507,-0.000
 03198,0.00000230,0.00000029,-0.00000741,0.00002317,-0.00000472,0.00002
 521,0.00003181,-0.00001756,0.00000388,0.00021182,-0.00030897,0.0003296
 4,-0.00001732,-0.00001004,-0.00002188,-0.00018637,-0.00010507,-0.00000
 867,-0.00034427,0.00004602,-0.00004843,0.00066481,-0.00025718,0.000348
 70,-0.00001010,0.00008856,-0.00002277,0.00015238,-0.00020204,-0.000017
 26,-0.00007689,-0.00019957,0.00174940,0.00046642,0.00015901,0.00095906
 ,-0.00798454,0.11777018,-0.21482012,0.00894466,-0.13152270,0.23041907,
 0.00002760,0.00007470,0.00006573,-0.00005449,0.00002958,0.00001771,-0.
 00000681,0.00000213,-0.00000266,0.00001438,-0.00000958,0.00000357,-0.0
 0006297,-0.00012578,0.00008767,0.00006443,0.00021970,0.00018637,0.0000
 1982,0.00000005,-0.00001732,0.00177917,-0.00078784,-0.00117688,-0.0000
 8252,0.00005508,0.00000280,-0.00036999,0.00047651,0.00062805,-0.000663
 85,-0.01647725,-0.02297756,0.00101037,0.00079818,0.00047973,-0.0043565
 8,-0.00356162,0.00012542,-0.04853490,0.00579381,0.00785556,-0.00033021
 ,-0.00092529,-0.00104067,0.05730018,-0.00001327,0.00000656,0.00005312,
 -0.00004389,0.00002499,0.00000969,-0.00000294,0.00000495,-0.00000035,-
 0.00001996,-0.00000327,-0.00000322,-0.00007438,0.00011005,0.00027151,0
 .00021970,0.00013623,0.00010507,0.00000005,-0.00005065,-0.00001004,0.0
 0130103,0.00023360,0.00002882,-0.00007539,0.00008625,0.00009211,-0.000
 61569,0.00072335,0.00034869,-0.00058478,-0.01385801,-0.01818370,0.0007
 8780,0.00040254,0.00018531,-0.00366116,-0.00212642,0.00020118,0.005892
 43,-0.13712648,-0.11739367,-0.00092529,0.01271339,0.01586138,-0.006216
 02,0.14907013,-0.00005165,-0.00007507,-0.00003198,-0.00002317,0.000004
 72,0.00002521,-0.00000230,-0.00000029,-0.00000741,-0.00003181,0.000017
 56,0.00000388,-0.00021182,0.00030897,0.00032964,0.00018637,0.00010507,
 -0.00000867,0.00001732,0.00001004,-0.00002188,0.00034427,-0.00004602,-
 0.00004843,0.00001010,-0.00008856,-0.00002277,-0.00066481,0.00025718,0
 .00034870,-0.00015238,0.00020204,-0.00001726,-0.00046642,-0.00015901,0
 .00095906,0.00007689,0.00019957,0.00174940,0.00798453,-0.11777015,-0.2
 1482012,0.00104067,-0.01586138,-0.02235378,-0.00894465,0.13152267,0.23
 041908,-0.00028790,-0.00038083,0.,0.00001534,0.00000445,0.00001799,0.0
 0001534,0.00000445,-0.00001799,-0.00014455,0.00007111,0.,-0.00053314,0
 .00126651,0.,0.00002760,-0.00001327,-0.00005165,0.00002760,-0.00001327
 ,0.00005165,-0.00236405,-0.00370309,0.,-0.00006188,0.00004063,-0.00017
 079,-0.00006188,0.00004063,0.00017079,-0.03012224,0.01192565,0.,0.0017
 0107,0.00123311,-0.00023648,0.00170107,0.00123311,0.00023648,-0.163805
 42,0.04992403,0.,-0.00277024,0.00159016,-0.00001531,-0.00277024,0.0015
 9016,0.00001531,0.50472264,-0.00038083,-0.00059497,0.,0.00001394,0.000
 02477,0.00002672,0.00001394,0.00002477,-0.00002672,-0.00030057,0.00008
 792,0.,-0.00130448,0.00151501,0.,0.00007470,0.00000656,-0.00007507,0.0
 0007470,0.00000656,0.00007507,-0.00324423,-0.00443677,0.,0.00004746,0.
 00013513,-0.00033138,0.00004746,0.00013513,0.00033138,-0.01732091,0.01
 376748,0.,-0.00060527,0.00053427,-0.00010844,-0.00060527,0.00053427,0.
 00010844,0.05095401,-0.11179454,0.,0.01857942,-0.01038711,-0.00094526,
 0.01857941,-0.01038711,0.00094525,0.04568868,0.55117272,0.,0.,-0.00002
 677,-0.00000506,-0.00000820,0.00000364,0.00000506,0.00000820,0.0000036
 4,0.,0.,0.00000008,0.,0.,0.00065219,0.00006573,0.00005312,-0.00003198,
 -0.00006573,-0.00005312,-0.00003198,0.,0.,-0.00064138,0.00016549,-0.00
 027107,0.00033256,-0.00016549,0.00027107,0.00033256,0.,0.,-0.00011297,
 0.00106314,-0.00022784,0.00007615,-0.00106314,0.00022784,0.00007615,0.
 ,0.,-0.08162631,-0.02539831,0.01375977,0.00090760,0.02539832,-0.013759
 77,0.00090760,0.,0.00000001,0.57162128,0.00001534,0.00001394,0.0000050
 6,0.00000050,0.00000102,-0.00000279,0.00001009,-0.00000368,0.00000577,
 0.00000807,-0.00000107,-0.00000159,0.00003596,-0.00008400,0.00007245,-
 0.00000681,-0.00000294,-0.00000230,-0.00005449,-0.00004389,0.00002317,
 -0.00010518,0.00011307,0.00015080,0.00014538,-0.00022397,0.00019505,0.
 00002238,0.00000728,-0.00002331,0.00197391,0.00093785,-0.00128336,-0.0
 0030783,-0.00064230,0.00068167,-0.00009607,-0.00009429,0.00003379,-0.0
 0252350,0.01753178,-0.02562432,-0.00530677,0.00317920,0.00015512,0.001
 27083,-0.00070430,0.00041583,-0.05049811,0.00948965,-0.01444263,0.0536
 0373,0.00000445,0.00002477,0.00000820,0.00000102,-0.00000999,-0.000002
 87,-0.00000368,-0.00000473,-0.00000383,0.00002108,0.00000013,0.0000008
 6,0.00000942,-0.00002085,-0.00004695,0.00000213,0.00000495,-0.00000029
 ,0.00002958,0.00002499,-0.00000472,-0.00000053,0.00013236,-0.00019926,
 -0.00020163,0.00005574,-0.00006888,0.00001424,-0.00005111,-0.00000163,
 -0.00107874,0.00035321,-0.00039833,0.00051089,0.00068534,-0.00019585,0
 .00004283,0.00008493,-0.00006934,0.00145482,-0.01095919,0.01432958,0.0
 0352168,-0.00085365,-0.00055154,-0.00060504,0.00010024,-0.00016316,0.0
 0972143,-0.13689329,0.12154150,-0.01394918,0.14652756,-0.00001799,-0.0
 0002672,0.00000364,0.00000279,0.00000287,0.00000028,0.00000577,-0.0000
 0383,0.00000294,-0.00001736,0.00000332,-0.00000186,-0.00004788,0.00007
 214,-0.00003280,-0.00000266,-0.00000035,-0.00000741,-0.00001771,-0.000
 00969,0.00002521,-0.00013817,-0.00030712,0.00028788,0.00017918,-0.0000
 6514,-0.00001352,0.00001700,-0.00000879,-0.00001832,0.00031140,-0.0000
 3515,0.00003020,-0.00062559,-0.00028109,0.00024589,-0.00001211,0.00008
 379,-0.00005019,-0.00023461,-0.00069130,0.00098693,0.00033640,-0.00024
 101,0.00167232,-0.00052365,0.00007062,0.00086620,-0.01478673,0.1216399
 1,-0.22123907,0.01610494,-0.13529121,0.23765209,-0.00014455,-0.0003005
 7,0.,0.00000807,0.00002108,0.00001736,0.00000807,0.00002108,-0.0000173
 6,-0.00014911,0.00003835,0.,-0.00041209,0.00072346,0.,0.00001438,-0.00
 001996,-0.00003181,0.00001438,-0.00001996,0.00003181,-0.00077822,-0.00
 200973,0.,-0.00001240,0.00005622,-0.00011296,-0.00001240,0.00005622,0.
 00011296,-0.00395441,0.00584671,0.,0.00031252,0.00010990,0.00017025,0.
 00031252,0.00010990,-0.00017025,-0.02143941,-0.01993703,0.,0.00105256,
 -0.00003328,-0.00061283,0.00105256,-0.00003328,0.00061283,-0.20429289,
 -0.12929144,-0.00000001,0.00260280,0.00207705,0.00079568,0.22321480,0.
 00007111,0.00008792,0.,-0.00000107,0.00000013,-0.00000332,-0.00000107,
 0.00000013,0.00000332,0.00003835,-0.00002059,0.,0.00024917,-0.00026384
 ,0.,-0.00000958,-0.00000327,0.00001756,-0.00000958,-0.00000327,-0.0000
 1756,0.00085186,0.00088478,0.,-0.00008393,0.00003371,0.00003239,-0.000
 08393,0.00003371,-0.00003239,0.00240007,-0.00198713,0.,0.00013180,0.00
 005460,-0.00026336,0.00013180,0.00005460,0.00026336,0.01534129,0.01299
 716,0.,-0.00084239,0.00079329,-0.00003901,-0.00084239,0.00079329,0.000
 03901,-0.12994506,-0.15655756,-0.00000001,-0.01395233,-0.01227980,-0.0
 0121280,0.14050822,0.16766195,0.,0.,0.00000008,0.00000159,-0.00000086,
 -0.00000186,-0.00000159,0.00000086,-0.00000186,0.,0.,-0.00000421,0.,0.
 ,-0.00000696,0.00000357,-0.00000322,0.00000388,-0.00000357,0.00000322,
 0.00000388,0.,0.,0.00059543,0.00007812,-0.00004183,-0.00001965,-0.0000
 7812,0.00004183,-0.00001965,0.,0.,0.00023031,-0.00031475,-0.00036329,0
 .00026462,0.00031475,0.00036329,0.00026462,0.,0.,-0.00136768,-0.000168
 86,-0.00035958,0.00005120,0.00016886,0.00035958,0.00005120,-0.00000001
 ,-0.00000001,-0.04996384,0.02220794,0.01741928,0.00089188,0.00000001,0
 .00000001,0.04813670,0.00001534,0.00001394,-0.00000506,0.00001009,-0.0
 0000368,-0.00000577,0.00000050,0.00000102,0.00000279,0.00000807,-0.000
 00107,0.00000159,0.00003596,-0.00008400,-0.00007245,-0.00005449,-0.000
 04389,-0.00002317,-0.00000681,-0.00000294,0.00000230,-0.00010518,0.000
 11307,-0.00015080,0.00002238,0.00000728,0.00002331,0.00014538,-0.00022
 397,-0.00019505,0.00197391,0.00093785,0.00128336,-0.00009607,-0.000094
 29,-0.00003379,-0.00030783,-0.00064230,-0.00068167,-0.00252350,0.01753
 178,0.02562433,0.00127083,-0.00070430,-0.00041583,-0.00530677,0.003179
 20,-0.00015512,-0.05049811,0.00948964,0.01444264,-0.00079024,-0.001571
 82,-0.00132869,0.00260280,-0.01395232,-0.02220795,0.05360373,0.0000044
 5,0.00002477,-0.00000820,-0.00000368,-0.00000473,0.00000383,0.00000102
 ,-0.00000999,0.00000287,0.00002108,0.00000013,-0.00000086,0.00000942,-
 0.00002085,0.00004695,0.00002958,0.00002499,0.00000472,0.00000213,0.00
 000495,0.00000029,-0.00000053,0.00013236,0.00019926,0.00001424,-0.0000
 5111,0.00000163,-0.00020163,0.00005574,0.00006888,-0.00107874,0.000353
 21,0.00039833,0.00004283,0.00008493,0.00006934,0.00051089,0.00068534,0
 .00019585,0.00145482,-0.01095919,-0.01432958,-0.00060504,0.00010024,0.
 00016316,0.00352168,-0.00085365,0.00055154,0.00972143,-0.13689324,-0.1
 2154149,-0.00157182,0.01307839,0.01630156,0.00207705,-0.01227980,-0.01
 741928,-0.01394918,0.14652751,0.00001799,0.00002672,0.00000364,-0.0000
 0577,0.00000383,0.00000294,-0.00000279,-0.00000287,0.00000028,0.000017
 36,-0.00000332,-0.00000186,0.00004788,-0.00007214,-0.00003280,0.000017
 71,0.00000969,0.00002521,0.00000266,0.00000035,-0.00000741,0.00013817,
 0.00030712,0.00028788,-0.00001700,0.00000879,-0.00001832,-0.00017918,0
 .00006514,-0.00001352,-0.00031140,0.00003515,0.00003020,0.00001211,-0.
 00008379,-0.00005019,0.00062559,0.00028109,0.00024589,0.00023461,0.000
 69130,0.00098692,0.00052364,-0.00007062,0.00086620,-0.00033640,0.00024
 101,0.00167232,0.01478673,-0.12163991,-0.22123914,0.00132869,-0.016301
 55,-0.02130228,-0.00079568,0.00121279,0.00089188,-0.01610494,0.1352912
 1,0.23765217\\0.00000467,-0.00000022,0.,0.00000033,0.00000173,0.000003
 27,0.00000033,0.00000173,-0.00000328,-0.00000437,-0.00000396,0.,-0.000
 00935,-0.00000731,0.,0.00000102,0.00000051,-0.00000122,0.00000102,0.00
 000052,0.00000122,0.00001223,0.00000979,0.,-0.00000158,-0.00000051,-0.
 00000095,-0.00000158,-0.00000051,0.00000095,-0.00001223,-0.00000979,0.
 ,0.00000158,0.00000051,0.00000095,0.00000158,0.00000051,-0.00000095,0.
 00000935,0.00000731,0.,-0.00000102,-0.00000051,-0.00000122,-0.00000102
 ,-0.00000052,0.00000122,-0.00000467,0.00000022,0.,-0.00000033,-0.00000
 173,0.00000327,0.00000437,0.00000396,0.,-0.00000033,-0.00000173,-0.000
 00328\\\@


 DO NOT LET SELFISH MEN OR GREEDY INTERESTS SKIN YOUR COUNTRY OF ITS
 BEAUTY, ITS RICHES, OR ITS ROMANCE. -- THEODORE ROOSEVELT
 Job cpu time:  0 days  0 hours 12 minutes 57.5 seconds.
 File lengths (MBytes):  RWF=     26 Int=      0 D2E=      0 Chk=      2 Scr=      1
 Normal termination of Gaussian 09 at Sun Oct  4 11:32:49 2015.
