 Entering Gaussian System, Link 0=/home/hetanjin/apps/g09D01/g09/g09
 Input=C6H14_3_r013_C5_2_opt_B3L.gjf
 Output=C6H14_3_r013_C5_2_opt_B3L.log
 Initial command:
 /home/hetanjin/apps/g09D01/g09/l1.exe "/state/partition1/Gau-2863.inp" -scrdir="/state/partition1/"
 Entering Link 1 = /home/hetanjin/apps/g09D01/g09/l1.exe PID=      2869.
  
 Copyright (c) 1988,1990,1992,1993,1995,1998,2003,2009,2013,
            Gaussian, Inc.  All Rights Reserved.
  
 This is part of the Gaussian(R) 09 program.  It is based on
 the Gaussian(R) 03 system (copyright 2003, Gaussian, Inc.),
 the Gaussian(R) 98 system (copyright 1998, Gaussian, Inc.),
 the Gaussian(R) 94 system (copyright 1995, Gaussian, Inc.),
 the Gaussian 92(TM) system (copyright 1992, Gaussian, Inc.),
 the Gaussian 90(TM) system (copyright 1990, Gaussian, Inc.),
 the Gaussian 88(TM) system (copyright 1988, Gaussian, Inc.),
 the Gaussian 86(TM) system (copyright 1986, Carnegie Mellon
 University), and the Gaussian 82(TM) system (copyright 1983,
 Carnegie Mellon University). Gaussian is a federally registered
 trademark of Gaussian, Inc.
  
 This software contains proprietary and confidential information,
 including trade secrets, belonging to Gaussian, Inc.
  
 This software is provided under written license and may be
 used, copied, transmitted, or stored only in accord with that
 written license.
  
 The following legend is applicable only to US Government
 contracts under FAR:
  
                    RESTRICTED RIGHTS LEGEND
  
 Use, reproduction and disclosure by the US Government is
 subject to restrictions as set forth in subparagraphs (a)
 and (c) of the Commercial Computer Software - Restricted
 Rights clause in FAR 52.227-19.
  
 Gaussian, Inc.
 340 Quinnipiac St., Bldg. 40, Wallingford CT 06492
  
  
 ---------------------------------------------------------------
 Warning -- This program may not be used in any manner that
 competes with the business of Gaussian, Inc. or will provide
 assistance to any competitor of Gaussian, Inc.  The licensee
 of this program is prohibited from giving any competitor of
 Gaussian, Inc. access to this program.  By using this program,
 the user acknowledges that Gaussian, Inc. is engaged in the
 business of creating and licensing software in the field of
 computational chemistry and represents and warrants to the
 licensee that it is not a competitor of Gaussian, Inc. and that
 it will not use this program in any manner prohibited above.
 ---------------------------------------------------------------
  

 Cite this work as:
 Gaussian 09, Revision D.01,
 M. J. Frisch, G. W. Trucks, H. B. Schlegel, G. E. Scuseria, 
 M. A. Robb, J. R. Cheeseman, G. Scalmani, V. Barone, B. Mennucci, 
 G. A. Petersson, H. Nakatsuji, M. Caricato, X. Li, H. P. Hratchian, 
 A. F. Izmaylov, J. Bloino, G. Zheng, J. L. Sonnenberg, M. Hada, 
 M. Ehara, K. Toyota, R. Fukuda, J. Hasegawa, M. Ishida, T. Nakajima, 
 Y. Honda, O. Kitao, H. Nakai, T. Vreven, J. A. Montgomery, Jr., 
 J. E. Peralta, F. Ogliaro, M. Bearpark, J. J. Heyd, E. Brothers, 
 K. N. Kudin, V. N. Staroverov, T. Keith, R. Kobayashi, J. Normand, 
 K. Raghavachari, A. Rendell, J. C. Burant, S. S. Iyengar, J. Tomasi, 
 M. Cossi, N. Rega, J. M. Millam, M. Klene, J. E. Knox, J. B. Cross, 
 V. Bakken, C. Adamo, J. Jaramillo, R. Gomperts, R. E. Stratmann, 
 O. Yazyev, A. J. Austin, R. Cammi, C. Pomelli, J. W. Ochterski, 
 R. L. Martin, K. Morokuma, V. G. Zakrzewski, G. A. Voth, 
 P. Salvador, J. J. Dannenberg, S. Dapprich, A. D. Daniels, 
 O. Farkas, J. B. Foresman, J. V. Ortiz, J. Cioslowski, 
 and D. J. Fox, Gaussian, Inc., Wallingford CT, 2013.
 
 ******************************************
 Gaussian 09:  ES64L-G09RevD.01 24-Apr-2013
                 7-Nov-2015 
 ******************************************
 %mem=6GB
 %nprocshared=4
 Will use up to    4 processors via shared memory.
 ----------------------------------------------
 #p B3LYP/6-31G(d) opt=tight int=ultrafine freq
 ----------------------------------------------
 1/7=10,14=-1,18=20,19=15,26=4,38=1/1,3;
 2/9=110,12=2,17=6,18=5,40=1/2;
 3/5=1,6=6,7=1,11=2,16=1,25=1,30=1,71=1,74=-5,75=-5/1,2,3;
 4//1;
 5/5=2,38=5/2;
 6/7=2,8=2,9=2,10=2,28=1/1;
 7//1,2,3,16;
 1/7=10,14=-1,18=20,19=15,26=4/3(2);
 2/9=110/2;
 99//99;
 2/9=110/2;
 3/5=1,6=6,7=1,11=2,16=1,25=1,30=1,71=1,74=-5,75=-5/1,2,3;
 4/5=5,16=3,69=1/1;
 5/5=2,38=5/2;
 7//1,2,3,16;
 1/7=10,14=-1,18=20,19=15,26=4/3(-5);
 2/9=110/2;
 6/7=2,8=2,9=2,10=2,19=2,28=1/1;
 99/9=1/99;
 Leave Link    1 at Sat Nov  7 02:06:17 2015, MaxMem=   805306368 cpu:         0.2
 (Enter /home/hetanjin/apps/g09D01/g09/l101.exe)
 ---------------------------------------------
 using B3LYP/6-31G(d) to do opt and freq calc.
 ---------------------------------------------
 Symbolic Z-matrix:
 Charge =  0 Multiplicity = 2
 C                    -2.58543  -0.17306  -0.29185 
 H                    -2.56946  -0.21059  -1.38848 
 H                    -2.79867   0.86056   0.00159 
 H                    -3.42636  -0.7886    0.04788 
 C                    -1.2643   -0.68112   0.2975 
 H                    -1.16192  -1.74928   0.0599 
 C                     0.        0.05117  -0.19883 
 H                     0.        0.00139  -1.30033 
 C                     1.2643   -0.68112   0.29751 
 H                     1.16193  -1.74928   0.05992 
 H                     1.30509  -0.61823   1.39536 
 C                     2.58543  -0.17306  -0.29185 
 H                     2.79867   0.86057   0.00157 
 H                     3.42636  -0.78859   0.04789 
 H                     2.56946  -0.21061  -1.38848 
 C                    0.         1.53336   0.20729 
 H                    -0.88093   2.05894  -0.1759 
 H                    -0.00001   1.63604   1.30101 
 H                     0.88093   2.05894  -0.17589 
 
 NAtoms=     19 NQM=       19 NQMF=       0 NMMI=      0 NMMIF=      0
                NMic=       0 NMicF=      0.
                    Isotopes and Nuclear Properties:
 (Nuclear quadrupole moments (NQMom) in fm**2, nuclear magnetic moments (NMagM)
  in nuclear magnetons)

  Atom         1           2           3           4           5           6           7           8           9          10
 IAtWgt=          12           1           1           1          12           1          12           1          12           1
 AtmWgt=  12.0000000   1.0078250   1.0078250   1.0078250  12.0000000   1.0078250  12.0000000   1.0078250  12.0000000   1.0078250
 NucSpn=           0           1           1           1           0           1           0           1           0           1
 AtZEff=   0.0000000   0.0000000   0.0000000   0.0000000   0.0000000   0.0000000   0.0000000   0.0000000   0.0000000   0.0000000
 NQMom=    0.0000000   0.0000000   0.0000000   0.0000000   0.0000000   0.0000000   0.0000000   0.0000000   0.0000000   0.0000000
 NMagM=    0.0000000   2.7928460   2.7928460   2.7928460   0.0000000   2.7928460   0.0000000   2.7928460   0.0000000   2.7928460
 AtZNuc=   6.0000000   1.0000000   1.0000000   1.0000000   6.0000000   1.0000000   6.0000000   1.0000000   6.0000000   1.0000000

  Atom        11          12          13          14          15          16          17          18          19
 IAtWgt=           1          12           1           1           1          12           1           1           1
 AtmWgt=   1.0078250  12.0000000   1.0078250   1.0078250   1.0078250  12.0000000   1.0078250   1.0078250   1.0078250
 NucSpn=           1           0           1           1           1           0           1           1           1
 AtZEff=   0.0000000   0.0000000   0.0000000   0.0000000   0.0000000   0.0000000   0.0000000   0.0000000   0.0000000
 NQMom=    0.0000000   0.0000000   0.0000000   0.0000000   0.0000000   0.0000000   0.0000000   0.0000000   0.0000000
 NMagM=    2.7928460   0.0000000   2.7928460   2.7928460   2.7928460   0.0000000   2.7928460   2.7928460   2.7928460
 AtZNuc=   1.0000000   6.0000000   1.0000000   1.0000000   1.0000000   6.0000000   1.0000000   1.0000000   1.0000000
 Leave Link  101 at Sat Nov  7 02:06:17 2015, MaxMem=   805306368 cpu:         0.6
 (Enter /home/hetanjin/apps/g09D01/g09/l103.exe)

 GradGradGradGradGradGradGradGradGradGradGradGradGradGradGradGradGradGrad
 Berny optimization.
 Initialization pass.
                           ----------------------------
                           !    Initial Parameters    !
                           ! (Angstroms and Degrees)  !
 --------------------------                            --------------------------
 ! Name  Definition              Value          Derivative Info.                !
 --------------------------------------------------------------------------------
 ! R1    R(1,2)                  1.0974         estimate D2E/DX2                !
 ! R2    R(1,3)                  1.0954         estimate D2E/DX2                !
 ! R3    R(1,4)                  1.0961         estimate D2E/DX2                !
 ! R4    R(1,5)                  1.5332         estimate D2E/DX2                !
 ! R5    R(5,6)                  1.099          estimate D2E/DX2                !
 ! R6    R(5,7)                  1.5431         estimate D2E/DX2                !
 ! R7    R(7,8)                  1.1026         estimate D2E/DX2                !
 ! R8    R(7,9)                  1.5431         estimate D2E/DX2                !
 ! R9    R(7,16)                 1.5368         estimate D2E/DX2                !
 ! R10   R(9,10)                 1.099          estimate D2E/DX2                !
 ! R11   R(9,11)                 1.1004         estimate D2E/DX2                !
 ! R12   R(9,12)                 1.5332         estimate D2E/DX2                !
 ! R13   R(12,13)                1.0954         estimate D2E/DX2                !
 ! R14   R(12,14)                1.0961         estimate D2E/DX2                !
 ! R15   R(12,15)                1.0974         estimate D2E/DX2                !
 ! R16   R(16,17)                1.095          estimate D2E/DX2                !
 ! R17   R(16,18)                1.0985         estimate D2E/DX2                !
 ! R18   R(16,19)                1.095          estimate D2E/DX2                !
 ! A1    A(2,1,3)              107.6254         estimate D2E/DX2                !
 ! A2    A(2,1,4)              107.559          estimate D2E/DX2                !
 ! A3    A(2,1,5)              111.115          estimate D2E/DX2                !
 ! A4    A(3,1,4)              107.3082         estimate D2E/DX2                !
 ! A5    A(3,1,5)              112.1749         estimate D2E/DX2                !
 ! A6    A(4,1,5)              110.8451         estimate D2E/DX2                !
 ! A7    A(1,5,6)              108.6152         estimate D2E/DX2                !
 ! A8    A(1,5,7)              115.1572         estimate D2E/DX2                !
 ! A9    A(6,5,7)              108.3832         estimate D2E/DX2                !
 ! A10   A(5,7,8)              107.4517         estimate D2E/DX2                !
 ! A11   A(5,7,9)              110.0384         estimate D2E/DX2                !
 ! A12   A(5,7,16)             111.882          estimate D2E/DX2                !
 ! A13   A(8,7,9)              107.4518         estimate D2E/DX2                !
 ! A14   A(8,7,16)             107.9103         estimate D2E/DX2                !
 ! A15   A(9,7,16)             111.882          estimate D2E/DX2                !
 ! A16   A(7,9,10)             108.3833         estimate D2E/DX2                !
 ! A17   A(7,9,11)             108.915          estimate D2E/DX2                !
 ! A18   A(7,9,12)             115.1571         estimate D2E/DX2                !
 ! A19   A(10,9,11)            105.9423         estimate D2E/DX2                !
 ! A20   A(10,9,12)            108.6152         estimate D2E/DX2                !
 ! A21   A(11,9,12)            109.4277         estimate D2E/DX2                !
 ! A22   A(9,12,13)            112.1749         estimate D2E/DX2                !
 ! A23   A(9,12,14)            110.8451         estimate D2E/DX2                !
 ! A24   A(9,12,15)            111.1149         estimate D2E/DX2                !
 ! A25   A(13,12,14)           107.3082         estimate D2E/DX2                !
 ! A26   A(13,12,15)           107.6254         estimate D2E/DX2                !
 ! A27   A(14,12,15)           107.559          estimate D2E/DX2                !
 ! A28   A(7,16,17)            111.7423         estimate D2E/DX2                !
 ! A29   A(7,16,18)            110.6857         estimate D2E/DX2                !
 ! A30   A(7,16,19)            111.7423         estimate D2E/DX2                !
 ! A31   A(17,16,18)           107.6699         estimate D2E/DX2                !
 ! A32   A(17,16,19)           107.12           estimate D2E/DX2                !
 ! A33   A(18,16,19)           107.67           estimate D2E/DX2                !
 ! D1    D(2,1,5,6)            -65.5701         estimate D2E/DX2                !
 ! D2    D(2,1,5,7)             56.1554         estimate D2E/DX2                !
 ! D3    D(3,1,5,6)            173.9055         estimate D2E/DX2                !
 ! D4    D(3,1,5,7)            -64.369          estimate D2E/DX2                !
 ! D5    D(4,1,5,6)             53.9738         estimate D2E/DX2                !
 ! D6    D(4,1,5,7)            175.6993         estimate D2E/DX2                !
 ! D7    D(1,5,7,8)            -54.8991         estimate D2E/DX2                !
 ! D8    D(1,5,7,9)           -171.5975         estimate D2E/DX2                !
 ! D9    D(1,5,7,16)            63.3728         estimate D2E/DX2                !
 ! D10   D(6,5,7,8)             66.9516         estimate D2E/DX2                !
 ! D11   D(6,5,7,9)            -49.7467         estimate D2E/DX2                !
 ! D12   D(6,5,7,16)          -174.7765         estimate D2E/DX2                !
 ! D13   D(5,7,9,10)            49.746          estimate D2E/DX2                !
 ! D14   D(5,7,9,11)           -65.0785         estimate D2E/DX2                !
 ! D15   D(5,7,9,12)           171.5967         estimate D2E/DX2                !
 ! D16   D(8,7,9,10)           -66.9523         estimate D2E/DX2                !
 ! D17   D(8,7,9,11)           178.2232         estimate D2E/DX2                !
 ! D18   D(8,7,9,12)            54.8984         estimate D2E/DX2                !
 ! D19   D(16,7,9,10)          174.7757         estimate D2E/DX2                !
 ! D20   D(16,7,9,11)           59.9512         estimate D2E/DX2                !
 ! D21   D(16,7,9,12)          -63.3736         estimate D2E/DX2                !
 ! D22   D(5,7,16,17)          -57.9911         estimate D2E/DX2                !
 ! D23   D(5,7,16,18)           62.0011         estimate D2E/DX2                !
 ! D24   D(5,7,16,19)         -178.0067         estimate D2E/DX2                !
 ! D25   D(8,7,16,17)           60.0075         estimate D2E/DX2                !
 ! D26   D(8,7,16,18)          179.9997         estimate D2E/DX2                !
 ! D27   D(8,7,16,19)          -60.0081         estimate D2E/DX2                !
 ! D28   D(9,7,16,17)          178.0062         estimate D2E/DX2                !
 ! D29   D(9,7,16,18)          -62.0016         estimate D2E/DX2                !
 ! D30   D(9,7,16,19)           57.9905         estimate D2E/DX2                !
 ! D31   D(7,9,12,13)           64.3686         estimate D2E/DX2                !
 ! D32   D(7,9,12,14)         -175.6996         estimate D2E/DX2                !
 ! D33   D(7,9,12,15)          -56.1557         estimate D2E/DX2                !
 ! D34   D(10,9,12,13)        -173.9059         estimate D2E/DX2                !
 ! D35   D(10,9,12,14)         -53.9741         estimate D2E/DX2                !
 ! D36   D(10,9,12,15)          65.5698         estimate D2E/DX2                !
 ! D37   D(11,9,12,13)         -58.6837         estimate D2E/DX2                !
 ! D38   D(11,9,12,14)          61.2481         estimate D2E/DX2                !
 ! D39   D(11,9,12,15)        -179.208          estimate D2E/DX2                !
 --------------------------------------------------------------------------------
 Trust Radius=3.00D-01 FncErr=1.00D-07 GrdErr=1.00D-06
 Number of steps in this run=    100 maximum allowed number of steps=    114.
 GradGradGradGradGradGradGradGradGradGradGradGradGradGradGradGradGradGrad

 Leave Link  103 at Sat Nov  7 02:06:17 2015, MaxMem=   805306368 cpu:         0.0
 (Enter /home/hetanjin/apps/g09D01/g09/l202.exe)
                          Input orientation:                          
 ---------------------------------------------------------------------
 Center     Atomic      Atomic             Coordinates (Angstroms)
 Number     Number       Type             X           Y           Z
 ---------------------------------------------------------------------
      1          6           0       -2.585432   -0.173063   -0.291849
      2          1           0       -2.569458   -0.210592   -1.388477
      3          1           0       -2.798673    0.860561    0.001587
      4          1           0       -3.426358   -0.788597    0.047878
      5          6           0       -1.264298   -0.681121    0.297502
      6          1           0       -1.161923   -1.749281    0.059899
      7          6           0        0.000001    0.051166   -0.198829
      8          1           0        0.000003    0.001388   -1.300329
      9          6           0        1.264300   -0.681115    0.297508
     10          1           0        1.161927   -1.749278    0.059916
     11          1           0        1.305092   -0.618234    1.395362
     12          6           0        2.585433   -0.173062   -0.291851
     13          1           0        2.798671    0.860567    0.001568
     14          1           0        3.426361   -0.788588    0.047886
     15          1           0        2.569459   -0.210609   -1.388479
     16          6           0       -0.000004    1.533363    0.207287
     17          1           0       -0.880930    2.058937   -0.175897
     18          1           0       -0.000012    1.636037    1.301012
     19          1           0        0.880926    2.058939   -0.175885
 ---------------------------------------------------------------------
                    Distance matrix (angstroms):
                    1          2          3          4          5
     1  C    0.000000
     2  H    1.097386   0.000000
     3  H    1.095425   1.769798   0.000000
     4  H    1.096108   1.769600   1.765178   0.000000
     5  C    1.533249   2.183430   2.195144   2.179075   0.000000
     6  H    2.152805   2.538998   3.081173   2.459822   1.099046
     7  C    2.596805   2.843572   2.920251   3.536383   1.543062
     8  H    2.780636   2.579697   3.204021   3.765858   2.148800
     9  C    3.927581   4.214456   4.355696   4.698525   2.528598
    10  H    4.080550   4.288197   4.743523   4.687794   2.661574
    11  H    4.263923   4.788326   4.579337   4.922536   2.794820
    12  C    5.170865   5.270379   5.490271   6.052762   3.927581
    13  H    5.490269   5.647691   5.597344   6.439944   4.355697
    14  H    6.052763   6.192501   6.439944   6.852719   4.698525
    15  H    5.270380   5.138917   5.647701   6.192497   4.214452
    16  C    3.137748   3.491409   2.885745   4.142078   2.551572
    17  H    2.810800   3.077700   2.268335   3.825928   2.806955
    18  H    3.534748   4.152763   3.181567   4.380530   2.823946
    19  H    4.124429   4.304219   3.873894   5.168290   3.511981
                    6          7          8          9         10
     6  H    0.000000
     7  C    2.158383   0.000000
     8  H    2.503025   1.102624   0.000000
     9  C    2.661577   1.543061   2.148800   0.000000
    10  H    2.323850   2.158384   2.503031   1.099046   0.000000
    11  H    3.024713   2.166288   3.058421   1.100410   1.755897
    12  C    4.080548   2.596804   2.780631   1.533250   2.152804
    13  H    4.743523   2.920247   3.204008   2.195144   3.081173
    14  H    4.687795   3.536382   3.765856   2.179075   2.459823
    15  H    4.288184   2.843573   2.579693   2.183430   2.538995
    16  C    3.485331   1.536827   2.149384   2.551572   3.485331
    17  H    3.825844   2.192649   2.504775   3.511981   4.327976
    18  H    3.788242   2.182049   3.072304   2.823951   3.788242
    19  H    4.327975   2.192649   2.504779   2.806951   3.825844
                   11         12         13         14         15
    11  H    0.000000
    12  C    2.164287   0.000000
    13  H    2.521962   1.095424   0.000000
    14  H    2.518828   1.096108   1.765178   0.000000
    15  H    3.084567   1.097387   1.769799   1.769600   0.000000
    16  C    2.782834   3.137755   2.885751   4.142082   3.491425
    17  H    3.796682   4.124432   3.873893   5.168291   4.304228
    18  H    2.606518   3.534767   3.181593   4.380544   4.152788
    19  H    3.133048   2.810804   2.268332   3.825928   3.077723
                   16         17         18         19
    16  C    0.000000
    17  H    1.095029   0.000000
    18  H    1.098534   1.770910   0.000000
    19  H    1.095029   1.761856   1.770910   0.000000
 Stoichiometry    C6H13(2)
 Framework group  C1[X(C6H13)]
 Deg. of freedom    51
 Full point group                 C1      NOp   1
 Largest Abelian subgroup         C1      NOp   1
 Largest concise Abelian subgroup C1      NOp   1
                         Standard orientation:                         
 ---------------------------------------------------------------------
 Center     Atomic      Atomic             Coordinates (Angstroms)
 Number     Number       Type             X           Y           Z
 ---------------------------------------------------------------------
      1          6           0        2.613850   -0.210828    0.223775
      2          1           0        2.611537   -0.282275    1.318830
      3          1           0        2.830507    0.829992   -0.040251
      4          1           0        3.446110   -0.821000   -0.145665
      5          6           0        1.281852   -0.691704   -0.363926
      6          1           0        1.175101   -1.766034   -0.158202
      7          6           0        0.029060    0.033067    0.171106
      8          1           0        0.042695   -0.050878    1.270446
      9          6           0       -1.246482   -0.675178   -0.331307
     10          1           0       -1.148506   -1.750848   -0.128235
     11          1           0       -1.300769   -0.577983   -1.426071
     12          6           0       -2.556475   -0.177045    0.290493
     13          1           0       -2.766252    0.866566    0.031987
     14          1           0       -3.405893   -0.776221   -0.057257
     15          1           0       -2.526842   -0.248718    1.385136
     16          6           0        0.034182    1.527125   -0.188899
     17          1           0        0.923522    2.034784    0.198973
     18          1           0        0.021018    1.663698   -1.278831
     19          1           0       -0.838150    2.046297    0.221693
 ---------------------------------------------------------------------
 Rotational constants (GHZ):      6.7219381      1.8580939      1.5877860
 Leave Link  202 at Sat Nov  7 02:06:17 2015, MaxMem=   805306368 cpu:         0.0
 (Enter /home/hetanjin/apps/g09D01/g09/l301.exe)
 Standard basis: 6-31G(d) (6D, 7F)
 Ernie: Thresh=  0.10000D-02 Tol=  0.10000D-05 Strict=F.
 There are   116 symmetry adapted cartesian basis functions of A   symmetry.
 There are   116 symmetry adapted basis functions of A   symmetry.
   116 basis functions,   220 primitive gaussians,   116 cartesian basis functions
    25 alpha electrons       24 beta electrons
       nuclear repulsion energy       244.1723794191 Hartrees.
 IExCor=  402 DFT=T Ex+Corr=B3LYP ExCW=0 ScaHFX=  0.200000
 ScaDFX=  0.800000  0.720000  1.000000  0.810000 ScalE2=  1.000000  1.000000
 IRadAn=      5 IRanWt=     -1 IRanGd=            0 ICorTp=0 IEmpDi=  4
 NAtoms=   19 NActive=   19 NUniq=   19 SFac= 1.00D+00 NAtFMM=   60 NAOKFM=F Big=F
 Integral buffers will be    131072 words long.
 Raffenetti 2 integral format.
 Two-electron integral symmetry is turned on.
 Leave Link  301 at Sat Nov  7 02:06:17 2015, MaxMem=   805306368 cpu:         0.2
 (Enter /home/hetanjin/apps/g09D01/g09/l302.exe)
 NPDir=0 NMtPBC=     1 NCelOv=     1 NCel=       1 NClECP=     1 NCelD=      1
         NCelK=      1 NCelE2=     1 NClLst=     1 CellRange=     0.0.
 One-electron integrals computed using PRISM.
 NBasis=   116 RedAO= T EigKep=  3.82D-03  NBF=   116
 NBsUse=   116 1.00D-06 EigRej= -1.00D+00 NBFU=   116
 Precomputing XC quadrature grid using
 IXCGrd= 4 IRadAn=           5 IRanWt=          -1 IRanGd=           0 AccXCQ= 0.00D+00.
 Generated NRdTot=       0 NPtTot=           0 NUsed=           0 NTot=          32
 NSgBfM=   116   116   116   116   116 MxSgAt=    19 MxSgA2=    19.
 Leave Link  302 at Sat Nov  7 02:06:18 2015, MaxMem=   805306368 cpu:         1.7
 (Enter /home/hetanjin/apps/g09D01/g09/l303.exe)
 DipDrv:  MaxL=1.
 Leave Link  303 at Sat Nov  7 02:06:18 2015, MaxMem=   805306368 cpu:         0.1
 (Enter /home/hetanjin/apps/g09D01/g09/l401.exe)
 ExpMin= 1.61D-01 ExpMax= 3.05D+03 ExpMxC= 4.57D+02 IAcc=3 IRadAn=         5 AccDes= 0.00D+00
 Harris functional with IExCor=  402 and IRadAn=       5 diagonalized for initial guess.
 HarFok:  IExCor=  402 AccDes= 0.00D+00 IRadAn=         5 IDoV= 1 UseB2=F ITyADJ=14
 ICtDFT=  3500011 ScaDFX=  1.000000  1.000000  1.000000  1.000000
 FoFCou: FMM=F IPFlag=           0 FMFlag=      100000 FMFlg1=           0
         NFxFlg=           0 DoJE=T BraDBF=F KetDBF=T FulRan=T
         wScrn=  0.000000 ICntrl=     500 IOpCl=  0 I1Cent=   200000004 NGrid=           0
         NMat0=    1 NMatS0=      1 NMatT0=    0 NMatD0=    1 NMtDS0=    0 NMtDT0=    0
 Petite list used in FoFCou.
 Harris En= -236.451635768760    
 JPrj=0 DoOrth=F DoCkMO=F.
 Initial guess <Sx>= 0.0000 <Sy>= 0.0000 <Sz>= 0.5000 <S**2>= 0.7500 S= 0.5000
 Leave Link  401 at Sat Nov  7 02:06:20 2015, MaxMem=   805306368 cpu:         8.4
 (Enter /home/hetanjin/apps/g09D01/g09/l502.exe)
 UHF open shell SCF:
 Using DIIS extrapolation, IDIIS=  1040.
 Integral symmetry usage will be decided dynamically.
 Keep R1 and R2 ints in memory in canonical form, NReq=47059932.
 IVT=       60514 IEndB=       60514 NGot=   805306368 MDV=   759189273
 LenX=   759189273 LenY=   759175376
 Requested convergence on RMS density matrix=1.00D-08 within 128 cycles.
 Requested convergence on MAX density matrix=1.00D-06.
 Requested convergence on             energy=1.00D-06.
 No special actions if energy rises.
 FoFCou: FMM=F IPFlag=           0 FMFlag=           0 FMFlg1=           0
         NFxFlg=           0 DoJE=F BraDBF=F KetDBF=F FulRan=T
         wScrn=  0.000000 ICntrl=     600 IOpCl=  0 I1Cent=           0 NGrid=           0
         NMat0=    1 NMatS0=   6786 NMatT0=    0 NMatD0=    1 NMtDS0=    0 NMtDT0=    0
 Symmetry not used in FoFCou.
 Integral accuracy reduced to 1.0D-05 until final iterations.

 Cycle   1  Pass 0  IDiag  1:
 E= -236.148955790307    
 DIIS: error= 4.44D-02 at cycle   1 NSaved=   1.
 NSaved= 1 IEnMin= 1 EnMin= -236.148955790307     IErMin= 1 ErrMin= 4.44D-02
 ErrMax= 4.44D-02  0.00D+00 EMaxC= 1.00D-01 BMatC= 9.17D-01 BMatP= 9.17D-01
 IDIUse=3 WtCom= 5.56D-01 WtEn= 4.44D-01
 Coeff-Com:  0.100D+01
 Coeff-En:   0.100D+01
 Coeff:      0.100D+01
 Gap=     0.265 Goal=   None    Shift=    0.000
 Gap=     0.239 Goal=   None    Shift=    0.000
 GapD=    0.239 DampG=1.000 DampE=0.500 DampFc=0.5000 IDamp=-1.
 Damping current iteration by 5.00D-01
 RMSDP=9.42D-03 MaxDP=1.45D-01              OVMax= 1.75D-01

 Cycle   2  Pass 0  IDiag  1:
 E= -236.264871030877     Delta-E=       -0.115915240570 Rises=F Damp=T
 DIIS: error= 8.03D-03 at cycle   2 NSaved=   2.
 NSaved= 2 IEnMin= 2 EnMin= -236.264871030877     IErMin= 2 ErrMin= 8.03D-03
 ErrMax= 8.03D-03  0.00D+00 EMaxC= 1.00D-01 BMatC= 3.79D-02 BMatP= 9.17D-01
 IDIUse=3 WtCom= 9.20D-01 WtEn= 8.03D-02
 Coeff-Com:  0.682D-01 0.932D+00
 Coeff-En:   0.109D+00 0.891D+00
 Coeff:      0.714D-01 0.929D+00
 Gap=     0.295 Goal=   None    Shift=    0.000
 Gap=     0.258 Goal=   None    Shift=    0.000
 RMSDP=1.49D-03 MaxDP=2.37D-02 DE=-1.16D-01 OVMax= 1.00D-01

 Cycle   3  Pass 0  IDiag  1:
 E= -236.405137950608     Delta-E=       -0.140266919730 Rises=F Damp=F
 DIIS: error= 2.78D-03 at cycle   3 NSaved=   3.
 NSaved= 3 IEnMin= 3 EnMin= -236.405137950608     IErMin= 3 ErrMin= 2.78D-03
 ErrMax= 2.78D-03  0.00D+00 EMaxC= 1.00D-01 BMatC= 3.96D-03 BMatP= 3.79D-02
 IDIUse=3 WtCom= 9.72D-01 WtEn= 2.78D-02
 Coeff-Com: -0.345D-02 0.179D+00 0.824D+00
 Coeff-En:   0.000D+00 0.000D+00 0.100D+01
 Coeff:     -0.335D-02 0.174D+00 0.829D+00
 Gap=     0.301 Goal=   None    Shift=    0.000
 Gap=     0.248 Goal=   None    Shift=    0.000
 RMSDP=4.97D-04 MaxDP=8.76D-03 DE=-1.40D-01 OVMax= 1.04D-02

 Cycle   4  Pass 0  IDiag  1:
 E= -236.405781865874     Delta-E=       -0.000643915266 Rises=F Damp=F
 DIIS: error= 1.13D-03 at cycle   4 NSaved=   4.
 NSaved= 4 IEnMin= 4 EnMin= -236.405781865874     IErMin= 4 ErrMin= 1.13D-03
 ErrMax= 1.13D-03  0.00D+00 EMaxC= 1.00D-01 BMatC= 1.58D-03 BMatP= 3.96D-03
 IDIUse=3 WtCom= 9.89D-01 WtEn= 1.13D-02
 Coeff-Com: -0.403D-02 0.284D-01 0.396D+00 0.580D+00
 Coeff-En:   0.000D+00 0.000D+00 0.236D+00 0.764D+00
 Coeff:     -0.399D-02 0.280D-01 0.394D+00 0.582D+00
 Gap=     0.298 Goal=   None    Shift=    0.000
 Gap=     0.252 Goal=   None    Shift=    0.000
 RMSDP=1.99D-04 MaxDP=3.82D-03 DE=-6.44D-04 OVMax= 5.27D-03

 Cycle   5  Pass 0  IDiag  1:
 E= -236.406163121652     Delta-E=       -0.000381255779 Rises=F Damp=F
 DIIS: error= 3.99D-04 at cycle   5 NSaved=   5.
 NSaved= 5 IEnMin= 5 EnMin= -236.406163121652     IErMin= 5 ErrMin= 3.99D-04
 ErrMax= 3.99D-04  0.00D+00 EMaxC= 1.00D-01 BMatC= 9.55D-05 BMatP= 1.58D-03
 IDIUse=3 WtCom= 9.96D-01 WtEn= 3.99D-03
 Coeff-Com: -0.108D-02-0.384D-02 0.979D-01 0.251D+00 0.656D+00
 Coeff-En:   0.000D+00 0.000D+00 0.000D+00 0.000D+00 0.100D+01
 Coeff:     -0.108D-02-0.382D-02 0.975D-01 0.250D+00 0.658D+00
 Gap=     0.299 Goal=   None    Shift=    0.000
 Gap=     0.251 Goal=   None    Shift=    0.000
 RMSDP=4.72D-05 MaxDP=9.38D-04 DE=-3.81D-04 OVMax= 1.23D-03

 Cycle   6  Pass 0  IDiag  1:
 E= -236.406187977874     Delta-E=       -0.000024856221 Rises=F Damp=F
 DIIS: error= 7.23D-05 at cycle   6 NSaved=   6.
 NSaved= 6 IEnMin= 6 EnMin= -236.406187977874     IErMin= 6 ErrMin= 7.23D-05
 ErrMax= 7.23D-05  0.00D+00 EMaxC= 1.00D-01 BMatC= 2.28D-06 BMatP= 9.55D-05
 IDIUse=1 WtCom= 1.00D+00 WtEn= 0.00D+00
 Coeff-Com:  0.165D-03-0.200D-02-0.194D-01-0.230D-01 0.357D-01 0.101D+01
 Coeff:      0.165D-03-0.200D-02-0.194D-01-0.230D-01 0.357D-01 0.101D+01
 Gap=     0.299 Goal=   None    Shift=    0.000
 Gap=     0.252 Goal=   None    Shift=    0.000
 RMSDP=1.56D-05 MaxDP=3.96D-04 DE=-2.49D-05 OVMax= 3.85D-04

 Cycle   7  Pass 0  IDiag  1:
 E= -236.406189126286     Delta-E=       -0.000001148412 Rises=F Damp=F
 DIIS: error= 3.22D-05 at cycle   7 NSaved=   7.
 NSaved= 7 IEnMin= 7 EnMin= -236.406189126286     IErMin= 7 ErrMin= 3.22D-05
 ErrMax= 3.22D-05  0.00D+00 EMaxC= 1.00D-01 BMatC= 6.63D-07 BMatP= 2.28D-06
 IDIUse=1 WtCom= 1.00D+00 WtEn= 0.00D+00
 Coeff-Com:  0.171D-03-0.203D-03-0.191D-01-0.402D-01-0.736D-01 0.370D+00
 Coeff-Com:  0.763D+00
 Coeff:      0.171D-03-0.203D-03-0.191D-01-0.402D-01-0.736D-01 0.370D+00
 Coeff:      0.763D+00
 Gap=     0.299 Goal=   None    Shift=    0.000
 Gap=     0.252 Goal=   None    Shift=    0.000
 RMSDP=6.17D-06 MaxDP=1.77D-04 DE=-1.15D-06 OVMax= 1.68D-04

 Initial convergence to 1.0D-05 achieved.  Increase integral accuracy.
 Cycle   8  Pass 1  IDiag  1:
 E= -236.406172560894     Delta-E=        0.000016565392 Rises=F Damp=F
 DIIS: error= 1.11D-05 at cycle   1 NSaved=   1.
 NSaved= 1 IEnMin= 1 EnMin= -236.406172560894     IErMin= 1 ErrMin= 1.11D-05
 ErrMax= 1.11D-05  0.00D+00 EMaxC= 1.00D-01 BMatC= 1.22D-07 BMatP= 1.22D-07
 IDIUse=1 WtCom= 1.00D+00 WtEn= 0.00D+00
 Coeff-Com:  0.100D+01
 Coeff:      0.100D+01
 Gap=     0.299 Goal=   None    Shift=    0.000
 Gap=     0.252 Goal=   None    Shift=    0.000
 RMSDP=6.17D-06 MaxDP=1.77D-04 DE= 1.66D-05 OVMax= 7.74D-05

 Cycle   9  Pass 1  IDiag  1:
 E= -236.406172560823     Delta-E=        0.000000000071 Rises=F Damp=F
 DIIS: error= 1.19D-05 at cycle   2 NSaved=   2.
 NSaved= 2 IEnMin= 1 EnMin= -236.406172560894     IErMin= 1 ErrMin= 1.11D-05
 ErrMax= 1.19D-05  0.00D+00 EMaxC= 1.00D-01 BMatC= 1.53D-07 BMatP= 1.22D-07
 IDIUse=1 WtCom= 1.00D+00 WtEn= 0.00D+00
 Coeff-Com:  0.530D+00 0.470D+00
 Coeff:      0.530D+00 0.470D+00
 Gap=     0.299 Goal=   None    Shift=    0.000
 Gap=     0.252 Goal=   None    Shift=    0.000
 RMSDP=1.76D-06 MaxDP=4.34D-05 DE= 7.05D-11 OVMax= 4.37D-05

 Cycle  10  Pass 1  IDiag  1:
 E= -236.406172599864     Delta-E=       -0.000000039041 Rises=F Damp=F
 DIIS: error= 1.33D-06 at cycle   3 NSaved=   3.
 NSaved= 3 IEnMin= 3 EnMin= -236.406172599864     IErMin= 3 ErrMin= 1.33D-06
 ErrMax= 1.33D-06  0.00D+00 EMaxC= 1.00D-01 BMatC= 1.88D-09 BMatP= 1.22D-07
 IDIUse=1 WtCom= 1.00D+00 WtEn= 0.00D+00
 Coeff-Com: -0.125D+00-0.430D-01 0.117D+01
 Coeff:     -0.125D+00-0.430D-01 0.117D+01
 Gap=     0.299 Goal=   None    Shift=    0.000
 Gap=     0.252 Goal=   None    Shift=    0.000
 RMSDP=4.44D-07 MaxDP=1.15D-05 DE=-3.90D-08 OVMax= 1.35D-05

 Cycle  11  Pass 1  IDiag  1:
 E= -236.406172601009     Delta-E=       -0.000000001145 Rises=F Damp=F
 DIIS: error= 8.20D-07 at cycle   4 NSaved=   4.
 NSaved= 4 IEnMin= 4 EnMin= -236.406172601009     IErMin= 4 ErrMin= 8.20D-07
 ErrMax= 8.20D-07  0.00D+00 EMaxC= 1.00D-01 BMatC= 4.71D-10 BMatP= 1.88D-09
 IDIUse=1 WtCom= 1.00D+00 WtEn= 0.00D+00
 Coeff-Com: -0.117D+00-0.825D-01 0.412D+00 0.788D+00
 Coeff:     -0.117D+00-0.825D-01 0.412D+00 0.788D+00
 Gap=     0.299 Goal=   None    Shift=    0.000
 Gap=     0.252 Goal=   None    Shift=    0.000
 RMSDP=1.71D-07 MaxDP=4.68D-06 DE=-1.15D-09 OVMax= 5.29D-06

 Cycle  12  Pass 1  IDiag  1:
 E= -236.406172601186     Delta-E=       -0.000000000177 Rises=F Damp=F
 DIIS: error= 4.02D-07 at cycle   5 NSaved=   5.
 NSaved= 5 IEnMin= 5 EnMin= -236.406172601186     IErMin= 5 ErrMin= 4.02D-07
 ErrMax= 4.02D-07  0.00D+00 EMaxC= 1.00D-01 BMatC= 7.05D-11 BMatP= 4.71D-10
 IDIUse=1 WtCom= 1.00D+00 WtEn= 0.00D+00
 Coeff-Com: -0.354D-01-0.306D-01 0.452D-01 0.337D+00 0.684D+00
 Coeff:     -0.354D-01-0.306D-01 0.452D-01 0.337D+00 0.684D+00
 Gap=     0.299 Goal=   None    Shift=    0.000
 Gap=     0.252 Goal=   None    Shift=    0.000
 RMSDP=4.47D-08 MaxDP=1.24D-06 DE=-1.77D-10 OVMax= 1.21D-06

 Cycle  13  Pass 1  IDiag  1:
 E= -236.406172601203     Delta-E=       -0.000000000016 Rises=F Damp=F
 DIIS: error= 8.07D-08 at cycle   6 NSaved=   6.
 NSaved= 6 IEnMin= 6 EnMin= -236.406172601203     IErMin= 6 ErrMin= 8.07D-08
 ErrMax= 8.07D-08  0.00D+00 EMaxC= 1.00D-01 BMatC= 4.97D-12 BMatP= 7.05D-11
 IDIUse=1 WtCom= 1.00D+00 WtEn= 0.00D+00
 Coeff-Com:  0.294D-02-0.674D-04-0.383D-01 0.192D-01 0.232D+00 0.784D+00
 Coeff:      0.294D-02-0.674D-04-0.383D-01 0.192D-01 0.232D+00 0.784D+00
 Gap=     0.299 Goal=   None    Shift=    0.000
 Gap=     0.252 Goal=   None    Shift=    0.000
 RMSDP=1.59D-08 MaxDP=2.96D-07 DE=-1.64D-11 OVMax= 3.76D-07

 Cycle  14  Pass 1  IDiag  1:
 E= -236.406172601207     Delta-E=       -0.000000000004 Rises=F Damp=F
 DIIS: error= 2.19D-08 at cycle   7 NSaved=   7.
 NSaved= 7 IEnMin= 7 EnMin= -236.406172601207     IErMin= 7 ErrMin= 2.19D-08
 ErrMax= 2.19D-08  0.00D+00 EMaxC= 1.00D-01 BMatC= 3.34D-13 BMatP= 4.97D-12
 IDIUse=1 WtCom= 1.00D+00 WtEn= 0.00D+00
 Coeff-Com:  0.268D-02 0.151D-02-0.146D-01-0.103D-01 0.393D-01 0.256D+00
 Coeff-Com:  0.725D+00
 Coeff:      0.268D-02 0.151D-02-0.146D-01-0.103D-01 0.393D-01 0.256D+00
 Coeff:      0.725D+00
 Gap=     0.299 Goal=   None    Shift=    0.000
 Gap=     0.252 Goal=   None    Shift=    0.000
 RMSDP=4.05D-09 MaxDP=9.42D-08 DE=-4.43D-12 OVMax= 8.83D-08

 SCF Done:  E(UB3LYP) =  -236.406172601     A.U. after   14 cycles
            NFock= 14  Conv=0.41D-08     -V/T= 2.0105
 <Sx>= 0.0000 <Sy>= 0.0000 <Sz>= 0.5000 <S**2>= 0.7529 S= 0.5014
 <L.S>= 0.000000000000E+00
 KE= 2.339494735888D+02 PE=-1.033932173180D+03 EE= 3.194041475705D+02
 Annihilation of the first spin contaminant:
 S**2 before annihilation     0.7529,   after     0.7500
 Leave Link  502 at Sat Nov  7 02:07:02 2015, MaxMem=   805306368 cpu:       159.0
 (Enter /home/hetanjin/apps/g09D01/g09/l601.exe)
 Copying SCF densities to generalized density rwf, IOpCl= 1 IROHF=0.

 **********************************************************************

            Population analysis using the SCF density.

 **********************************************************************

 Orbital symmetries:
 Alpha Orbitals:
       Occupied  (A) (A) (A) (A) (A) (A) (A) (A) (A) (A) (A) (A)
                 (A) (A) (A) (A) (A) (A) (A) (A) (A) (A) (A) (A)
                 (A)
       Virtual   (A) (A) (A) (A) (A) (A) (A) (A) (A) (A) (A) (A)
                 (A) (A) (A) (A) (A) (A) (A) (A) (A) (A) (A) (A)
                 (A) (A) (A) (A) (A) (A) (A) (A) (A) (A) (A) (A)
                 (A) (A) (A) (A) (A) (A) (A) (A) (A) (A) (A) (A)
                 (A) (A) (A) (A) (A) (A) (A) (A) (A) (A) (A) (A)
                 (A) (A) (A) (A) (A) (A) (A) (A) (A) (A) (A) (A)
                 (A) (A) (A) (A) (A) (A) (A) (A) (A) (A) (A) (A)
                 (A) (A) (A) (A) (A) (A) (A)
 Beta  Orbitals:
       Occupied  (A) (A) (A) (A) (A) (A) (A) (A) (A) (A) (A) (A)
                 (A) (A) (A) (A) (A) (A) (A) (A) (A) (A) (A) (A)
       Virtual   (A) (A) (A) (A) (A) (A) (A) (A) (A) (A) (A) (A)
                 (A) (A) (A) (A) (A) (A) (A) (A) (A) (A) (A) (A)
                 (A) (A) (A) (A) (A) (A) (A) (A) (A) (A) (A) (A)
                 (A) (A) (A) (A) (A) (A) (A) (A) (A) (A) (A) (A)
                 (A) (A) (A) (A) (A) (A) (A) (A) (A) (A) (A) (A)
                 (A) (A) (A) (A) (A) (A) (A) (A) (A) (A) (A) (A)
                 (A) (A) (A) (A) (A) (A) (A) (A) (A) (A) (A) (A)
                 (A) (A) (A) (A) (A) (A) (A) (A)
 The electronic state is 2-A.
 Alpha  occ. eigenvalues --  -10.19451 -10.18672 -10.17613 -10.17530 -10.17038
 Alpha  occ. eigenvalues --  -10.16859  -0.80790  -0.74440  -0.70549  -0.64917
 Alpha  occ. eigenvalues --   -0.58986  -0.54069  -0.45980  -0.45122  -0.41954
 Alpha  occ. eigenvalues --   -0.41133  -0.39500  -0.38709  -0.37082  -0.35742
 Alpha  occ. eigenvalues --   -0.34477  -0.32528  -0.31227  -0.30734  -0.21201
 Alpha virt. eigenvalues --    0.08709   0.11810   0.12565   0.13648   0.15171
 Alpha virt. eigenvalues --    0.15660   0.16676   0.17227   0.17652   0.18509
 Alpha virt. eigenvalues --    0.19162   0.22477   0.23005   0.23908   0.24994
 Alpha virt. eigenvalues --    0.25364   0.28064   0.29314   0.49515   0.51146
 Alpha virt. eigenvalues --    0.51384   0.52763   0.54212   0.58547   0.59098
 Alpha virt. eigenvalues --    0.59328   0.63579   0.64255   0.67041   0.69727
 Alpha virt. eigenvalues --    0.73094   0.78623   0.79849   0.82428   0.84692
 Alpha virt. eigenvalues --    0.86621   0.87893   0.89659   0.90060   0.91101
 Alpha virt. eigenvalues --    0.91627   0.93524   0.94609   0.95364   0.96506
 Alpha virt. eigenvalues --    0.97866   0.99491   1.01243   1.03494   1.05041
 Alpha virt. eigenvalues --    1.22299   1.29332   1.37037   1.40713   1.43805
 Alpha virt. eigenvalues --    1.57412   1.60292   1.65672   1.71522   1.74545
 Alpha virt. eigenvalues --    1.79110   1.83239   1.89631   1.93069   1.94841
 Alpha virt. eigenvalues --    1.97827   1.99050   2.00818   2.02089   2.09299
 Alpha virt. eigenvalues --    2.11512   2.17631   2.21441   2.28494   2.30399
 Alpha virt. eigenvalues --    2.31402   2.33492   2.35607   2.42611   2.48951
 Alpha virt. eigenvalues --    2.52295   2.59193   2.68280   2.77000   2.79230
 Alpha virt. eigenvalues --    4.09548   4.18662   4.26506   4.35358   4.41281
 Alpha virt. eigenvalues --    4.58656
  Beta  occ. eigenvalues --  -10.18700 -10.18034 -10.17645 -10.17519 -10.17039
  Beta  occ. eigenvalues --  -10.16835  -0.80168  -0.73693  -0.70315  -0.64610
  Beta  occ. eigenvalues --   -0.58221  -0.52847  -0.45527  -0.44926  -0.41582
  Beta  occ. eigenvalues --   -0.40158  -0.39366  -0.38450  -0.37022  -0.35590
  Beta  occ. eigenvalues --   -0.34048  -0.32214  -0.30903  -0.30357
  Beta virt. eigenvalues --   -0.05182   0.08927   0.11957   0.12778   0.13796
  Beta virt. eigenvalues --    0.15350   0.16001   0.16926   0.17406   0.17810
  Beta virt. eigenvalues --    0.18782   0.19363   0.23137   0.23284   0.24102
  Beta virt. eigenvalues --    0.25207   0.26147   0.28580   0.30100   0.49725
  Beta virt. eigenvalues --    0.51238   0.51651   0.53132   0.56486   0.59155
  Beta virt. eigenvalues --    0.59454   0.61511   0.64215   0.65010   0.67934
  Beta virt. eigenvalues --    0.70417   0.73315   0.79274   0.80838   0.82586
  Beta virt. eigenvalues --    0.84766   0.87127   0.88109   0.89780   0.90229
  Beta virt. eigenvalues --    0.91287   0.91785   0.94009   0.95346   0.95698
  Beta virt. eigenvalues --    0.96822   0.98111   0.99721   1.01838   1.03567
  Beta virt. eigenvalues --    1.05479   1.23565   1.29493   1.37535   1.41516
  Beta virt. eigenvalues --    1.44702   1.58343   1.60460   1.66157   1.71883
  Beta virt. eigenvalues --    1.74663   1.81341   1.84010   1.90094   1.93948
  Beta virt. eigenvalues --    1.95745   1.98359   1.99704   2.01961   2.03835
  Beta virt. eigenvalues --    2.10022   2.12111   2.19187   2.23526   2.28638
  Beta virt. eigenvalues --    2.30450   2.31879   2.34071   2.35834   2.43170
  Beta virt. eigenvalues --    2.49855   2.53249   2.59898   2.68996   2.77511
  Beta virt. eigenvalues --    2.80067   4.10542   4.19316   4.26571   4.36927
  Beta virt. eigenvalues --    4.41312   4.59107
          Condensed to atoms (all electrons):
               1          2          3          4          5          6
     1  C    5.122746   0.363233   0.372370   0.369770   0.355959  -0.053570
     2  H    0.363233   0.585222  -0.033431  -0.031921  -0.035467  -0.001451
     3  H    0.372370  -0.033431   0.566254  -0.030375  -0.033079   0.005230
     4  H    0.369770  -0.031921  -0.030375   0.570793  -0.026703  -0.004457
     5  C    0.355959  -0.035467  -0.033079  -0.026703   5.248326   0.351042
     6  H   -0.053570  -0.001451   0.005230  -0.004457   0.351042   0.633631
     7  C   -0.045828  -0.003602  -0.006038   0.004042   0.380665  -0.050947
     8  H   -0.003303   0.005382  -0.000056  -0.000047  -0.047832  -0.000671
     9  C    0.003894   0.000035   0.000022  -0.000113  -0.041216  -0.006126
    10  H    0.000104  -0.000005   0.000003  -0.000007  -0.005883   0.007265
    11  H   -0.000002   0.000008   0.000004   0.000003  -0.000783  -0.000168
    12  C   -0.000156   0.000005   0.000001   0.000001   0.004005   0.000061
    13  H    0.000002   0.000000   0.000000   0.000000   0.000023   0.000003
    14  H    0.000002   0.000000   0.000000   0.000000  -0.000104  -0.000006
    15  H   -0.000001  -0.000001   0.000000   0.000000   0.000032   0.000000
    16  C   -0.005433  -0.000403   0.002140   0.000114  -0.051325   0.005633
    17  H    0.002191   0.000289   0.003345  -0.000091  -0.005701   0.000023
    18  H   -0.000236   0.000083   0.000332  -0.000024  -0.001066   0.000047
    19  H    0.000074  -0.000008  -0.000156   0.000001   0.004724  -0.000197
               7          8          9         10         11         12
     1  C   -0.045828  -0.003303   0.003894   0.000104  -0.000002  -0.000156
     2  H   -0.003602   0.005382   0.000035  -0.000005   0.000008   0.000005
     3  H   -0.006038  -0.000056   0.000022   0.000003   0.000004   0.000001
     4  H    0.004042  -0.000047  -0.000113  -0.000007   0.000003   0.000001
     5  C    0.380665  -0.047832  -0.041216  -0.005883  -0.000783   0.004005
     6  H   -0.050947  -0.000671  -0.006126   0.007265  -0.000168   0.000061
     7  C    4.895915   0.365758   0.389335  -0.038433  -0.038172  -0.038259
     8  H    0.365758   0.649893  -0.049300  -0.003429   0.006597  -0.004376
     9  C    0.389335  -0.049300   4.995915   0.372500   0.371573   0.361592
    10  H   -0.038433  -0.003429   0.372500   0.615762  -0.037658  -0.040032
    11  H   -0.038172   0.006597   0.371573  -0.037658   0.608287  -0.039733
    12  C   -0.038259  -0.004376   0.361592  -0.040032  -0.039733   5.083982
    13  H   -0.005219  -0.000202  -0.032449   0.005142  -0.004657   0.377280
    14  H    0.003952  -0.000020  -0.026734  -0.003819  -0.002170   0.371502
    15  H   -0.004627   0.005874  -0.036132  -0.003763   0.005308   0.376061
    16  C    0.370995  -0.049600  -0.048705   0.005693  -0.007655  -0.004560
    17  H   -0.029343  -0.003222   0.004851  -0.000176  -0.000025   0.000061
    18  H   -0.036598   0.006016  -0.005126  -0.000004   0.005678  -0.000298
    19  H   -0.028507  -0.002838  -0.006017  -0.000014  -0.000051   0.002597
              13         14         15         16         17         18
     1  C    0.000002   0.000002  -0.000001  -0.005433   0.002191  -0.000236
     2  H    0.000000   0.000000  -0.000001  -0.000403   0.000289   0.000083
     3  H    0.000000   0.000000   0.000000   0.002140   0.003345   0.000332
     4  H    0.000000   0.000000   0.000000   0.000114  -0.000091  -0.000024
     5  C    0.000023  -0.000104   0.000032  -0.051325  -0.005701  -0.001066
     6  H    0.000003  -0.000006   0.000000   0.005633   0.000023   0.000047
     7  C   -0.005219   0.003952  -0.004627   0.370995  -0.029343  -0.036598
     8  H   -0.000202  -0.000020   0.005874  -0.049600  -0.003222   0.006016
     9  C   -0.032449  -0.026734  -0.036132  -0.048705   0.004851  -0.005126
    10  H    0.005142  -0.003819  -0.003763   0.005693  -0.000176  -0.000004
    11  H   -0.004657  -0.002170   0.005308  -0.007655  -0.000025   0.005678
    12  C    0.377280   0.371502   0.376061  -0.004560   0.000061  -0.000298
    13  H    0.572671  -0.031231  -0.033126   0.002171  -0.000117   0.000271
    14  H   -0.031231   0.577527  -0.031306   0.000109   0.000001  -0.000022
    15  H   -0.033126  -0.031306   0.582674  -0.000515  -0.000027   0.000077
    16  C    0.002171   0.000109  -0.000515   5.121018   0.370892   0.373552
    17  H   -0.000117   0.000001  -0.000027   0.370892   0.576925  -0.031304
    18  H    0.000271  -0.000022   0.000077   0.373552  -0.031304   0.576458
    19  H    0.003121  -0.000093   0.000392   0.367675  -0.031136  -0.031638
              19
     1  C    0.000074
     2  H   -0.000008
     3  H   -0.000156
     4  H    0.000001
     5  C    0.004724
     6  H   -0.000197
     7  C   -0.028507
     8  H   -0.002838
     9  C   -0.006017
    10  H   -0.000014
    11  H   -0.000051
    12  C    0.002597
    13  H    0.003121
    14  H   -0.000093
    15  H    0.000392
    16  C    0.367675
    17  H   -0.031136
    18  H   -0.031638
    19  H    0.579277
          Atomic-Atomic Spin Densities.
               1          2          3          4          5          6
     1  C   -0.049531   0.000038   0.007381   0.005450  -0.025151   0.006025
     2  H    0.000038   0.092535  -0.008955  -0.004840  -0.023637  -0.003249
     3  H    0.007381  -0.008955   0.013483   0.001460  -0.005878   0.000223
     4  H    0.005450  -0.004840   0.001460   0.004569  -0.003688   0.000929
     5  C   -0.025151  -0.023637  -0.005878  -0.003688   1.128042  -0.014545
     6  H    0.006025  -0.003249   0.000223   0.000929  -0.014545  -0.022859
     7  C    0.002834  -0.002292   0.001132   0.000088  -0.025250   0.006203
     8  H   -0.001500   0.006313  -0.000745  -0.000100  -0.023549  -0.003294
     9  C    0.000131  -0.000066   0.000029   0.000002  -0.007003   0.000855
    10  H    0.000016  -0.000013   0.000001   0.000001  -0.000180   0.000218
    11  H   -0.000038   0.000014  -0.000008  -0.000001   0.003621  -0.000360
    12  C    0.000000   0.000005  -0.000001   0.000000   0.000132  -0.000086
    13  H    0.000000   0.000000   0.000000   0.000000   0.000001   0.000000
    14  H    0.000000   0.000000   0.000000   0.000000  -0.000002  -0.000002
    15  H    0.000000   0.000000   0.000000   0.000000   0.000001  -0.000002
    16  C    0.000945  -0.000551   0.000438   0.000021  -0.009739   0.000375
    17  H    0.000087  -0.000040  -0.000011   0.000003  -0.000090  -0.000003
    18  H   -0.000175   0.000089  -0.000277  -0.000008   0.004548  -0.000099
    19  H   -0.000033   0.000031  -0.000021  -0.000001   0.000183  -0.000005
               7          8          9         10         11         12
     1  C    0.002834  -0.001500   0.000131   0.000016  -0.000038   0.000000
     2  H   -0.002292   0.006313  -0.000066  -0.000013   0.000014   0.000005
     3  H    0.001132  -0.000745   0.000029   0.000001  -0.000008  -0.000001
     4  H    0.000088  -0.000100   0.000002   0.000001  -0.000001   0.000000
     5  C   -0.025250  -0.023549  -0.007003  -0.000180   0.003621   0.000132
     6  H    0.006203  -0.003294   0.000855   0.000218  -0.000360  -0.000086
     7  C   -0.034519   0.002341   0.003203   0.000635  -0.000471   0.000680
     8  H    0.002341   0.080369  -0.006198  -0.000526   0.000719   0.001216
     9  C    0.003203  -0.006198   0.013885   0.000090  -0.003887  -0.001590
    10  H    0.000635  -0.000526   0.000090  -0.000772  -0.000161   0.000179
    11  H   -0.000471   0.000719  -0.003887  -0.000161   0.001167   0.001059
    12  C    0.000680   0.001216  -0.001590   0.000179   0.001059  -0.001375
    13  H    0.000049   0.000046  -0.000317  -0.000011   0.000058   0.000191
    14  H   -0.000008   0.000025  -0.000255  -0.000045   0.000051   0.000302
    15  H   -0.000023   0.000054   0.000129   0.000009  -0.000011   0.000045
    16  C    0.003972  -0.010363   0.005808   0.000059  -0.001295  -0.000763
    17  H    0.000546  -0.000215  -0.000001   0.000000  -0.000003   0.000004
    18  H   -0.000074   0.000880  -0.001226  -0.000016   0.000423   0.000179
    19  H    0.000624   0.001305  -0.000484   0.000001   0.000125   0.000007
              13         14         15         16         17         18
     1  C    0.000000   0.000000   0.000000   0.000945   0.000087  -0.000175
     2  H    0.000000   0.000000   0.000000  -0.000551  -0.000040   0.000089
     3  H    0.000000   0.000000   0.000000   0.000438  -0.000011  -0.000277
     4  H    0.000000   0.000000   0.000000   0.000021   0.000003  -0.000008
     5  C    0.000001  -0.000002   0.000001  -0.009739  -0.000090   0.004548
     6  H    0.000000  -0.000002  -0.000002   0.000375  -0.000003  -0.000099
     7  C    0.000049  -0.000008  -0.000023   0.003972   0.000546  -0.000074
     8  H    0.000046   0.000025   0.000054  -0.010363  -0.000215   0.000880
     9  C   -0.000317  -0.000255   0.000129   0.005808  -0.000001  -0.001226
    10  H   -0.000011  -0.000045   0.000009   0.000059   0.000000  -0.000016
    11  H    0.000058   0.000051  -0.000011  -0.001295  -0.000003   0.000423
    12  C    0.000191   0.000302   0.000045  -0.000763   0.000004   0.000179
    13  H    0.000088   0.000014   0.000017  -0.000094  -0.000001   0.000018
    14  H    0.000014  -0.000184  -0.000020  -0.000018   0.000000   0.000002
    15  H    0.000017  -0.000020  -0.000123  -0.000013   0.000000   0.000000
    16  C   -0.000094  -0.000018  -0.000013   0.026539  -0.000089  -0.006887
    17  H   -0.000001   0.000000   0.000000  -0.000089  -0.000935  -0.000027
    18  H    0.000018   0.000002   0.000000  -0.006887  -0.000027   0.003778
    19  H    0.000059   0.000011   0.000002  -0.002287   0.000218   0.001245
              19
     1  C   -0.000033
     2  H    0.000031
     3  H   -0.000021
     4  H   -0.000001
     5  C    0.000183
     6  H   -0.000005
     7  C    0.000624
     8  H    0.001305
     9  C   -0.000484
    10  H    0.000001
    11  H    0.000125
    12  C    0.000007
    13  H    0.000059
    14  H    0.000011
    15  H    0.000002
    16  C   -0.002287
    17  H    0.000218
    18  H    0.001245
    19  H   -0.001270
 Mulliken charges and spin densities:
               1          2
     1  C   -0.481814  -0.053521
     2  H    0.152033   0.055384
     3  H    0.153435   0.008251
     4  H    0.149013   0.003884
     5  C   -0.095618   0.997816
     6  H    0.114657  -0.029675
     7  C   -0.085088  -0.040330
     8  H    0.125376   0.046779
     9  C   -0.247801   0.003103
    10  H    0.126754  -0.000514
    11  H    0.133616   0.001001
    12  C   -0.449735   0.000185
    13  H    0.146316   0.000119
    14  H    0.142411  -0.000129
    15  H    0.139079   0.000065
    16  C   -0.451798   0.006056
    17  H    0.142564  -0.000558
    18  H    0.143802   0.002375
    19  H    0.142795  -0.000290
 Sum of Mulliken charges =   0.00000   1.00000
 Mulliken charges and spin densities with hydrogens summed into heavy atoms:
               1          2
     1  C   -0.027332   0.013998
     5  C    0.019039   0.968140
     7  C    0.040288   0.006449
     9  C    0.012569   0.003590
    12  C   -0.021928   0.000240
    16  C   -0.022636   0.007582
 Electronic spatial extent (au):  <R**2>=            840.8563
 Charge=              0.0000 electrons
 Dipole moment (field-independent basis, Debye):
    X=              0.0223    Y=              0.0008    Z=              0.5593  Tot=              0.5597
 Quadrupole moment (field-independent basis, Debye-Ang):
   XX=            -40.6579   YY=            -40.6378   ZZ=            -41.1235
   XY=              0.0722   XZ=              0.9201   YZ=             -0.5081
 Traceless Quadrupole moment (field-independent basis, Debye-Ang):
   XX=              0.1485   YY=              0.1686   ZZ=             -0.3171
   XY=              0.0722   XZ=              0.9201   YZ=             -0.5081
 Octapole moment (field-independent basis, Debye-Ang**2):
  XXX=              1.7415  YYY=             -0.9572  ZZZ=              1.8500  XYY=              0.1197
  XXY=             -0.5041  XXZ=              0.1526  XZZ=             -0.9927  YZZ=              0.6922
  YYZ=              0.6570  XYZ=             -0.4824
 Hexadecapole moment (field-independent basis, Debye-Ang**3):
 XXXX=           -827.6190 YYYY=           -242.2625 ZZZZ=            -95.4218 XXXY=             -0.0576
 XXXZ=              3.1436 YYYX=              0.0305 YYYZ=             -0.1889 ZZZX=              3.0788
 ZZZY=             -2.6137 XXYY=           -173.0769 XXZZ=           -156.0076 YYZZ=            -58.2656
 XXYZ=              0.3600 YYXZ=              0.3903 ZZXY=              0.7563
 N-N= 2.441723794191D+02 E-N=-1.033932177901D+03  KE= 2.339494735888D+02
                          Isotropic Fermi Contact Couplings
        Atom                 a.u.       MegaHertz       Gauss      10(-4) cm-1
     1  C(13)             -0.00769      -8.64831      -3.08593      -2.88477
     2  H(1)               0.02417     108.03484      38.54951      36.03654
     3  H(1)               0.00526      23.50322       8.38653       7.83983
     4  H(1)               0.00277      12.39876       4.42418       4.13578
     5  C(13)              0.29229     328.59418     117.25057     109.60722
     6  H(1)              -0.00373     -16.66143      -5.94521      -5.55765
     7  C(13)             -0.00747      -8.40308      -2.99843      -2.80297
     8  H(1)               0.02028      90.66241      32.35060      30.24173
     9  C(13)              0.00532       5.97529       2.13213       1.99314
    10  H(1)              -0.00023      -1.03719      -0.37009      -0.34597
    11  H(1)              -0.00025      -1.10631      -0.39476      -0.36902
    12  C(13)             -0.00099      -1.11448      -0.39768      -0.37175
    13  H(1)               0.00005       0.24159       0.08621       0.08059
    14  H(1)              -0.00005      -0.22206      -0.07924      -0.07407
    15  H(1)               0.00024       1.07582       0.38388       0.35885
    16  C(13)              0.01168      13.13529       4.68700       4.38146
    17  H(1)              -0.00023      -1.03088      -0.36784      -0.34386
    18  H(1)              -0.00021      -0.96015      -0.34261      -0.32027
    19  H(1)              -0.00043      -1.93085      -0.68897      -0.64406
 --------------------------------------------------------
       Center         ----  Spin Dipole Couplings  ----
                      3XX-RR        3YY-RR        3ZZ-RR
 --------------------------------------------------------
     1   Atom        0.009919     -0.017009      0.007090
     2   Atom        0.001389     -0.008559      0.007170
     3   Atom        0.003206      0.003763     -0.006969
     4   Atom        0.017989     -0.010653     -0.007337
     5   Atom       -0.479218     -0.454016      0.933233
     6   Atom       -0.057501      0.065609     -0.008108
     7   Atom        0.009089     -0.012073      0.002985
     8   Atom        0.000953     -0.007150      0.006197
     9   Atom        0.014468     -0.007006     -0.007462
    10   Atom        0.008119     -0.003137     -0.004982
    11   Atom        0.011315     -0.007100     -0.004215
    12   Atom        0.002999     -0.002604     -0.000395
    13   Atom        0.002709     -0.001240     -0.001470
    14   Atom        0.002578     -0.001404     -0.001174
    15   Atom        0.003056     -0.002160     -0.000897
    16   Atom       -0.006482      0.016782     -0.010299
    17   Atom       -0.005054      0.008981     -0.003928
    18   Atom       -0.002786      0.007423     -0.004637
    19   Atom       -0.000087      0.002664     -0.002577
 --------------------------------------------------------
                        XY            XZ            YZ
 --------------------------------------------------------
     1   Atom        0.010092      0.026593      0.006783
     2   Atom        0.003455      0.008182      0.002349
     3   Atom        0.014247      0.004775      0.004819
     4   Atom       -0.002428      0.005554     -0.000561
     5   Atom        0.006952     -0.055627     -0.175409
     6   Atom        0.012050     -0.003203     -0.018970
     7   Atom       -0.015534     -0.026694      0.011381
     8   Atom       -0.006184     -0.007681      0.003999
     9   Atom        0.003398     -0.003857     -0.001132
    10   Atom        0.006803     -0.002512     -0.000982
    11   Atom       -0.000486      0.004760      0.000360
    12   Atom        0.000017     -0.000863     -0.000052
    13   Atom       -0.001632     -0.000416      0.000180
    14   Atom        0.000210     -0.000312      0.000015
    15   Atom       -0.000237     -0.001720      0.000157
    16   Atom       -0.007899     -0.001873      0.004350
    17   Atom       -0.001351     -0.000460      0.003990
    18   Atom       -0.007832      0.001407     -0.003847
    19   Atom       -0.004684     -0.001218      0.001356
 --------------------------------------------------------


 ---------------------------------------------------------------------------------
              Anisotropic Spin Dipole Couplings in Principal Axis System
 ---------------------------------------------------------------------------------

       Atom             a.u.   MegaHertz   Gauss  10(-4) cm-1        Axes

              Baa    -0.0210    -2.817    -1.005    -0.940 -0.5153  0.8052  0.2935
     1 C(13)  Bbb    -0.0168    -2.250    -0.803    -0.751 -0.4738 -0.5530  0.6853
              Bcc     0.0378     5.068     1.808     1.690  0.7141  0.2141  0.6665
 
              Baa    -0.0096    -5.146    -1.836    -1.717 -0.3114  0.9501  0.0188
     2 H(1)   Bbb    -0.0040    -2.137    -0.763    -0.713  0.7527  0.2586 -0.6055
              Bcc     0.0137     7.283     2.599     2.429  0.5801  0.1744  0.7957
 
              Baa    -0.0108    -5.744    -2.050    -1.916  0.7166 -0.6973 -0.0162
     3 H(1)   Bbb    -0.0087    -4.646    -1.658    -1.550 -0.1621 -0.1891  0.9685
              Bcc     0.0195    10.391     3.708     3.466  0.6784  0.6914  0.2485
 
              Baa    -0.0109    -5.795    -2.068    -1.933  0.0766  0.9963  0.0379
     4 H(1)   Bbb    -0.0085    -4.535    -1.618    -1.513 -0.2070 -0.0213  0.9781
              Bcc     0.0194    10.330     3.686     3.446  0.9753 -0.0827  0.2046
 
              Baa    -0.4814   -64.600   -23.051   -21.548  0.9992 -0.0096  0.0381
     5 C(13)  Bbb    -0.4759   -63.855   -22.785   -21.300  0.0048  0.9923  0.1237
              Bcc     0.9573   128.455    45.836    42.848 -0.0390 -0.1234  0.9916
 
              Baa    -0.0587   -31.324   -11.177   -10.449  0.9953 -0.0921  0.0285
     6 H(1)   Bbb    -0.0127    -6.777    -2.418    -2.261 -0.0059  0.2363  0.9717
              Bcc     0.0714    38.101    13.595    12.709  0.0963  0.9673 -0.2346
 
              Baa    -0.0219    -2.941    -1.050    -0.981  0.6953  0.4991  0.5172
     7 C(13)  Bbb    -0.0181    -2.422    -0.864    -0.808 -0.1290  0.7945 -0.5934
              Bcc     0.0400     5.364     1.914     1.789  0.7071 -0.3459 -0.6167
 
              Baa    -0.0105    -5.598    -1.998    -1.867  0.4813  0.8765  0.0115
     8 H(1)   Bbb    -0.0035    -1.848    -0.660    -0.617  0.6492 -0.3651  0.6673
              Bcc     0.0140     7.447     2.657     2.484 -0.5891  0.3137  0.7447
 
              Baa    -0.0084    -1.133    -0.404    -0.378  0.0683  0.5119  0.8563
     9 C(13)  Bbb    -0.0072    -0.971    -0.346    -0.324 -0.2190  0.8451 -0.4877
              Bcc     0.0157     2.104     0.751     0.702  0.9733  0.1543 -0.1698
 
              Baa    -0.0064    -3.400    -1.213    -1.134 -0.4435  0.8777 -0.1816
    10 H(1)   Bbb    -0.0054    -2.871    -1.025    -0.958  0.0632  0.2328  0.9705
              Bcc     0.0118     6.271     2.238     2.092  0.8940  0.4190 -0.1588
 
              Baa    -0.0072    -3.865    -1.379    -1.289  0.0914  0.9618 -0.2581
    11 H(1)   Bbb    -0.0054    -2.893    -1.032    -0.965 -0.2558  0.2732  0.9273
              Bcc     0.0127     6.757     2.411     2.254  0.9624 -0.0187  0.2710
 
              Baa    -0.0026    -0.350    -0.125    -0.117  0.0006  0.9997  0.0239
    12 C(13)  Bbb    -0.0006    -0.081    -0.029    -0.027  0.2331 -0.0234  0.9722
              Bcc     0.0032     0.430     0.154     0.144  0.9725  0.0050 -0.2330
 
              Baa    -0.0018    -0.976    -0.348    -0.326  0.3297  0.9398 -0.0897
    13 H(1)   Bbb    -0.0015    -0.805    -0.287    -0.269  0.1183  0.0531  0.9916
              Bcc     0.0033     1.781     0.636     0.594  0.9366 -0.3376 -0.0937
 
              Baa    -0.0014    -0.757    -0.270    -0.253 -0.0628  0.9884 -0.1383
    14 H(1)   Bbb    -0.0012    -0.638    -0.227    -0.213  0.0738  0.1427  0.9870
              Bcc     0.0026     1.395     0.498     0.465  0.9953  0.0518 -0.0819
 
              Baa    -0.0022    -1.163    -0.415    -0.388  0.0092  0.9940 -0.1091
    15 H(1)   Bbb    -0.0015    -0.818    -0.292    -0.273  0.3537  0.0989  0.9301
              Bcc     0.0037     1.981     0.707     0.661  0.9353 -0.0471 -0.3506
 
              Baa    -0.0111    -1.496    -0.534    -0.499  0.2548 -0.0781  0.9638
    16 C(13)  Bbb    -0.0088    -1.180    -0.421    -0.394  0.9215  0.3216 -0.2176
              Bcc     0.0199     2.676     0.955     0.893 -0.2930  0.9437  0.1539
 
              Baa    -0.0052    -2.785    -0.994    -0.929  0.9050 -0.0331  0.4241
    17 H(1)   Bbb    -0.0050    -2.683    -0.957    -0.895 -0.4151 -0.2860  0.8636
              Bcc     0.0102     5.468     1.951     1.824 -0.0927  0.9577  0.2726
 
              Baa    -0.0072    -3.861    -1.378    -1.288  0.7961  0.5106  0.3249
    18 H(1)   Bbb    -0.0054    -2.873    -1.025    -0.958 -0.3960  0.0335  0.9177
              Bcc     0.0126     6.733     2.403     2.246 -0.4577  0.8592 -0.2288
 
              Baa    -0.0036    -1.937    -0.691    -0.646  0.8046  0.5512  0.2209
    19 H(1)   Bbb    -0.0029    -1.549    -0.553    -0.517 -0.0652 -0.2877  0.9555
              Bcc     0.0065     3.485     1.244     1.163 -0.5902  0.7832  0.1955
 

 ---------------------------------------------------------------------------------

 No NMR shielding tensors so no spin-rotation constants.
 Leave Link  601 at Sat Nov  7 02:07:02 2015, MaxMem=   805306368 cpu:         1.0
 (Enter /home/hetanjin/apps/g09D01/g09/l701.exe)
 Compute integral first derivatives.
 ... and contract with generalized density number  0.
 Leave Link  701 at Sat Nov  7 02:07:02 2015, MaxMem=   805306368 cpu:         0.7
 (Enter /home/hetanjin/apps/g09D01/g09/l702.exe)
 L702 exits ... SP integral derivatives will be done elsewhere.
 Leave Link  702 at Sat Nov  7 02:07:02 2015, MaxMem=   805306368 cpu:         0.1
 (Enter /home/hetanjin/apps/g09D01/g09/l703.exe)
 Compute integral first derivatives, UseDBF=F ICtDFT=           0.
 Integral derivatives from FoFJK, PRISM(SPDF).
 Calling FoFJK, ICntrl=      2127 FMM=F ISym2X=0 I1Cent= 0 IOpClX= 1 NMat=1 NMatS=1 NMatT=0.
 FoFJK:  IHMeth= 1 ICntrl=    2127 DoSepK=F KAlg= 0 I1Cent=   0 FoldK=F
 IRaf=         0 NMat=   1 IRICut=       1 DoRegI=T DoRafI=F ISym2E= 0.
 FoFCou: FMM=F IPFlag=           0 FMFlag=      100000 FMFlg1=         800
         NFxFlg=           0 DoJE=F BraDBF=F KetDBF=F FulRan=T
         wScrn=  0.000000 ICntrl=    2127 IOpCl=  1 I1Cent=           0 NGrid=           0
         NMat0=    1 NMatS0=      1 NMatT0=    0 NMatD0=    1 NMtDS0=    0 NMtDT0=    0
 Symmetry not used in FoFCou.
 Leave Link  703 at Sat Nov  7 02:07:11 2015, MaxMem=   805306368 cpu:        29.7
 (Enter /home/hetanjin/apps/g09D01/g09/l716.exe)
 Dipole        = 8.77613474D-03 3.20358824D-04 2.20036103D-01
 ***** Axes restored to original set *****
 -------------------------------------------------------------------
 Center     Atomic                   Forces (Hartrees/Bohr)
 Number     Number              X              Y              Z
 -------------------------------------------------------------------
      1        6           0.004009468   -0.000787878    0.022040851
      2        1           0.001925696   -0.000620952   -0.002551341
      3        1          -0.000698311    0.000802087   -0.001123227
      4        1          -0.000427137   -0.000027214   -0.000814982
      5        6           0.000379106    0.003904424   -0.050320900
      6        1          -0.000390671   -0.002783531    0.015327799
      7        6          -0.004120963   -0.000605735    0.020774597
      8        1          -0.002239597   -0.001211683   -0.002094255
      9        6           0.001585183   -0.000364198    0.000681957
     10        1          -0.000116115   -0.000000353    0.000006008
     11        1          -0.000398379   -0.000002514   -0.000730621
     12        6          -0.000222953   -0.000055476   -0.000201296
     13        1          -0.000008292   -0.000013744   -0.000008917
     14        1          -0.000087012   -0.000012247   -0.000024631
     15        1           0.000130035    0.000048987   -0.000195316
     16        6           0.000821244    0.002145503    0.000404742
     17        1          -0.000039110   -0.000061019   -0.000006284
     18        1          -0.000070897   -0.000385274   -0.000850407
     19        1          -0.000031295    0.000030816   -0.000313778
 -------------------------------------------------------------------
 Cartesian Forces:  Max     0.050320900 RMS     0.008140181
 Leave Link  716 at Sat Nov  7 02:07:11 2015, MaxMem=   805306368 cpu:         0.1
 (Enter /home/hetanjin/apps/g09D01/g09/l103.exe)

 GradGradGradGradGradGradGradGradGradGradGradGradGradGradGradGradGradGrad
 Berny optimization.
 FormGI is forming the generalized inverse of G from B-inverse, IUseBI=4.
 Internal  Forces:  Max     0.013748798 RMS     0.003059645
 Search for a local minimum.
 Step number   1 out of a maximum of  100
 All quantities printed in internal units (Hartrees-Bohrs-Radians)
 RMS Force = .30596D-02 SwitMx=.10000D-02 MixMth= 1
 Mixed Optimization -- RFO/linear search
 Second derivative matrix not updated -- first step.
 ITU=  0
     Eigenvalues ---    0.00230   0.00230   0.00279   0.00326   0.00326
     Eigenvalues ---    0.02192   0.03219   0.03659   0.04708   0.04711
     Eigenvalues ---    0.05346   0.05357   0.05439   0.05496   0.05687
     Eigenvalues ---    0.06829   0.06983   0.08726   0.11217   0.12495
     Eigenvalues ---    0.16000   0.16000   0.16000   0.16000   0.16000
     Eigenvalues ---    0.16000   0.16000   0.16000   0.16000   0.16976
     Eigenvalues ---    0.18127   0.21941   0.23436   0.28249   0.28249
     Eigenvalues ---    0.28802   0.29125   0.29125   0.33394   0.33637
     Eigenvalues ---    0.33788   0.33788   0.33845   0.33973   0.33973
     Eigenvalues ---    0.34116   0.34116   0.34193   0.34193   0.34238
     Eigenvalues ---    0.34238
 RFO step:  Lambda=-1.31397301D-02 EMin= 2.30000000D-03
 Linear search not attempted -- first point.
 Iteration  1 RMS(Cart)=  0.06381113 RMS(Int)=  0.00584594
 Iteration  2 RMS(Cart)=  0.00749859 RMS(Int)=  0.00407328
 Iteration  3 RMS(Cart)=  0.00001798 RMS(Int)=  0.00407326
 Iteration  4 RMS(Cart)=  0.00000015 RMS(Int)=  0.00407326
 ITry= 1 IFail=0 DXMaxC= 2.67D-01 DCOld= 1.00D+10 DXMaxT= 3.00D-01 DXLimC= 3.00D+00 Rises=F
 Variable       Old X    -DE/DX   Delta X   Delta X   Delta X     New X
                                 (Linear)    (Quad)   (Total)
    R1        2.07376   0.00260   0.00000   0.00737   0.00737   2.08113
    R2        2.07005   0.00059   0.00000   0.00167   0.00167   2.07172
    R3        2.07134   0.00009   0.00000   0.00025   0.00025   2.07160
    R4        2.89742  -0.01110   0.00000  -0.03647  -0.03647   2.86095
    R5        2.07690  -0.00064   0.00000  -0.00184  -0.00184   2.07506
    R6        2.91596  -0.00977   0.00000  -0.03306  -0.03306   2.88290
    R7        2.08366   0.00215   0.00000   0.00619   0.00619   2.08984
    R8        2.91596   0.00076   0.00000   0.00257   0.00257   2.91854
    R9        2.90418   0.00147   0.00000   0.00487   0.00487   2.90905
   R10        2.07690   0.00001   0.00000   0.00003   0.00003   2.07693
   R11        2.07947  -0.00074   0.00000  -0.00213  -0.00213   2.07734
   R12        2.89742  -0.00001   0.00000  -0.00003  -0.00003   2.89740
   R13        2.07005  -0.00002   0.00000  -0.00005  -0.00005   2.07000
   R14        2.07134  -0.00007   0.00000  -0.00019  -0.00019   2.07115
   R15        2.07376   0.00019   0.00000   0.00054   0.00054   2.07430
   R16        2.06931   0.00000   0.00000   0.00001   0.00001   2.06932
   R17        2.07593  -0.00088   0.00000  -0.00251  -0.00251   2.07342
   R18        2.06930   0.00010   0.00000   0.00028   0.00028   2.06958
    A1        1.87842   0.00007   0.00000  -0.00365  -0.00360   1.87482
    A2        1.87726   0.00048   0.00000  -0.00081  -0.00080   1.87646
    A3        1.93932  -0.00376   0.00000  -0.02579  -0.02576   1.91356
    A4        1.87288  -0.00043   0.00000   0.00512   0.00490   1.87778
    A5        1.95782   0.00221   0.00000   0.01464   0.01454   1.97236
    A6        1.93461   0.00144   0.00000   0.01055   0.01043   1.94504
    A7        1.89569   0.00079   0.00000   0.11647   0.09362   1.98932
    A8        2.00987   0.01375   0.00000   0.10100   0.08151   2.09138
    A9        1.89164   0.00090   0.00000   0.11620   0.09333   1.98497
   A10        1.87539  -0.00196   0.00000  -0.02705  -0.02700   1.84839
   A11        1.92053   0.00043   0.00000   0.00723   0.00707   1.92761
   A12        1.95271   0.00156   0.00000   0.01348   0.01339   1.96610
   A13        1.87539   0.00053   0.00000   0.00077   0.00079   1.87617
   A14        1.88339   0.00014   0.00000  -0.00099  -0.00092   1.88247
   A15        1.95271  -0.00080   0.00000   0.00441   0.00425   1.95696
   A16        1.89165   0.00002   0.00000  -0.00101  -0.00101   1.89064
   A17        1.90093  -0.00020   0.00000  -0.00158  -0.00158   1.89935
   A18        2.00987  -0.00021   0.00000  -0.00098  -0.00098   2.00889
   A19        1.84904  -0.00003   0.00000   0.00011   0.00011   1.84915
   A20        1.89569   0.00003   0.00000  -0.00011  -0.00011   1.89558
   A21        1.90987   0.00040   0.00000   0.00361   0.00361   1.91348
   A22        1.95782  -0.00002   0.00000  -0.00014  -0.00014   1.95768
   A23        1.93461  -0.00011   0.00000  -0.00072  -0.00072   1.93389
   A24        1.93932   0.00022   0.00000   0.00138   0.00138   1.94071
   A25        1.87288   0.00005   0.00000   0.00008   0.00008   1.87296
   A26        1.87842  -0.00008   0.00000  -0.00029  -0.00029   1.87812
   A27        1.87726  -0.00006   0.00000  -0.00035  -0.00035   1.87691
   A28        1.95027  -0.00004   0.00000  -0.00059  -0.00059   1.94969
   A29        1.93183  -0.00038   0.00000  -0.00205  -0.00205   1.92978
   A30        1.95027  -0.00003   0.00000   0.00001   0.00001   1.95028
   A31        1.87919   0.00017   0.00000   0.00059   0.00059   1.87978
   A32        1.86960   0.00001   0.00000  -0.00019  -0.00019   1.86941
   A33        1.87920   0.00031   0.00000   0.00241   0.00241   1.88161
    D1       -1.14441  -0.00564   0.00000  -0.15479  -0.15720  -1.30162
    D2        0.98010   0.00558   0.00000   0.15422   0.15661   1.13670
    D3        3.03522  -0.00461   0.00000  -0.14213  -0.14442   2.89080
    D4       -1.12345   0.00660   0.00000   0.16689   0.16939  -0.95406
    D5        0.94202  -0.00655   0.00000  -0.16579  -0.16827   0.77375
    D6        3.06653   0.00466   0.00000   0.14323   0.14554  -3.07112
    D7       -0.95817  -0.00553   0.00000  -0.15089  -0.15324  -1.11141
    D8       -2.99494  -0.00528   0.00000  -0.14036  -0.14270  -3.13764
    D9        1.10606  -0.00569   0.00000  -0.16128  -0.16372   0.94234
   D10        1.16853   0.00558   0.00000   0.15760   0.16001   1.32853
   D11       -0.86824   0.00583   0.00000   0.16814   0.17055  -0.69770
   D12       -3.05042   0.00541   0.00000   0.14721   0.14953  -2.90090
   D13        0.86823  -0.00126   0.00000  -0.02161  -0.02162   0.84661
   D14       -1.13583  -0.00113   0.00000  -0.02038  -0.02039  -1.15623
   D15        2.99493  -0.00135   0.00000  -0.02319  -0.02320   2.97173
   D16       -1.16854   0.00054   0.00000   0.00631   0.00632  -1.16222
   D17        3.11058   0.00067   0.00000   0.00754   0.00755   3.11813
   D18        0.95816   0.00046   0.00000   0.00473   0.00474   0.96290
   D19        3.05041   0.00050   0.00000   0.00451   0.00451   3.05492
   D20        1.04635   0.00063   0.00000   0.00574   0.00574   1.05208
   D21       -1.10608   0.00042   0.00000   0.00293   0.00293  -1.10315
   D22       -1.01213   0.00091   0.00000   0.01968   0.01970  -0.99243
   D23        1.08212   0.00084   0.00000   0.01864   0.01867   1.10079
   D24       -3.10680   0.00095   0.00000   0.02031   0.02034  -3.08647
   D25        1.04733  -0.00050   0.00000  -0.00623  -0.00623   1.04110
   D26        3.14159  -0.00057   0.00000  -0.00726  -0.00726   3.13433
   D27       -1.04734  -0.00046   0.00000  -0.00559  -0.00559  -1.05293
   D28        3.10679  -0.00023   0.00000  -0.00335  -0.00338   3.10342
   D29       -1.08213  -0.00030   0.00000  -0.00438  -0.00441  -1.08654
   D30        1.01213  -0.00018   0.00000  -0.00271  -0.00274   1.00939
   D31        1.12344   0.00003   0.00000   0.00149   0.00149   1.12493
   D32       -3.06654  -0.00001   0.00000   0.00099   0.00099  -3.06554
   D33       -0.98010  -0.00001   0.00000   0.00099   0.00099  -0.97911
   D34       -3.03523  -0.00007   0.00000  -0.00058  -0.00058  -3.03581
   D35       -0.94203  -0.00010   0.00000  -0.00107  -0.00107  -0.94310
   D36        1.14441  -0.00010   0.00000  -0.00108  -0.00108   1.14333
   D37       -1.02422   0.00013   0.00000   0.00144   0.00144  -1.02279
   D38        1.06898   0.00010   0.00000   0.00094   0.00094   1.06992
   D39       -3.12777   0.00010   0.00000   0.00094   0.00094  -3.12683
         Item               Value     Threshold  Converged?
 Maximum Force            0.013749     0.000015     NO 
 RMS     Force            0.003060     0.000010     NO 
 Maximum Displacement     0.267064     0.000060     NO 
 RMS     Displacement     0.061223     0.000040     NO 
 Predicted change in Energy=-9.804373D-03
 Lowest energy point so far.  Saving SCF results.
 GradGradGradGradGradGradGradGradGradGradGradGradGradGradGradGradGradGrad

 Leave Link  103 at Sat Nov  7 02:07:13 2015, MaxMem=   805306368 cpu:         4.7
 (Enter /home/hetanjin/apps/g09D01/g09/l202.exe)
                          Input orientation:                          
 ---------------------------------------------------------------------
 Center     Atomic      Atomic             Coordinates (Angstroms)
 Number     Number       Type             X           Y           Z
 ---------------------------------------------------------------------
      1          6           0       -2.604833   -0.161586   -0.257523
      2          1           0       -2.698474   -0.199065   -1.354178
      3          1           0       -2.766068    0.878196    0.050285
      4          1           0       -3.419559   -0.761936    0.163844
      5          6           0       -1.250897   -0.698018    0.156178
      6          1           0       -1.162613   -1.790169    0.084227
      7          6           0        0.016769    0.048352   -0.247941
      8          1           0        0.050895    0.011677   -1.352703
      9          6           0        1.267655   -0.687759    0.279948
     10          1           0        1.177416   -1.751999    0.020748
     11          1           0        1.268183   -0.643382    1.378335
     12          6           0        2.605106   -0.165009   -0.257425
     13          1           0        2.804177    0.864287    0.060095
     14          1           0        3.436577   -0.783182    0.099998
     15          1           0        2.626604   -0.184056   -1.354723
     16          6           0       -0.006493    1.528406    0.174747
     17          1           0       -0.875970    2.053036   -0.234978
     18          1           0       -0.048080    1.616575    1.267614
     19          1           0        0.884688    2.063050   -0.170742
 ---------------------------------------------------------------------
                    Distance matrix (angstroms):
                    1          2          3          4          5
     1  C    0.000000
     2  H    1.101284   0.000000
     3  H    1.096307   1.771320   0.000000
     4  H    1.096243   1.772337   1.769175   0.000000
     5  C    1.513952   2.150723   2.188928   2.169618   0.000000
     6  H    2.202062   2.638085   3.113261   2.481413   1.098074
     7  C    2.630012   2.942367   2.919205   3.554502   1.525567
     8  H    2.877904   2.757435   3.264124   3.865546   2.115431
     9  C    3.944857   4.317334   4.333114   4.689239   2.521612
    10  H    4.112451   4.395970   4.740239   4.704559   2.650645
    11  H    4.231833   4.837191   4.511551   4.843962   2.800431
    12  C    5.209941   5.415902   5.480189   6.068804   3.914578
    13  H    5.514589   5.780144   5.570271   6.433526   4.346683
    14  H    6.083818   6.332036   6.421484   6.856466   4.688584
    15  H    5.345306   5.325100   5.673036   6.260678   4.193089
    16  C    3.129584   3.545212   2.837871   4.110328   2.550656
    17  H    2.809631   3.105816   2.243679   3.814836   2.803903
    18  H    3.467692   4.146678   3.068314   4.271123   2.835383
    19  H    4.139239   4.399630   3.844574   5.159364   3.505866
                    6          7          8          9         10
     6  H    0.000000
     7  C    2.209398   0.000000
     8  H    2.604615   1.105897   0.000000
     9  C    2.675784   1.544423   2.152967   0.000000
    10  H    2.341201   2.158833   2.503192   1.099061   0.000000
    11  H    2.983053   2.165481   3.060958   1.099283   1.755082
    12  C    4.117473   2.597134   2.784753   1.533236   2.152723
    13  H    4.773065   2.920665   3.209907   2.195012   3.081047
    14  H    4.708166   3.536609   3.768950   2.178465   2.459410
    15  H    4.359856   2.844332   2.583137   2.184630   2.539787
[...]
 0214,0.03680308,0.00053123,-0.00123617,0.00021521,-0.01818915,-0.02270
 814,0.00587650,0.13689415,0.20551159,0.02975550,0.03615651,-0.06055576
 ,0.02085864,0.02492796,-0.00374685,-0.00729883,-0.00946390,0.00202786,
 -0.03257595,-0.04060730,0.05792003,-0.19398181,0.01361110,-0.05987572,
 0.00320735,0.00163522,-0.00162200,-0.01873208,0.00915212,-0.00659238,-
 0.02266939,0.00662129,-0.00969484,0.49937834,0.01529472,-0.06524642,0.
 02912294,0.00569411,-0.00209043,0.00499302,0.02347753,-0.00185268,0.01
 386233,-0.01926934,0.00689949,-0.01134326,0.05354375,0.24673119,-0.059
 87672,0.02935478,-0.10725910,-0.03024332,0.00880010,-0.01422084,0.0029
 6841,0.00515665,0.00580353,0.00777936,-0.00219064,0.00422355,0.0445747
 7,-0.21257609,0.46847080,0.00282135,0.01054943,-0.02504164,-0.00448378
 ,0.00159037,-0.00225346,-0.00042959,0.00060731,0.00015923,0.00134829,-
 0.00046581,0.00063344,-0.05425059,-0.00835175,-0.00117778,0.05576900,-
 0.00222803,0.00068822,0.00643749,0.00053966,0.00084854,-0.00134847,-0.
 00022491,0.00007234,-0.00104759,0.00090004,0.00057063,-0.00068802,-0.0
 0733957,-0.08027558,0.12527372,0.00865134,0.07989427,0.00251199,0.0037
 5872,-0.00697352,-0.00238189,0.00103971,-0.00068113,-0.00031962,0.0002
 1842,-0.00080284,0.00013875,-0.00032705,0.00042872,-0.00280708,0.13316
 955,-0.26535215,0.00325136,-0.14082866,0.27787126,-0.02065916,-0.01482
 796,0.00563328,0.00190583,-0.00020949,0.00142060,0.00122766,-0.0002198
 8,0.00056152,-0.00269158,0.00157979,-0.00103996,-0.17146463,-0.0518457
 0,0.02869202,0.00172425,0.00082247,-0.00216031,0.47299177,0.00564339,0
 .00898443,-0.00325381,0.00030141,-0.00023053,0.00057439,-0.00018779,-0
 .00106427,-0.00002145,0.00171887,-0.00026157,0.00121166,-0.05293207,-0
 .08349721,0.03625647,-0.00963668,-0.00228225,0.00144157,0.00488491,0.4
 1534848,-0.00901339,-0.00763789,0.00603642,-0.00151689,-0.00079751,0.0
 0035078,-0.00103590,0.00032389,-0.00011776,-0.00446653,0.00025274,-0.0
 0144593,0.02795672,0.03521186,-0.09117657,0.02218416,0.01493476,-0.005
 01007,-0.00359143,-0.03385806,0.56799999,0.00141232,0.00034302,0.00166
 523,-0.00017426,0.00011968,-0.00100522,-0.00018601,0.00004657,-0.00019
 536,0.00033733,-0.00002110,-0.00019962,-0.00153038,-0.00586746,0.02779
 219,-0.00390546,-0.00188504,0.00160631,-0.05060969,0.00195343,0.000471
 47,0.05708027,0.00085621,-0.00004077,-0.00015027,-0.00018246,0.0002628
 3,-0.00051056,0.00008168,0.00007636,-0.00016212,0.00024074,-0.00005784
 ,-0.00003300,-0.00278400,-0.00399025,0.01714126,-0.00269741,-0.0005874
 0,0.00146313,0.00212357,-0.04519030,0.01393060,0.00069437,0.05786046,-
 0.00122394,0.00001092,0.00057592,0.00106044,-0.00021312,0.00084237,0.0
 0006411,-0.00017128,0.00011293,-0.00011108,-0.00001868,0.00053074,0.00
 188868,0.00461654,-0.01101872,0.00188675,-0.00052960,-0.00026828,-0.00
 150204,0.01275928,-0.28604556,0.00061794,-0.01487580,0.31498649,-0.002
 09912,-0.00129279,0.00181972,-0.00006553,-0.00008582,-0.00006578,-0.00
 036134,0.00020784,-0.00006519,-0.00055762,0.00029799,-0.00036208,-0.03
 423307,0.01052409,-0.00849706,0.00203016,0.00086676,-0.00130562,-0.130
 54434,0.04101989,-0.02054016,-0.00249999,0.00107401,-0.00088095,0.4561
 2196,-0.00284405,-0.00266927,0.00143304,0.00023071,0.00003107,-0.00007
 860,-0.00020459,0.00025719,-0.00000420,-0.00132063,0.00012491,-0.00037
 242,-0.00884013,0.00836588,-0.00694383,-0.00082499,0.00050325,0.000542
 84,0.03821157,-0.10527837,0.01708249,0.00190252,-0.00144833,0.00103134
 ,0.02489524,0.54989464,0.00120335,0.00134389,-0.00135087,-0.00006187,-
 0.00000337,0.00052879,0.00004062,-0.00017434,0.00012762,0.00053714,-0.
 00001133,0.00064035,0.00629621,-0.00593277,0.00426449,0.00154288,-0.00
 037129,0.00034472,-0.01962001,0.01732931,-0.09126082,-0.02737394,0.018
 37513,-0.01047071,0.00178374,0.03183755,0.56972676,0.00000156,0.000103
 75,0.00000280,0.00004091,0.00003715,0.00006034,0.00014813,-0.00007008,
 0.00003521,0.00003472,-0.00001914,0.00003069,0.00088869,0.00082859,-0.
 00020539,-0.00003999,-0.00007143,0.00031949,0.00153783,0.02602551,0.00
 948485,0.00084535,-0.00082413,0.00003324,-0.05152271,-0.03317637,-0.01
 147332,0.06324042,0.00020549,0.00020268,-0.00000459,-0.00002396,-0.000
 06388,-0.00001926,-0.00018244,0.00009757,-0.00001716,0.00010823,0.0000
 2049,0.00001073,-0.00161902,0.00073997,0.00050586,0.00036790,-0.000029
 78,-0.00037833,-0.00099049,-0.01721161,-0.00666019,-0.00033460,0.00028
 196,0.00049962,-0.03246763,-0.27346282,-0.07567068,0.03524813,0.297846
 06,0.00011319,0.00015187,-0.00009370,-0.00003470,0.00002583,-0.0000450
 8,-0.00002431,0.00000676,-0.00002471,0.00004939,-0.00001433,0.00000888
 ,0.00039001,-0.00021865,0.00050841,0.00006930,-0.00011207,-0.00024537,
 0.00037889,0.01069775,0.00280086,0.00074701,-0.00003662,0.00049306,-0.
 01084026,-0.07589047,-0.07788656,0.01144929,0.08227844,0.07921520,-0.0
 0012572,-0.00022123,0.00002266,0.00006621,-0.00004928,0.00025003,0.000
 05170,0.00000064,0.00002946,-0.00007149,-0.00001001,0.00006700,0.00165
 324,0.00088219,-0.00126140,-0.00030949,-0.00047602,0.00064932,-0.00304
 589,0.00140215,-0.02761266,-0.00420794,0.00299399,-0.00130205,-0.04855
 753,-0.00003389,-0.00970829,-0.00058707,0.00024052,-0.00445022,0.05709
 900,0.00008752,-0.00002368,0.00005421,-0.00005846,-0.00002742,-0.00008
 892,0.00001339,-0.00001064,-0.00000379,0.00002685,0.00000138,-0.000063
 33,-0.00091633,0.00007097,-0.00031813,-0.00006285,0.00023361,-0.000145
 82,0.00210669,-0.00168623,0.01967105,0.00314512,-0.00157733,0.00150366
 ,-0.00011322,-0.05110696,0.00434361,-0.00115953,0.00140531,-0.03199649
 ,-0.00083070,0.05162014,-0.00030027,-0.00025300,0.00042736,0.00025572,
 -0.00003646,0.00012612,-0.00000226,0.00002161,0.00001703,-0.00011238,0
 .00000223,-0.00003482,0.00102480,0.00053160,0.00007441,-0.00074833,-0.
 00048828,0.00050595,-0.00141871,0.00054691,-0.01163428,-0.00194706,0.0
 0121313,0.00072526,-0.00937744,0.00471981,-0.29757384,-0.00046187,-0.0
 0038626,-0.01057802,0.00990818,-0.00726871,0.32568583,-0.00034811,-0.0
 0047592,0.00089020,0.00006752,0.00000352,-0.00004481,-0.00008078,0.000
 05553,-0.00004945,-0.00024130,0.00003501,-0.00013469,-0.00239849,0.002
 37401,-0.00191892,-0.00003879,-0.00014478,0.00014364,-0.02709296,-0.00
 638896,0.00874389,0.00158445,-0.00100243,0.00080701,-0.16336628,-0.035
 07267,0.03534661,-0.00672419,-0.00234762,0.00256721,-0.00007137,-0.000
 20965,0.00009081,0.50001007,0.00085635,0.00116102,-0.00046222,-0.00005
 883,-0.00003000,0.00003032,-0.00001723,-0.00009154,-0.00004703,0.00046
 390,-0.00004855,0.00019298,0.00261916,-0.00229819,0.00225144,0.0001666
 8,-0.00012068,-0.00036585,0.01504591,0.00923287,-0.00885465,-0.0002484
 7,0.00029858,-0.00029232,-0.03319058,-0.09721552,0.01452784,-0.0293272
 9,-0.01020541,0.01293756,-0.00085749,-0.00072018,0.00025704,-0.0275903
 7,0.56805318,-0.00066352,-0.00051172,0.00062182,0.00007761,-0.00001728
 ,-0.00003363,-0.00005375,0.00009391,-0.00003404,-0.00025638,0.00001013
 ,-0.00014020,-0.00135854,0.00184942,-0.00132905,-0.00012601,-0.0001641
 4,0.00035015,-0.00746210,-0.00442009,0.00425524,-0.00148113,-0.0002331
 7,0.00042290,0.03583339,0.01393914,-0.09633030,-0.00975878,-0.00339245
 ,0.00419721,0.03170166,0.01269771,-0.01137033,0.03297368,0.01077171,0.
 55895207,0.00004367,0.00003727,-0.00006143,-0.00001670,-0.00000985,-0.
 00001348,-0.00006892,0.00002491,-0.00000798,0.00002125,0.00001391,0.00
 000382,-0.00003534,0.00029413,0.00030519,0.00011656,-0.00003568,-0.000
 12056,0.00111091,-0.00051108,-0.00050953,-0.00013442,0.00007267,-0.000
 02279,-0.00535214,-0.02814728,-0.01179967,-0.00524372,-0.00187905,0.00
 256766,0.00138777,0.00078251,-0.00004804,-0.06115685,-0.05067127,-0.02
 044918,0.06549751,0.00000093,-0.00005280,0.00002903,-0.00000587,-0.000
 00527,-0.00001257,-0.00006251,0.00005117,-0.00000487,-0.00003466,0.000
 00519,-0.00001265,-0.00017066,0.00023975,-0.00001650,0.00003195,-0.000
 03002,-0.00003962,0.00044078,-0.00025818,0.00034601,-0.00001921,0.0000
 5710,0.00000306,-0.00267167,-0.00979608,-0.00326491,-0.00199559,0.0007
 9793,0.00140976,0.00011174,0.00037241,0.00045116,-0.05129152,-0.265595
 58,-0.08599819,0.05675037,0.28974969,-0.00001007,-0.00003780,-0.000009
 20,0.00000825,-0.00000694,0.00000607,0.00000013,0.00000248,0.00001412,
 -0.00000466,0.00000904,-0.00000178,-0.00012328,0.00007084,-0.00003195,
 -0.00000023,-0.00000170,0.00001698,-0.00037048,-0.00058791,0.00000837,
 0.00001376,-0.00007461,0.00006261,0.00207121,0.01325614,0.00480902,0.0
 0300027,0.00119061,0.00001901,-0.00084243,0.00024928,0.00072650,-0.020
 89594,-0.08606343,-0.08484046,0.02048611,0.09441816,0.08682936,-0.0002
 9598,-0.00038106,0.00037946,0.00003231,0.00001296,-0.00003767,-0.00007
 747,0.00007924,-0.00001935,-0.00021423,0.00001417,-0.00008746,-0.00092
 521,0.00115552,-0.00095949,-0.00006495,-0.00002995,0.00012702,-0.00333
 819,-0.00406667,0.00377454,0.00031615,-0.00020163,-0.00000625,-0.02180
 012,0.01896842,-0.00871604,0.00103081,-0.00031088,-0.00071035,0.001040
 72,0.00021781,0.00041875,-0.19065404,0.12099423,-0.05142092,0.00620532
 ,-0.00444172,0.00287422,0.20860694,-0.00011476,-0.00015355,0.00003372,
 0.00000244,-0.00000264,-0.00000574,-0.00000845,0.00000530,0.00000646,-
 0.00005279,0.00001873,-0.00002645,-0.00038941,0.00046587,-0.00019345,0
 .00002191,-0.00000544,0.00001967,-0.00226655,-0.00078980,0.00120802,0.
 00003876,-0.00011946,0.00000512,-0.01086625,0.00808047,-0.00415531,0.0
 0040308,0.00089656,-0.00040919,0.00067190,0.00021333,-0.00031865,0.121
 58009,-0.15121550,0.04295915,0.02241521,-0.01836735,0.00913529,-0.1314
 2250,0.16161469,0.00014596,0.00016371,-0.00011103,-0.00000250,0.000005
 03,0.00000529,-0.00000054,-0.00001415,-0.00000247,0.00007088,-0.000005
 53,0.00003256,0.00040942,-0.00035934,0.00063743,-0.00005426,-0.0000158
 5,-0.00002567,0.00145294,0.00121733,-0.00104234,0.00030329,-0.00007353
 ,0.00046072,0.01000129,-0.00901495,0.00293354,-0.00071784,-0.00004917,
 0.00031515,-0.00045892,-0.00054570,0.00035972,-0.05164102,0.04298202,-
 0.06781168,0.01036335,-0.00788270,0.00311255,0.05506807,-0.04834271,0.
 06876341,0.00006439,0.00006230,-0.00011901,-0.00006106,0.00001040,-0.0
 0004174,-0.00000377,-0.00000290,-0.00000491,0.00002688,-0.00000075,0.0
 0000779,-0.00008373,-0.00028031,0.00004140,0.00010653,0.00014210,-0.00
 022601,0.00216241,-0.00025148,0.00155123,-0.00024191,0.00018787,-0.000
 94823,0.00035281,-0.00080360,0.03150739,0.00117522,0.00026071,-0.00077
 734,-0.00544217,-0.00230829,0.00232262,-0.04907954,0.00065743,-0.00729
 756,-0.00112323,0.00124975,-0.00659280,-0.00021584,-0.00038492,-0.0250
 0608,0.05236653,0.00000851,-0.00001469,-0.00002933,-0.00001477,0.00001
 493,-0.00000393,-0.00000142,0.00000603,-0.00000494,-0.00001704,-0.0000
 0529,0.00000698,0.00008085,-0.00009194,-0.00002463,0.00005055,0.000024
 76,-0.00001886,0.00054160,0.00027139,-0.00065538,-0.00009492,0.0002555
 4,-0.00018807,0.00060039,-0.00093362,0.01227705,0.00066128,0.00013391,
 0.00018471,-0.00243280,0.00003823,0.00082085,0.00051072,-0.05140899,0.
 01230571,-0.00079406,0.00316678,-0.03143418,-0.00036217,-0.00096158,0.
 02177165,0.00136378,0.04959975,0.00003180,0.00003778,-0.00001218,0.000
 03551,-0.00000548,0.00003334,0.00000953,-0.00000869,0.00000567,0.00002
 993,0.00000201,0.00000810,0.00004291,-0.00013464,0.00039086,-0.0002184
 2,-0.00007236,0.00006509,-0.00109931,0.00016772,0.00029378,0.00086161,
 -0.00041083,0.00064917,0.00041172,0.00068532,-0.01193946,0.00010971,0.
 00039739,0.00061137,0.00230258,0.00132798,0.00080877,-0.00722317,0.012
 28578,-0.30722139,-0.00077071,0.00077406,-0.01092110,-0.00057142,0.000
 11549,-0.00767095,0.00582101,-0.01502707,0.33487118,0.00035302,0.00093
 468,0.00094418,-0.00011429,-0.00027752,-0.00030811,-0.00125783,0.00019
 523,-0.00016434,-0.00024202,0.00019605,-0.00001089,-0.00540711,-0.0267
 8491,-0.00664563,-0.00054014,0.00079698,0.00053868,-0.07474180,-0.0079
 2557,-0.00581924,0.00089996,-0.00044946,-0.00037788,0.00191356,0.02786
 287,0.00923464,-0.00498905,0.00403548,-0.00138552,0.00097570,-0.000761
 80,0.00060433,0.00078214,0.00077104,0.00018756,-0.00069756,0.00040238,
 -0.00014265,0.00018960,-0.00018484,0.00007502,-0.00011023,0.00004323,0
 .00033466,0.57704322,0.00030831,0.00068919,0.00010128,-0.00007008,0.00
 001314,-0.00011261,0.00044247,-0.00025882,-0.00027629,0.00040619,-0.00
 014456,0.00014622,-0.01601740,-0.02181492,0.00010748,0.00057843,0.0008
 6249,0.00000759,0.00682105,-0.14373154,-0.03330840,0.00039322,-0.00279
 592,-0.00125319,0.00512833,-0.02259895,-0.00639930,0.00169994,-0.00086
 149,0.00036839,-0.00154915,0.00119209,-0.00074724,0.00074940,0.0011158
 6,0.00029443,-0.00013236,-0.00082678,-0.00056503,-0.00061865,-0.000491
 95,0.00008726,0.00010445,-0.00004282,-0.00008266,-0.00720148,0.4593812
 7,-0.00003836,0.00005886,-0.00051390,0.00025272,0.00001364,0.00018097,
 0.00007402,-0.00020746,0.00018908,0.00017301,0.00009992,0.00022786,-0.
 00189935,0.00709241,0.00459145,0.00072938,-0.00013274,-0.00054900,0.00
 103078,-0.02566364,-0.08860534,-0.00166106,-0.03432572,-0.01368405,0.0
 0065059,0.00797202,0.00368936,-0.00218331,0.00205485,-0.00019238,-0.00
 019182,0.00155323,0.00066885,-0.00036434,-0.00016101,-0.00050451,0.000
 24992,0.00013118,0.00049946,-0.00012022,0.00026252,0.00020907,-0.00009
 444,0.00002960,0.00008944,-0.00000455,-0.04467587,0.55577020,0.0000571
 2,-0.00009804,-0.00008920,0.00000604,0.00004930,0.00005836,-0.00000680
 ,-0.00025913,-0.00006631,0.00013897,-0.00003921,0.00007497,0.00029411,
 -0.00072668,0.00032530,0.00004774,-0.00005118,-0.00003301,0.00222694,-
 0.00175943,0.00115894,0.00009947,0.00033070,0.00046858,0.00046898,-0.0
 0069775,0.00032998,0.00010624,-0.00008178,-0.00005517,-0.00003682,-0.0
 0010519,-0.00003696,-0.00009331,-0.00018705,-0.00031380,0.00039547,0.0
 0026757,0.00013701,0.00004258,0.00023866,0.00004430,0.00001960,0.00004
 774,0.00006798,-0.22466305,0.10929638,-0.06101188,0.24226953,0.0002123
 6,-0.00045894,-0.00025974,-0.00005330,-0.00005329,-0.00009800,-0.00081
 109,0.00019021,0.00009160,-0.00019349,0.00029719,0.00002249,0.00174585
 ,0.00124303,0.00056557,-0.00008817,-0.00009745,-0.00012860,0.02454207,
 -0.01625569,0.01004633,-0.00024537,0.00134829,-0.00017505,-0.00234497,
 -0.00576399,-0.00342797,0.00189655,-0.00125199,0.00039397,-0.00029766,
 0.00024090,-0.00001683,-0.00081391,-0.00021373,0.00003605,0.00022155,0
 .00037526,0.00012097,0.00014394,0.00020001,0.00002692,0.00006968,0.000
 03179,-0.00005961,0.10863584,-0.11471093,0.03838182,-0.11897754,0.1263
 0726,-0.00011315,0.00006899,0.00021433,-0.00000833,-0.00010022,-0.0001
 5089,0.00020468,-0.00011058,0.00012199,0.00003474,-0.00004368,-0.00011
 105,-0.00002926,0.00068290,-0.00004317,-0.00002560,0.00004390,0.000033
 91,0.01091430,-0.00635108,0.00298168,0.00039465,0.00061917,0.00049718,
 -0.00060024,-0.00194910,-0.00074464,0.00043779,-0.00046185,0.00053902,
 0.00017631,-0.00031985,0.00042067,-0.00006197,-0.00006474,0.00018626,-
 0.00004509,0.00001338,-0.00016021,-0.00001812,-0.00005826,-0.00001047,
 -0.00002673,0.00003378,0.00000815,-0.06071273,0.03847727,-0.07073621,0
 .06724820,-0.04033352,0.07182885,-0.00022592,-0.00009600,-0.00001505,0
 .00003941,0.00007416,0.00012178,0.00001108,-0.00006540,-0.00010469,-0.
 00001474,-0.00005359,0.00000009,0.00010070,0.00063869,-0.00084394,0.00
 014551,-0.00016890,0.00004015,-0.00099289,0.00002707,-0.00127616,0.000
 76275,-0.00022490,0.00000078,0.00035645,-0.00000795,0.00128033,-0.0000
 5272,-0.00004813,-0.00012208,0.00018037,0.00009790,-0.00014124,-0.0001
 1706,0.00001792,-0.00005608,-0.00004125,-0.00007702,0.00013490,-0.0000
 0937,0.00004709,-0.00004222,0.00005676,-0.00010227,-0.00014421,-0.0508
 1544,-0.00016686,-0.01004598,-0.00018669,-0.00070339,-0.02807321,0.048
 43382,-0.00017083,-0.00002940,0.00000050,0.00012596,-0.00005120,0.0001
 1735,-0.00001623,-0.00001699,0.00006656,-0.00003640,0.00003108,0.00000
 163,0.00137605,0.00208155,-0.00049572,-0.00015610,-0.00039463,0.000245
 93,-0.00151022,-0.00114431,-0.03239215,-0.00034140,-0.00620573,-0.0026
 3787,-0.00088561,0.00207097,-0.00112797,-0.00028552,0.00028528,0.00037
 877,0.00029865,-0.00011657,0.00097521,0.00011764,-0.00002341,0.0000818
 1,0.00007029,0.00001806,0.00001315,0.00006707,0.00005330,0.00000629,-0
 .00016828,-0.00005208,0.00008662,-0.00003691,-0.04813911,0.00286685,-0
 .00083505,-0.00029514,0.01698710,0.00016941,0.05235648,-0.00019157,-0.
 00007531,0.00008552,0.00010484,0.00003029,0.00010486,-0.00002223,0.000
 00503,-0.00012262,-0.00003124,-0.00003822,0.00000257,0.00072994,0.0009
 1702,0.00086616,-0.00044099,-0.00051890,0.00018106,-0.00055210,-0.0011
 0506,-0.01203804,-0.00029509,-0.00266029,0.00054442,-0.00048730,0.0009
 6825,0.00043196,0.00003678,-0.00000141,0.00041674,0.00065020,-0.000666
 41,0.00059915,0.00020905,-0.00023312,0.00010440,0.00008262,0.00004229,
 -0.00021242,0.00006791,-0.00004335,0.00000718,-0.00013300,0.00009590,0
 .00013785,-0.01031150,0.00331844,-0.30851605,0.00003857,0.00041406,-0.
 00816291,0.01154448,-0.00076899,0.33583612,0.00020906,0.00014187,0.000
 30165,-0.00002821,-0.00002736,-0.00004355,0.00026144,0.00013120,-0.000
 00186,0.00002890,-0.00008078,-0.00002763,0.00018941,-0.00158119,-0.000
 84898,-0.00004659,-0.00006387,0.00002739,0.00029353,0.00068312,0.00005
 607,0.00015202,-0.00028939,-0.00045233,-0.00028414,-0.00009743,-0.0003
 4976,0.00010956,-0.00018085,0.00006799,0.00000077,0.00004823,-0.000030
 64,-0.00098112,0.00055595,-0.00007613,-0.00090833,0.00151497,0.0002567
 0,0.00013096,0.00027132,-0.00001112,0.00003035,-0.00008920,-0.00003170
 ,-0.21857869,-0.10017219,0.07445490,-0.02118612,-0.01293893,0.01030376
 ,0.00236922,0.00221747,-0.00099939,0.23823798,0.00041473,0.00012611,0.
 00048996,-0.00009192,-0.00004067,-0.00012358,-0.00059902,0.00029668,-0
 .00008496,-0.00029050,0.00008356,-0.00006683,0.00062319,-0.00568008,-0
 .00265434,-0.00033211,0.00012514,0.00032568,-0.02525011,-0.01495530,0.
 01115646,0.00042088,0.00157222,-0.00007456,-0.00069602,0.00094550,0.00
 050487,0.00002513,0.00037926,-0.00015599,0.00015645,-0.00011937,-0.000
 02412,-0.00008809,-0.00067421,-0.00030213,0.00149782,0.00009872,0.0003
 0562,0.00018187,0.00055904,0.00004338,0.00009206,-0.00003209,-0.000078
 79,-0.10025129,-0.10683624,0.04464955,0.01358768,0.00886720,-0.0071336
 1,0.00064219,-0.00042817,0.00031979,0.10995705,0.11571271,-0.00011702,
 0.00021574,0.00015563,-0.00000510,-0.00000575,-0.00001002,-0.00005375,
 -0.00003844,-0.00011040,0.00002783,-0.00001411,-0.00001484,0.00068898,
 -0.00155569,0.00060047,-0.00036979,-0.00037019,0.00011017,-0.01126789,
 -0.00694130,0.00364957,-0.00031498,0.00080411,0.00058353,0.00045043,0.
 00078564,0.00006056,-0.00019994,0.00010385,-0.00005910,0.00007037,0.00
 001641,0.00004568,0.00056222,0.00030768,0.00052551,-0.00021022,-0.0003
 8608,0.00007308,-0.00004267,-0.00019234,-0.00016202,0.00001639,-0.0001
 3984,-0.00020768,0.07396396,0.04451224,-0.08281431,-0.00834585,-0.0056
 0047,0.00328752,0.02774238,0.01559494,-0.01026597,-0.08259536,-0.04709
 640,0.08455263\\-0.00000059,0.00000046,-0.00000007,-0.00000048,0.00000
 039,0.00000067,0.00000016,0.00000030,0.00000083,-0.00000015,0.00000035
 ,0.00000057,-0.00000080,0.00000031,0.00000075,0.00000082,-0.00000002,0
 .00000019,0.00000023,0.00000059,-0.00000025,0.00000004,0.00000010,0.00
 000041,0.00000038,-0.00000092,-0.00000074,-0.00000029,-0.00000032,-0.0
 0000035,0.00000017,-0.00000012,-0.00000053,-0.00000025,0.,-0.00000039,
 0.00000033,-0.00000018,-0.00000055,-0.00000013,-0.00000037,-0.00000091
 ,-0.00000033,-0.00000007,-0.00000055,0.00000003,-0.00000065,0.00000010
 ,0.00000007,0.00000031,0.00000047,0.00000050,-0.00000009,0.00000020,0.
 00000030,-0.00000005,0.00000012\\\@


 ... SUBJECTS WHICH DISCLOSE THEIR FULL POWER, MEANING AND BEAUTY AS SOON
 AS THEY ARE PRESENTED TO THE MIND HAVE VERY LITTLE OF THOSE QUALITIES
 TO DISCLOSE.
                           -- CHARLES DUTTON (1882)
 Job cpu time:       0 days  0 hours 27 minutes 55.6 seconds.
 File lengths (MBytes):  RWF=     64 Int=      0 D2E=      0 Chk=      3 Scr=      1
 Normal termination of Gaussian 09 at Sat Nov  7 02:32:56 2015.
