 Entering Gaussian System, Link 0=/share/apps/g09/g09
 Input=C6H14_1_04_1_opt_PM6.gjf
 Output=C6H14_1_04_1_opt_PM6.log
 Initial command:
 /share/apps/g09/l1.exe /state/partition1/Gau-17075.inp -scrdir=/state/partition1/
 Entering Link 1 = /share/apps/g09/l1.exe PID=     17094.
  
 Copyright (c) 1988,1990,1992,1993,1995,1998,2003,2009, Gaussian, Inc.
                  All Rights Reserved.
  
 This is part of the Gaussian(R) 09 program.  It is based on
 the Gaussian(R) 03 system (copyright 2003, Gaussian, Inc.),
 the Gaussian(R) 98 system (copyright 1998, Gaussian, Inc.),
 the Gaussian(R) 94 system (copyright 1995, Gaussian, Inc.),
 the Gaussian 92(TM) system (copyright 1992, Gaussian, Inc.),
 the Gaussian 90(TM) system (copyright 1990, Gaussian, Inc.),
 the Gaussian 88(TM) system (copyright 1988, Gaussian, Inc.),
 the Gaussian 86(TM) system (copyright 1986, Carnegie Mellon
 University), and the Gaussian 82(TM) system (copyright 1983,
 Carnegie Mellon University). Gaussian is a federally registered
 trademark of Gaussian, Inc.
  
 This software contains proprietary and confidential information,
 including trade secrets, belonging to Gaussian, Inc.
  
 This software is provided under written license and may be
 used, copied, transmitted, or stored only in accord with that
 written license.
  
 The following legend is applicable only to US Government
 contracts under FAR:
  
                    RESTRICTED RIGHTS LEGEND
  
 Use, reproduction and disclosure by the US Government is
 subject to restrictions as set forth in subparagraphs (a)
 and (c) of the Commercial Computer Software - Restricted
 Rights clause in FAR 52.227-19.
  
 Gaussian, Inc.
 340 Quinnipiac St., Bldg. 40, Wallingford CT 06492
  
  
 ---------------------------------------------------------------
 Warning -- This program may not be used in any manner that
 competes with the business of Gaussian, Inc. or will provide
 assistance to any competitor of Gaussian, Inc.  The licensee
 of this program is prohibited from giving any competitor of
 Gaussian, Inc. access to this program.  By using this program,
 the user acknowledges that Gaussian, Inc. is engaged in the
 business of creating and licensing software in the field of
 computational chemistry and represents and warrants to the
 licensee that it is not a competitor of Gaussian, Inc. and that
 it will not use this program in any manner prohibited above.
 ---------------------------------------------------------------
  

 Cite this work as:
 Gaussian 09, Revision A.01,
 M. J. Frisch, G. W. Trucks, H. B. Schlegel, G. E. Scuseria, 
 M. A. Robb, J. R. Cheeseman, G. Scalmani, V. Barone, B. Mennucci, 
 G. A. Petersson, H. Nakatsuji, M. Caricato, X. Li, H. P. Hratchian, 
 A. F. Izmaylov, J. Bloino, G. Zheng, J. L. Sonnenberg, M. Hada, 
 M. Ehara, K. Toyota, R. Fukuda, J. Hasegawa, M. Ishida, T. Nakajima, 
 Y. Honda, O. Kitao, H. Nakai, T. Vreven, J. A. Montgomery, Jr., 
 J. E. Peralta, F. Ogliaro, M. Bearpark, J. J. Heyd, E. Brothers, 
 K. N. Kudin, V. N. Staroverov, R. Kobayashi, J. Normand, 
 K. Raghavachari, A. Rendell, J. C. Burant, S. S. Iyengar, J. Tomasi, 
 M. Cossi, N. Rega, J. M. Millam, M. Klene, J. E. Knox, J. B. Cross, 
 V. Bakken, C. Adamo, J. Jaramillo, R. Gomperts, R. E. Stratmann, 
 O. Yazyev, A. J. Austin, R. Cammi, C. Pomelli, J. W. Ochterski, 
 R. L. Martin, K. Morokuma, V. G. Zakrzewski, G. A. Voth, 
 P. Salvador, J. J. Dannenberg, S. Dapprich, A. D. Daniels, 
 O. Farkas, J. B. Foresman, J. V. Ortiz, J. Cioslowski, 
 and D. J. Fox, Gaussian, Inc., Wallingford CT, 2009.
 
 ******************************************
 Gaussian 09:  EM64L-G09RevA.01  8-May-2009
                14-Sep-2015 
 ******************************************
 %mem=3GB
 %nprocshared=2
 Will use up to    2 processors via shared memory.
 %chk=C6H14_1_04_1_opt_PM6.chk
 ----------
 #p PM6 opt
 ----------
 1/14=-1,18=20,19=15,26=1,38=1/1,3;
 2/9=110,12=2,17=6,18=5,40=1/2;
 3/5=2,16=1,25=1,41=3900000,71=1/1,2,3;
 4/35=1/1;
 5/5=2,35=1,38=5/2;
 6/7=2,8=2,9=2,10=2,28=1/1;
 7//1,2,3,16;
 1/14=-1,18=20,19=15/3(2);
 2/9=110/2;
 99//99;
 2/9=110/2;
 3/5=2,16=1,25=1,41=3900000,71=1,135=20/1,2,3;
 4/5=5,16=3,35=1/1;
 5/5=2,35=1,38=5/2;
 7//1,2,3,16;
 1/14=-1,18=20,19=15/3(-5);
 2/9=110/2;
 6/7=2,8=2,9=2,10=2,19=2,28=1/1;
 99/9=1/99;
 Leave Link    1 at Mon Sep 14 19:11:53 2015, MaxMem=  402653184 cpu:       1.5
 (Enter /share/apps/g09/l101.exe)
 ----------------------------------
 using PM6 to do opt and freq calc.
 ----------------------------------
 Symbolic Z-matrix:
 Charge =  0 Multiplicity = 1
 C                     0.0261    4.131     1.2093 
 H                    -0.1058    3.9702    2.3036 
 H                    -0.8649    4.6661    0.8085 
 H                     0.926     4.7668    1.0483 
 C                     0.2085    2.7943    0.4949 
 H                     0.3626    2.9898   -0.5918 
 H                     1.1233    2.2998    0.8969 
 C                    -0.9998    1.8688    0.6841 
 H                    -1.908     2.3842    0.2952 
 H                    -1.1414    1.6728    1.7726 
 C                    -0.8206    0.532    -0.0503 
 H                     0.1374    0.0686    0.2828 
 H                    -0.7458    0.716    -1.1476 
 C                    -1.9414   -0.4831    0.219 
 H                    -2.0297   -0.6627    1.3155 
 H                    -1.6551   -1.448    -0.2603 
 C                    -3.3058   -0.0721   -0.3331 
 H                    -3.2317    0.1633   -1.4191 
 H                    -4.0269   -0.91     -0.1988 
 H                    -3.6989    0.8163    0.2099 
 
 NAtoms=     20 NQM=     20 NQMF=      0 NMic=      0 NMicF=      0 NTot=     20.
                    Isotopes and Nuclear Properties:
 (Nuclear quadrupole moments (NQMom) in fm**2, nuclear magnetic moments (NMagM)
  in nuclear magnetons)

  Atom         1           2           3           4           5           6           7           8           9          10
 IAtWgt=          12           1           1           1          12           1           1          12           1           1
 AtmWgt=  12.0000000   1.0078250   1.0078250   1.0078250  12.0000000   1.0078250   1.0078250  12.0000000   1.0078250   1.0078250
 NucSpn=           0           1           1           1           0           1           1           0           1           1
 AtZEff=   0.0000000   0.0000000   0.0000000   0.0000000   0.0000000   0.0000000   0.0000000   0.0000000   0.0000000   0.0000000
 NQMom=    0.0000000   0.0000000   0.0000000   0.0000000   0.0000000   0.0000000   0.0000000   0.0000000   0.0000000   0.0000000
 NMagM=    0.0000000   2.7928460   2.7928460   2.7928460   0.0000000   2.7928460   2.7928460   0.0000000   2.7928460   2.7928460

  Atom        11          12          13          14          15          16          17          18          19          20
 IAtWgt=          12           1           1          12           1           1          12           1           1           1
 AtmWgt=  12.0000000   1.0078250   1.0078250  12.0000000   1.0078250   1.0078250  12.0000000   1.0078250   1.0078250   1.0078250
 NucSpn=           0           1           1           0           1           1           0           1           1           1
 AtZEff=   0.0000000   0.0000000   0.0000000   0.0000000   0.0000000   0.0000000   0.0000000   0.0000000   0.0000000   0.0000000
 NQMom=    0.0000000   0.0000000   0.0000000   0.0000000   0.0000000   0.0000000   0.0000000   0.0000000   0.0000000   0.0000000
 NMagM=    0.0000000   2.7928460   2.7928460   0.0000000   2.7928460   2.7928460   0.0000000   2.7928460   2.7928460   2.7928460
 Leave Link  101 at Mon Sep 14 19:11:56 2015, MaxMem=  402653184 cpu:       0.1
 (Enter /share/apps/g09/l103.exe)

 GradGradGradGradGradGradGradGradGradGradGradGradGradGradGradGradGradGrad
 Berny optimization.
 Initialization pass.
                           ----------------------------
                           !    Initial Parameters    !
                           ! (Angstroms and Degrees)  !
 --------------------------                            --------------------------
 ! Name  Definition              Value          Derivative Info.                !
 --------------------------------------------------------------------------------
 ! R1    R(1,2)                  1.1139         estimate D2E/DX2                !
 ! R2    R(1,3)                  1.1139         estimate D2E/DX2                !
 ! R3    R(1,4)                  1.1135         estimate D2E/DX2                !
 ! R4    R(1,5)                  1.5266         estimate D2E/DX2                !
 ! R5    R(5,6)                  1.1148         estimate D2E/DX2                !
 ! R6    R(5,7)                  1.1149         estimate D2E/DX2                !
 ! R7    R(5,8)                  1.5337         estimate D2E/DX2                !
 ! R8    R(8,9)                  1.1143         estimate D2E/DX2                !
 ! R9    R(8,10)                 1.115          estimate D2E/DX2                !
 ! R10   R(8,11)                 1.5357         estimate D2E/DX2                !
 ! R11   R(11,12)                1.1151         estimate D2E/DX2                !
 ! R12   R(11,13)                1.1151         estimate D2E/DX2                !
 ! R13   R(11,14)                1.536          estimate D2E/DX2                !
 ! R14   R(14,15)                1.1146         estimate D2E/DX2                !
 ! R15   R(14,16)                1.1148         estimate D2E/DX2                !
 ! R16   R(14,17)                1.5282         estimate D2E/DX2                !
 ! R17   R(17,18)                1.1137         estimate D2E/DX2                !
 ! R18   R(17,19)                1.1136         estimate D2E/DX2                !
 ! R19   R(17,20)                1.1129         estimate D2E/DX2                !
 ! A1    A(2,1,3)              109.154          estimate D2E/DX2                !
 ! A2    A(2,1,4)              108.6726         estimate D2E/DX2                !
 ! A3    A(2,1,5)              110.334          estimate D2E/DX2                !
 ! A4    A(3,1,4)              108.6693         estimate D2E/DX2                !
 ! A5    A(3,1,5)              110.3536         estimate D2E/DX2                !
 ! A6    A(4,1,5)              109.6172         estimate D2E/DX2                !
 ! A7    A(1,5,6)              108.6102         estimate D2E/DX2                !
 ! A8    A(1,5,7)              108.5223         estimate D2E/DX2                !
 ! A9    A(1,5,8)              112.1181         estimate D2E/DX2                !
 ! A10   A(6,5,7)              108.4109         estimate D2E/DX2                !
 ! A11   A(6,5,8)              109.57           estimate D2E/DX2                !
 ! A12   A(7,5,8)              109.5299         estimate D2E/DX2                !
 ! A13   A(5,8,9)              108.6592         estimate D2E/DX2                !
 ! A14   A(5,8,10)             109.0589         estimate D2E/DX2                !
 ! A15   A(5,8,11)             111.9837         estimate D2E/DX2                !
 ! A16   A(9,8,10)             108.5721         estimate D2E/DX2                !
 ! A17   A(9,8,11)             109.3184         estimate D2E/DX2                !
 ! A18   A(10,8,11)            109.186          estimate D2E/DX2                !
 ! A19   A(8,11,12)            108.6105         estimate D2E/DX2                !
 ! A20   A(8,11,13)            109.5578         estimate D2E/DX2                !
 ! A21   A(8,11,14)            113.972          estimate D2E/DX2                !
 ! A22   A(12,11,13)           107.7511         estimate D2E/DX2                !
 ! A23   A(12,11,14)           107.4506         estimate D2E/DX2                !
 ! A24   A(13,11,14)           109.3006         estimate D2E/DX2                !
 ! A25   A(11,14,15)           109.6809         estimate D2E/DX2                !
 ! A26   A(11,14,16)           108.014          estimate D2E/DX2                !
 ! A27   A(11,14,17)           114.2311         estimate D2E/DX2                !
 ! A28   A(15,14,16)           107.6885         estimate D2E/DX2                !
 ! A29   A(15,14,17)           109.1483         estimate D2E/DX2                !
 ! A30   A(16,14,17)           107.8638         estimate D2E/DX2                !
 ! A31   A(14,17,18)           110.4715         estimate D2E/DX2                !
 ! A32   A(14,17,19)           109.4029         estimate D2E/DX2                !
 ! A33   A(14,17,20)           110.7184         estimate D2E/DX2                !
 ! A34   A(18,17,19)           108.6464         estimate D2E/DX2                !
 ! A35   A(18,17,20)           109.3018         estimate D2E/DX2                !
 ! A36   A(19,17,20)           108.244          estimate D2E/DX2                !
 ! D1    D(2,1,5,6)           -178.6312         estimate D2E/DX2                !
 ! D2    D(2,1,5,7)            -60.9677         estimate D2E/DX2                !
 ! D3    D(2,1,5,8)             60.1456         estimate D2E/DX2                !
 ! D4    D(3,1,5,6)             60.6587         estimate D2E/DX2                !
 ! D5    D(3,1,5,7)            178.3222         estimate D2E/DX2                !
 ! D6    D(3,1,5,8)            -60.5645         estimate D2E/DX2                !
 ! D7    D(4,1,5,6)            -58.9903         estimate D2E/DX2                !
 ! D8    D(4,1,5,7)             58.6732         estimate D2E/DX2                !
 ! D9    D(4,1,5,8)            179.7865         estimate D2E/DX2                !
 ! D10   D(1,5,8,9)             58.4301         estimate D2E/DX2                !
 ! D11   D(1,5,8,10)           -59.7554         estimate D2E/DX2                !
 ! D12   D(1,5,8,11)           179.2855         estimate D2E/DX2                !
 ! D13   D(6,5,8,9)            -62.2391         estimate D2E/DX2                !
 ! D14   D(6,5,8,10)           179.5754         estimate D2E/DX2                !
 ! D15   D(6,5,8,11)            58.6162         estimate D2E/DX2                !
 ! D16   D(7,5,8,9)            178.9611         estimate D2E/DX2                !
 ! D17   D(7,5,8,10)            60.7756         estimate D2E/DX2                !
 ! D18   D(7,5,8,11)           -60.1836         estimate D2E/DX2                !
 ! D19   D(5,8,11,12)           54.632          estimate D2E/DX2                !
 ! D20   D(5,8,11,13)          -62.8217         estimate D2E/DX2                !
 ! D21   D(5,8,11,14)          174.3697         estimate D2E/DX2                !
 ! D22   D(9,8,11,12)          175.1047         estimate D2E/DX2                !
 ! D23   D(9,8,11,13)           57.6511         estimate D2E/DX2                !
 ! D24   D(9,8,11,14)          -65.1576         estimate D2E/DX2                !
 ! D25   D(10,8,11,12)         -66.2536         estimate D2E/DX2                !
 ! D26   D(10,8,11,13)         176.2927         estimate D2E/DX2                !
 ! D27   D(10,8,11,14)          53.4841         estimate D2E/DX2                !
 ! D28   D(8,11,14,15)         -56.3895         estimate D2E/DX2                !
 ! D29   D(8,11,14,16)        -173.4954         estimate D2E/DX2                !
 ! D30   D(8,11,14,17)          66.4987         estimate D2E/DX2                !
 ! D31   D(12,11,14,15)         64.0005         estimate D2E/DX2                !
 ! D32   D(12,11,14,16)        -53.1054         estimate D2E/DX2                !
 ! D33   D(12,11,14,17)       -173.1113         estimate D2E/DX2                !
 ! D34   D(13,11,14,15)       -179.3385         estimate D2E/DX2                !
 ! D35   D(13,11,14,16)         63.5556         estimate D2E/DX2                !
 ! D36   D(13,11,14,17)        -56.4503         estimate D2E/DX2                !
 ! D37   D(11,14,17,18)         53.9496         estimate D2E/DX2                !
 ! D38   D(11,14,17,19)        173.5085         estimate D2E/DX2                !
 ! D39   D(11,14,17,20)        -67.2768         estimate D2E/DX2                !
 ! D40   D(15,14,17,18)        177.1265         estimate D2E/DX2                !
 ! D41   D(15,14,17,19)        -63.3147         estimate D2E/DX2                !
 ! D42   D(15,14,17,20)         55.9            estimate D2E/DX2                !
 ! D43   D(16,14,17,18)        -66.1403         estimate D2E/DX2                !
 ! D44   D(16,14,17,19)         53.4185         estimate D2E/DX2                !
 ! D45   D(16,14,17,20)        172.6332         estimate D2E/DX2                !
 --------------------------------------------------------------------------------
 Trust Radius=3.00D-01 FncErr=1.00D-07 GrdErr=1.00D-07
 Number of steps in this run= 110 maximum allowed number of steps= 120.
 GradGradGradGradGradGradGradGradGradGradGradGradGradGradGradGradGradGrad

 Leave Link  103 at Mon Sep 14 19:11:56 2015, MaxMem=  402653184 cpu:       0.0
 (Enter /share/apps/g09/l202.exe)
                          Input orientation:                          
 ---------------------------------------------------------------------
 Center     Atomic      Atomic             Coordinates (Angstroms)
 Number     Number       Type             X           Y           Z
 ---------------------------------------------------------------------
      1          6           0        0.026100    4.131000    1.209300
      2          1           0       -0.105800    3.970200    2.303600
      3          1           0       -0.864900    4.666100    0.808500
      4          1           0        0.926000    4.766800    1.048300
      5          6           0        0.208500    2.794300    0.494900
      6          1           0        0.362600    2.989800   -0.591800
      7          1           0        1.123300    2.299800    0.896900
      8          6           0       -0.999800    1.868800    0.684100
      9          1           0       -1.908000    2.384200    0.295200
     10          1           0       -1.141400    1.672800    1.772600
     11          6           0       -0.820600    0.532000   -0.050300
     12          1           0        0.137400    0.068600    0.282800
     13          1           0       -0.745800    0.716000   -1.147600
     14          6           0       -1.941400   -0.483100    0.219000
     15          1           0       -2.029700   -0.662700    1.315500
     16          1           0       -1.655100   -1.448000   -0.260300
     17          6           0       -3.305800   -0.072100   -0.333100
     18          1           0       -3.231700    0.163300   -1.419100
     19          1           0       -4.026900   -0.910000   -0.198800
     20          1           0       -3.698900    0.816300    0.209900
 ---------------------------------------------------------------------
                    Distance matrix (angstroms):
                    1          2          3          4          5
     1  C    0.000000
     2  H    1.113888   0.000000
     3  H    1.113936   1.815443   0.000000
     4  H    1.113545   1.809685   1.809687   0.000000
     5  C    1.526566   2.180119   2.180405   2.170671   0.000000
     6  H    2.158595   3.092559   2.505510   2.482957   1.114847
     7  H    2.157483   2.505939   3.091946   2.479504   1.114896
     8  C    2.538869   2.799625   2.803312   3.498536   1.533733
     9  H    2.761817   3.130015   2.560977   3.778293   2.165095
    10  H    2.779048   2.575359   3.156863   3.790988   2.170832
    11  C    3.905931   4.227648   4.222592   4.710739   2.544463
    12  H    4.168199   4.400598   4.734762   4.825035   2.734864
    13  H    4.220549   4.786460   4.409513   4.901619   2.815639
    14  C    5.112892   5.248511   5.293451   6.039137   3.929318
    15  H    5.217006   5.112875   5.478131   6.187651   4.199259
    16  H    6.009276   6.191188   6.256914   6.855527   4.694725
    17  C    5.580914   5.790715   5.450852   6.575055   4.610004
    18  H    5.767529   6.174321   5.553301   6.675833   4.735033
    19  H    6.619761   6.741912   6.488897   7.636264   5.669363
    20  H    5.085436   5.219294   4.817763   6.139956   4.388791
                    6          7          8          9         10
     6  H    0.000000
     7  H    1.808588   0.000000
     8  C    2.177314   2.176832   0.000000
     9  H    2.511801   3.091593   1.114319   0.000000
    10  H    3.096271   2.507757   1.115033   1.810104   0.000000
    11  C    2.781001   2.793036   1.535738   2.175420   2.174236
    12  H    3.057622   2.515427   2.166792   3.089631   2.535407
    13  H    2.589909   3.190915   2.179126   2.493045   3.098311
    14  C    4.245803   4.194814   2.575726   2.868507   2.775172
    15  H    4.764625   4.346613   2.804969   3.215497   2.540192
    16  H    4.886213   4.806727   3.510338   3.880502   3.759782
    17  C    4.785323   5.172595   3.181104   2.895171   3.487589
    18  H    4.646775   5.375362   3.509068   3.102161   4.103035
    19  H    5.884777   6.166679   4.202925   3.947851   4.345502
    20  H    4.675747   5.091793   2.935603   2.381787   3.117119
                   11         12         13         14         15
    11  C    0.000000
    12  H    1.115105   0.000000
    13  H    1.115132   1.801448   0.000000
    14  C    1.535950   2.151709   2.175982   0.000000
    15  H    2.180514   2.509500   3.100980   1.114614   0.000000
    16  H    2.158910   2.409998   2.509387   1.114777   1.800046
    17  C    2.573156   3.500679   2.799663   1.528176   2.166823
    18  H    2.796955   3.775747   2.561033   2.183135   3.099212
    19  H    3.518775   4.304764   3.782818   2.169357   2.518545
    20  H    2.903987   3.909165   3.251717   2.185710   2.489181
                   16         17         18         19         20
    16  H    0.000000
    17  C    2.150165   0.000000
    18  H    2.534714   1.113688   0.000000
    19  H    2.432830   1.113597   1.809267   0.000000
    20  H    3.086302   1.112938   1.816129   1.804087   0.000000
 Stoichiometry    C6H14
 Framework group  C1[X(C6H14)]
 Deg. of freedom    54
 Full point group                 C1      NOp   1
 Largest Abelian subgroup         C1      NOp   1
 Largest concise Abelian subgroup C1      NOp   1
                         Standard orientation:                         
 ---------------------------------------------------------------------
 Center     Atomic      Atomic             Coordinates (Angstroms)
 Number     Number       Type             X           Y           Z
 ---------------------------------------------------------------------
      1          6           0        2.968632    0.537747    0.111491
      2          1           0        3.013706    0.679278    1.215431
      3          1           0        2.817234    1.526889   -0.377926
      4          1           0        3.938928    0.114118   -0.233541
      5          6           0        1.833927   -0.415332   -0.255240
      6          1           0        1.830679   -0.555767   -1.361202
      7          1           0        2.031328   -1.402212    0.224441
      8          6           0        0.467324    0.111683    0.199718
      9          1           0        0.293308    1.105793   -0.272692
     10          1           0        0.477463    0.241620    1.307107
     11          6           0       -0.673737   -0.840949   -0.186239
     12          1           0       -0.443096   -1.854482    0.217512
     13          1           0       -0.732306   -0.922637   -1.296832
     14          6           0       -2.046048   -0.426713    0.365407
     15          1           0       -1.991562   -0.331474    1.474608
     16          1           0       -2.771731   -1.239687    0.130490
     17          6           0       -2.592110    0.873581   -0.223127
     18          1           0       -2.607217    0.821525   -1.335495
     19          1           0       -3.632303    1.035833    0.139876
     20          1           0       -1.972357    1.741099    0.096169
 ---------------------------------------------------------------------
 Rotational constants (GHZ):      8.7246982      1.3389704      1.2479932
 Leave Link  202 at Mon Sep 14 19:11:56 2015, MaxMem=  402653184 cpu:       0.0
 (Enter /share/apps/g09/l301.exe)
 Standard basis: VSTO-6G (5D, 7F)
 Ernie: Thresh=  0.10000D-02 Tol=  0.10000D-05 Strict=F.
  NNHCO=     0 NNPyr=     0 NCTC=     0               EPep=         0.000000000
    EC=       124.919538168  ECS=         3.145532500   EG=         0.308996861
   EHC=         0.000409421  EAt=       -31.187935768  AtH=         2.796400831
 EPDDG=         0.000000000  ECC=       128.374476950 EAtT=        33.984336599
 There are    38 symmetry adapted basis functions of A   symmetry.
 Integral buffers will be    131072 words long.
 Regular integral format.
 Two-electron integral symmetry is turned off.
    38 basis functions,   228 primitive gaussians,    38 cartesian basis functions
    19 alpha electrons       19 beta electrons
       nuclear repulsion energy       162.3588135489 Hartrees.
 IExCor=    0 DFT=F Ex=HF Corr=None ExCW=0 ScaHFX=  1.000000
 ScaDFX=  1.000000  1.000000  1.000000  1.000000 ScalE2=  1.000000  1.000000
 IRadAn=      0 IRanWt=     -1 IRanGd=            0 ICorTp=0
 Leave Link  301 at Mon Sep 14 19:12:00 2015, MaxMem=  402653184 cpu:       0.2
 (Enter /share/apps/g09/l302.exe)
 Do NDO integrals.
 NPDir=0 NMtPBC=     1 NCelOv=     1 NCel=       1 NClECP=     1 NCelD=      1
         NCelK=      1 NCelE2=     1 NClLst=     1 CellRange=     0.0.
 One-electron integrals computed using PRISM.
 NBasis=    38 RedAO= F  NBF=    38
 NBsUse=    38 1.00D-04 NBFU=    38
 Leave Link  302 at Mon Sep 14 19:12:06 2015, MaxMem=  402653184 cpu:       0.1
 (Enter /share/apps/g09/l303.exe)
 DipDrv:  MaxL=1.
 Leave Link  303 at Mon Sep 14 19:12:10 2015, MaxMem=  402653184 cpu:       0.0
 (Enter /share/apps/g09/l401.exe)
 Simple Huckel Guess.
 Initial guess orbital symmetries:
       Occupied  (A) (A) (A) (A) (A) (A) (A) (A) (A) (A) (A) (A)
                 (A) (A) (A) (A) (A) (A) (A)
       Virtual   (A) (A) (A) (A) (A) (A) (A) (A) (A) (A) (A) (A)
                 (A) (A) (A) (A) (A) (A) (A)
 The electronic state of the initial guess is 1-A.
 Leave Link  401 at Mon Sep 14 19:12:10 2015, MaxMem=  402653184 cpu:       0.1
 (Enter /share/apps/g09/l502.exe)
 Closed shell SCF:
 Requested convergence on RMS density matrix=1.00D-08 within 128 cycles.
 Requested convergence on MAX density matrix=1.00D-06.
 Requested convergence on             energy=1.00D-06.
 No special actions if energy rises.
 Using DIIS extrapolation, IDIIS=  1040.
 Overlap will be assumed to be unity.
 Two-electron integral symmetry not used.
 Keep J ints in memory in canonical form, NReq=884654.
 IEnd=       81865 IEndB=       81865 NGot=   402653184 MDV=   402586639
 LenX=   402586639 LenY=   402584754
 Symmetry not used in FoFDir.
 MinBra= 0 MaxBra= 1 Meth=40.
 IRaf=       0 NMat=   1 IRICut=       1 DoRegI=T DoRafI=F ISym2E= 0 JSym2E=0.

 Cycle   1  Pass 1  IDiag  1:
 E= 0.733465688998933E-01
 DIIS: error= 2.20D-02 at cycle   1 NSaved=   1.
 NSaved= 1 IEnMin= 1 EnMin= 0.733465688998933E-01 IErMin= 1 ErrMin= 2.20D-02
 ErrMax= 2.20D-02 EMaxC= 1.00D-01 BMatC= 4.41D-02 BMatP= 4.41D-02
 IDIUse=3 WtCom= 7.80D-01 WtEn= 2.20D-01
 Coeff-Com:  0.100D+01
 Coeff-En:   0.100D+01
 Coeff:      0.100D+01
 GapD=    2.000 DampG=2.000 DampE=0.500 DampFc=1.0000 IDamp=-1.
 RMSDP=8.41D-03 MaxDP=6.95D-02              OVMax= 0.00D+00

 Cycle   2  Pass 1  IDiag  1:
 E=-0.437102816189849E-01 Delta-E=       -0.117056850519 Rises=F Damp=F
 DIIS: error= 5.37D-03 at cycle   2 NSaved=   2.
 NSaved= 2 IEnMin= 2 EnMin=-0.437102816189849E-01 IErMin= 2 ErrMin= 5.37D-03
 ErrMax= 5.37D-03 EMaxC= 1.00D-01 BMatC= 2.96D-03 BMatP= 4.41D-02
 IDIUse=3 WtCom= 9.46D-01 WtEn= 5.37D-02
 Coeff-Com: -0.324D+00 0.132D+01
 Coeff-En:   0.000D+00 0.100D+01
 Coeff:     -0.307D+00 0.131D+01
 RMSDP=3.05D-03 MaxDP=2.15D-02 DE=-1.17D-01 OVMax= 0.00D+00

 Cycle   3  Pass 1  IDiag  3:
 E=-0.533021124183222E-01 Delta-E=       -0.009591830799 Rises=F Damp=F
 DIIS: error= 1.47D-03 at cycle   3 NSaved=   3.
 NSaved= 3 IEnMin= 3 EnMin=-0.533021124183222E-01 IErMin= 3 ErrMin= 1.47D-03
 ErrMax= 1.47D-03 EMaxC= 1.00D-01 BMatC= 8.33D-05 BMatP= 2.96D-03
 IDIUse=3 WtCom= 9.85D-01 WtEn= 1.47D-02
 Coeff-Com:  0.246D+00-0.105D+01 0.180D+01
 Coeff-En:   0.000D+00 0.000D+00 0.100D+01
 Coeff:      0.243D+00-0.104D+01 0.179D+01
 Gap=     0.558 Goal=   None    Shift=    0.000
 RMSDP=8.74D-04 MaxDP=9.00D-03 DE=-9.59D-03 OVMax= 0.00D+00

 Cycle   4  Pass 1  IDiag  3:
 E=-0.537992831784209E-01 Delta-E=       -0.000497170760 Rises=F Damp=F
 DIIS: error= 3.41D-04 at cycle   4 NSaved=   4.
 NSaved= 4 IEnMin= 4 EnMin=-0.537992831784209E-01 IErMin= 4 ErrMin= 3.41D-04
 ErrMax= 3.41D-04 EMaxC= 1.00D-01 BMatC= 4.37D-06 BMatP= 8.33D-05
 IDIUse=3 WtCom= 9.97D-01 WtEn= 3.41D-03
 Coeff-Com: -0.118D+00 0.511D+00-0.103D+01 0.164D+01
 Coeff-En:   0.000D+00 0.000D+00 0.000D+00 0.100D+01
 Coeff:     -0.118D+00 0.509D+00-0.103D+01 0.164D+01
 Gap=     0.559 Goal=   None    Shift=    0.000
 RMSDP=2.29D-04 MaxDP=2.38D-03 DE=-4.97D-04 OVMax= 0.00D+00

 Cycle   5  Pass 1  IDiag  3:
 E=-0.538288488282319E-01 Delta-E=       -0.000029565650 Rises=F Damp=F
 DIIS: error= 9.23D-05 at cycle   5 NSaved=   5.
 NSaved= 5 IEnMin= 5 EnMin=-0.538288488282319E-01 IErMin= 5 ErrMin= 9.23D-05
 ErrMax= 9.23D-05 EMaxC= 1.00D-01 BMatC= 3.63D-07 BMatP= 4.37D-06
 IDIUse=1 WtCom= 1.00D+00 WtEn= 0.00D+00
 Coeff-Com:  0.662D-01-0.288D+00 0.618D+00-0.119D+01 0.179D+01
 Coeff:      0.662D-01-0.288D+00 0.618D+00-0.119D+01 0.179D+01
 Gap=     0.558 Goal=   None    Shift=    0.000
 RMSDP=6.98D-05 MaxDP=6.36D-04 DE=-2.96D-05 OVMax= 0.00D+00

 Cycle   6  Pass 1  IDiag  3:
 E=-0.538315626479573E-01 Delta-E=       -0.000002713820 Rises=F Damp=F
 DIIS: error= 2.65D-05 at cycle   6 NSaved=   6.
 NSaved= 6 IEnMin= 6 EnMin=-0.538315626479573E-01 IErMin= 6 ErrMin= 2.65D-05
 ErrMax= 2.65D-05 EMaxC= 1.00D-01 BMatC= 2.80D-08 BMatP= 3.63D-07
 IDIUse=1 WtCom= 1.00D+00 WtEn= 0.00D+00
 Coeff-Com: -0.586D-03 0.319D-02-0.202D-01 0.909D-01-0.435D+00 0.136D+01
 Coeff:     -0.586D-03 0.319D-02-0.202D-01 0.909D-01-0.435D+00 0.136D+01
 Gap=     0.559 Goal=   None    Shift=    0.000
 RMSDP=2.00D-05 MaxDP=2.09D-04 DE=-2.71D-06 OVMax= 0.00D+00

 Cycle   7  Pass 1  IDiag  3:
 E=-0.538317629688834E-01 Delta-E=       -0.000000200321 Rises=F Damp=F
 DIIS: error= 5.66D-06 at cycle   7 NSaved=   7.
 NSaved= 7 IEnMin= 7 EnMin=-0.538317629688834E-01 IErMin= 7 ErrMin= 5.66D-06
 ErrMax= 5.66D-06 EMaxC= 1.00D-01 BMatC= 1.97D-09 BMatP= 2.80D-08
 IDIUse=1 WtCom= 1.00D+00 WtEn= 0.00D+00
 Coeff-Com:  0.974D-03-0.451D-02 0.151D-01-0.485D-01 0.205D+00-0.765D+00
 Coeff-Com:  0.160D+01
 Coeff:      0.974D-03-0.451D-02 0.151D-01-0.485D-01 0.205D+00-0.765D+00
 Coeff:      0.160D+01
 Gap=     0.559 Goal=   None    Shift=    0.000
 RMSDP=4.74D-06 MaxDP=5.23D-05 DE=-2.00D-07 OVMax= 0.00D+00

 Cycle   8  Pass 1  IDiag  3:
 E=-0.538317752172475E-01 Delta-E=       -0.000000012248 Rises=F Damp=F
 DIIS: error= 1.94D-06 at cycle   8 NSaved=   8.
 NSaved= 8 IEnMin= 8 EnMin=-0.538317752172475E-01 IErMin= 8 ErrMin= 1.94D-06
 ErrMax= 1.94D-06 EMaxC= 1.00D-01 BMatC= 1.06D-10 BMatP= 1.97D-09
 IDIUse=1 WtCom= 1.00D+00 WtEn= 0.00D+00
 Coeff-Com: -0.358D-03 0.175D-02-0.744D-02 0.273D-01-0.127D+00 0.500D+00
 Coeff-Com: -0.118D+01 0.178D+01
 Coeff:     -0.358D-03 0.175D-02-0.744D-02 0.273D-01-0.127D+00 0.500D+00
 Coeff:     -0.118D+01 0.178D+01
 Gap=     0.559 Goal=   None    Shift=    0.000
 RMSDP=1.11D-06 MaxDP=1.19D-05 DE=-1.22D-08 OVMax= 0.00D+00

 Cycle   9  Pass 1  IDiag  3:
 E=-0.538317758764322E-01 Delta-E=       -0.000000000659 Rises=F Damp=F
 DIIS: error= 2.70D-07 at cycle   9 NSaved=   9.
 NSaved= 9 IEnMin= 9 EnMin=-0.538317758764322E-01 IErMin= 9 ErrMin= 2.70D-07
 ErrMax= 2.70D-07 EMaxC= 1.00D-01 BMatC= 2.65D-12 BMatP= 1.06D-10
 IDIUse=1 WtCom= 1.00D+00 WtEn= 0.00D+00
 Coeff-Com: -0.375D-04 0.107D-03 0.806D-03-0.519D-02 0.304D-01-0.130D+00
 Coeff-Com:  0.326D+00-0.608D+00 0.139D+01
 Coeff:     -0.375D-04 0.107D-03 0.806D-03-0.519D-02 0.304D-01-0.130D+00
 Coeff:      0.326D+00-0.608D+00 0.139D+01
 Gap=     0.559 Goal=   None    Shift=    0.000
 RMSDP=1.53D-07 MaxDP=1.72D-06 DE=-6.59D-10 OVMax= 0.00D+00

 Cycle  10  Pass 1  IDiag  3:
 E=-0.538317758910409E-01 Delta-E=       -0.000000000015 Rises=F Damp=F
 DIIS: error= 4.21D-08 at cycle  10 NSaved=  10.
 NSaved=10 IEnMin=10 EnMin=-0.538317758910409E-01 IErMin=10 ErrMin= 4.21D-08
 ErrMax= 4.21D-08 EMaxC= 1.00D-01 BMatC= 1.38D-13 BMatP= 2.65D-12
 IDIUse=1 WtCom= 1.00D+00 WtEn= 0.00D+00
 Coeff-Com:  0.293D-05 0.116D-04-0.475D-03 0.248D-02-0.136D-01 0.572D-01
 Coeff-Com: -0.143D+00 0.274D+00-0.730D+00 0.155D+01
 Coeff:      0.293D-05 0.116D-04-0.475D-03 0.248D-02-0.136D-01 0.572D-01
 Coeff:     -0.143D+00 0.274D+00-0.730D+00 0.155D+01
 Gap=     0.559 Goal=   None    Shift=    0.000
 RMSDP=3.50D-08 MaxDP=3.81D-07 DE=-1.46D-11 OVMax= 0.00D+00

 Cycle  11  Pass 1  IDiag  3:
 E=-0.538317758919789E-01 Delta-E=       -0.000000000001 Rises=F Damp=F
 DIIS: error= 2.14D-08 at cycle  11 NSaved=  11.
 NSaved=11 IEnMin=11 EnMin=-0.538317758919789E-01 IErMin=11 ErrMin= 2.14D-08
 ErrMax= 2.14D-08 EMaxC= 1.00D-01 BMatC= 2.37D-14 BMatP= 1.38D-13
 IDIUse=1 WtCom= 1.00D+00 WtEn= 0.00D+00
 Coeff-Com:  0.495D-05-0.423D-04 0.473D-03-0.224D-02 0.117D-01-0.489D-01
 Coeff-Com:  0.121D+00-0.235D+00 0.647D+00-0.169D+01 0.220D+01
 Coeff:      0.495D-05-0.423D-04 0.473D-03-0.224D-02 0.117D-01-0.489D-01
 Coeff:      0.121D+00-0.235D+00 0.647D+00-0.169D+01 0.220D+01
 Gap=     0.559 Goal=   None    Shift=    0.000
 RMSDP=2.28D-08 MaxDP=2.32D-07 DE=-9.38D-13 OVMax= 0.00D+00

 Cycle  12  Pass 1  IDiag  3:
 E=-0.538317758924336E-01 Delta-E=        0.000000000000 Rises=F Damp=F
 DIIS: error= 4.69D-09 at cycle  12 NSaved=  12.
 NSaved=12 IEnMin=12 EnMin=-0.538317758924336E-01 IErMin=12 ErrMin= 4.69D-09
 ErrMax= 4.69D-09 EMaxC= 1.00D-01 BMatC= 1.30D-15 BMatP= 2.37D-14
 IDIUse=1 WtCom= 1.00D+00 WtEn= 0.00D+00
 Coeff-Com: -0.136D-05 0.146D-04-0.190D-03 0.915D-03-0.483D-02 0.202D-01
 Coeff-Com: -0.502D-01 0.973D-01-0.271D+00 0.746D+00-0.117D+01 0.163D+01
 Coeff:     -0.136D-05 0.146D-04-0.190D-03 0.915D-03-0.483D-02 0.202D-01
 Coeff:     -0.502D-01 0.973D-01-0.271D+00 0.746D+00-0.117D+01 0.163D+01
 Gap=     0.559 Goal=   None    Shift=    0.000
 RMSDP=5.18D-09 MaxDP=6.10D-08 DE=-4.55D-13 OVMax= 0.00D+00

 Cycle  13  Pass 2  IDiag  1:
 RMSDP=5.18D-09 MaxDP=6.10D-08 DE=-4.55D-13 OVMax= 0.00D+00

 SCF Done:  E(RPM6) = -0.538317758924E-01 A.U. after   13 cycles
             Convg  =    0.5182D-08             -V/T =  0.9990
 KE=-5.602829211245D+01 PE=-2.459137225032D+02 EE= 1.395293692908D+02
 Leave Link  502 at Mon Sep 14 19:12:11 2015, MaxMem=  402653184 cpu:       0.1
 (Enter /share/apps/g09/l601.exe)
 Copying SCF densities to generalized density rwf, IOpCl= 0 IROHF=0.

 **********************************************************************

            Population analysis using the SCF density.

 **********************************************************************

 Orbital symmetries:
       Occupied  (A) (A) (A) (A) (A) (A) (A) (A) (A) (A) (A) (A)
                 (A) (A) (A) (A) (A) (A) (A)
       Virtual   (A) (A) (A) (A) (A) (A) (A) (A) (A) (A) (A) (A)
                 (A) (A) (A) (A) (A) (A) (A)
 The electronic state is 1-A.
 Alpha  occ. eigenvalues --   -1.05034  -0.99464  -0.90214  -0.81592  -0.73795
 Alpha  occ. eigenvalues --   -0.71274  -0.59515  -0.56449  -0.54542  -0.51820
 Alpha  occ. eigenvalues --   -0.51141  -0.48623  -0.46521  -0.45302  -0.43828
 Alpha  occ. eigenvalues --   -0.42538  -0.41280  -0.40756  -0.40475
 Alpha virt. eigenvalues --    0.15375   0.15716   0.16862   0.17564   0.18465
 Alpha virt. eigenvalues --    0.20528   0.21032   0.21596   0.21850   0.21969
 Alpha virt. eigenvalues --    0.22680   0.22943   0.23565   0.23891   0.24188
 Alpha virt. eigenvalues --    0.24377   0.24573   0.25034   0.25324
          Condensed to atoms (all electrons):
              1          2          3          4          5          6
     1  C    4.462685   0.000000   0.000000   0.000000   0.000000   0.000000
     2  H    0.000000   0.852627   0.000000   0.000000   0.000000   0.000000
     3  H    0.000000   0.000000   0.852619   0.000000   0.000000   0.000000
     4  H    0.000000   0.000000   0.000000   0.855703   0.000000   0.000000
     5  C    0.000000   0.000000   0.000000   0.000000   4.231271   0.000000
     6  H    0.000000   0.000000   0.000000   0.000000   0.000000   0.872993
     7  H    0.000000   0.000000   0.000000   0.000000   0.000000   0.000000
     8  C    0.000000   0.000000   0.000000   0.000000   0.000000   0.000000
     9  H    0.000000   0.000000   0.000000   0.000000   0.000000   0.000000
    10  H    0.000000   0.000000   0.000000   0.000000   0.000000   0.000000
    11  C    0.000000   0.000000   0.000000   0.000000   0.000000   0.000000
    12  H    0.000000   0.000000   0.000000   0.000000   0.000000   0.000000
    13  H    0.000000   0.000000   0.000000   0.000000   0.000000   0.000000
    14  C    0.000000   0.000000   0.000000   0.000000   0.000000   0.000000
    15  H    0.000000   0.000000   0.000000   0.000000   0.000000   0.000000
    16  H    0.000000   0.000000   0.000000   0.000000   0.000000   0.000000
    17  C    0.000000   0.000000   0.000000   0.000000   0.000000   0.000000
    18  H    0.000000   0.000000   0.000000   0.000000   0.000000   0.000000
    19  H    0.000000   0.000000   0.000000   0.000000   0.000000   0.000000
    20  H    0.000000   0.000000   0.000000   0.000000   0.000000   0.000000
              7          8          9         10         11         12
     1  C    0.000000   0.000000   0.000000   0.000000   0.000000   0.000000
     2  H    0.000000   0.000000   0.000000   0.000000   0.000000   0.000000
     3  H    0.000000   0.000000   0.000000   0.000000   0.000000   0.000000
     4  H    0.000000   0.000000   0.000000   0.000000   0.000000   0.000000
     5  C    0.000000   0.000000   0.000000   0.000000   0.000000   0.000000
     6  H    0.000000   0.000000   0.000000   0.000000   0.000000   0.000000
     7  H    0.873682   0.000000   0.000000   0.000000   0.000000   0.000000
     8  C    0.000000   4.259963   0.000000   0.000000   0.000000   0.000000
     9  H    0.000000   0.000000   0.865982   0.000000   0.000000   0.000000
    10  H    0.000000   0.000000   0.000000   0.868071   0.000000   0.000000
    11  C    0.000000   0.000000   0.000000   0.000000   4.267171   0.000000
    12  H    0.000000   0.000000   0.000000   0.000000   0.000000   0.872474
    13  H    0.000000   0.000000   0.000000   0.000000   0.000000   0.000000
    14  C    0.000000   0.000000   0.000000   0.000000   0.000000   0.000000
    15  H    0.000000   0.000000   0.000000   0.000000   0.000000   0.000000
    16  H    0.000000   0.000000   0.000000   0.000000   0.000000   0.000000
    17  C    0.000000   0.000000   0.000000   0.000000   0.000000   0.000000
    18  H    0.000000   0.000000   0.000000   0.000000   0.000000   0.000000
    19  H    0.000000   0.000000   0.000000   0.000000   0.000000   0.000000
    20  H    0.000000   0.000000   0.000000   0.000000   0.000000   0.000000
             13         14         15         16         17         18
     1  C    0.000000   0.000000   0.000000   0.000000   0.000000   0.000000
     2  H    0.000000   0.000000   0.000000   0.000000   0.000000   0.000000
     3  H    0.000000   0.000000   0.000000   0.000000   0.000000   0.000000
     4  H    0.000000   0.000000   0.000000   0.000000   0.000000   0.000000
     5  C    0.000000   0.000000   0.000000   0.000000   0.000000   0.000000
     6  H    0.000000   0.000000   0.000000   0.000000   0.000000   0.000000
     7  H    0.000000   0.000000   0.000000   0.000000   0.000000   0.000000
     8  C    0.000000   0.000000   0.000000   0.000000   0.000000   0.000000
     9  H    0.000000   0.000000   0.000000   0.000000   0.000000   0.000000
    10  H    0.000000   0.000000   0.000000   0.000000   0.000000   0.000000
    11  C    0.000000   0.000000   0.000000   0.000000   0.000000   0.000000
    12  H    0.000000   0.000000   0.000000   0.000000   0.000000   0.000000
    13  H    0.867699   0.000000   0.000000   0.000000   0.000000   0.000000
    14  C    0.000000   4.225776   0.000000   0.000000   0.000000   0.000000
    15  H    0.000000   0.000000   0.873107   0.000000   0.000000   0.000000
    16  H    0.000000   0.000000   0.000000   0.877061   0.000000   0.000000
    17  C    0.000000   0.000000   0.000000   0.000000   4.458047   0.000000
    18  H    0.000000   0.000000   0.000000   0.000000   0.000000   0.852535
    19  H    0.000000   0.000000   0.000000   0.000000   0.000000   0.000000
    20  H    0.000000   0.000000   0.000000   0.000000   0.000000   0.000000
             19         20
     1  C    0.000000   0.000000
     2  H    0.000000   0.000000
     3  H    0.000000   0.000000
     4  H    0.000000   0.000000
     5  C    0.000000   0.000000
     6  H    0.000000   0.000000
     7  H    0.000000   0.000000
     8  C    0.000000   0.000000
     9  H    0.000000   0.000000
    10  H    0.000000   0.000000
    11  C    0.000000   0.000000
    12  H    0.000000   0.000000
    13  H    0.000000   0.000000
    14  C    0.000000   0.000000
    15  H    0.000000   0.000000
    16  H    0.000000   0.000000
    17  C    0.000000   0.000000
    18  H    0.000000   0.000000
    19  H    0.858333   0.000000
    20  H    0.000000   0.852201
 Mulliken atomic charges:
              1
     1  C   -0.462685
     2  H    0.147373
     3  H    0.147381
     4  H    0.144297
     5  C   -0.231271
     6  H    0.127007
     7  H    0.126318
     8  C   -0.259963
     9  H    0.134018
    10  H    0.131929
    11  C   -0.267171
    12  H    0.127526
    13  H    0.132301
    14  C   -0.225776
    15  H    0.126893
    16  H    0.122939
    17  C   -0.458047
    18  H    0.147465
    19  H    0.141667
    20  H    0.147799
 Sum of Mulliken atomic charges =   0.00000
 Mulliken charges with hydrogens summed into heavy atoms:
              1
     1  C   -0.023634
     5  C    0.022054
     8  C    0.005984
    11  C   -0.007344
    14  C    0.024057
    17  C   -0.021116
 Sum of Mulliken charges with hydrogens summed into heavy atoms =   0.00000
 Charge=              0.0000 electrons
 Dipole moment (field-independent basis, Debye):
    X=             -0.0161    Y=              0.0003    Z=              0.0029  Tot=              0.0164
 N-N= 1.623588135489D+02 E-N=-2.459137224657D+02  KE=-5.602829211245D+01
 Leave Link  601 at Mon Sep 14 19:12:11 2015, MaxMem=  402653184 cpu:       0.0
 (Enter /share/apps/g09/l701.exe)
 Compute integral first derivatives.
 ... and contract with generalized density number  0.
 Leave Link  701 at Mon Sep 14 19:12:11 2015, MaxMem=  402653184 cpu:       0.1
 (Enter /share/apps/g09/l702.exe)
 L702 exits ... SP integral derivatives will be done elsewhere.
 Leave Link  702 at Mon Sep 14 19:12:15 2015, MaxMem=  402653184 cpu:       0.1
 (Enter /share/apps/g09/l703.exe)
 Compute integral first derivatives, UseDBF=F ICtDFT=           0.
 Integral derivatives from FoFDir, PRISM(SPDF).
 Calling FoFJK, ICntrl=      2127 FMM=F ISym2X=0 I1Cent= 0 IOpClX= 0 NMat=1 NMatS=1 NMatT=0.
 FoFCou: FMM=F IPFlag=           0 FMFlag=      100000 FMFlg1=         800
         NFxFlg=           0 DoJE=F BraDBF=F KetDBF=F FulRan=T
         Omega=  0.000000  0.000000  1.000000  0.000000  0.000000 ICntrl=    2127 IOpCl=  0
         NMat0=    1 NMatS0=    1 NMatT0=    0 NMatD0=    1 NMtDS0=    0 NMtDT0=    0
         I1Cent=           0 NGrid=           0.
 Symmetry not used in FoFCou.
 Leave Link  703 at Mon Sep 14 19:12:15 2015, MaxMem=  402653184 cpu:       0.0
 (Enter /share/apps/g09/l716.exe)
 Dipole        =-6.33984168D-03 1.24204974D-04 1.15046332D-03
 ***** Axes restored to original set *****
 -------------------------------------------------------------------
 Center     Atomic                   Forces (Hartrees/Bohr)
 Number     Number              X              Y              Z
 -------------------------------------------------------------------
      1        6          -0.000724674    0.003407059    0.001894826
      2        1           0.000460452    0.004512862   -0.009385053
      3        1           0.008233471   -0.002613091    0.005875761
      4        1          -0.009056210   -0.003166189    0.003114952
      5        6           0.003083249   -0.000563822   -0.001431817
      6        1           0.001850879   -0.002853001    0.003674938
      7        1          -0.002137370    0.000895346   -0.004463614
      8        6          -0.002995328   -0.001017097    0.000632987
      9        1           0.001403261   -0.002837613    0.004317035
     10        1          -0.002517709    0.001917462   -0.004592423
     11        6           0.002104722   -0.000206810   -0.000731954
     12        1          -0.001463336    0.001882452   -0.003754355
     13        1           0.001265672   -0.001042165    0.004657911
     14        6          -0.000914695   -0.000267227    0.000347101
     15        1           0.001157668   -0.000703430   -0.004095897
     16        1           0.000210974    0.001262558    0.003892265
     17        6          -0.002612019    0.000612311   -0.000520660
     18        1          -0.003218805   -0.000853433    0.009939200
     19        1           0.003870420    0.008742905   -0.002553909
     20        1           0.001999377   -0.007109076   -0.006817294
 -------------------------------------------------------------------
 Cartesian Forces:  Max     0.009939200 RMS     0.003806957
 Leave Link  716 at Mon Sep 14 19:12:15 2015, MaxMem=  402653184 cpu:       0.1
 (Enter /share/apps/g09/l103.exe)

 GradGradGradGradGradGradGradGradGradGradGradGradGradGradGradGradGradGrad
 Berny optimization.
 Internal  Forces:  Max     0.010086656 RMS     0.003073485
 Search for a local minimum.
 Step number   1 out of a maximum of  110
 All quantities printed in internal units (Hartrees-Bohrs-Radians)
 RMS Force = .30735D-02 SwitMx=.10000D-02 MixMth= 1
 Mixed Optimization -- RFO/linear search
 Second derivative matrix not updated -- first step.
     Eigenvalues ---    0.00290   0.00293   0.00320   0.00393   0.00415
     Eigenvalues ---    0.03395   0.03409   0.03625   0.03654   0.04797
     Eigenvalues ---    0.04828   0.04863   0.04895   0.05598   0.05667
     Eigenvalues ---    0.05772   0.05775   0.08123   0.08185   0.08468
     Eigenvalues ---    0.08536   0.12054   0.12089   0.12314   0.12358
     Eigenvalues ---    0.16000   0.16000   0.16000   0.16000   0.16000
     Eigenvalues ---    0.16000   0.21970   0.21973   0.21987   0.21991
     Eigenvalues ---    0.28881   0.28900   0.29081   0.29592   0.29743
     Eigenvalues ---    0.32063   0.32065   0.32073   0.32087   0.32092
     Eigenvalues ---    0.32099   0.32116   0.32147   0.32187   0.32192
     Eigenvalues ---    0.32213   0.32222   0.32228   0.322911000.00000
     Eigenvalues --- 1000.000001000.000001000.000001000.000001000.00000
     Eigenvalues --- 1000.000001000.000001000.000001000.000001000.00000
     Eigenvalues --- 1000.000001000.000001000.000001000.000001000.00000
     Eigenvalues --- 1000.000001000.000001000.000001000.000001000.00000
     Eigenvalues --- 1000.000001000.000001000.000001000.000001000.00000
     Eigenvalues --- 1000.000001000.000001000.000001000.000001000.00000
     Eigenvalues --- 1000.000001000.000001000.000001000.000001000.00000
     Eigenvalues --- 1000.000001000.000001000.000001000.000001000.00000
     Eigenvalues --- 1000.000001000.000001000.000001000.000001000.00000
 RFO step:  Lambda=-3.92859560D-03 EMin= 2.90394681D-03
 Linear search not attempted -- first point.
 Iteration  1 RMS(Cart)=  0.03188203 RMS(Int)=  0.00047185
 Iteration  2 RMS(Cart)=  0.00061762 RMS(Int)=  0.00007424
 Iteration  3 RMS(Cart)=  0.00000027 RMS(Int)=  0.00007424
 Variable       Old X    -DE/DX   Delta X   Delta X   Delta X     New X
                                 (Linear)    (Quad)   (Total)
    R1        2.10494  -0.00993   0.00000  -0.03046  -0.03046   2.07448
    R2        2.10503  -0.00996   0.00000  -0.03056  -0.03056   2.07448
    R3        2.10430  -0.00958   0.00000  -0.02936  -0.02936   2.07494
    R4        2.88479   0.00271   0.00000   0.00898   0.00898   2.89377
    R5        2.10676  -0.00383   0.00000  -0.01178  -0.01178   2.09498
    R6        2.10685  -0.00376   0.00000  -0.01158  -0.01158   2.09527
    R7        2.89833   0.00121   0.00000   0.00409   0.00409   2.90243
    R8        2.10576  -0.00396   0.00000  -0.01218  -0.01218   2.09358
    R9        2.10711  -0.00450   0.00000  -0.01386  -0.01386   2.09324
   R10        2.90212  -0.00191   0.00000  -0.00652  -0.00652   2.89560
   R11        2.10724  -0.00316   0.00000  -0.00974  -0.00974   2.09750
   R12        2.10729  -0.00467   0.00000  -0.01439  -0.01439   2.09290
   R13        2.90253  -0.00144   0.00000  -0.00492  -0.00492   2.89761
   R14        2.10632  -0.00401   0.00000  -0.01233  -0.01233   2.09399
   R15        2.10662  -0.00271   0.00000  -0.00835  -0.00835   2.09828
   R16        2.88783   0.00032   0.00000   0.00108   0.00108   2.88891
   R17        2.10456  -0.01009   0.00000  -0.03094  -0.03094   2.07363
   R18        2.10439  -0.00939   0.00000  -0.02880  -0.02880   2.07559
   R19        2.10315  -0.00971   0.00000  -0.02970  -0.02970   2.07345
    A1        1.90510  -0.00359   0.00000  -0.02450  -0.02460   1.88049
    A2        1.89670  -0.00317   0.00000  -0.01799  -0.01822   1.87847
    A3        1.92569   0.00316   0.00000   0.01862   0.01844   1.94414
    A4        1.89664  -0.00317   0.00000  -0.01808  -0.01831   1.87833
    A5        1.92603   0.00313   0.00000   0.01840   0.01823   1.94426
    A6        1.91318   0.00343   0.00000   0.02225   0.02201   1.93519
    A7        1.89561   0.00159   0.00000   0.01441   0.01441   1.91002
    A8        1.89407   0.00160   0.00000   0.01539   0.01538   1.90945
    A9        1.95683  -0.00199   0.00000  -0.00272  -0.00273   1.95410
   A10        1.89213  -0.00202   0.00000  -0.02944  -0.02949   1.86263
   A11        1.91236   0.00035   0.00000  -0.00015  -0.00018   1.91217
   A12        1.91166   0.00045   0.00000   0.00159   0.00155   1.91320
   A13        1.89646   0.00191   0.00000   0.01614   0.01614   1.91260
   A14        1.90344   0.00133   0.00000   0.01113   0.01113   1.91457
   A15        1.95448  -0.00267   0.00000  -0.00556  -0.00557   1.94892
   A16        1.89494  -0.00226   0.00000  -0.03140  -0.03140   1.86354
   A17        1.90797   0.00056   0.00000   0.00235   0.00234   1.91030
   A18        1.90566   0.00111   0.00000   0.00629   0.00628   1.91194
   A19        1.89561   0.00163   0.00000   0.01422   0.01431   1.90992
   A20        1.91214   0.00133   0.00000  -0.00088  -0.00093   1.91122
   A21        1.98919  -0.00489   0.00000  -0.01891  -0.01891   1.97027
   A22        1.88061  -0.00201   0.00000  -0.01947  -0.01946   1.86115
   A23        1.87537   0.00244   0.00000   0.02218   0.02224   1.89761
   A24        1.90766   0.00160   0.00000   0.00289   0.00279   1.91045
   A25        1.91429   0.00084   0.00000  -0.00359  -0.00361   1.91069
   A26        1.88520   0.00116   0.00000   0.01029   0.01034   1.89554
   A27        1.99371  -0.00391   0.00000  -0.01434  -0.01435   1.97935
   A28        1.87952  -0.00180   0.00000  -0.01915  -0.01915   1.86036
   A29        1.90500   0.00150   0.00000   0.00436   0.00427   1.90927
   A30        1.88258   0.00228   0.00000   0.02223   0.02225   1.90482
   A31        1.92809   0.00264   0.00000   0.01425   0.01412   1.94221
   A32        1.90944   0.00380   0.00000   0.02655   0.02629   1.93573
   A33        1.93240   0.00199   0.00000   0.01056   0.01045   1.94285
   A34        1.89624  -0.00289   0.00000  -0.01459  -0.01486   1.88138
   A35        1.90768  -0.00323   0.00000  -0.02603  -0.02602   1.88166
   A36        1.88921  -0.00251   0.00000  -0.01175  -0.01198   1.87724
    D1       -3.11770   0.00010   0.00000   0.00559   0.00556  -3.11214
    D2       -1.06409  -0.00054   0.00000  -0.01296  -0.01300  -1.07709
    D3        1.04974  -0.00015   0.00000  -0.00228  -0.00231   1.04743
    D4        1.05869   0.00049   0.00000   0.01208   0.01212   1.07081
    D5        3.11231  -0.00014   0.00000  -0.00647  -0.00644   3.10587
    D6       -1.05705   0.00024   0.00000   0.00422   0.00425  -1.05280
    D7       -1.02957   0.00030   0.00000   0.00895   0.00896  -1.02062
    D8        1.02404  -0.00033   0.00000  -0.00960  -0.00961   1.01444
    D9        3.13787   0.00005   0.00000   0.00108   0.00109   3.13896
   D10        1.01980  -0.00041   0.00000  -0.01096  -0.01096   1.00884
   D11       -1.04293   0.00046   0.00000   0.01118   0.01118  -1.03174
   D12        3.12912  -0.00011   0.00000  -0.00069  -0.00069   3.12843
   D13       -1.08628  -0.00136   0.00000  -0.02727  -0.02726  -1.11354
   D14        3.13418  -0.00049   0.00000  -0.00513  -0.00512   3.12907
   D15        1.02305  -0.00106   0.00000  -0.01701  -0.01699   1.00606
   D16        3.12346   0.00062   0.00000   0.00776   0.00774   3.13120
   D17        1.06073   0.00148   0.00000   0.02990   0.02989   1.09062
   D18       -1.05040   0.00091   0.00000   0.01802   0.01801  -1.03239
   D19        0.95351  -0.00068   0.00000  -0.00748  -0.00747   0.94604
   D20       -1.09644   0.00004   0.00000   0.00823   0.00826  -1.08818
   D21        3.04333   0.00043   0.00000   0.01854   0.01851   3.06184
   D22        3.05615   0.00038   0.00000   0.01081   0.01081   3.06696
   D23        1.00620   0.00111   0.00000   0.02652   0.02654   1.03274
   D24       -1.13721   0.00149   0.00000   0.03683   0.03680  -1.10042
   D25       -1.15634  -0.00138   0.00000  -0.02215  -0.02215  -1.17850
   D26        3.07689  -0.00065   0.00000  -0.00644  -0.00642   3.07047
   D27        0.93347  -0.00027   0.00000   0.00386   0.00384   0.93731
   D28       -0.98418  -0.00062   0.00000  -0.00464  -0.00464  -0.98882
   D29       -3.02807   0.00041   0.00000   0.01437   0.01439  -3.01367
   D30        1.16062  -0.00081   0.00000  -0.01197  -0.01192   1.14870
   D31        1.11702   0.00009   0.00000   0.01698   0.01693   1.13395
   D32       -0.92686   0.00112   0.00000   0.03599   0.03597  -0.89090
   D33       -3.02136  -0.00010   0.00000   0.00965   0.00965  -3.01171
   D34       -3.13005  -0.00010   0.00000   0.00766   0.00763  -3.12241
   D35        1.10925   0.00093   0.00000   0.02666   0.02667   1.13592
   D36       -0.98524  -0.00029   0.00000   0.00033   0.00035  -0.98489
   D37        0.94160  -0.00004   0.00000   0.01003   0.00995   0.95155
   D38        3.02829   0.00041   0.00000   0.01752   0.01753   3.04582
   D39       -1.17420   0.00093   0.00000   0.02625   0.02631  -1.14789
   D40        3.09144  -0.00056   0.00000  -0.00150  -0.00159   3.08985
   D41       -1.10505  -0.00011   0.00000   0.00599   0.00599  -1.09906
   D42        0.97564   0.00041   0.00000   0.01473   0.01478   0.99042
   D43       -1.15437  -0.00064   0.00000  -0.00963  -0.00969  -1.16406
   D44        0.93233  -0.00019   0.00000  -0.00214  -0.00211   0.93022
   D45        3.01302   0.00033   0.00000   0.00659   0.00667   3.01969
         Item               Value     Threshold  Converged?
 Maximum Force            0.010087     0.000450     NO 
 RMS     Force            0.003073     0.000300     NO 
 Maximum Displacement     0.155388     0.001800     NO 
 RMS     Displacement     0.031944     0.001200     NO 
 Predicted change in Energy=-2.017686D-03
 GradGradGradGradGradGradGradGradGradGradGradGradGradGradGradGradGradGrad

 Leave Link  103 at Mon Sep 14 19:12:17 2015, MaxMem=  402653184 cpu:       1.5
 (Enter /share/apps/g09/l202.exe)
                          Input orientation:                          
 ---------------------------------------------------------------------
 Center     Atomic      Atomic             Coordinates (Angstroms)
 Number     Number       Type             X           Y           Z
 ---------------------------------------------------------------------
      1          6           0        0.005577    4.123014    1.204460
      2          1           0       -0.119630    3.983279    2.286076
      3          1           0       -0.880660    4.652118    0.830663
      4          1           0        0.873023    4.778717    1.052096
      5          6           0        0.200825    2.784202    0.487245
      6          1           0        0.354126    2.964797   -0.595764
      7          1           0        1.122781    2.296095    0.862904
      8          6           0       -0.998012    1.845191    0.687321
      9          1           0       -1.920561    2.337692    0.321628
     10          1           0       -1.145277    1.652853    1.768206
     11          6           0       -0.803700    0.515124   -0.048250
     12          1           0        0.159584    0.059057    0.261718
     13          1           0       -0.730021    0.702203   -1.137362
     14          6           0       -1.932422   -0.486714    0.222787
     15          1           0       -2.019392   -0.658933    1.313953
     16          1           0       -1.657117   -1.461928   -0.231156
     17          6           0       -3.286084   -0.040788   -0.330216
     18          1           0       -3.222519    0.189251   -1.401265
     19          1           0       -4.041154   -0.827772   -0.200154
     20          1           0       -3.651269    0.856644    0.184711
 ---------------------------------------------------------------------
                    Distance matrix (angstroms):
                    1          2          3          4          5
     1  C    0.000000
     2  H    1.097768   0.000000
     3  H    1.097767   1.773341   0.000000
     4  H    1.098009   1.772227   1.772136   0.000000
     5  C    1.531319   2.185468   2.185556   2.179219   0.000000
     6  H    2.168815   3.093016   2.531095   2.504995   1.108614
     7  H    2.168511   2.532902   3.092840   2.502315   1.108770
     8  C    2.542263   2.810515   2.813034   3.498486   1.535898
     9  H    2.770699   3.132150   2.587871   3.781044   2.174185
    10  H    2.782799   2.598274   3.153506   3.789113   2.175501
    11  C    3.903983   4.236169   4.230027   4.711728   2.538610
    12  H    4.174713   4.424422   4.743629   4.838273   2.734772
    13  H    4.210366   4.781001   4.415614   4.897085   2.800097
    14  C    5.095990   5.246352   5.280465   6.023540   3.914023
    15  H    5.194180   5.109232   5.453214   6.164630   4.179472
    16  H    6.001426   6.192786   6.253951   6.855216   4.690167
    17  C    5.525171   5.750177   5.399729   6.514337   4.561508
    18  H    5.717071   6.133438   5.512077   6.622360   4.692498
    19  H    6.546698   6.686247   6.409407   7.559761   5.613667
    20  H    5.008151   5.163725   4.743327   6.050143   4.318059
                    6          7          8          9         10
     6  H    0.000000
     7  H    1.779242   0.000000
     8  C    2.174419   2.175294   0.000000
     9  H    2.531613   3.091382   1.107875   0.000000
    10  H    3.091563   2.525356   1.107698   1.778386   0.000000
    11  C    2.764277   2.777299   1.532285   2.169319   2.170395
    12  H    3.035860   2.508688   2.170585   3.085899   2.551932
    13  H    2.566717   3.158232   2.169726   2.494166   3.085207
    14  C    4.220338   4.181871   2.554739   2.826160   2.754208
    15  H    4.734133   4.336921   2.776062   3.158202   2.512922
    16  H    4.875851   4.800785   3.495004   3.848647   3.736480
    17  C    4.728127   5.130561   3.134896   2.818994   3.443087
    18  H    4.598356   5.333563   3.471709   3.046188   4.062341
    19  H    5.818811   6.128202   4.146451   3.845690   4.291158
    20  H    4.593107   5.032248   2.875694   2.282017   3.069429
                   11         12         13         14         15
    11  C    0.000000
    12  H    1.109952   0.000000
    13  H    1.107516   1.778330   0.000000
    14  C    1.533348   2.162376   2.170092   0.000000
    15  H    2.170694   2.524013   3.086116   1.108091   0.000000
    16  H    2.161136   2.420066   2.522732   1.110360   1.778596
    17  C    2.559449   3.497568   2.781543   1.528746   2.165619
    18  H    2.790615   3.771085   2.558381   2.181473   3.088583
    19  H    3.508212   4.318100   3.766004   2.177601   2.531511
    20  H    2.877422   3.894185   3.210206   2.181856   2.497035
                   16         17         18         19         20
    16  H    0.000000
    17  C    2.164021   0.000000
    18  H    2.558521   1.097317   0.000000
    19  H    2.467133   1.098357   1.774025   0.000000
    20  H    3.086319   1.097221   1.773291   1.771268   0.000000
 Stoichiometry    C6H14
 Framework group  C1[X(C6H14)]
 Deg. of freedom    54
 Full point group                 C1      NOp   1
 Largest Abelian subgroup         C1      NOp   1
 Largest concise Abelian subgroup C1      NOp   1
                         Standard orientation:                         
 ---------------------------------------------------------------------
 Center     Atomic      Atomic             Coordinates (Angstroms)
 Number     Number       Type             X           Y           Z
 ---------------------------------------------------------------------
      1          6           0        2.953523    0.540583    0.111090
      2          1           0        3.016524    0.684218    1.197595
      3          1           0        2.810382    1.526931   -0.349040
      4          1           0        3.922379    0.152271   -0.229727
      5          6           0        1.819640   -0.419158   -0.260588
      6          1           0        1.804630   -0.564431   -1.359539
      7          1           0        2.015792   -1.413102    0.189936
      8          6           0        0.451842    0.098728    0.208353
      9          1           0        0.261157    1.096586   -0.233582
     10          1           0        0.460213    0.232409    1.307922
     11          6           0       -0.679649   -0.857460   -0.183223
     12          1           0       -0.449883   -1.875641    0.194278
     13          1           0       -0.734398   -0.933318   -1.286781
     14          6           0       -2.043676   -0.424526    0.367372
     15          1           0       -1.983764   -0.329340    1.469740
     16          1           0       -2.781304   -1.227655    0.158113
     17          6           0       -2.550174    0.888920   -0.228767
     18          1           0       -2.571763    0.846554   -1.325054
     19          1           0       -3.568339    1.110244    0.118715
     20          1           0       -1.910660    1.731755    0.062002
 ---------------------------------------------------------------------
 Rotational constants (GHZ):      8.5948734      1.3597209      1.2627535
 Leave Link  202 at Mon Sep 14 19:12:21 2015, MaxMem=  402653184 cpu:       0.0
 (Enter /share/apps/g09/l301.exe)
 Standard basis: VSTO-6G (5D, 7F)
 Ernie: Thresh=  0.10000D-02 Tol=  0.10000D-05 Strict=F.
  NNHCO=     0 NNPyr=     0 NCTC=     0               EPep=         0.000000000
    EC=       125.320711157  ECS=         3.216083004   EG=         0.308696565
   EHC=         0.000451602  EAt=       -31.187935768  AtH=         2.796400831
 EPDDG=         0.000000000  ECC=       128.845942327 EAtT=        33.984336599
 There are    38 symmetry adapted basis functions of A   symmetry.
 Integral buffers will be    131072 words long.
 Regular integral format.
 Two-electron integral symmetry is turned off.
    38 basis functions,   228 primitive gaussians,    38 cartesian basis functions
    19 alpha electrons       19 beta electrons
       nuclear repulsion energy       162.8302789265 Hartrees.
 IExCor=    0 DFT=F Ex=HF Corr=None ExCW=0 ScaHFX=  1.000000
 ScaDFX=  1.000000  1.000000  1.000000  1.000000 ScalE2=  1.000000  1.000000
 IRadAn=      0 IRanWt=     -1 IRanGd=            0 ICorTp=0
 Leave Link  301 at Mon Sep 14 19:12:21 2015, MaxMem=  402653184 cpu:       0.1
 (Enter /share/apps/g09/l302.exe)
 Do NDO integrals.
 NPDir=0 NMtPBC=     1 NCelOv=     1 NCel=       1 NClECP=     1 NCelD=      1
         NCelK=      1 NCelE2=     1 NClLst=     1 CellRange=     0.0.
 One-electron integrals computed using PRISM.
 NBasis=    38 RedAO= F  NBF=    38
 NBsUse=    38 1.00D-04 NBFU=    38
 Leave Link  302 at Mon Sep 14 19:12:23 2015, MaxMem=  402653184 cpu:       0.1
 (Enter /share/apps/g09/l303.exe)
 DipDrv:  MaxL=1.
 Leave Link  303 at Mon Sep 14 19:12:23 2015, MaxMem=  402653184 cpu:       0.0
 (Enter /share/apps/g09/l401.exe)
 Initial guess read from the read-write file.
 B after Tr=     0.000000    0.000000    0.000000
         Rot=    1.000000    0.000000    0.000000    0.000000 Ang=   0.00 deg.
 Guess basis will be translated and rotated to current coordinates.
 Initial guess orbital symmetries:
       Occupied  (A) (A) (A) (A) (A) (A) (A) (A) (A) (A) (A) (A)
                 (A) (A) (A) (A) (A) (A) (A)
       Virtual   (A) (A) (A) (A) (A) (A) (A) (A) (A) (A) (A) (A)
                 (A) (A) (A) (A) (A) (A) (A)
 The electronic state of the initial guess is 1-A.
 Leave Link  401 at Mon Sep 14 19:12:23 2015, MaxMem=  402653184 cpu:       0.2
 (Enter /share/apps/g09/l502.exe)
 Closed shell SCF:
 Requested convergence on RMS density matrix=1.00D-08 within 128 cycles.
 Requested convergence on MAX density matrix=1.00D-06.
 Requested convergence on             energy=1.00D-06.
 No special actions if energy rises.
 Using DIIS extrapolation, IDIIS=  1040.
 Overlap will be assumed to be unity.
 Two-electron integral symmetry not used.
 Keep J ints in memory in canonical form, NReq=884654.
 IEnd=       81865 IEndB=       81865 NGot=   402653184 MDV=   402586639
 LenX=   402586639 LenY=   402584754
 Symmetry not used in FoFDir.
 MinBra= 0 MaxBra= 1 Meth=40.
 IRaf=       0 NMat=   1 IRICut=       1 DoRegI=T DoRafI=F ISym2E= 0 JSym2E=0.

 Cycle   1  Pass 1  IDiag  1:
 E=-0.546775545254832E-01
 DIIS: error= 4.06D-03 at cycle   1 NSaved=   1.
 NSaved= 1 IEnMin= 1 EnMin=-0.546775545254832E-01 IErMin= 1 ErrMin= 4.06D-03
 ErrMax= 4.06D-03 EMaxC= 1.00D-01 BMatC= 3.19D-04 BMatP= 3.19D-04
 IDIUse=3 WtCom= 9.59D-01 WtEn= 4.06D-02
 Coeff-Com:  0.100D+01
 Coeff-En:   0.100D+01
 Coeff:      0.100D+01
 GapD=    2.000 DampG=2.000 DampE=1.000 DampFc=2.0000 IDamp=-1.
 RMSDP=8.66D-04 MaxDP=1.01D-02              OVMax= 0.00D+00

 Cycle   2  Pass 1  IDiag  3:
 E=-0.558355205703549E-01 Delta-E=       -0.001157966045 Rises=F Damp=F
 DIIS: error= 1.80D-03 at cycle   2 NSaved=   2.
 NSaved= 2 IEnMin= 2 EnMin=-0.558355205703549E-01 IErMin= 2 ErrMin= 1.80D-03
 ErrMax= 1.80D-03 EMaxC= 1.00D-01 BMatC= 5.36D-05 BMatP= 3.19D-04
 IDIUse=3 WtCom= 9.82D-01 WtEn= 1.80D-02
 Coeff-Com: -0.635D+00 0.164D+01
 Coeff-En:   0.000D+00 0.100D+01
 Coeff:     -0.624D+00 0.162D+01
 Gap=     0.558 Goal=   None    Shift=    0.000
 RMSDP=6.08D-04 MaxDP=7.34D-03 DE=-1.16D-03 OVMax= 0.00D+00

 Cycle   3  Pass 1  IDiag  3:
 E=-0.560938760718557E-01 Delta-E=       -0.000258355502 Rises=F Damp=F
 DIIS: error= 1.87D-04 at cycle   3 NSaved=   3.
 NSaved= 3 IEnMin= 3 EnMin=-0.560938760718557E-01 IErMin= 3 ErrMin= 1.87D-04
 ErrMax= 1.87D-04 EMaxC= 1.00D-01 BMatC= 8.16D-07 BMatP= 5.36D-05
 IDIUse=3 WtCom= 9.98D-01 WtEn= 1.87D-03
 Coeff-Com:  0.250D+00-0.712D+00 0.146D+01
 Coeff-En:   0.000D+00 0.000D+00 0.100D+01
 Coeff:      0.250D+00-0.711D+00 0.146D+01
 Gap=     0.558 Goal=   None    Shift=    0.000
 RMSDP=8.20D-05 MaxDP=8.86D-04 DE=-2.58D-04 OVMax= 0.00D+00

 Cycle   4  Pass 1  IDiag  3:
 E=-0.560980278708882E-01 Delta-E=       -0.000004151799 Rises=F Damp=F
 DIIS: error= 1.62D-05 at cycle   4 NSaved=   4.
 NSaved= 4 IEnMin= 4 EnMin=-0.560980278708882E-01 IErMin= 4 ErrMin= 1.62D-05
 ErrMax= 1.62D-05 EMaxC= 1.00D-01 BMatC= 1.89D-08 BMatP= 8.16D-07
 IDIUse=1 WtCom= 1.00D+00 WtEn= 0.00D+00
 Coeff-Com: -0.123D+00 0.350D+00-0.766D+00 0.154D+01
 Coeff:     -0.123D+00 0.350D+00-0.766D+00 0.154D+01
 Gap=     0.558 Goal=   None    Shift=    0.000
 RMSDP=1.24D-05 MaxDP=1.06D-04 DE=-4.15D-06 OVMax= 0.00D+00

 Cycle   5  Pass 1  IDiag  3:
 E=-0.560981436045722E-01 Delta-E=       -0.000000115734 Rises=F Damp=F
 DIIS: error= 6.24D-06 at cycle   5 NSaved=   5.
 NSaved= 5 IEnMin= 5 EnMin=-0.560981436045722E-01 IErMin= 5 ErrMin= 6.24D-06
 ErrMax= 6.24D-06 EMaxC= 1.00D-01 BMatC= 2.41D-09 BMatP= 1.89D-08
 IDIUse=1 WtCom= 1.00D+00 WtEn= 0.00D+00
 Coeff-Com:  0.824D-01-0.236D+00 0.523D+00-0.128D+01 0.191D+01
 Coeff:      0.824D-01-0.236D+00 0.523D+00-0.128D+01 0.191D+01
 Gap=     0.558 Goal=   None    Shift=    0.000
 RMSDP=6.05D-06 MaxDP=5.51D-05 DE=-1.16D-07 OVMax= 0.00D+00

 Cycle   6  Pass 1  IDiag  3:
 E=-0.560981622251973E-01 Delta-E=       -0.000000018621 Rises=F Damp=F
 DIIS: error= 1.56D-06 at cycle   6 NSaved=   6.
 NSaved= 6 IEnMin= 6 EnMin=-0.560981622251973E-01 IErMin= 6 ErrMin= 1.56D-06
 ErrMax= 1.56D-06 EMaxC= 1.00D-01 BMatC= 1.66D-10 BMatP= 2.41D-09
 IDIUse=1 WtCom= 1.00D+00 WtEn= 0.00D+00
 Coeff-Com: -0.410D-01 0.117D+00-0.261D+00 0.670D+00-0.121D+01 0.172D+01
 Coeff:     -0.410D-01 0.117D+00-0.261D+00 0.670D+00-0.121D+01 0.172D+01
 Gap=     0.558 Goal=   None    Shift=    0.000
 RMSDP=1.66D-06 MaxDP=1.56D-05 DE=-1.86D-08 OVMax= 0.00D+00

 Cycle   7  Pass 1  IDiag  3:
 E=-0.560981634857569E-01 Delta-E=       -0.000000001261 Rises=F Damp=F
 DIIS: error= 3.04D-07 at cycle   7 NSaved=   7.
 NSaved= 7 IEnMin= 7 EnMin=-0.560981634857569E-01 IErMin= 7 ErrMin= 3.04D-07
 ErrMax= 3.04D-07 EMaxC= 1.00D-01 BMatC= 6.80D-12 BMatP= 1.66D-10
 IDIUse=1 WtCom= 1.00D+00 WtEn= 0.00D+00
 Coeff-Com:  0.125D-01-0.358D-01 0.796D-01-0.209D+00 0.399D+00-0.725D+00
 Coeff-Com:  0.148D+01
 Coeff:      0.125D-01-0.358D-01 0.796D-01-0.209D+00 0.399D+00-0.725D+00
 Coeff:      0.148D+01
 Gap=     0.558 Goal=   None    Shift=    0.000
 RMSDP=2.88D-07 MaxDP=2.20D-06 DE=-1.26D-09 OVMax= 0.00D+00

 Cycle   8  Pass 1  IDiag  3:
 E=-0.560981635292990E-01 Delta-E=       -0.000000000044 Rises=F Damp=F
 DIIS: error= 5.06D-08 at cycle   8 NSaved=   8.
 NSaved= 8 IEnMin= 8 EnMin=-0.560981635292990E-01 IErMin= 8 ErrMin= 5.06D-08
 ErrMax= 5.06D-08 EMaxC= 1.00D-01 BMatC= 2.47D-13 BMatP= 6.80D-12
 IDIUse=1 WtCom= 1.00D+00 WtEn= 0.00D+00
 Coeff-Com: -0.211D-02 0.603D-02-0.134D-01 0.357D-01-0.711D-01 0.144D+00
 Coeff-Com: -0.442D+00 0.134D+01
 Coeff:     -0.211D-02 0.603D-02-0.134D-01 0.357D-01-0.711D-01 0.144D+00
 Coeff:     -0.442D+00 0.134D+01
 Gap=     0.558 Goal=   None    Shift=    0.000
 RMSDP=4.94D-08 MaxDP=3.90D-07 DE=-4.35D-11 OVMax= 0.00D+00

 Cycle   9  Pass 1  IDiag  3:
 E=-0.560981635306916E-01 Delta-E=       -0.000000000001 Rises=F Damp=F
 DIIS: error= 1.54D-08 at cycle   9 NSaved=   9.
 NSaved= 9 IEnMin= 9 EnMin=-0.560981635306916E-01 IErMin= 9 ErrMin= 1.54D-08
 ErrMax= 1.54D-08 EMaxC= 1.00D-01 BMatC= 1.58D-14 BMatP= 2.47D-13
 IDIUse=1 WtCom= 1.00D+00 WtEn= 0.00D+00
 Coeff-Com:  0.228D-03-0.646D-03 0.143D-02-0.410D-02 0.939D-02-0.239D-01
 Coeff-Com:  0.118D+00-0.595D+00 0.150D+01
 Coeff:      0.228D-03-0.646D-03 0.143D-02-0.410D-02 0.939D-02-0.239D-01
 Coeff:      0.118D+00-0.595D+00 0.150D+01
 Gap=     0.558 Goal=   None    Shift=    0.000
 RMSDP=1.21D-08 MaxDP=1.09D-07 DE=-1.39D-12 OVMax= 0.00D+00

 Cycle  10  Pass 1  IDiag  3:
 E=-0.560981635310895E-01 Delta-E=        0.000000000000 Rises=F Damp=F
 DIIS: error= 5.25D-09 at cycle  10 NSaved=  10.
 NSaved=10 IEnMin=10 EnMin=-0.560981635310895E-01 IErMin=10 ErrMin= 5.25D-09
 ErrMax= 5.25D-09 EMaxC= 1.00D-01 BMatC= 9.00D-16 BMatP= 1.58D-14
 IDIUse=1 WtCom= 1.00D+00 WtEn= 0.00D+00
 Coeff-Com: -0.323D-04 0.901D-04-0.197D-03 0.673D-03-0.191D-02 0.609D-02
 Coeff-Com: -0.395D-01 0.236D+00-0.741D+00 0.154D+01
 Coeff:     -0.323D-04 0.901D-04-0.197D-03 0.673D-03-0.191D-02 0.609D-02
 Coeff:     -0.395D-01 0.236D+00-0.741D+00 0.154D+01
 Gap=     0.558 Goal=   None    Shift=    0.000
 RMSDP=2.89D-09 MaxDP=3.33D-08 DE=-3.98D-13 OVMax= 0.00D+00

 Cycle  11  Pass 2  IDiag  1:
 RMSDP=2.89D-09 MaxDP=3.33D-08 DE=-3.98D-13 OVMax= 0.00D+00

 SCF Done:  E(RPM6) = -0.560981635311E-01 A.U. after   11 cycles
             Convg  =    0.2895D-08             -V/T =  0.9990
 KE=-5.608470267168D+01 PE=-2.466900953215D+02 EE= 1.398884209032D+02
 Leave Link  502 at Mon Sep 14 19:12:28 2015, MaxMem=  402653184 cpu:       0.1
 (Enter /share/apps/g09/l701.exe)
 Compute integral first derivatives.
 ... and contract with generalized density number  0.
 Leave Link  701 at Mon Sep 14 19:12:28 2015, MaxMem=  402653184 cpu:       0.1
 (Enter /share/apps/g09/l702.exe)
 L702 exits ... SP integral derivatives will be done elsewhere.
 Leave Link  702 at Mon Sep 14 19:12:29 2015, MaxMem=  402653184 cpu:       0.0
 (Enter /share/apps/g09/l703.exe)
 Compute integral first derivatives, UseDBF=F ICtDFT=           0.
 Integral derivatives from FoFDir, PRISM(SPDF).
 Calling FoFJK, ICntrl=      2127 FMM=F ISym2X=0 I1Cent= 0 IOpClX= 0 NMat=1 NMatS=1 NMatT=0.
 FoFCou: FMM=F IPFlag=           0 FMFlag=      100000 FMFlg1=         800
         NFxFlg=           0 DoJE=F BraDBF=F KetDBF=F FulRan=T
         Omega=  0.000000  0.000000  1.000000  0.000000  0.000000 ICntrl=    2127 IOpCl=  0
         NMat0=    1 NMatS0=    1 NMatT0=    0 NMatD0=    1 NMtDS0=    0 NMtDT0=    0
         I1Cent=           0 NGrid=           0.
 Symmetry not used in FoFCou.
 Leave Link  703 at Mon Sep 14 19:12:30 2015, MaxMem=  402653184 cpu:       0.1
 (Enter /share/apps/g09/l716.exe)
 Dipole        =-1.06321619D-03 2.11992333D-02-2.12184050D-03
 ***** Axes restored to original set *****
 -------------------------------------------------------------------
 Center     Atomic                   Forces (Hartrees/Bohr)
 Number     Number              X              Y              Z
 -------------------------------------------------------------------
      1        6           0.000287639   -0.001737430   -0.000949119
      2        1          -0.000056995    0.000502255   -0.001269253
      3        1           0.001021094   -0.000451535    0.000793117
      4        1          -0.001295994   -0.000600194    0.000403303
      5        6          -0.000328306    0.001457536    0.000897014
      6        1           0.000814492   -0.000376458    0.000849187
      7        1          -0.000308487    0.000518439   -0.001140752
      8        6           0.000137383    0.001224175    0.001003939
      9        1          -0.000007204   -0.000052216    0.001450482
     10        1          -0.000922905    0.000975174   -0.000524196
     11        6           0.001431042   -0.000124540   -0.001107253
     12        1          -0.000512847    0.000455720   -0.001328170
     13        1           0.001014036   -0.000377682    0.000121459
     14        6          -0.001433686   -0.000721364    0.000073919
     15        1           0.000017316   -0.000979342   -0.000329849
     16        1          -0.000403828    0.000385812    0.001291469
     17        6           0.000364981   -0.001025616    0.000153564
     18        1          -0.000632920    0.000077829    0.001023313
     19        1           0.000773606    0.001359309   -0.000435251
     20        1           0.000041583   -0.000509872   -0.000976921
 -------------------------------------------------------------------
 Cartesian Forces:  Max     0.001737430 RMS     0.000834046
 Leave Link  716 at Mon Sep 14 19:12:31 2015, MaxMem=  402653184 cpu:       0.0
 (Enter /share/apps/g09/l103.exe)

 GradGradGradGradGradGradGradGradGradGradGradGradGradGradGradGradGradGrad
 Berny optimization.
 Using GEDIIS/GDIIS optimizer.
 Internal  Forces:  Max     0.002472413 RMS     0.000654903
 Search for a local minimum.
 Step number   2 out of a maximum of  110
 All quantities printed in internal units (Hartrees-Bohrs-Radians)
 RMS Force = .65490D-03 SwitMx=.10000D-02 MixMth= 2
 Mixed Optimization -- En-DIIS/RFO-DIIS
 Update second derivatives using D2CorX and points    1    2
 DE= -2.27D-03 DEPred=-2.02D-03 R= 1.12D+00
 SS=  1.41D+00  RLast= 1.65D-01 DXNew= 5.0454D-01 4.9525D-01
 Trust test= 1.12D+00 RLast= 1.65D-01 DXMaxT set to 4.95D-01
 Use linear search instead of GDIIS.
     Eigenvalues ---    0.00289   0.00293   0.00320   0.00393   0.00415
     Eigenvalues ---    0.03449   0.03514   0.03580   0.03600   0.04465
     Eigenvalues ---    0.04792   0.04812   0.04858   0.05475   0.05486
     Eigenvalues ---    0.05536   0.05548   0.08161   0.08261   0.08339
     Eigenvalues ---    0.08488   0.12066   0.12120   0.12211   0.12291
     Eigenvalues ---    0.15385   0.16000   0.16000   0.16000   0.16000
     Eigenvalues ---    0.16046   0.20811   0.21894   0.21922   0.21988
     Eigenvalues ---    0.28088   0.28891   0.29088   0.29416   0.29599
     Eigenvalues ---    0.31752   0.32067   0.32076   0.32083   0.32090
     Eigenvalues ---    0.32096   0.32119   0.32149   0.32189   0.32198
     Eigenvalues ---    0.32204   0.32225   0.32265   0.336911000.00000
     Eigenvalues --- 1000.000001000.000001000.000001000.000001000.00000
     Eigenvalues --- 1000.000001000.000001000.000001000.000001000.00000
     Eigenvalues --- 1000.000001000.000001000.000001000.000001000.00000
     Eigenvalues --- 1000.000001000.000001000.000001000.000001000.00000
     Eigenvalues --- 1000.000001000.000001000.000001000.000001000.00000
     Eigenvalues --- 1000.000001000.000001000.000001000.000001000.00000
     Eigenvalues --- 1000.000001000.000001000.000001000.000001000.00000
     Eigenvalues --- 1000.000001000.000001000.000001000.000001000.00000
     Eigenvalues --- 1000.000001000.000001000.000001000.000001000.00000
 RFO step:  Lambda=-2.49722569D-04 EMin= 2.88920607D-03
 Quartic linear search produced a step of  0.17383.
 Iteration  1 RMS(Cart)=  0.02809304 RMS(Int)=  0.00037063
 Iteration  2 RMS(Cart)=  0.00048125 RMS(Int)=  0.00001664
 Iteration  3 RMS(Cart)=  0.00000012 RMS(Int)=  0.00001664
 Variable       Old X    -DE/DX   Delta X   Delta X   Delta X     New X
                                 (Linear)    (Quad)   (Total)
    R1        2.07448  -0.00131  -0.00530  -0.00114  -0.00644   2.06804
    R2        2.07448  -0.00131  -0.00531  -0.00115  -0.00646   2.06802
    R3        2.07494  -0.00144  -0.00510  -0.00174  -0.00685   2.06809
    R4        2.89377  -0.00247   0.00156  -0.01081  -0.00925   2.88452
    R5        2.09498  -0.00078  -0.00205  -0.00144  -0.00349   2.09148
    R6        2.09527  -0.00087  -0.00201  -0.00181  -0.00382   2.09145
    R7        2.90243  -0.00026   0.00071  -0.00154  -0.00083   2.90159
    R8        2.09358  -0.00050  -0.00212  -0.00036  -0.00248   2.09110
    R9        2.09324  -0.00056  -0.00241  -0.00039  -0.00280   2.09044
   R10        2.89560   0.00208  -0.00113   0.00920   0.00807   2.90367
   R11        2.09750  -0.00100  -0.00169  -0.00251  -0.00420   2.09330
   R12        2.09290  -0.00012  -0.00250   0.00129  -0.00121   2.09169
   R13        2.89761   0.00200  -0.00085   0.00871   0.00786   2.90546
   R14        2.09399  -0.00017  -0.00214   0.00083  -0.00131   2.09267
   R15        2.09828  -0.00097  -0.00145  -0.00254  -0.00399   2.09429
   R16        2.88891  -0.00043   0.00019  -0.00182  -0.00164   2.88727
   R17        2.07363  -0.00102  -0.00538  -0.00003  -0.00541   2.06822
   R18        2.07559  -0.00156  -0.00501  -0.00225  -0.00725   2.06834
   R19        2.07345  -0.00089  -0.00516   0.00030  -0.00486   2.06858
    A1        1.88049  -0.00046  -0.00428  -0.00162  -0.00591   1.87458
    A2        1.87847  -0.00032  -0.00317   0.00051  -0.00271   1.87576
    A3        1.94414   0.00032   0.00321  -0.00026   0.00291   1.94705
    A4        1.87833  -0.00032  -0.00318   0.00056  -0.00267   1.87566
    A5        1.94426   0.00031   0.00317  -0.00027   0.00286   1.94712
    A6        1.93519   0.00042   0.00383   0.00107   0.00484   1.94003
    A7        1.91002   0.00042   0.00251   0.00081   0.00332   1.91334
    A8        1.90945   0.00045   0.00267   0.00078   0.00346   1.91291
    A9        1.95410  -0.00131  -0.00048  -0.00488  -0.00536   1.94874
[...]
 ! D10   D(1,5,8,9)             58.0216         -DE/DX =    0.0                 !
 ! D11   D(1,5,8,10)           -57.8029         -DE/DX =    0.0                 !
 ! D12   D(1,5,8,11)          -179.9701         -DE/DX =    0.0                 !
 ! D13   D(6,5,8,9)            -63.9532         -DE/DX =    0.0                 !
 ! D14   D(6,5,8,10)          -179.7778         -DE/DX =    0.0                 !
 ! D15   D(6,5,8,11)            58.055          -DE/DX =    0.0                 !
 ! D16   D(7,5,8,9)           -179.9866         -DE/DX =    0.0                 !
 ! D17   D(7,5,8,10)            64.1889         -DE/DX =    0.0                 !
 ! D18   D(7,5,8,11)           -57.9783         -DE/DX =    0.0                 !
 ! D19   D(5,8,11,12)           57.73           -DE/DX =    0.0                 !
 ! D20   D(5,8,11,13)          -58.041          -DE/DX =    0.0                 !
 ! D21   D(5,8,11,14)          179.3775         -DE/DX =    0.0                 !
 ! D22   D(9,8,11,12)          179.758          -DE/DX =    0.0                 !
 ! D23   D(9,8,11,13)           63.987          -DE/DX =    0.0                 !
 ! D24   D(9,8,11,14)          -58.5946         -DE/DX =    0.0                 !
 ! D25   D(10,8,11,12)         -64.4066         -DE/DX =    0.0                 !
 ! D26   D(10,8,11,13)         179.8223         -DE/DX =    0.0                 !
 ! D27   D(10,8,11,14)          57.2408         -DE/DX =    0.0                 !
 ! D28   D(8,11,14,15)         -49.4314         -DE/DX =    0.0                 !
 ! D29   D(8,11,14,16)        -164.8304         -DE/DX =    0.0                 !
 ! D30   D(8,11,14,17)          73.3787         -DE/DX =    0.0                 !
 ! D31   D(12,11,14,15)         72.4584         -DE/DX =    0.0                 !
 ! D32   D(12,11,14,16)        -42.9406         -DE/DX =    0.0                 !
 ! D33   D(12,11,14,17)       -164.7315         -DE/DX =    0.0                 !
 ! D34   D(13,11,14,15)       -172.0753         -DE/DX =    0.0                 !
 ! D35   D(13,11,14,16)         72.5257         -DE/DX =    0.0                 !
 ! D36   D(13,11,14,17)        -49.2652         -DE/DX =    0.0                 !
 ! D37   D(11,14,17,18)         59.5083         -DE/DX =    0.0                 !
 ! D38   D(11,14,17,19)        179.6294         -DE/DX =    0.0                 !
 ! D39   D(11,14,17,20)        -60.3454         -DE/DX =    0.0                 !
 ! D40   D(15,14,17,18)       -177.6049         -DE/DX =    0.0                 !
 ! D41   D(15,14,17,19)        -57.4838         -DE/DX =    0.0                 !
 ! D42   D(15,14,17,20)         62.5414         -DE/DX =    0.0                 !
 ! D43   D(16,14,17,18)        -62.1148         -DE/DX =    0.0                 !
 ! D44   D(16,14,17,19)         58.0063         -DE/DX =    0.0                 !
 ! D45   D(16,14,17,20)        178.0315         -DE/DX =    0.0                 !
 --------------------------------------------------------------------------------
 GradGradGradGradGradGradGradGradGradGradGradGradGradGradGradGradGradGrad

 Largest change from initial coordinates is atom    7       0.235 Angstoms.
 Leave Link  103 at Mon Sep 14 19:14:20 2015, MaxMem=  402653184 cpu:       0.0
 (Enter /share/apps/g09/l202.exe)
                          Input orientation:                          
 ---------------------------------------------------------------------
 Center     Atomic      Atomic             Coordinates (Angstroms)
 Number     Number       Type             X           Y           Z
 ---------------------------------------------------------------------
      1          6           0        0.024873    4.115119    1.226468
      2          1           0        0.002580    3.948085    2.309302
      3          1           0       -0.902343    4.633032    0.956364
      4          1           0        0.855516    4.797917    1.016549
      5          6           0        0.180207    2.804035    0.458721
      6          1           0        0.237008    3.011988   -0.627613
      7          1           0        1.143322    2.326965    0.725754
      8          6           0       -0.977927    1.837722    0.744537
      9          1           0       -1.940355    2.315003    0.477214
     10          1           0       -1.037578    1.632766    1.830390
     11          6           0       -0.817736    0.521712   -0.027983
     12          1           0        0.147824    0.049532    0.238690
     13          1           0       -0.761378    0.727563   -1.114210
     14          6           0       -1.958038   -0.467494    0.254455
     15          1           0       -2.109192   -0.565162    1.347389
     16          1           0       -1.659035   -1.474772   -0.097882
     17          6           0       -3.271691   -0.066684   -0.413524
     18          1           0       -3.166247   -0.002574   -1.502321
     19          1           0       -4.063422   -0.792854   -0.200171
     20          1           0       -3.618287    0.912201   -0.062527
 ---------------------------------------------------------------------
                    Distance matrix (angstroms):
                    1          2          3          4          5
     1  C    0.000000
     2  H    1.095868   0.000000
     3  H    1.095864   1.765922   0.000000
     4  H    1.095557   1.766614   1.766600   0.000000
     5  C    1.527254   2.182900   2.182840   2.177792   0.000000
     6  H    2.167837   3.091392   2.536708   2.505067   1.107516
     7  H    2.167750   2.537113   3.091257   2.504595   1.107472
     8  C    2.534641   2.804196   2.804344   3.492600   1.535163
     9  H    2.768379   3.130255   2.584630   3.777915   2.176299
    10  H    2.766875   2.583018   3.127907   3.776813   2.176315
    11  C    3.898232   4.227984   4.228363   4.709220   2.538065
    12  H    4.185669   4.416700   4.756719   4.863440   2.763467
    13  H    4.191956   4.761914   4.422650   4.870550   2.769915
    14  C    5.086952   5.250119   5.255714   6.018423   3.913657
    15  H    5.145279   5.074865   5.350758   6.136902   4.169241
    16  H    5.986346   6.161402   6.244140   6.849201   4.690502
    17  C    5.571749   5.852606   5.438542   6.537835   4.573559
    18  H    5.880896   6.338583   5.714826   6.750111   4.787639
    19  H    6.545048   6.730997   6.385157   7.545401   5.601797
    20  H    5.019244   5.287045   4.717953   6.023131   4.275429
                    6          7          8          9         10
     6  H    0.000000
     7  H    1.766993   0.000000
     8  C    2.176640   2.177018   0.000000
     9  H    2.539162   3.093700   1.107035   0.000000
    10  H    3.093316   2.541350   1.106636   1.763955   0.000000
    11  C    2.770112   2.769984   1.534383   2.175176   2.176310
    12  H    3.087812   2.532775   2.172744   3.090266   2.538763
    13  H    2.540108   3.093774   2.175841   2.538224   3.092952
    14  C    4.207501   4.201138   2.552414   2.791455   2.782429
    15  H    4.711825   4.396554   2.723425   3.013480   2.492496
    16  H    4.899654   4.794246   3.485139   3.843471   3.709614
    17  C    4.672796   5.149744   3.198316   2.870244   3.593682
    18  H    4.629778   5.381771   3.636455   3.285199   4.279315
    19  H    5.757884   6.140098   4.163254   3.824269   4.377505
    20  H    4.426255   5.029500   2.911949   2.252694   3.280612
                   11         12         13         14         15
    11  C    0.000000
    12  H    1.107418   0.000000
    13  H    1.106997   1.765422   0.000000
    14  C    1.535768   2.168460   2.175638   0.000000
    15  H    2.177338   2.588665   3.089857   1.107652   0.000000
    16  H    2.167629   2.387787   2.586309   1.108221   1.766024
    17  C    2.552792   3.483099   2.724603   1.527263   2.168110
    18  H    2.822065   3.743915   2.543055   2.182242   3.091071
    19  H    3.506024   4.317037   3.748417   2.178345   2.503158
    20  H    2.827854   3.875374   3.049928   2.181849   2.539259
                   16         17         18         19         20
    16  H    0.000000
    17  C    2.164025   0.000000
    18  H    2.532095   1.095767   0.000000
    19  H    2.501310   1.095299   1.767784   0.000000
    20  H    3.088294   1.096149   1.764698   1.767570   0.000000
 Stoichiometry    C6H14
 Framework group  C1[X(C6H14)]
 Deg. of freedom    54
 Full point group                 C1      NOp   1
 Largest Abelian subgroup         C1      NOp   1
 Largest concise Abelian subgroup C1      NOp   1
                         Standard orientation:                         
 ---------------------------------------------------------------------
 Center     Atomic      Atomic             Coordinates (Angstroms)
 Number     Number       Type             X           Y           Z
 ---------------------------------------------------------------------
      1          6           0        2.962469    0.522776    0.121835
      2          1           0        3.069335    0.534160    1.212421
      3          1           0        2.806670    1.557961   -0.202259
      4          1           0        3.917088    0.187324   -0.298189
      5          6           0        1.815490   -0.383240   -0.320975
      6          1           0        1.759582   -0.401291   -1.426931
      7          1           0        2.023049   -1.426260   -0.011909
      8          6           0        0.471402    0.076106    0.261396
      9          1           0        0.264322    1.118647   -0.048045
     10          1           0        0.528042    0.098135    1.366362
     11          6           0       -0.677985   -0.837022   -0.185187
     12          1           0       -0.465242   -1.879435    0.122207
     13          1           0       -0.735798   -0.855844   -1.290513
     14          6           0       -2.031463   -0.405320    0.398179
     15          1           0       -1.937207   -0.247796    1.490514
     16          1           0       -2.758604   -1.232719    0.276399
     17          6           0       -2.586228    0.857084   -0.258404
     18          1           0       -2.731526    0.719639   -1.335764
     19          1           0       -3.553529    1.136647    0.172704
     20          1           0       -1.908295    1.708530   -0.128062
 ---------------------------------------------------------------------
 Rotational constants (GHZ):      8.7203638      1.3433401      1.2613539
 Leave Link  202 at Mon Sep 14 19:14:21 2015, MaxMem=  402653184 cpu:       0.0
 (Enter /share/apps/g09/l601.exe)
 Copying SCF densities to generalized density rwf, IOpCl= 0 IROHF=0.

 **********************************************************************

            Population analysis using the SCF density.

 **********************************************************************

 Orbital symmetries:
       Occupied  (A) (A) (A) (A) (A) (A) (A) (A) (A) (A) (A) (A)
                 (A) (A) (A) (A) (A) (A) (A)
       Virtual   (A) (A) (A) (A) (A) (A) (A) (A) (A) (A) (A) (A)
                 (A) (A) (A) (A) (A) (A) (A)
 The electronic state is 1-A.
 Alpha  occ. eigenvalues --   -1.05608  -1.00007  -0.90946  -0.82318  -0.74682
 Alpha  occ. eigenvalues --   -0.72445  -0.59227  -0.56599  -0.54558  -0.51884
 Alpha  occ. eigenvalues --   -0.51560  -0.48744  -0.46900  -0.45624  -0.44065
 Alpha  occ. eigenvalues --   -0.42743  -0.41696  -0.40823  -0.40364
 Alpha virt. eigenvalues --    0.15266   0.15857   0.16863   0.17536   0.18484
 Alpha virt. eigenvalues --    0.20532   0.21137   0.21651   0.22086   0.22232
 Alpha virt. eigenvalues --    0.22768   0.22980   0.23596   0.24092   0.24463
 Alpha virt. eigenvalues --    0.24687   0.24960   0.25613   0.25898
          Condensed to atoms (all electrons):
              1          2          3          4          5          6
     1  C    4.463672   0.000000   0.000000   0.000000   0.000000   0.000000
     2  H    0.000000   0.853708   0.000000   0.000000   0.000000   0.000000
     3  H    0.000000   0.000000   0.853720   0.000000   0.000000   0.000000
     4  H    0.000000   0.000000   0.000000   0.856434   0.000000   0.000000
     5  C    0.000000   0.000000   0.000000   0.000000   4.224037   0.000000
     6  H    0.000000   0.000000   0.000000   0.000000   0.000000   0.874236
     7  H    0.000000   0.000000   0.000000   0.000000   0.000000   0.000000
     8  C    0.000000   0.000000   0.000000   0.000000   0.000000   0.000000
     9  H    0.000000   0.000000   0.000000   0.000000   0.000000   0.000000
    10  H    0.000000   0.000000   0.000000   0.000000   0.000000   0.000000
    11  C    0.000000   0.000000   0.000000   0.000000   0.000000   0.000000
    12  H    0.000000   0.000000   0.000000   0.000000   0.000000   0.000000
    13  H    0.000000   0.000000   0.000000   0.000000   0.000000   0.000000
    14  C    0.000000   0.000000   0.000000   0.000000   0.000000   0.000000
    15  H    0.000000   0.000000   0.000000   0.000000   0.000000   0.000000
    16  H    0.000000   0.000000   0.000000   0.000000   0.000000   0.000000
    17  C    0.000000   0.000000   0.000000   0.000000   0.000000   0.000000
    18  H    0.000000   0.000000   0.000000   0.000000   0.000000   0.000000
    19  H    0.000000   0.000000   0.000000   0.000000   0.000000   0.000000
    20  H    0.000000   0.000000   0.000000   0.000000   0.000000   0.000000
              7          8          9         10         11         12
     1  C    0.000000   0.000000   0.000000   0.000000   0.000000   0.000000
     2  H    0.000000   0.000000   0.000000   0.000000   0.000000   0.000000
     3  H    0.000000   0.000000   0.000000   0.000000   0.000000   0.000000
     4  H    0.000000   0.000000   0.000000   0.000000   0.000000   0.000000
     5  C    0.000000   0.000000   0.000000   0.000000   0.000000   0.000000
     6  H    0.000000   0.000000   0.000000   0.000000   0.000000   0.000000
     7  H    0.874711   0.000000   0.000000   0.000000   0.000000   0.000000
     8  C    0.000000   4.259831   0.000000   0.000000   0.000000   0.000000
     9  H    0.000000   0.000000   0.866834   0.000000   0.000000   0.000000
    10  H    0.000000   0.000000   0.000000   0.869383   0.000000   0.000000
    11  C    0.000000   0.000000   0.000000   0.000000   4.266597   0.000000
    12  H    0.000000   0.000000   0.000000   0.000000   0.000000   0.873047
    13  H    0.000000   0.000000   0.000000   0.000000   0.000000   0.000000
    14  C    0.000000   0.000000   0.000000   0.000000   0.000000   0.000000
    15  H    0.000000   0.000000   0.000000   0.000000   0.000000   0.000000
    16  H    0.000000   0.000000   0.000000   0.000000   0.000000   0.000000
    17  C    0.000000   0.000000   0.000000   0.000000   0.000000   0.000000
    18  H    0.000000   0.000000   0.000000   0.000000   0.000000   0.000000
    19  H    0.000000   0.000000   0.000000   0.000000   0.000000   0.000000
    20  H    0.000000   0.000000   0.000000   0.000000   0.000000   0.000000
             13         14         15         16         17         18
     1  C    0.000000   0.000000   0.000000   0.000000   0.000000   0.000000
     2  H    0.000000   0.000000   0.000000   0.000000   0.000000   0.000000
     3  H    0.000000   0.000000   0.000000   0.000000   0.000000   0.000000
     4  H    0.000000   0.000000   0.000000   0.000000   0.000000   0.000000
     5  C    0.000000   0.000000   0.000000   0.000000   0.000000   0.000000
     6  H    0.000000   0.000000   0.000000   0.000000   0.000000   0.000000
     7  H    0.000000   0.000000   0.000000   0.000000   0.000000   0.000000
     8  C    0.000000   0.000000   0.000000   0.000000   0.000000   0.000000
     9  H    0.000000   0.000000   0.000000   0.000000   0.000000   0.000000
    10  H    0.000000   0.000000   0.000000   0.000000   0.000000   0.000000
    11  C    0.000000   0.000000   0.000000   0.000000   0.000000   0.000000
    12  H    0.000000   0.000000   0.000000   0.000000   0.000000   0.000000
    13  H    0.867273   0.000000   0.000000   0.000000   0.000000   0.000000
    14  C    0.000000   4.220344   0.000000   0.000000   0.000000   0.000000
    15  H    0.000000   0.000000   0.873454   0.000000   0.000000   0.000000
    16  H    0.000000   0.000000   0.000000   0.877549   0.000000   0.000000
    17  C    0.000000   0.000000   0.000000   0.000000   4.459664   0.000000
    18  H    0.000000   0.000000   0.000000   0.000000   0.000000   0.854334
    19  H    0.000000   0.000000   0.000000   0.000000   0.000000   0.000000
    20  H    0.000000   0.000000   0.000000   0.000000   0.000000   0.000000
             19         20
     1  C    0.000000   0.000000
     2  H    0.000000   0.000000
     3  H    0.000000   0.000000
     4  H    0.000000   0.000000
     5  C    0.000000   0.000000
     6  H    0.000000   0.000000
     7  H    0.000000   0.000000
     8  C    0.000000   0.000000
     9  H    0.000000   0.000000
    10  H    0.000000   0.000000
    11  C    0.000000   0.000000
    12  H    0.000000   0.000000
    13  H    0.000000   0.000000
    14  C    0.000000   0.000000
    15  H    0.000000   0.000000
    16  H    0.000000   0.000000
    17  C    0.000000   0.000000
    18  H    0.000000   0.000000
    19  H    0.858431   0.000000
    20  H    0.000000   0.852743
 Mulliken atomic charges:
              1
     1  C   -0.463672
     2  H    0.146292
     3  H    0.146280
     4  H    0.143566
     5  C   -0.224037
     6  H    0.125764
     7  H    0.125289
     8  C   -0.259831
     9  H    0.133166
    10  H    0.130617
    11  C   -0.266597
    12  H    0.126953
    13  H    0.132727
    14  C   -0.220344
    15  H    0.126546
    16  H    0.122451
    17  C   -0.459664
    18  H    0.145666
    19  H    0.141569
    20  H    0.147257
 Sum of Mulliken atomic charges =   0.00000
 Mulliken charges with hydrogens summed into heavy atoms:
              1
     1  C   -0.027533
     5  C    0.027016
     8  C    0.003952
    11  C   -0.006916
    14  C    0.028653
    17  C   -0.025172
 Sum of Mulliken charges with hydrogens summed into heavy atoms =   0.00000
 Charge=              0.0000 electrons
 Dipole moment (field-independent basis, Debye):
    X=              0.0069    Y=              0.0669    Z=             -0.0067  Tot=              0.0676
 N-N= 1.627607493302D+02 E-N=-2.465289300128D+02  KE=-5.608936551089D+01
 Leave Link  601 at Mon Sep 14 19:14:21 2015, MaxMem=  402653184 cpu:       0.1
 (Enter /share/apps/g09/l9999.exe)
 1\1\GINC-COMPUTE-0-10\FOpt\RPM6\ZDO\C6H14\HETANJIN\14-Sep-2015\0\\#p P
 M6 opt\\using PM6 to do opt and freq calc.\\0,1\C,0.0248727204,4.11511
 92665,1.2264677499\H,0.0025797498,3.9480845698,2.3093015816\H,-0.90234
 2746,4.6330320029,0.956363636\H,0.8555157193,4.7979167877,1.0165490295
 \C,0.1802066727,2.8040350669,0.4587205268\H,0.2370077879,3.0119883032,
 -0.6276133329\H,1.143322403,2.3269654275,0.7257539488\C,-0.9779265065,
 1.8377216878,0.7445365687\H,-1.9403550251,2.3150026423,0.4772140683\H,
 -1.0375776755,1.6327662834,1.830390182\C,-0.8177364959,0.5217115046,-0
 .0279828881\H,0.1478244062,0.0495321296,0.2386898285\H,-0.7613779468,0
 .7275634993,-1.114210287\C,-1.9580376014,-0.4674936065,0.2544548749\H,
 -2.1091922023,-0.56516237,1.3473893652\H,-1.6590350698,-1.4747722147,-
 0.0978819335\C,-3.2716914175,-0.0666838563,-0.4135242333\H,-3.16624715
 02,-0.0025743353,-1.5023206256\H,-4.0634222822,-0.7928537326,-0.200170
 8313\H,-3.6182873401,0.9122009441,-0.0625272284\\Version=EM64L-G09RevA
 .01\State=1-A\HF=-0.0563432\RMSD=3.057e-09\RMSF=6.965e-06\Dipole=-0.02
 02825,0.0171927,0.0001268\PG=C01 [X(C6H14)]\\@


 TOWERING GENIUS DISDAINS A BEATEN PATH.  IT SEEKS 
 REGIONS HITHERTO UNEXPLORED.

                                -- ABRAHAM LINCOLN
 Job cpu time:  0 days  0 hours  0 minutes 18.9 seconds.
 File lengths (MBytes):  RWF=      5 Int=      0 D2E=      0 Chk=      3 Scr=      1
 Normal termination of Gaussian 09 at Mon Sep 14 19:14:22 2015.
