using PM6 to do opt and freq calc.                                      
FOpt      RPM6                                                        ZDO                 
Number of atoms                            I               20
Info1-9                                    I   N=           9
          33          29           0           0           0         110
           2           8         302
Charge                                     I                0
Multiplicity                               I                1
Number of electrons                        I               38
Number of alpha electrons                  I               19
Number of beta electrons                   I               19
Number of basis functions                  I               38
Number of independent functions            I               38
Number of point charges in /Mol/           I                0
Number of translation vectors              I                0
Atomic numbers                             I   N=          20
           6           1           1           1           6           1
           1           6           1           1           6           1
           1           6           1           1           6           1
           1           1
Nuclear charges                            R   N=          20
  4.00000000E+00  1.00000000E+00  1.00000000E+00  1.00000000E+00  4.00000000E+00
  1.00000000E+00  1.00000000E+00  4.00000000E+00  1.00000000E+00  1.00000000E+00
  4.00000000E+00  1.00000000E+00  1.00000000E+00  4.00000000E+00  1.00000000E+00
  1.00000000E+00  4.00000000E+00  1.00000000E+00  1.00000000E+00  1.00000000E+00
Current cartesian coordinates              R   N=          60
  5.59825532E+00  9.87902695E-01  2.30235501E-01  5.80020186E+00  1.00941576E+00
  2.29114351E+00  5.30383817E+00  2.94411905E+00 -3.82213237E-01  7.40222434E+00
  3.53991329E-01 -5.63495492E-01  3.43077846E+00 -7.24218274E-01 -6.06554086E-01
  3.32512758E+00 -7.58330036E-01 -2.69650970E+00  3.82300914E+00 -2.69524139E+00
 -2.25050177E-02  8.90821521E-01  1.43820189E-01  4.93966305E-01  4.99495860E-01
  2.11393657E+00 -9.07920830E-02  9.97855115E-01  1.85448948E-01  2.58204930E+00
 -1.28120563E+00 -1.58174149E+00 -3.49953061E-01 -8.79180882E-01 -3.55161679E+00
  2.30937673E-01 -1.39045613E+00 -1.61731152E+00 -2.43871572E+00 -3.83890811E+00
 -7.65944734E-01  7.52449650E-01 -3.66079141E+00 -4.68267094E-01  2.81666279E+00
 -5.21300695E+00 -2.32950137E+00  5.22318415E-01 -4.88726303E+00  1.61965337E+00
 -4.88313319E-01 -5.16183635E+00  1.35992010E+00 -2.52422773E+00 -6.71519590E+00
  2.14795202E+00  3.26363008E-01 -3.60615564E+00  3.22865390E+00 -2.42001652E-01
Force Field                                I                0
Int Atom Types                             I   N=          20
           0           0           0           0           0           0
           0           0           0           0           0           0
           0           0           0           0           0           0
           0           0
MM charges                                 R   N=          20
  0.00000000E+00  0.00000000E+00  0.00000000E+00  0.00000000E+00  0.00000000E+00
  0.00000000E+00  0.00000000E+00  0.00000000E+00  0.00000000E+00  0.00000000E+00
  0.00000000E+00  0.00000000E+00  0.00000000E+00  0.00000000E+00  0.00000000E+00
  0.00000000E+00  0.00000000E+00  0.00000000E+00  0.00000000E+00  0.00000000E+00
Integer atomic weights                     I   N=          20
          12           1           1           1          12           1
           1          12           1           1          12           1
           1          12           1           1          12           1
           1           1
Real atomic weights                        R   N=          20
  1.20000000E+01  1.00782504E+00  1.00782504E+00  1.00782504E+00  1.20000000E+01
  1.00782504E+00  1.00782504E+00  1.20000000E+01  1.00782504E+00  1.00782504E+00
  1.20000000E+01  1.00782504E+00  1.00782504E+00  1.20000000E+01  1.00782504E+00
  1.00782504E+00  1.20000000E+01  1.00782504E+00  1.00782504E+00  1.00782504E+00
Atom fragment info                         I   N=          20
           0           0           0           0           0           0
           0           0           0           0           0           0
           0           0           0           0           0           0
           0           0
Atom residue num                           I   N=          20
           0           0           0           0           0           0
           0           0           0           0           0           0
           0           0           0           0           0           0
           0           0
Nuclear spins                              I   N=          20
           0           1           1           1           0           1
           1           0           1           1           0           1
           1           0           1           1           0           1
           1           1
Nuclear ZEff                               R   N=          20
 -3.90000000E+00 -1.00000000E+00 -1.00000000E+00 -1.00000000E+00 -3.90000000E+00
 -1.00000000E+00 -1.00000000E+00 -3.90000000E+00 -1.00000000E+00 -1.00000000E+00
 -3.90000000E+00 -1.00000000E+00 -1.00000000E+00 -3.90000000E+00 -1.00000000E+00
 -1.00000000E+00 -3.90000000E+00 -1.00000000E+00 -1.00000000E+00 -1.00000000E+00
Nuclear QMom                               R   N=          20
  0.00000000E+00  0.00000000E+00  0.00000000E+00  0.00000000E+00  0.00000000E+00
  0.00000000E+00  0.00000000E+00  0.00000000E+00  0.00000000E+00  0.00000000E+00
  0.00000000E+00  0.00000000E+00  0.00000000E+00  0.00000000E+00  0.00000000E+00
  0.00000000E+00  0.00000000E+00  0.00000000E+00  0.00000000E+00  0.00000000E+00
Nuclear GFac                               R   N=          20
  0.00000000E+00  2.79284600E+00  2.79284600E+00  2.79284600E+00  0.00000000E+00
  2.79284600E+00  2.79284600E+00  0.00000000E+00  2.79284600E+00  2.79284600E+00
  0.00000000E+00  2.79284600E+00  2.79284600E+00  0.00000000E+00  2.79284600E+00
  2.79284600E+00  0.00000000E+00  2.79284600E+00  2.79284600E+00  2.79284600E+00
MicOpt                                     I   N=          20
          -1          -1          -1          -1          -1          -1
          -1          -1          -1          -1          -1          -1
          -1          -1          -1          -1          -1          -1
          -1          -1
Number of contracted shells                I               20
Number of primitive shells                 I              120
Pure/Cartesian d shells                    I                0
Pure/Cartesian f shells                    I                0
Highest angular momentum                   I                1
Largest degree of contraction              I                6
Shell types                                I   N=          20
          -1           0           0           0          -1           0
           0          -1           0           0          -1           0
           0          -1           0           0          -1           0
           0           0
Number of primitives per shell             I   N=          20
           6           6           6           6           6           6
           6           6           6           6           6           6
           6           6           6           6           6           6
           6           6
Shell to atom map                          I   N=          20
           1           2           3           4           5           6
           7           8           9          10          11          12
          13          14          15          16          17          18
          19          20
Primitive exponents                        R   N=         120
  1.14476344E+01  3.29633588E+00  1.29653143E+00  5.92558930E-01  2.94896438E-01
  1.51447622E-01  4.39461478E+00  1.26542531E+00  4.97723458E-01  2.27476537E-01
  1.13207340E-01  5.81389949E-02  4.39461478E+00  1.26542531E+00  4.97723458E-01
  2.27476537E-01  1.13207340E-01  5.81389949E-02  4.39461478E+00  1.26542531E+00
  4.97723458E-01  2.27476537E-01  1.13207340E-01  5.81389949E-02  1.14476344E+01
  3.29633588E+00  1.29653143E+00  5.92558930E-01  2.94896438E-01  1.51447622E-01
  4.39461478E+00  1.26542531E+00  4.97723458E-01  2.27476537E-01  1.13207340E-01
  5.81389949E-02  4.39461478E+00  1.26542531E+00  4.97723458E-01  2.27476537E-01
  1.13207340E-01  5.81389949E-02  1.14476344E+01  3.29633588E+00  1.29653143E+00
  5.92558930E-01  2.94896438E-01  1.51447622E-01  4.39461478E+00  1.26542531E+00
  4.97723458E-01  2.27476537E-01  1.13207340E-01  5.81389949E-02  4.39461478E+00
  1.26542531E+00  4.97723458E-01  2.27476537E-01  1.13207340E-01  5.81389949E-02
  1.14476344E+01  3.29633588E+00  1.29653143E+00  5.92558930E-01  2.94896438E-01
  1.51447622E-01  4.39461478E+00  1.26542531E+00  4.97723458E-01  2.27476537E-01
  1.13207340E-01  5.81389949E-02  4.39461478E+00  1.26542531E+00  4.97723458E-01
  2.27476537E-01  1.13207340E-01  5.81389949E-02  1.14476344E+01  3.29633588E+00
  1.29653143E+00  5.92558930E-01  2.94896438E-01  1.51447622E-01  4.39461478E+00
  1.26542531E+00  4.97723458E-01  2.27476537E-01  1.13207340E-01  5.81389949E-02
  4.39461478E+00  1.26542531E+00  4.97723458E-01  2.27476537E-01  1.13207340E-01
  5.81389949E-02  1.14476344E+01  3.29633588E+00  1.29653143E+00  5.92558930E-01
  2.94896438E-01  1.51447622E-01  4.39461478E+00  1.26542531E+00  4.97723458E-01
  2.27476537E-01  1.13207340E-01  5.81389949E-02  4.39461478E+00  1.26542531E+00
  4.97723458E-01  2.27476537E-01  1.13207340E-01  5.81389949E-02  4.39461478E+00
  1.26542531E+00  4.97723458E-01  2.27476537E-01  1.13207340E-01  5.81389949E-02
Contraction coefficients                   R   N=         120
 -9.73739553E-03 -7.26587678E-02 -1.71615520E-01  1.28977624E-01  7.28861451E-01
  3.01331742E-01 -9.73739553E-03 -7.26587678E-02 -1.71615520E-01  1.28977624E-01
  7.28861451E-01  3.01331742E-01 -9.73739553E-03 -7.26587678E-02 -1.71615520E-01
  1.28977624E-01  7.28861451E-01  3.01331742E-01 -9.73739553E-03 -7.26587678E-02
 -1.71615520E-01  1.28977624E-01  7.28861451E-01  3.01331742E-01 -9.73739553E-03
 -7.26587678E-02 -1.71615520E-01  1.28977624E-01  7.28861451E-01  3.01331742E-01
 -9.73739553E-03 -7.26587678E-02 -1.71615520E-01  1.28977624E-01  7.28861451E-01
  3.01331742E-01 -9.73739553E-03 -7.26587678E-02 -1.71615520E-01  1.28977624E-01
  7.28861451E-01  3.01331742E-01 -9.73739553E-03 -7.26587678E-02 -1.71615520E-01
  1.28977624E-01  7.28861451E-01  3.01331742E-01 -9.73739553E-03 -7.26587678E-02
 -1.71615520E-01  1.28977624E-01  7.28861451E-01  3.01331742E-01 -9.73739553E-03
 -7.26587678E-02 -1.71615520E-01  1.28977624E-01  7.28861451E-01  3.01331742E-01
 -9.73739553E-03 -7.26587678E-02 -1.71615520E-01  1.28977624E-01  7.28861451E-01
  3.01331742E-01 -9.73739553E-03 -7.26587678E-02 -1.71615520E-01  1.28977624E-01
  7.28861451E-01  3.01331742E-01 -9.73739553E-03 -7.26587678E-02 -1.71615520E-01
  1.28977624E-01  7.28861451E-01  3.01331742E-01 -9.73739553E-03 -7.26587678E-02
 -1.71615520E-01  1.28977624E-01  7.28861451E-01  3.01331742E-01 -9.73739553E-03
 -7.26587678E-02 -1.71615520E-01  1.28977624E-01  7.28861451E-01  3.01331742E-01
 -9.73739553E-03 -7.26587678E-02 -1.71615520E-01  1.28977624E-01  7.28861451E-01
  3.01331742E-01 -9.73739553E-03 -7.26587678E-02 -1.71615520E-01  1.28977624E-01
  7.28861451E-01  3.01331742E-01 -9.73739553E-03 -7.26587678E-02 -1.71615520E-01
  1.28977624E-01  7.28861451E-01  3.01331742E-01 -9.73739553E-03 -7.26587678E-02
 -1.71615520E-01  1.28977624E-01  7.28861451E-01  3.01331742E-01 -9.73739553E-03
 -7.26587678E-02 -1.71615520E-01  1.28977624E-01  7.28861451E-01  3.01331742E-01
P(S=P) Contraction coefficients            R   N=         120
 -8.10494336E-03 -1.71547892E-02  7.36978576E-02  3.96514999E-01  4.97808488E-01
  1.17482582E-01  0.00000000E+00  0.00000000E+00  0.00000000E+00  0.00000000E+00
  0.00000000E+00  0.00000000E+00  0.00000000E+00  0.00000000E+00  0.00000000E+00
  0.00000000E+00  0.00000000E+00  0.00000000E+00  0.00000000E+00  0.00000000E+00
  0.00000000E+00  0.00000000E+00  0.00000000E+00  0.00000000E+00 -8.10494336E-03
 -1.71547892E-02  7.36978576E-02  3.96514999E-01  4.97808488E-01  1.17482582E-01
  0.00000000E+00  0.00000000E+00  0.00000000E+00  0.00000000E+00  0.00000000E+00
  0.00000000E+00  0.00000000E+00  0.00000000E+00  0.00000000E+00  0.00000000E+00
  0.00000000E+00  0.00000000E+00 -8.10494336E-03 -1.71547892E-02  7.36978576E-02
  3.96514999E-01  4.97808488E-01  1.17482582E-01  0.00000000E+00  0.00000000E+00
  0.00000000E+00  0.00000000E+00  0.00000000E+00  0.00000000E+00  0.00000000E+00
  0.00000000E+00  0.00000000E+00  0.00000000E+00  0.00000000E+00  0.00000000E+00
 -8.10494336E-03 -1.71547892E-02  7.36978576E-02  3.96514999E-01  4.97808488E-01
  1.17482582E-01  0.00000000E+00  0.00000000E+00  0.00000000E+00  0.00000000E+00
  0.00000000E+00  0.00000000E+00  0.00000000E+00  0.00000000E+00  0.00000000E+00
  0.00000000E+00  0.00000000E+00  0.00000000E+00 -8.10494336E-03 -1.71547892E-02
  7.36978576E-02  3.96514999E-01  4.97808488E-01  1.17482582E-01  0.00000000E+00
  0.00000000E+00  0.00000000E+00  0.00000000E+00  0.00000000E+00  0.00000000E+00
  0.00000000E+00  0.00000000E+00  0.00000000E+00  0.00000000E+00  0.00000000E+00
  0.00000000E+00 -8.10494336E-03 -1.71547892E-02  7.36978576E-02  3.96514999E-01
  4.97808488E-01  1.17482582E-01  0.00000000E+00  0.00000000E+00  0.00000000E+00
  0.00000000E+00  0.00000000E+00  0.00000000E+00  0.00000000E+00  0.00000000E+00
  0.00000000E+00  0.00000000E+00  0.00000000E+00  0.00000000E+00  0.00000000E+00
  0.00000000E+00  0.00000000E+00  0.00000000E+00  0.00000000E+00  0.00000000E+00
Coordinates of each shell                  R   N=          60
  5.59825532E+00  9.87902695E-01  2.30235501E-01  5.80020186E+00  1.00941576E+00
  2.29114351E+00  5.30383817E+00  2.94411905E+00 -3.82213237E-01  7.40222434E+00
  3.53991329E-01 -5.63495492E-01  3.43077846E+00 -7.24218274E-01 -6.06554086E-01
  3.32512758E+00 -7.58330036E-01 -2.69650970E+00  3.82300914E+00 -2.69524139E+00
 -2.25050177E-02  8.90821521E-01  1.43820189E-01  4.93966305E-01  4.99495860E-01
  2.11393657E+00 -9.07920830E-02  9.97855115E-01  1.85448948E-01  2.58204930E+00
 -1.28120563E+00 -1.58174149E+00 -3.49953061E-01 -8.79180882E-01 -3.55161679E+00
  2.30937673E-01 -1.39045613E+00 -1.61731152E+00 -2.43871572E+00 -3.83890811E+00
 -7.65944734E-01  7.52449650E-01 -3.66079141E+00 -4.68267094E-01  2.81666279E+00
 -5.21300695E+00 -2.32950137E+00  5.22318415E-01 -4.88726303E+00  1.61965337E+00
 -4.88313319E-01 -5.16183635E+00  1.35992010E+00 -2.52422773E+00 -6.71519590E+00
  2.14795202E+00  3.26363008E-01 -3.60615564E+00  3.22865390E+00 -2.42001652E-01
Constraint Structure                       R   N=          60
  5.60990087E+00  1.01619395E+00  2.10687052E-01  5.69507844E+00  1.28364976E+00
  2.29683164E+00  5.32380134E+00  2.88540269E+00 -7.14177578E-01  7.44349462E+00
  2.15650985E-01 -4.41327816E-01  3.46562044E+00 -7.84863445E-01 -4.82333567E-01
  3.45948225E+00 -1.05024714E+00 -2.57229840E+00  3.83865404E+00 -2.64979659E+00
  4.24132064E-01  8.83114265E-01  2.11050170E-01  3.77411486E-01  5.54271185E-01
  2.08964592E+00 -5.15313916E-01  9.02274862E-01  4.56595143E-01  2.47007515E+00
 -1.27317826E+00 -1.58916334E+00 -3.51941307E-01 -8.37329924E-01 -3.50446313E+00
  4.11037254E-01 -1.38385803E+00 -1.74353077E+00 -2.45065646E+00 -3.86647049E+00
 -8.06370909E-01  6.90519519E-01 -3.76350637E+00 -6.26394868E-01  2.78660494E+00
 -5.23781330E+00 -2.34266817E+00  2.46590935E-01 -4.89837845E+00  1.65082972E+00
 -4.21649577E-01 -4.92692674E+00  1.55245794E+00 -2.52371990E+00 -6.86405806E+00
  1.95744083E+00  2.64327143E-01 -3.72721464E+00  3.29020054E+00  1.81733307E-01
Num ILSW                                   I              100
ILSW                                       I   N=         100
           0           0           0           0           2           0
           0           0           0           0           0          -1
           0           0           0           0           0           0
           0           0           0           0           1           0
           1           0           0           0           0           0
           0           0      100000           0          -1           0
           0           0           0           0           0           0
           0           0           0          40           0           0
           0           0           1           0           0           0
           0           0           4          40           0           0
           0           0           0           0           0           0
           0           0           0           0           0           0
           0           0           0           0           0           0
           0           0           0           0           0           0
           0           0           0           0           0           0
           0           0           0           0           0           0
           0           0           0           0
Num RLSW                                   I               40
RLSW                                       R   N=          40
  1.00000000E+00  1.00000000E+00  1.00000000E+00  1.00000000E+00  1.00000000E+00
  0.00000000E+00  0.00000000E+00  1.00000000E+00  0.00000000E+00  0.00000000E+00
  0.00000000E+00  0.00000000E+00  1.00000000E+00  0.00000000E+00  0.00000000E+00
  0.00000000E+00  0.00000000E+00  1.00000000E+00  0.00000000E+00  0.00000000E+00
  0.00000000E+00  0.00000000E+00  1.00000000E+00  0.00000000E+00  0.00000000E+00
  0.00000000E+00  0.00000000E+00  1.00000000E+00  0.00000000E+00  0.00000000E+00
  0.00000000E+00  0.00000000E+00  0.00000000E+00  0.00000000E+00  0.00000000E+00
  0.00000000E+00  0.00000000E+00  0.00000000E+00  1.00000000E+00  1.00000000E+00
MxBond                                     I                4
NBond                                      I   N=          20
           4           1           1           1           4           1
           1           4           1           1           4           1
           1           4           1           1           4           1
           1           1
IBond                                      I   N=          80
           2           3           4           5           1           0
           0           0           1           0           0           0
           1           0           0           0           1           6
           7           8           5           0           0           0
           5           0           0           0           5           9
          10          11           8           0           0           0
           8           0           0           0           8          12
          13          14          11           0           0           0
          11           0           0           0          11          15
          16          17          14           0           0           0
          14           0           0           0          14          18
          19          20          17           0           0           0
          17           0           0           0          17           0
           0           0
RBond                                      R   N=          80
  1.00000000E+00  1.00000000E+00  1.00000000E+00  1.00000000E+00  1.00000000E+00
  0.00000000E+00  0.00000000E+00  0.00000000E+00  1.00000000E+00  0.00000000E+00
  0.00000000E+00  0.00000000E+00  1.00000000E+00  0.00000000E+00  0.00000000E+00
  0.00000000E+00  1.00000000E+00  1.00000000E+00  1.00000000E+00  1.00000000E+00
  1.00000000E+00  0.00000000E+00  0.00000000E+00  0.00000000E+00  1.00000000E+00
  0.00000000E+00  0.00000000E+00  0.00000000E+00  1.00000000E+00  1.00000000E+00
  1.00000000E+00  1.00000000E+00  1.00000000E+00  0.00000000E+00  0.00000000E+00
  0.00000000E+00  1.00000000E+00  0.00000000E+00  0.00000000E+00  0.00000000E+00
  1.00000000E+00  1.00000000E+00  1.00000000E+00  1.00000000E+00  1.00000000E+00
  0.00000000E+00  0.00000000E+00  0.00000000E+00  1.00000000E+00  0.00000000E+00
  0.00000000E+00  0.00000000E+00  1.00000000E+00  1.00000000E+00  1.00000000E+00
  1.00000000E+00  1.00000000E+00  0.00000000E+00  0.00000000E+00  0.00000000E+00
  1.00000000E+00  0.00000000E+00  0.00000000E+00  0.00000000E+00  1.00000000E+00
  1.00000000E+00  1.00000000E+00  1.00000000E+00  1.00000000E+00  0.00000000E+00
  0.00000000E+00  0.00000000E+00  1.00000000E+00  0.00000000E+00  0.00000000E+00
  0.00000000E+00  1.00000000E+00  0.00000000E+00  0.00000000E+00  0.00000000E+00
Virial Ratio                               R      9.989954739384572E-01
SCF Energy                                 R     -5.634322943109282E-02
Total Energy                               R     -5.634322943109282E-02
RMS Force                                  R      6.964556121259186E-06
RMS Density                                R      3.056921242389086E-09
External E-field                           R   N=          35
  0.00000000E+00  0.00000000E+00  0.00000000E+00  0.00000000E+00  0.00000000E+00
  0.00000000E+00  0.00000000E+00  0.00000000E+00  0.00000000E+00  0.00000000E+00
  0.00000000E+00  0.00000000E+00  0.00000000E+00  0.00000000E+00  0.00000000E+00
  0.00000000E+00  0.00000000E+00  0.00000000E+00  0.00000000E+00  0.00000000E+00
  0.00000000E+00  0.00000000E+00  0.00000000E+00  0.00000000E+00  0.00000000E+00
  0.00000000E+00  0.00000000E+00  0.00000000E+00  0.00000000E+00  0.00000000E+00
  0.00000000E+00  0.00000000E+00  0.00000000E+00  0.00000000E+00  0.00000000E+00
IOpCl                                      I                0
IROHF                                      I                0
Alpha Orbital Energies                     R   N=          38
 -1.05608240E+00 -1.00007027E+00 -9.09463594E-01 -8.23182258E-01 -7.46819589E-01
 -7.24453284E-01 -5.92271514E-01 -5.65992942E-01 -5.45582003E-01 -5.18840595E-01
 -5.15599443E-01 -4.87436220E-01 -4.69002054E-01 -4.56244026E-01 -4.40646571E-01
 -4.27429107E-01 -4.16959332E-01 -4.08227713E-01 -4.03641882E-01  1.52661394E-01
  1.58570114E-01  1.68634656E-01  1.75363741E-01  1.84844151E-01  2.05319368E-01
  2.11365180E-01  2.16513877E-01  2.20864569E-01  2.22317936E-01  2.27684062E-01
  2.29795409E-01  2.35956899E-01  2.40916686E-01  2.44634784E-01  2.46865527E-01
  2.49600809E-01  2.56131259E-01  2.58983174E-01
Alpha MO coefficients                      R   N=        1444
  2.19449287E-01 -6.42173879E-02 -3.50030979E-02 -1.35562043E-02  9.44650821E-02
  9.46122858E-02  8.36109397E-02  3.43149117E-01 -5.52346714E-02  3.47285841E-02
  3.48659834E-02  1.44474076E-01  1.44056680E-01  4.19101400E-01 -1.30178934E-02
 -5.27549136E-02 -3.89150041E-02  1.80748746E-01  1.76294615E-01  4.16381672E-01
  1.01174936E-02  6.42715080E-02  3.74488370E-02  1.70893149E-01  1.76135159E-01
  3.53167445E-01  6.50908303E-02  1.84693626E-02 -4.12770837E-02  1.49659855E-01
  1.38125079E-01  2.48096096E-01  4.58739221E-02 -5.94518524E-02  2.50098978E-02
  1.06146031E-01  9.39405951E-02  1.14457677E-01  3.99008111E-01 -6.69691122E-02
 -4.83033197E-02 -2.21632921E-02  1.70242603E-01  1.69907719E-01  1.67351193E-01
  4.09805142E-01  4.91743085E-02  5.77765513E-02  3.40580785E-02  1.67145415E-01
  1.68294695E-01  1.57581769E-01  1.57457033E-01  6.64774225E-04 -2.22451891E-02
  5.64257818E-02  6.48485311E-02 -1.64325538E-01  1.39390716E-01 -1.49158696E-02
 -2.13131032E-02 -5.55461676E-02 -6.78048715E-02 -3.87742711E-01  1.24760196E-02
 -4.40068369E-02  4.09466965E-02 -1.58006049E-01 -1.66962502E-01 -3.53065516E-01
 -2.83847787E-02  6.79674395E-02 -3.14210500E-02 -1.50758411E-01 -1.48920904E-01
 -1.45869764E-01  3.98989012E-01  2.46387505E-02 -4.11691666E-03 -8.58961672E-03
  1.77664139E-01  1.78601041E-01  1.96338946E-01  7.27347268E-02  1.99311031E-01
  5.63465269E-02  1.52758674E-04  2.54283833E-02  2.24812121E-02 -3.13079159E-01
  1.01274340E-01  7.17933666E-02  1.80347454E-02 -1.08797962E-01 -1.25709618E-01
 -3.46322259E-01 -1.19923392E-01 -2.89270408E-03 -1.62097516E-02 -1.69268903E-01
 -1.40786529E-01  1.27786733E-01 -1.65927853E-01  1.25693208E-01 -1.56396471E-02
  4.96308022E-02  6.66366394E-02  4.27118718E-01 -3.20591636E-02 -1.79083629E-03
  1.30145052E-02  1.89533597E-01  2.13412697E-01  1.79970794E-01 -3.21940514E-01
 -1.11847156E-01 -5.15253176E-02 -1.90356901E-02 -1.62544979E-01 -1.60341740E-01
 -1.88615579E-01  1.77163074E-01 -1.77573017E-01 -3.10457399E-02  2.74235939E-03
  8.18639447E-02  7.53451991E-02  2.95836026E-01  1.08614438E-01  4.99960649E-02
 -1.11660901E-02  1.54931342E-01  1.26423203E-01 -2.60262352E-01  1.85584368E-01
  1.02786179E-01 -2.12078016E-02 -1.54271252E-01 -1.07258238E-01 -2.82645056E-01
 -9.77053662E-02  1.90443697E-01 -3.08275548E-02 -1.30815814E-01 -1.69366933E-01
  3.48682736E-01 -5.25764506E-02  1.33308250E-01 -4.84088171E-02  1.78708942E-01
  1.93418457E-01  2.00426827E-01 -2.43658911E-01 -1.37595926E-01 -1.90843642E-01
 -1.10339328E-01 -1.87329689E-01 -1.89253996E-01 -1.23718717E-01  4.51829411E-01
  4.00543711E-02 -1.94132199E-01 -1.41915631E-01  2.89019679E-01  2.94301436E-01
 -2.77179118E-01  1.71737150E-01 -1.37316261E-01 -1.14714919E-01 -2.07430947E-01
 -1.90898958E-01 -5.38589295E-02 -9.88642390E-02 -1.11879711E-01 -3.09886647E-02
  2.62488135E-02  8.81344737E-04  1.87071694E-01 -8.51985048E-02 -8.08983913E-02
  3.24052548E-02  8.82237987E-02  1.52041078E-01 -7.19246353E-02 -1.50021677E-02
 -9.71529660E-02  4.25487439E-02 -4.86418806E-02 -2.98941185E-02 -8.86179776E-02
  5.43301342E-02  6.72311462E-02 -9.97378634E-03 -2.69368123E-02  1.03567217E-02
  1.66032443E-02  6.78264940E-02  3.67656878E-03  6.14906707E-02 -8.10365035E-02
 -8.82373028E-02  5.81623722E-02  4.29463833E-02 -2.30417299E-01 -9.10454788E-02
 -1.68911742E-01 -1.53090279E-01 -1.58985075E-01 -2.05879309E-01  3.62889737E-01
  7.48801405E-02 -1.51396397E-01 -2.12338998E-01  2.24988858E-01  2.95234225E-01
 -3.44687297E-01  1.18046321E-01  1.88069727E-02 -2.18942250E-01 -2.82963136E-01
 -1.97131504E-01  1.83862104E-01 -3.67244263E-02  1.52768873E-01 -1.62824412E-01
  1.75475609E-01  9.02397031E-02  1.23870268E-01  7.75808627E-03  7.09495366E-02
 -1.50417105E-01  2.33077503E-01  1.63234656E-01 -1.45790521E-01  1.60396307E-02
 -1.66088224E-02  4.41436603E-02 -2.51284428E-01  3.19888615E-01 -2.23850614E-01
  2.20475413E-01 -2.90067442E-03  4.73960834E-02 -2.87162880E-01  3.17670023E-01
 -2.48165411E-01  2.12039837E-01  2.40251136E-02  1.29357339E-01 -2.30787653E-01
  2.47954021E-01  2.24961911E-01 -1.60065301E-01 -6.38228038E-02 -5.55192950E-03
 -5.08633045E-02  1.61610497E-01  7.54290171E-02 -1.40713127E-02  5.24423489E-02
 -1.47173208E-01  1.31672936E-01  3.60148523E-02  9.59836015E-04  1.43399214E-01
  2.47850694E-02  4.24366370E-03  1.81196853E-01 -1.14328640E-01 -1.49774126E-01
 -8.76118775E-02 -5.80325070E-02  1.72021903E-01  4.86881881E-03  1.56997008E-01
 -1.63849785E-01 -1.84717659E-01  1.22361940E-01  9.09624510E-02 -5.56674468E-02
 -2.80235076E-01 -4.54800552E-02 -7.36004864E-03 -8.14223605E-03 -3.97008977E-02
  3.89907262E-02  4.24575890E-02  2.15800204E-01  1.87492169E-01 -7.77902114E-02
 -1.12493220E-01  4.94726554E-03  3.07118579E-01  2.70313848E-01  2.26915146E-01
  2.00271389E-01 -2.94767692E-01  6.00579019E-04  2.65441577E-01  2.06052031E-01
  2.04722051E-01 -1.78626400E-01 -6.84742197E-02  2.35903804E-01  1.30475226E-02
  2.28886565E-02  2.83562801E-01 -1.89357996E-01 -1.21334524E-01  2.25962271E-01
  1.06114730E-02 -3.93200076E-02 -1.76894649E-01  1.38691276E-01 -2.20920043E-01
  1.39091888E-01 -1.73023993E-01  1.90120283E-02  1.64861238E-02 -1.07121597E-01
 -1.39651033E-01 -3.49769855E-02 -8.58341634E-02  1.88199126E-02  2.65320344E-01
 -2.12048326E-01  6.56111508E-02  1.95236407E-01 -4.51760912E-02 -5.38626911E-02
 -1.61991188E-01 -5.17177826E-02  3.25965228E-01  1.80975791E-01  5.15098091E-02
  1.05616142E-02 -3.08626943E-01  1.67400871E-01  2.48128859E-01 -1.49428843E-01
  2.92430495E-01 -1.82667032E-02 -1.17087279E-03  4.51496535E-01 -1.01963317E-01
  6.95322547E-02  7.73571838E-02 -1.28960170E-01  2.84550678E-01 -8.00054005E-02
 -1.10440012E-01 -2.84165008E-01 -6.07628509E-02  1.32593487E-02  1.22194961E-01
  1.09984415E-01 -1.68069458E-01 -1.03083824E-01 -1.37129897E-01  2.07887753E-02
 -4.98291262E-02 -3.54388569E-02  2.46294375E-01  2.20299107E-01 -1.74357905E-01
 -1.65160142E-01  9.44964016E-02  1.57721996E-02 -2.80940462E-01  1.07158734E-01
 -6.02234109E-02 -4.28312238E-02  8.83118095E-02 -1.11656061E-02 -1.99973037E-01
 -2.96104348E-01  9.38072574E-02 -2.40635402E-02  9.28209313E-02 -2.44406811E-01
  1.09369432E-02 -1.86664930E-01  1.04397506E-01  4.12166734E-01  2.81084608E-01
  6.67948717E-03 -2.47782095E-01  3.01601065E-02 -1.70804767E-01  1.76865740E-02
  2.00325632E-01 -1.19737963E-01  1.87570667E-02 -6.12261554E-02  1.40485586E-01
 -9.68905210E-02 -2.51040344E-01 -5.77312290E-02 -1.98231354E-01  2.07038135E-02
  6.42390626E-02  6.33446132E-02 -2.50951628E-01 -7.49299967E-02  1.78232202E-01
  3.68259736E-02 -2.54495346E-02  2.61851306E-01  8.40161051E-02  9.83987662E-02
 -1.19309100E-01 -2.93012744E-04  1.69507782E-01  6.68329201E-03  3.32275372E-01
 -2.44815450E-01 -1.23967968E-02  1.01609150E-01 -1.23870679E-02  4.25655530E-02
  4.52056826E-01  1.51957153E-02  1.08838307E-02  2.95042991E-01 -8.60209727E-02
  9.64707365E-03 -2.80241012E-01 -1.45447017E-01 -8.03778198E-02  7.32025649E-02
  5.05519851E-02  6.57124446E-03  3.75551112E-02 -3.64427411E-01  2.38760049E-03
 -2.48321299E-01  4.13654342E-04 -4.33445341E-02  9.84714753E-02  1.06212563E-01
  2.21829417E-01 -3.73199547E-02 -1.84769769E-01  5.51935428E-02  4.24370702E-02
  1.16081447E-01 -6.84211466E-02 -8.27678353E-03 -5.33399611E-02  2.94446633E-02
  2.08310029E-01 -2.04382662E-01 -2.64605586E-01  2.01714264E-01 -2.38203695E-01