 Entering Gaussian System, Link 0=/share/apps/g09/g09
 Input=C6H14_1_05_1_opt_PM6.gjf
 Output=C6H14_1_05_1_opt_PM6.log
 Initial command:
 /share/apps/g09/l1.exe /state/partition1/Gau-17102.inp -scrdir=/state/partition1/
 Entering Link 1 = /share/apps/g09/l1.exe PID=     17105.
  
 Copyright (c) 1988,1990,1992,1993,1995,1998,2003,2009, Gaussian, Inc.
                  All Rights Reserved.
  
 This is part of the Gaussian(R) 09 program.  It is based on
 the Gaussian(R) 03 system (copyright 2003, Gaussian, Inc.),
 the Gaussian(R) 98 system (copyright 1998, Gaussian, Inc.),
 the Gaussian(R) 94 system (copyright 1995, Gaussian, Inc.),
 the Gaussian 92(TM) system (copyright 1992, Gaussian, Inc.),
 the Gaussian 90(TM) system (copyright 1990, Gaussian, Inc.),
 the Gaussian 88(TM) system (copyright 1988, Gaussian, Inc.),
 the Gaussian 86(TM) system (copyright 1986, Carnegie Mellon
 University), and the Gaussian 82(TM) system (copyright 1983,
 Carnegie Mellon University). Gaussian is a federally registered
 trademark of Gaussian, Inc.
  
 This software contains proprietary and confidential information,
 including trade secrets, belonging to Gaussian, Inc.
  
 This software is provided under written license and may be
 used, copied, transmitted, or stored only in accord with that
 written license.
  
 The following legend is applicable only to US Government
 contracts under FAR:
  
                    RESTRICTED RIGHTS LEGEND
  
 Use, reproduction and disclosure by the US Government is
 subject to restrictions as set forth in subparagraphs (a)
 and (c) of the Commercial Computer Software - Restricted
 Rights clause in FAR 52.227-19.
  
 Gaussian, Inc.
 340 Quinnipiac St., Bldg. 40, Wallingford CT 06492
  
  
 ---------------------------------------------------------------
 Warning -- This program may not be used in any manner that
 competes with the business of Gaussian, Inc. or will provide
 assistance to any competitor of Gaussian, Inc.  The licensee
 of this program is prohibited from giving any competitor of
 Gaussian, Inc. access to this program.  By using this program,
 the user acknowledges that Gaussian, Inc. is engaged in the
 business of creating and licensing software in the field of
 computational chemistry and represents and warrants to the
 licensee that it is not a competitor of Gaussian, Inc. and that
 it will not use this program in any manner prohibited above.
 ---------------------------------------------------------------
  

 Cite this work as:
 Gaussian 09, Revision A.01,
 M. J. Frisch, G. W. Trucks, H. B. Schlegel, G. E. Scuseria, 
 M. A. Robb, J. R. Cheeseman, G. Scalmani, V. Barone, B. Mennucci, 
 G. A. Petersson, H. Nakatsuji, M. Caricato, X. Li, H. P. Hratchian, 
 A. F. Izmaylov, J. Bloino, G. Zheng, J. L. Sonnenberg, M. Hada, 
 M. Ehara, K. Toyota, R. Fukuda, J. Hasegawa, M. Ishida, T. Nakajima, 
 Y. Honda, O. Kitao, H. Nakai, T. Vreven, J. A. Montgomery, Jr., 
 J. E. Peralta, F. Ogliaro, M. Bearpark, J. J. Heyd, E. Brothers, 
 K. N. Kudin, V. N. Staroverov, R. Kobayashi, J. Normand, 
 K. Raghavachari, A. Rendell, J. C. Burant, S. S. Iyengar, J. Tomasi, 
 M. Cossi, N. Rega, J. M. Millam, M. Klene, J. E. Knox, J. B. Cross, 
 V. Bakken, C. Adamo, J. Jaramillo, R. Gomperts, R. E. Stratmann, 
 O. Yazyev, A. J. Austin, R. Cammi, C. Pomelli, J. W. Ochterski, 
 R. L. Martin, K. Morokuma, V. G. Zakrzewski, G. A. Voth, 
 P. Salvador, J. J. Dannenberg, S. Dapprich, A. D. Daniels, 
 O. Farkas, J. B. Foresman, J. V. Ortiz, J. Cioslowski, 
 and D. J. Fox, Gaussian, Inc., Wallingford CT, 2009.
 
 ******************************************
 Gaussian 09:  EM64L-G09RevA.01  8-May-2009
                14-Sep-2015 
 ******************************************
 %mem=3GB
 %nprocshared=2
 Will use up to    2 processors via shared memory.
 %chk=C6H14_1_05_1_opt_PM6.chk
 ----------
 #p PM6 opt
 ----------
 1/14=-1,18=20,19=15,26=1,38=1/1,3;
 2/9=110,12=2,17=6,18=5,40=1/2;
 3/5=2,16=1,25=1,41=3900000,71=1/1,2,3;
 4/35=1/1;
 5/5=2,35=1,38=5/2;
 6/7=2,8=2,9=2,10=2,28=1/1;
 7//1,2,3,16;
 1/14=-1,18=20,19=15/3(2);
 2/9=110/2;
 99//99;
 2/9=110/2;
 3/5=2,16=1,25=1,41=3900000,71=1,135=20/1,2,3;
 4/5=5,16=3,35=1/1;
 5/5=2,35=1,38=5/2;
 7//1,2,3,16;
 1/14=-1,18=20,19=15/3(-5);
 2/9=110/2;
 6/7=2,8=2,9=2,10=2,19=2,28=1/1;
 99/9=1/99;
 Leave Link    1 at Mon Sep 14 19:11:56 2015, MaxMem=  402653184 cpu:       1.6
 (Enter /share/apps/g09/l101.exe)
 ----------------------------------
 using PM6 to do opt and freq calc.
 ----------------------------------
 Symbolic Z-matrix:
 Charge =  0 Multiplicity = 1
 C                     2.0074   -2.5447    0.5794 
 H                     2.8427   -1.8653    0.8649 
 H                     2.1312   -2.8488   -0.485 
 H                     2.0552   -3.4552    1.2185 
 C                     0.6634   -1.8488    0.7801 
 H                    -0.1427   -2.5733    0.5235 
 H                     0.563    -1.5734    1.8556 
 C                     0.5301   -0.5905   -0.0896 
 H                     0.5708   -0.8754   -1.1669 
 H                     1.3989    0.0773    0.1178 
 C                    -0.7477    0.2201    0.174 
 H                    -0.6653    1.1716   -0.4018 
 H                    -0.8018    0.4821    1.2565 
 C                    -2.0399   -0.4945   -0.247 
 H                    -2.1922   -1.4018    0.381 
 H                    -1.9632   -0.8105   -1.3132 
 C                    -3.2667    0.4007   -0.0916 
 H                    -3.1726    1.3037   -0.737 
 H                    -4.1791   -0.1605   -0.3959 
 H                    -3.3815    0.7202    0.9693 
 
 NAtoms=     20 NQM=     20 NQMF=      0 NMic=      0 NMicF=      0 NTot=     20.
                    Isotopes and Nuclear Properties:
 (Nuclear quadrupole moments (NQMom) in fm**2, nuclear magnetic moments (NMagM)
  in nuclear magnetons)

  Atom         1           2           3           4           5           6           7           8           9          10
 IAtWgt=          12           1           1           1          12           1           1          12           1           1
 AtmWgt=  12.0000000   1.0078250   1.0078250   1.0078250  12.0000000   1.0078250   1.0078250  12.0000000   1.0078250   1.0078250
 NucSpn=           0           1           1           1           0           1           1           0           1           1
 AtZEff=   0.0000000   0.0000000   0.0000000   0.0000000   0.0000000   0.0000000   0.0000000   0.0000000   0.0000000   0.0000000
 NQMom=    0.0000000   0.0000000   0.0000000   0.0000000   0.0000000   0.0000000   0.0000000   0.0000000   0.0000000   0.0000000
 NMagM=    0.0000000   2.7928460   2.7928460   2.7928460   0.0000000   2.7928460   2.7928460   0.0000000   2.7928460   2.7928460

  Atom        11          12          13          14          15          16          17          18          19          20
 IAtWgt=          12           1           1          12           1           1          12           1           1           1
 AtmWgt=  12.0000000   1.0078250   1.0078250  12.0000000   1.0078250   1.0078250  12.0000000   1.0078250   1.0078250   1.0078250
 NucSpn=           0           1           1           0           1           1           0           1           1           1
 AtZEff=   0.0000000   0.0000000   0.0000000   0.0000000   0.0000000   0.0000000   0.0000000   0.0000000   0.0000000   0.0000000
 NQMom=    0.0000000   0.0000000   0.0000000   0.0000000   0.0000000   0.0000000   0.0000000   0.0000000   0.0000000   0.0000000
 NMagM=    0.0000000   2.7928460   2.7928460   0.0000000   2.7928460   2.7928460   0.0000000   2.7928460   2.7928460   2.7928460
 Leave Link  101 at Mon Sep 14 19:11:56 2015, MaxMem=  402653184 cpu:       0.1
 (Enter /share/apps/g09/l103.exe)

 GradGradGradGradGradGradGradGradGradGradGradGradGradGradGradGradGradGrad
 Berny optimization.
 Initialization pass.
                           ----------------------------
                           !    Initial Parameters    !
                           ! (Angstroms and Degrees)  !
 --------------------------                            --------------------------
 ! Name  Definition              Value          Derivative Info.                !
 --------------------------------------------------------------------------------
 ! R1    R(1,2)                  1.1139         estimate D2E/DX2                !
 ! R2    R(1,3)                  1.1139         estimate D2E/DX2                !
 ! R3    R(1,4)                  1.1134         estimate D2E/DX2                !
 ! R4    R(1,5)                  1.5267         estimate D2E/DX2                !
 ! R5    R(5,6)                  1.1138         estimate D2E/DX2                !
 ! R6    R(5,7)                  1.1147         estimate D2E/DX2                !
 ! R7    R(5,8)                  1.5354         estimate D2E/DX2                !
 ! R8    R(8,9)                  1.1151         estimate D2E/DX2                !
 ! R9    R(8,10)                 1.1153         estimate D2E/DX2                !
 ! R10   R(8,11)                 1.536          estimate D2E/DX2                !
 ! R11   R(11,12)                1.1152         estimate D2E/DX2                !
 ! R12   R(11,13)                1.1151         estimate D2E/DX2                !
 ! R13   R(11,14)                1.5355         estimate D2E/DX2                !
 ! R14   R(14,15)                1.1139         estimate D2E/DX2                !
 ! R15   R(14,16)                1.1147         estimate D2E/DX2                !
 ! R16   R(14,17)                1.5266         estimate D2E/DX2                !
 ! R17   R(17,18)                1.1139         estimate D2E/DX2                !
 ! R18   R(17,19)                1.1136         estimate D2E/DX2                !
 ! R19   R(17,20)                1.1139         estimate D2E/DX2                !
 ! A1    A(2,1,3)              109.1525         estimate D2E/DX2                !
 ! A2    A(2,1,4)              108.6294         estimate D2E/DX2                !
 ! A3    A(2,1,5)              110.391          estimate D2E/DX2                !
 ! A4    A(3,1,4)              108.6911         estimate D2E/DX2                !
 ! A5    A(3,1,5)              110.3587         estimate D2E/DX2                !
 ! A6    A(4,1,5)              109.5769         estimate D2E/DX2                !
 ! A7    A(1,5,6)              108.0797         estimate D2E/DX2                !
 ! A8    A(1,5,7)              108.5861         estimate D2E/DX2                !
 ! A9    A(1,5,8)              112.0561         estimate D2E/DX2                !
 ! A10   A(6,5,7)              108.5296         estimate D2E/DX2                !
 ! A11   A(6,5,8)              109.8618         estimate D2E/DX2                !
 ! A12   A(7,5,8)              109.6461         estimate D2E/DX2                !
 ! A13   A(5,8,9)              109.5534         estimate D2E/DX2                !
 ! A14   A(5,8,10)             108.527          estimate D2E/DX2                !
 ! A15   A(5,8,11)             114.0481         estimate D2E/DX2                !
 ! A16   A(9,8,10)             107.7114         estimate D2E/DX2                !
 ! A17   A(9,8,11)             109.3293         estimate D2E/DX2                !
 ! A18   A(10,8,11)            107.4664         estimate D2E/DX2                !
 ! A19   A(8,11,12)            107.4689         estimate D2E/DX2                !
 ! A20   A(8,11,13)            109.327          estimate D2E/DX2                !
 ! A21   A(8,11,14)            114.044          estimate D2E/DX2                !
 ! A22   A(12,11,13)           107.719          estimate D2E/DX2                !
 ! A23   A(12,11,14)           108.5234         estimate D2E/DX2                !
 ! A24   A(13,11,14)           109.554          estimate D2E/DX2                !
 ! A25   A(11,14,15)           109.8501         estimate D2E/DX2                !
 ! A26   A(11,14,16)           109.6506         estimate D2E/DX2                !
 ! A27   A(11,14,17)           112.0535         estimate D2E/DX2                !
 ! A28   A(15,14,16)           108.5276         estimate D2E/DX2                !
 ! A29   A(15,14,17)           108.0814         estimate D2E/DX2                !
 ! A30   A(16,14,17)           108.5962         estimate D2E/DX2                !
 ! A31   A(14,17,18)           110.3954         estimate D2E/DX2                !
 ! A32   A(14,17,19)           109.5784         estimate D2E/DX2                !
 ! A33   A(14,17,20)           110.363          estimate D2E/DX2                !
 ! A34   A(18,17,19)           108.6285         estimate D2E/DX2                !
 ! A35   A(18,17,20)           109.1485         estimate D2E/DX2                !
 ! A36   A(19,17,20)           108.6856         estimate D2E/DX2                !
 ! D1    D(2,1,5,6)           -177.751          estimate D2E/DX2                !
 ! D2    D(2,1,5,7)            -60.2043         estimate D2E/DX2                !
 ! D3    D(2,1,5,8)             61.0583         estimate D2E/DX2                !
 ! D4    D(3,1,5,6)             61.5003         estimate D2E/DX2                !
 ! D5    D(3,1,5,7)            179.047          estimate D2E/DX2                !
 ! D6    D(3,1,5,8)            -59.6905         estimate D2E/DX2                !
 ! D7    D(4,1,5,6)            -58.1534         estimate D2E/DX2                !
 ! D8    D(4,1,5,7)             59.3933         estimate D2E/DX2                !
 ! D9    D(4,1,5,8)           -179.3442         estimate D2E/DX2                !
 ! D10   D(1,5,8,9)             62.6481         estimate D2E/DX2                !
 ! D11   D(1,5,8,10)           -54.7074         estimate D2E/DX2                !
 ! D12   D(1,5,8,11)          -174.4552         estimate D2E/DX2                !
 ! D13   D(6,5,8,9)            -57.5098         estimate D2E/DX2                !
 ! D14   D(6,5,8,10)          -174.8653         estimate D2E/DX2                !
 ! D15   D(6,5,8,11)            65.387          estimate D2E/DX2                !
 ! D16   D(7,5,8,9)           -176.7019         estimate D2E/DX2                !
 ! D17   D(7,5,8,10)            65.9426         estimate D2E/DX2                !
 ! D18   D(7,5,8,11)           -53.8051         estimate D2E/DX2                !
 ! D19   D(5,8,11,12)          172.156          estimate D2E/DX2                !
 ! D20   D(5,8,11,13)           55.509          estimate D2E/DX2                !
 ! D21   D(5,8,11,14)          -67.5059         estimate D2E/DX2                !
 ! D22   D(9,8,11,12)          -64.8252         estimate D2E/DX2                !
 ! D23   D(9,8,11,13)          178.5277         estimate D2E/DX2                !
 ! D24   D(9,8,11,14)           55.5128         estimate D2E/DX2                !
 ! D25   D(10,8,11,12)          51.8126         estimate D2E/DX2                !
 ! D26   D(10,8,11,13)         -64.8345         estimate D2E/DX2                !
 ! D27   D(10,8,11,14)         172.1507         estimate D2E/DX2                !
 ! D28   D(8,11,14,15)          65.3904         estimate D2E/DX2                !
 ! D29   D(8,11,14,16)         -53.7949         estimate D2E/DX2                !
 ! D30   D(8,11,14,17)        -174.4591         estimate D2E/DX2                !
 ! D31   D(12,11,14,15)       -174.8639         estimate D2E/DX2                !
 ! D32   D(12,11,14,16)         65.9508         estimate D2E/DX2                !
 ! D33   D(12,11,14,17)        -54.7134         estimate D2E/DX2                !
 ! D34   D(13,11,14,15)        -57.5009         estimate D2E/DX2                !
 ! D35   D(13,11,14,16)       -176.6862         estimate D2E/DX2                !
 ! D36   D(13,11,14,17)         62.6496         estimate D2E/DX2                !
 ! D37   D(11,14,17,18)         61.0612         estimate D2E/DX2                !
 ! D38   D(11,14,17,19)       -179.3387         estimate D2E/DX2                !
 ! D39   D(11,14,17,20)        -59.6882         estimate D2E/DX2                !
 ! D40   D(15,14,17,18)       -177.7631         estimate D2E/DX2                !
 ! D41   D(15,14,17,19)        -58.163          estimate D2E/DX2                !
 ! D42   D(15,14,17,20)         61.4875         estimate D2E/DX2                !
 ! D43   D(16,14,17,18)        -60.2123         estimate D2E/DX2                !
 ! D44   D(16,14,17,19)         59.3879         estimate D2E/DX2                !
 ! D45   D(16,14,17,20)        179.0384         estimate D2E/DX2                !
 --------------------------------------------------------------------------------
 Trust Radius=3.00D-01 FncErr=1.00D-07 GrdErr=1.00D-07
 Number of steps in this run= 110 maximum allowed number of steps= 120.
 GradGradGradGradGradGradGradGradGradGradGradGradGradGradGradGradGradGrad

 Leave Link  103 at Mon Sep 14 19:12:00 2015, MaxMem=  402653184 cpu:       0.0
 (Enter /share/apps/g09/l202.exe)
                          Input orientation:                          
 ---------------------------------------------------------------------
 Center     Atomic      Atomic             Coordinates (Angstroms)
 Number     Number       Type             X           Y           Z
 ---------------------------------------------------------------------
      1          6           0        2.007400   -2.544700    0.579400
      2          1           0        2.842700   -1.865300    0.864900
      3          1           0        2.131200   -2.848800   -0.485000
      4          1           0        2.055200   -3.455200    1.218500
      5          6           0        0.663400   -1.848800    0.780100
      6          1           0       -0.142700   -2.573300    0.523500
      7          1           0        0.563000   -1.573400    1.855600
      8          6           0        0.530100   -0.590500   -0.089600
      9          1           0        0.570800   -0.875400   -1.166900
     10          1           0        1.398900    0.077300    0.117800
     11          6           0       -0.747700    0.220100    0.174000
     12          1           0       -0.665300    1.171600   -0.401800
     13          1           0       -0.801800    0.482100    1.256500
     14          6           0       -2.039900   -0.494500   -0.247000
     15          1           0       -2.192200   -1.401800    0.381000
     16          1           0       -1.963200   -0.810500   -1.313200
     17          6           0       -3.266700    0.400700   -0.091600
     18          1           0       -3.172600    1.303700   -0.737000
     19          1           0       -4.179100   -0.160500   -0.395900
     20          1           0       -3.381500    0.720200    0.969300
 ---------------------------------------------------------------------
                    Distance matrix (angstroms):
                    1          2          3          4          5
     1  C    0.000000
     2  H    1.113921   0.000000
     3  H    1.113890   1.815416   0.000000
     4  H    1.113438   1.809135   1.809809   0.000000
     5  C    1.526726   2.181012   2.180577   2.170213   0.000000
     6  H    2.151017   3.087140   2.502717   2.468104   1.113796
     7  H    2.158333   2.502743   3.092621   2.484699   1.114731
     8  C    2.539463   2.807900   2.796387   3.499080   1.535404
     9  H    2.810684   3.204628   2.606558   3.814308   2.178736
    10  H    2.730976   2.533064   3.075986   3.757769   2.165517
    11  C    3.924162   4.209181   4.259166   4.738677   2.576608
    12  H    4.681556   4.809715   4.898056   5.606583   3.505017
    13  H    4.184685   4.352702   4.767621   4.864794   2.794076
    14  C    4.611604   5.191839   4.795565   5.261490   3.193258
    15  H    4.356859   5.079292   4.640641   4.791478   2.917797
    16  H    4.728113   5.380836   4.648085   5.436127   3.515537
    17  C    6.077973   6.585926   6.312792   6.701265   4.611485
    18  H    6.586007   6.985161   6.740701   7.334917   5.191796
    19  H    6.701373   7.334960   6.859649   7.233798   5.261477
    20  H    6.312831   6.740651   6.726263   6.859575   4.795495
                    6          7          8          9         10
     6  H    0.000000
     7  H    1.808951   0.000000
     8  C    2.181753   2.179674   0.000000
     9  H    2.499880   3.102059   1.115078   0.000000
    10  H    3.093025   2.538403   1.115251   1.801067   0.000000
    11  C    2.879455   2.786100   1.536011   2.176367   2.152078
    12  H    3.892758   3.760266   2.152080   2.510683   2.393407
    13  H    3.210478   2.539031   2.176330   3.098339   2.510693
    14  C    2.917953   3.515685   2.576605   2.794111   3.505051
    15  H    2.364988   3.129699   2.879338   3.210492   3.892687
    16  H    3.129721   4.123711   2.786062   2.539049   3.760275
    17  C    4.356880   4.728135   3.924050   4.184628   4.681480
    18  H    5.079398   5.380891   4.209169   4.352739   4.809714
    19  H    4.791599   5.436272   4.738701   4.864882   5.606650
    20  H    4.640658   4.648140   4.259087   4.767595   4.898020
                   11         12         13         14         15
    11  C    0.000000
    12  H    1.115207   0.000000
    13  H    1.115068   1.801111   0.000000
    14  C    1.535472   2.165497   2.178796   0.000000
    15  H    2.181740   3.092990   2.499758   1.113900   0.000000
    16  H    2.179757   2.538487   3.102100   1.114684   1.808975
    17  C    2.539394   2.730896   2.810646   1.526621   2.151025
    18  H    2.807891   2.533054   3.204647   2.180971   3.087206
    19  H    3.499164   3.757834   3.814383   2.170231   2.468232
    20  H    2.796338   3.075942   2.606536   2.180544   2.502682
                   16         17         18         19         20
    16  H    0.000000
    17  C    2.158338   0.000000
    18  H    2.502898   1.113914   0.000000
    19  H    2.484784   1.113561   1.809219   0.000000
    20  H    3.092640   1.113898   1.815371   1.809853   0.000000
 Stoichiometry    C6H14
 Framework group  C1[X(C6H14)]
 Deg. of freedom    54
 Full point group                 C1      NOp   1
 Largest Abelian subgroup         C1      NOp   1
 Largest concise Abelian subgroup C1      NOp   1
                         Standard orientation:                         
 ---------------------------------------------------------------------
 Center     Atomic      Atomic             Coordinates (Angstroms)
 Number     Number       Type             X           Y           Z
 ---------------------------------------------------------------------
      1          6           0        3.037868   -0.298865   -0.083632
      2          1           0        3.476617    0.636214    0.333439
      3          1           0        3.144682   -0.289808   -1.192352
      4          1           0        3.602511   -1.168500    0.322145
      5          6           0        1.566749   -0.416655    0.307298
      6          1           0        1.178865   -1.380943   -0.092996
      7          1           0        1.495482   -0.440501    1.419494
      8          6           0        0.729949    0.749148   -0.238720
      9          1           0        0.753728    0.735631   -1.353462
     10          1           0        1.192589    1.706091    0.098931
     11          6           0       -0.729981    0.749208    0.238705
     12          1           0       -1.192615    1.706065   -0.099055
     13          1           0       -0.753717    0.735688    1.353439
     14          6           0       -1.566802   -0.416666   -0.307321
     15          1           0       -1.178780   -1.380911    0.093232
     16          1           0       -1.495398   -0.440742   -1.419456
     17          6           0       -3.037803   -0.298854    0.083634
     18          1           0       -3.476638    0.636175   -0.333439
     19          1           0       -3.602545   -1.168622   -0.322061
     20          1           0       -3.144656   -0.289733    1.192357
 ---------------------------------------------------------------------
 Rotational constants (GHZ):     10.1891276      1.2963306      1.2336189
 Leave Link  202 at Mon Sep 14 19:12:00 2015, MaxMem=  402653184 cpu:       0.0
 (Enter /share/apps/g09/l301.exe)
 Standard basis: VSTO-6G (5D, 7F)
 Ernie: Thresh=  0.10000D-02 Tol=  0.10000D-05 Strict=F.
  NNHCO=     0 NNPyr=     0 NCTC=     0               EPep=         0.000000000
    EC=       124.884457346  ECS=         3.145567680   EG=         0.309052156
   EHC=         0.000409415  EAt=       -31.187935768  AtH=         2.796400831
 EPDDG=         0.000000000  ECC=       128.339486596 EAtT=        33.984336599
 There are    38 symmetry adapted basis functions of A   symmetry.
 Integral buffers will be    131072 words long.
 Regular integral format.
 Two-electron integral symmetry is turned off.
    38 basis functions,   228 primitive gaussians,    38 cartesian basis functions
    19 alpha electrons       19 beta electrons
       nuclear repulsion energy       162.3238231952 Hartrees.
 IExCor=    0 DFT=F Ex=HF Corr=None ExCW=0 ScaHFX=  1.000000
 ScaDFX=  1.000000  1.000000  1.000000  1.000000 ScalE2=  1.000000  1.000000
 IRadAn=      0 IRanWt=     -1 IRanGd=            0 ICorTp=0
 Leave Link  301 at Mon Sep 14 19:12:06 2015, MaxMem=  402653184 cpu:       0.1
 (Enter /share/apps/g09/l302.exe)
 Do NDO integrals.
 NPDir=0 NMtPBC=     1 NCelOv=     1 NCel=       1 NClECP=     1 NCelD=      1
         NCelK=      1 NCelE2=     1 NClLst=     1 CellRange=     0.0.
 One-electron integrals computed using PRISM.
 NBasis=    38 RedAO= F  NBF=    38
 NBsUse=    38 1.00D-04 NBFU=    38
 Leave Link  302 at Mon Sep 14 19:12:10 2015, MaxMem=  402653184 cpu:       0.1
 (Enter /share/apps/g09/l303.exe)
 DipDrv:  MaxL=1.
 Leave Link  303 at Mon Sep 14 19:12:11 2015, MaxMem=  402653184 cpu:       0.1
 (Enter /share/apps/g09/l401.exe)
 Simple Huckel Guess.
 Initial guess orbital symmetries:
       Occupied  (A) (A) (A) (A) (A) (A) (A) (A) (A) (A) (A) (A)
                 (A) (A) (A) (A) (A) (A) (A)
       Virtual   (A) (A) (A) (A) (A) (A) (A) (A) (A) (A) (A) (A)
                 (A) (A) (A) (A) (A) (A) (A)
 The electronic state of the initial guess is 1-A.
 Leave Link  401 at Mon Sep 14 19:12:11 2015, MaxMem=  402653184 cpu:       0.1
 (Enter /share/apps/g09/l502.exe)
 Closed shell SCF:
 Requested convergence on RMS density matrix=1.00D-08 within 128 cycles.
 Requested convergence on MAX density matrix=1.00D-06.
 Requested convergence on             energy=1.00D-06.
 No special actions if energy rises.
 Using DIIS extrapolation, IDIIS=  1040.
 Overlap will be assumed to be unity.
 Two-electron integral symmetry not used.
 Keep J ints in memory in canonical form, NReq=884654.
 IEnd=       81865 IEndB=       81865 NGot=   402653184 MDV=   402586639
 LenX=   402586639 LenY=   402584754
 Symmetry not used in FoFDir.
 MinBra= 0 MaxBra= 1 Meth=40.
 IRaf=       0 NMat=   1 IRICut=       1 DoRegI=T DoRafI=F ISym2E= 0 JSym2E=0.

 Cycle   1  Pass 1  IDiag  1:
 E= 0.735092447558543E-01
 DIIS: error= 2.20D-02 at cycle   1 NSaved=   1.
 NSaved= 1 IEnMin= 1 EnMin= 0.735092447558543E-01 IErMin= 1 ErrMin= 2.20D-02
 ErrMax= 2.20D-02 EMaxC= 1.00D-01 BMatC= 4.41D-02 BMatP= 4.41D-02
 IDIUse=3 WtCom= 7.80D-01 WtEn= 2.20D-01
 Coeff-Com:  0.100D+01
 Coeff-En:   0.100D+01
 Coeff:      0.100D+01
 GapD=    2.000 DampG=2.000 DampE=0.500 DampFc=1.0000 IDamp=-1.
 RMSDP=8.42D-03 MaxDP=6.95D-02              OVMax= 0.00D+00

 Cycle   2  Pass 1  IDiag  1:
 E=-0.436787280524413E-01 Delta-E=       -0.117187972808 Rises=F Damp=F
 DIIS: error= 5.32D-03 at cycle   2 NSaved=   2.
 NSaved= 2 IEnMin= 2 EnMin=-0.436787280524413E-01 IErMin= 2 ErrMin= 5.32D-03
 ErrMax= 5.32D-03 EMaxC= 1.00D-01 BMatC= 2.97D-03 BMatP= 4.41D-02
 IDIUse=3 WtCom= 9.47D-01 WtEn= 5.32D-02
 Coeff-Com: -0.325D+00 0.132D+01
 Coeff-En:   0.000D+00 0.100D+01
 Coeff:     -0.307D+00 0.131D+01
 RMSDP=3.07D-03 MaxDP=2.14D-02 DE=-1.17D-01 OVMax= 0.00D+00

 Cycle   3  Pass 1  IDiag  3:
 E=-0.533670856928836E-01 Delta-E=       -0.009688357640 Rises=F Damp=F
 DIIS: error= 1.47D-03 at cycle   3 NSaved=   3.
 NSaved= 3 IEnMin= 3 EnMin=-0.533670856928836E-01 IErMin= 3 ErrMin= 1.47D-03
 ErrMax= 1.47D-03 EMaxC= 1.00D-01 BMatC= 8.76D-05 BMatP= 2.97D-03
 IDIUse=3 WtCom= 9.85D-01 WtEn= 1.47D-02
 Coeff-Com:  0.246D+00-0.105D+01 0.180D+01
 Coeff-En:   0.000D+00 0.000D+00 0.100D+01
 Coeff:      0.242D+00-0.103D+01 0.179D+01
 Gap=     0.553 Goal=   None    Shift=    0.000
 RMSDP=9.02D-04 MaxDP=9.03D-03 DE=-9.69D-03 OVMax= 0.00D+00

 Cycle   4  Pass 1  IDiag  3:
 E=-0.538982975749036E-01 Delta-E=       -0.000531211882 Rises=F Damp=F
 DIIS: error= 3.36D-04 at cycle   4 NSaved=   4.
 NSaved= 4 IEnMin= 4 EnMin=-0.538982975749036E-01 IErMin= 4 ErrMin= 3.36D-04
 ErrMax= 3.36D-04 EMaxC= 1.00D-01 BMatC= 5.06D-06 BMatP= 8.76D-05
 IDIUse=3 WtCom= 9.97D-01 WtEn= 3.36D-03
 Coeff-Com: -0.121D+00 0.524D+00-0.107D+01 0.166D+01
 Coeff-En:   0.000D+00 0.000D+00 0.000D+00 0.100D+01
 Coeff:     -0.121D+00 0.522D+00-0.106D+01 0.166D+01
 Gap=     0.553 Goal=   None    Shift=    0.000
 RMSDP=2.51D-04 MaxDP=2.53D-03 DE=-5.31D-04 OVMax= 0.00D+00

 Cycle   5  Pass 1  IDiag  3:
 E=-0.539331697123373E-01 Delta-E=       -0.000034872137 Rises=F Damp=F
 DIIS: error= 1.02D-04 at cycle   5 NSaved=   5.
 NSaved= 5 IEnMin= 5 EnMin=-0.539331697123373E-01 IErMin= 5 ErrMin= 1.02D-04
 ErrMax= 1.02D-04 EMaxC= 1.00D-01 BMatC= 4.17D-07 BMatP= 5.06D-06
 IDIUse=3 WtCom= 9.99D-01 WtEn= 1.02D-03
 Coeff-Com:  0.701D-01-0.305D+00 0.660D+00-0.124D+01 0.181D+01
 Coeff-En:   0.000D+00 0.000D+00 0.000D+00 0.000D+00 0.100D+01
 Coeff:      0.700D-01-0.305D+00 0.659D+00-0.124D+01 0.181D+01
 Gap=     0.553 Goal=   None    Shift=    0.000
 RMSDP=7.54D-05 MaxDP=6.72D-04 DE=-3.49D-05 OVMax= 0.00D+00

 Cycle   6  Pass 1  IDiag  3:
 E=-0.539362609073635E-01 Delta-E=       -0.000003091195 Rises=F Damp=F
 DIIS: error= 2.65D-05 at cycle   6 NSaved=   6.
 NSaved= 6 IEnMin= 6 EnMin=-0.539362609073635E-01 IErMin= 6 ErrMin= 2.65D-05
 ErrMax= 2.65D-05 EMaxC= 1.00D-01 BMatC= 2.76D-08 BMatP= 4.17D-07
 IDIUse=1 WtCom= 1.00D+00 WtEn= 0.00D+00
 Coeff-Com: -0.108D-02 0.537D-02-0.243D-01 0.917D-01-0.401D+00 0.133D+01
 Coeff:     -0.108D-02 0.537D-02-0.243D-01 0.917D-01-0.401D+00 0.133D+01
 Gap=     0.553 Goal=   None    Shift=    0.000
 RMSDP=1.96D-05 MaxDP=2.13D-04 DE=-3.09D-06 OVMax= 0.00D+00

 Cycle   7  Pass 1  IDiag  3:
 E=-0.539364565883602E-01 Delta-E=       -0.000000195681 Rises=F Damp=F
 DIIS: error= 5.15D-06 at cycle   7 NSaved=   7.
 NSaved= 7 IEnMin= 7 EnMin=-0.539364565883602E-01 IErMin= 7 ErrMin= 5.15D-06
 ErrMax= 5.15D-06 EMaxC= 1.00D-01 BMatC= 1.97D-09 BMatP= 2.76D-08
 IDIUse=1 WtCom= 1.00D+00 WtEn= 0.00D+00
 Coeff-Com:  0.780D-03-0.370D-02 0.134D-01-0.431D-01 0.181D+00-0.740D+00
 Coeff-Com:  0.159D+01
 Coeff:      0.780D-03-0.370D-02 0.134D-01-0.431D-01 0.181D+00-0.740D+00
 Coeff:      0.159D+01
 Gap=     0.553 Goal=   None    Shift=    0.000
 RMSDP=4.79D-06 MaxDP=5.00D-05 DE=-1.96D-07 OVMax= 0.00D+00

 Cycle   8  Pass 1  IDiag  3:
 E=-0.539364688729904E-01 Delta-E=       -0.000000012285 Rises=F Damp=F
 DIIS: error= 1.81D-06 at cycle   8 NSaved=   8.
 NSaved= 8 IEnMin= 8 EnMin=-0.539364688729904E-01 IErMin= 8 ErrMin= 1.81D-06
 ErrMax= 1.81D-06 EMaxC= 1.00D-01 BMatC= 1.00D-10 BMatP= 1.97D-09
 IDIUse=1 WtCom= 1.00D+00 WtEn= 0.00D+00
 Coeff-Com: -0.262D-03 0.134D-02-0.625D-02 0.228D-01-0.104D+00 0.447D+00
 Coeff-Com: -0.108D+01 0.172D+01
 Coeff:     -0.262D-03 0.134D-02-0.625D-02 0.228D-01-0.104D+00 0.447D+00
 Coeff:     -0.108D+01 0.172D+01
 Gap=     0.553 Goal=   None    Shift=    0.000
 RMSDP=1.03D-06 MaxDP=1.03D-05 DE=-1.23D-08 OVMax= 0.00D+00

 Cycle   9  Pass 1  IDiag  3:
 E=-0.539364694741664E-01 Delta-E=       -0.000000000601 Rises=F Damp=F
 DIIS: error= 2.56D-07 at cycle   9 NSaved=   9.
 NSaved= 9 IEnMin= 9 EnMin=-0.539364694741664E-01 IErMin= 9 ErrMin= 2.56D-07
 ErrMax= 2.56D-07 EMaxC= 1.00D-01 BMatC= 3.01D-12 BMatP= 1.00D-10
 IDIUse=1 WtCom= 1.00D+00 WtEn= 0.00D+00
 Coeff-Com: -0.272D-04 0.577D-04 0.911D-03-0.512D-02 0.281D-01-0.130D+00
 Coeff-Com:  0.328D+00-0.650D+00 0.143D+01
 Coeff:     -0.272D-04 0.577D-04 0.911D-03-0.512D-02 0.281D-01-0.130D+00
 Coeff:      0.328D+00-0.650D+00 0.143D+01
 Gap=     0.553 Goal=   None    Shift=    0.000
 RMSDP=1.66D-07 MaxDP=1.64D-06 DE=-6.01D-10 OVMax= 0.00D+00

 Cycle  10  Pass 1  IDiag  3:
 E=-0.539364694899689E-01 Delta-E=       -0.000000000016 Rises=F Damp=F
 DIIS: error= 2.49D-08 at cycle  10 NSaved=  10.
 NSaved=10 IEnMin=10 EnMin=-0.539364694899689E-01 IErMin=10 ErrMin= 2.49D-08
 ErrMax= 2.49D-08 EMaxC= 1.00D-01 BMatC= 5.60D-14 BMatP= 3.01D-12
 IDIUse=1 WtCom= 1.00D+00 WtEn= 0.00D+00
 Coeff-Com: -0.344D-05 0.335D-04-0.388D-03 0.176D-02-0.887D-02 0.401D-01
 Coeff-Com: -0.101D+00 0.204D+00-0.519D+00 0.138D+01
 Coeff:     -0.344D-05 0.335D-04-0.388D-03 0.176D-02-0.887D-02 0.401D-01
 Coeff:     -0.101D+00 0.204D+00-0.519D+00 0.138D+01
 Gap=     0.553 Goal=   None    Shift=    0.000
 RMSDP=1.92D-08 MaxDP=1.46D-07 DE=-1.58D-11 OVMax= 0.00D+00

 Cycle  11  Pass 1  IDiag  3:
 E=-0.539364694904236E-01 Delta-E=        0.000000000000 Rises=F Damp=F
 DIIS: error= 8.72D-09 at cycle  11 NSaved=  11.
 NSaved=11 IEnMin=11 EnMin=-0.539364694904236E-01 IErMin=11 ErrMin= 8.72D-09
 ErrMax= 8.72D-09 EMaxC= 1.00D-01 BMatC= 4.01D-15 BMatP= 5.60D-14
 IDIUse=1 WtCom= 1.00D+00 WtEn= 0.00D+00
 Coeff-Com:  0.224D-05-0.190D-04 0.197D-03-0.879D-03 0.440D-02-0.199D-01
 Coeff-Com:  0.497D-01-0.102D+00 0.264D+00-0.820D+00 0.162D+01
 Coeff:      0.224D-05-0.190D-04 0.197D-03-0.879D-03 0.440D-02-0.199D-01
 Coeff:      0.497D-01-0.102D+00 0.264D+00-0.820D+00 0.162D+01
 Gap=     0.553 Goal=   None    Shift=    0.000
 RMSDP=6.25D-09 MaxDP=5.51D-08 DE=-4.55D-13 OVMax= 0.00D+00

 Cycle  12  Pass 2  IDiag  1:
 RMSDP=6.25D-09 MaxDP=5.51D-08 DE=-4.55D-13 OVMax= 0.00D+00

 SCF Done:  E(RPM6) = -0.539364694904E-01 A.U. after   12 cycles
             Convg  =    0.6248D-08             -V/T =  0.9990
 KE=-5.603407476894D+01 PE=-2.458325889472D+02 EE= 1.394889040514D+02
 Leave Link  502 at Mon Sep 14 19:12:15 2015, MaxMem=  402653184 cpu:       3.8
 (Enter /share/apps/g09/l601.exe)
 Copying SCF densities to generalized density rwf, IOpCl= 0 IROHF=0.

 **********************************************************************

            Population analysis using the SCF density.

 **********************************************************************

 Orbital symmetries:
       Occupied  (A) (A) (A) (A) (A) (A) (A) (A) (A) (A) (A) (A)
                 (A) (A) (A) (A) (A) (A) (A)
       Virtual   (A) (A) (A) (A) (A) (A) (A) (A) (A) (A) (A) (A)
                 (A) (A) (A) (A) (A) (A) (A)
 The electronic state is 1-A.
 Alpha  occ. eigenvalues --   -1.05078  -0.99269  -0.91004  -0.79616  -0.75646
 Alpha  occ. eigenvalues --   -0.71063  -0.58811  -0.57025  -0.54350  -0.51734
 Alpha  occ. eigenvalues --   -0.51341  -0.48732  -0.45979  -0.45897  -0.43821
 Alpha  occ. eigenvalues --   -0.42441  -0.41735  -0.40664  -0.40236
 Alpha virt. eigenvalues --    0.15071   0.16317   0.16932   0.17065   0.18569
 Alpha virt. eigenvalues --    0.20647   0.20741   0.21782   0.21796   0.22013
 Alpha virt. eigenvalues --    0.22295   0.23315   0.23358   0.24078   0.24086
 Alpha virt. eigenvalues --    0.24375   0.24723   0.24966   0.25160
          Condensed to atoms (all electrons):
              1          2          3          4          5          6
     1  C    4.466558   0.000000   0.000000   0.000000   0.000000   0.000000
     2  H    0.000000   0.852972   0.000000   0.000000   0.000000   0.000000
     3  H    0.000000   0.000000   0.852458   0.000000   0.000000   0.000000
     4  H    0.000000   0.000000   0.000000   0.855249   0.000000   0.000000
     5  C    0.000000   0.000000   0.000000   0.000000   4.222116   0.000000
     6  H    0.000000   0.000000   0.000000   0.000000   0.000000   0.872635
     7  H    0.000000   0.000000   0.000000   0.000000   0.000000   0.000000
     8  C    0.000000   0.000000   0.000000   0.000000   0.000000   0.000000
     9  H    0.000000   0.000000   0.000000   0.000000   0.000000   0.000000
    10  H    0.000000   0.000000   0.000000   0.000000   0.000000   0.000000
    11  C    0.000000   0.000000   0.000000   0.000000   0.000000   0.000000
    12  H    0.000000   0.000000   0.000000   0.000000   0.000000   0.000000
    13  H    0.000000   0.000000   0.000000   0.000000   0.000000   0.000000
    14  C    0.000000   0.000000   0.000000   0.000000   0.000000   0.000000
    15  H    0.000000   0.000000   0.000000   0.000000   0.000000   0.000000
    16  H    0.000000   0.000000   0.000000   0.000000   0.000000   0.000000
    17  C    0.000000   0.000000   0.000000   0.000000   0.000000   0.000000
    18  H    0.000000   0.000000   0.000000   0.000000   0.000000   0.000000
    19  H    0.000000   0.000000   0.000000   0.000000   0.000000   0.000000
    20  H    0.000000   0.000000   0.000000   0.000000   0.000000   0.000000
              7          8          9         10         11         12
     1  C    0.000000   0.000000   0.000000   0.000000   0.000000   0.000000
     2  H    0.000000   0.000000   0.000000   0.000000   0.000000   0.000000
     3  H    0.000000   0.000000   0.000000   0.000000   0.000000   0.000000
     4  H    0.000000   0.000000   0.000000   0.000000   0.000000   0.000000
     5  C    0.000000   0.000000   0.000000   0.000000   0.000000   0.000000
     6  H    0.000000   0.000000   0.000000   0.000000   0.000000   0.000000
     7  H    0.873085   0.000000   0.000000   0.000000   0.000000   0.000000
     8  C    0.000000   4.266822   0.000000   0.000000   0.000000   0.000000
     9  H    0.000000   0.000000   0.867665   0.000000   0.000000   0.000000
    10  H    0.000000   0.000000   0.000000   0.870448   0.000000   0.000000
    11  C    0.000000   0.000000   0.000000   0.000000   4.266807   0.000000
    12  H    0.000000   0.000000   0.000000   0.000000   0.000000   0.870450
    13  H    0.000000   0.000000   0.000000   0.000000   0.000000   0.000000
    14  C    0.000000   0.000000   0.000000   0.000000   0.000000   0.000000
    15  H    0.000000   0.000000   0.000000   0.000000   0.000000   0.000000
    16  H    0.000000   0.000000   0.000000   0.000000   0.000000   0.000000
    17  C    0.000000   0.000000   0.000000   0.000000   0.000000   0.000000
    18  H    0.000000   0.000000   0.000000   0.000000   0.000000   0.000000
    19  H    0.000000   0.000000   0.000000   0.000000   0.000000   0.000000
    20  H    0.000000   0.000000   0.000000   0.000000   0.000000   0.000000
             13         14         15         16         17         18
     1  C    0.000000   0.000000   0.000000   0.000000   0.000000   0.000000
     2  H    0.000000   0.000000   0.000000   0.000000   0.000000   0.000000
     3  H    0.000000   0.000000   0.000000   0.000000   0.000000   0.000000
     4  H    0.000000   0.000000   0.000000   0.000000   0.000000   0.000000
     5  C    0.000000   0.000000   0.000000   0.000000   0.000000   0.000000
     6  H    0.000000   0.000000   0.000000   0.000000   0.000000   0.000000
     7  H    0.000000   0.000000   0.000000   0.000000   0.000000   0.000000
     8  C    0.000000   0.000000   0.000000   0.000000   0.000000   0.000000
     9  H    0.000000   0.000000   0.000000   0.000000   0.000000   0.000000
    10  H    0.000000   0.000000   0.000000   0.000000   0.000000   0.000000
    11  C    0.000000   0.000000   0.000000   0.000000   0.000000   0.000000
    12  H    0.000000   0.000000   0.000000   0.000000   0.000000   0.000000
    13  H    0.867667   0.000000   0.000000   0.000000   0.000000   0.000000
    14  C    0.000000   4.222117   0.000000   0.000000   0.000000   0.000000
    15  H    0.000000   0.000000   0.872633   0.000000   0.000000   0.000000
    16  H    0.000000   0.000000   0.000000   0.873084   0.000000   0.000000
    17  C    0.000000   0.000000   0.000000   0.000000   4.466556   0.000000
    18  H    0.000000   0.000000   0.000000   0.000000   0.000000   0.852973
    19  H    0.000000   0.000000   0.000000   0.000000   0.000000   0.000000
    20  H    0.000000   0.000000   0.000000   0.000000   0.000000   0.000000
             19         20
     1  C    0.000000   0.000000
     2  H    0.000000   0.000000
     3  H    0.000000   0.000000
     4  H    0.000000   0.000000
     5  C    0.000000   0.000000
     6  H    0.000000   0.000000
     7  H    0.000000   0.000000
     8  C    0.000000   0.000000
     9  H    0.000000   0.000000
    10  H    0.000000   0.000000
    11  C    0.000000   0.000000
    12  H    0.000000   0.000000
    13  H    0.000000   0.000000
    14  C    0.000000   0.000000
    15  H    0.000000   0.000000
    16  H    0.000000   0.000000
    17  C    0.000000   0.000000
    18  H    0.000000   0.000000
    19  H    0.855242   0.000000
    20  H    0.000000   0.852462
 Mulliken atomic charges:
              1
     1  C   -0.466558
     2  H    0.147028
     3  H    0.147542
     4  H    0.144751
     5  C   -0.222116
     6  H    0.127365
     7  H    0.126915
     8  C   -0.266822
     9  H    0.132335
    10  H    0.129552
    11  C   -0.266807
    12  H    0.129550
    13  H    0.132333
    14  C   -0.222117
    15  H    0.127367
    16  H    0.126916
    17  C   -0.466556
    18  H    0.147027
    19  H    0.144758
    20  H    0.147538
 Sum of Mulliken atomic charges =   0.00000
 Mulliken charges with hydrogens summed into heavy atoms:
              1
     1  C   -0.027238
     5  C    0.032164
     8  C   -0.004936
    11  C   -0.004924
    14  C    0.032166
    17  C   -0.027233
 Sum of Mulliken charges with hydrogens summed into heavy atoms =   0.00000
 Charge=              0.0000 electrons
 Dipole moment (field-independent basis, Debye):
    X=             -0.0001    Y=              0.0346    Z=              0.0002  Tot=              0.0346
 N-N= 1.623238231952D+02 E-N=-2.458325889616D+02  KE=-5.603407476894D+01
 Leave Link  601 at Mon Sep 14 19:12:15 2015, MaxMem=  402653184 cpu:       0.0
 (Enter /share/apps/g09/l701.exe)
 Compute integral first derivatives.
 ... and contract with generalized density number  0.
 Leave Link  701 at Mon Sep 14 19:12:15 2015, MaxMem=  402653184 cpu:       0.1
 (Enter /share/apps/g09/l702.exe)
 L702 exits ... SP integral derivatives will be done elsewhere.
 Leave Link  702 at Mon Sep 14 19:12:21 2015, MaxMem=  402653184 cpu:       0.0
 (Enter /share/apps/g09/l703.exe)
 Compute integral first derivatives, UseDBF=F ICtDFT=           0.
 Integral derivatives from FoFDir, PRISM(SPDF).
 Calling FoFJK, ICntrl=      2127 FMM=F ISym2X=0 I1Cent= 0 IOpClX= 0 NMat=1 NMatS=1 NMatT=0.
 FoFCou: FMM=F IPFlag=           0 FMFlag=      100000 FMFlg1=         800
         NFxFlg=           0 DoJE=F BraDBF=F KetDBF=F FulRan=T
         Omega=  0.000000  0.000000  1.000000  0.000000  0.000000 ICntrl=    2127 IOpCl=  0
         NMat0=    1 NMatS0=    1 NMatT0=    0 NMatD0=    1 NMtDS0=    0 NMtDT0=    0
         I1Cent=           0 NGrid=           0.
 Symmetry not used in FoFCou.
 Leave Link  703 at Mon Sep 14 19:12:21 2015, MaxMem=  402653184 cpu:       0.0
 (Enter /share/apps/g09/l716.exe)
 Dipole        =-2.30957528D-05 1.36262213D-02 6.99946149D-05
 ***** Axes restored to original set *****
 -------------------------------------------------------------------
 Center     Atomic                   Forces (Hartrees/Bohr)
 Number     Number              X              Y              Z
 -------------------------------------------------------------------
      1        6           0.004123513   -0.001360021   -0.000719648
      2        1          -0.005347273   -0.008194674   -0.003727570
      3        1           0.001889004    0.001892558    0.010111562
      4        1           0.002527392    0.007150224   -0.006579616
      5        6          -0.002099744   -0.000333938    0.000805463
      6        1          -0.000038481    0.004027145    0.003349225
      7        1          -0.002977351   -0.001707301   -0.003953992
      8        6           0.000355936    0.000121167   -0.000954556
      9        1           0.001567040    0.001708656    0.004410066
     10        1          -0.001410021   -0.002625920   -0.003426077
     11        6           0.000082949    0.000618478    0.000758671
     12        1          -0.000834029   -0.001186513    0.004294281
     13        1          -0.000204285    0.000625769   -0.004940274
     14        6           0.000687352   -0.002220742   -0.000164844
     15        1           0.002762680    0.000647193   -0.004434377
     16        1           0.000827840   -0.001948517    0.004771383
     17        6          -0.003184951    0.003116682    0.000313202
     18        1          -0.003472084   -0.006822353    0.007136979
     19        1           0.006039689    0.007382669    0.003290446
     20        1          -0.001295174   -0.000890561   -0.010340323
 -------------------------------------------------------------------
 Cartesian Forces:  Max     0.010340323 RMS     0.003858248
 Leave Link  716 at Mon Sep 14 19:12:23 2015, MaxMem=  402653184 cpu:       0.1
 (Enter /share/apps/g09/l103.exe)

 GradGradGradGradGradGradGradGradGradGradGradGradGradGradGradGradGradGrad
 Berny optimization.
 Internal  Forces:  Max     0.009970302 RMS     0.003159392
 Search for a local minimum.
 Step number   1 out of a maximum of  110
 All quantities printed in internal units (Hartrees-Bohrs-Radians)
 RMS Force = .31594D-02 SwitMx=.10000D-02 MixMth= 1
 Mixed Optimization -- RFO/linear search
 Second derivative matrix not updated -- first step.
     Eigenvalues ---    0.00290   0.00297   0.00298   0.00412   0.00414
     Eigenvalues ---    0.03387   0.03387   0.03655   0.03655   0.04797
     Eigenvalues ---    0.04797   0.04885   0.04886   0.05660   0.05660
     Eigenvalues ---    0.05774   0.05774   0.08167   0.08168   0.08481
     Eigenvalues ---    0.08483   0.12074   0.12075   0.12324   0.12325
     Eigenvalues ---    0.16000   0.16000   0.16000   0.16000   0.16000
     Eigenvalues ---    0.16000   0.21973   0.21973   0.21987   0.21988
     Eigenvalues ---    0.28875   0.28924   0.28930   0.29728   0.29738
     Eigenvalues ---    0.32050   0.32055   0.32068   0.32069   0.32104
     Eigenvalues ---    0.32109   0.32188   0.32189   0.32191   0.32191
     Eigenvalues ---    0.32192   0.32201   0.32226   0.322391000.00000
     Eigenvalues --- 1000.000001000.000001000.000001000.000001000.00000
     Eigenvalues --- 1000.000001000.000001000.000001000.000001000.00000
     Eigenvalues --- 1000.000001000.000001000.000001000.000001000.00000
     Eigenvalues --- 1000.000001000.000001000.000001000.000001000.00000
     Eigenvalues --- 1000.000001000.000001000.000001000.000001000.00000
     Eigenvalues --- 1000.000001000.000001000.000001000.000001000.00000
     Eigenvalues --- 1000.000001000.000001000.000001000.000001000.00000
     Eigenvalues --- 1000.000001000.000001000.000001000.000001000.00000
     Eigenvalues --- 1000.000001000.000001000.000001000.000001000.00000
 RFO step:  Lambda=-4.26237184D-03 EMin= 2.89589360D-03
 Linear search not attempted -- first point.
 Iteration  1 RMS(Cart)=  0.03495645 RMS(Int)=  0.00051675
 Iteration  2 RMS(Cart)=  0.00078259 RMS(Int)=  0.00008646
 Iteration  3 RMS(Cart)=  0.00000021 RMS(Int)=  0.00008645
 Variable       Old X    -DE/DX   Delta X   Delta X   Delta X     New X
                                 (Linear)    (Quad)   (Total)
    R1        2.10501  -0.00996   0.00000  -0.03055  -0.03055   2.07446
    R2        2.10495  -0.00997   0.00000  -0.03056  -0.03056   2.07438
    R3        2.10409  -0.00952   0.00000  -0.02913  -0.02913   2.07496
    R4        2.88509   0.00316   0.00000   0.01049   0.01049   2.89559
    R5        2.10477  -0.00336   0.00000  -0.01031  -0.01031   2.09446
    R6        2.10654  -0.00397   0.00000  -0.01220  -0.01220   2.09434
    R7        2.90149  -0.00178   0.00000  -0.00606  -0.00606   2.89543
    R8        2.10719  -0.00464   0.00000  -0.01428  -0.01428   2.09291
    R9        2.10752  -0.00331   0.00000  -0.01019  -0.01019   2.09733
   R10        2.90264  -0.00141   0.00000  -0.00482  -0.00482   2.89782
   R11        2.10744  -0.00329   0.00000  -0.01013  -0.01013   2.09730
   R12        2.10717  -0.00464   0.00000  -0.01428  -0.01428   2.09290
   R13        2.90162  -0.00181   0.00000  -0.00615  -0.00615   2.89547
   R14        2.10497  -0.00340   0.00000  -0.01044  -0.01044   2.09453
   R15        2.10645  -0.00395   0.00000  -0.01215  -0.01215   2.09429
   R16        2.88489   0.00321   0.00000   0.01065   0.01065   2.89554
   R17        2.10499  -0.00996   0.00000  -0.03053  -0.03053   2.07446
   R18        2.10432  -0.00957   0.00000  -0.02930  -0.02930   2.07502
   R19        2.10496  -0.00997   0.00000  -0.03057  -0.03057   2.07439
    A1        1.90507  -0.00361   0.00000  -0.02447  -0.02458   1.88049
    A2        1.89594  -0.00321   0.00000  -0.01808  -0.01833   1.87762
    A3        1.92669   0.00322   0.00000   0.01901   0.01882   1.94551
    A4        1.89702  -0.00320   0.00000  -0.01837  -0.01859   1.87843
    A5        1.92612   0.00311   0.00000   0.01816   0.01798   1.94411
    A6        1.91248   0.00347   0.00000   0.02245   0.02220   1.93468
    A7        1.88635   0.00240   0.00000   0.02396   0.02395   1.91030
    A8        1.89518   0.00173   0.00000   0.01766   0.01765   1.91283
    A9        1.95575  -0.00185   0.00000  -0.00165  -0.00164   1.95411
   A10        1.89420  -0.00202   0.00000  -0.03041  -0.03064   1.86356
   A11        1.91745  -0.00040   0.00000  -0.00676  -0.00686   1.91059
   A12        1.91369   0.00016   0.00000  -0.00336  -0.00345   1.91024
   A13        1.91207   0.00119   0.00000  -0.00145  -0.00147   1.91060
   A14        1.89415   0.00162   0.00000   0.01348   0.01357   1.90772
   A15        1.99052  -0.00482   0.00000  -0.01836  -0.01835   1.97217
   A16        1.87992  -0.00203   0.00000  -0.02020  -0.02020   1.85971
   A17        1.90816   0.00176   0.00000   0.00502   0.00493   1.91309
   A18        1.87564   0.00238   0.00000   0.02143   0.02148   1.89712
   A19        1.87569   0.00237   0.00000   0.02140   0.02145   1.89714
   A20        1.90812   0.00176   0.00000   0.00506   0.00497   1.91308
   A21        1.99044  -0.00481   0.00000  -0.01831  -0.01830   1.97214
   A22        1.88005  -0.00204   0.00000  -0.02026  -0.02027   1.85979
   A23        1.89409   0.00162   0.00000   0.01352   0.01361   1.90770
   A24        1.91208   0.00119   0.00000  -0.00148  -0.00151   1.91057
   A25        1.91725  -0.00039   0.00000  -0.00663  -0.00674   1.91050
   A26        1.91376   0.00015   0.00000  -0.00345  -0.00353   1.91023
   A27        1.95570  -0.00184   0.00000  -0.00160  -0.00159   1.95411
   A28        1.89416  -0.00202   0.00000  -0.03040  -0.03063   1.86353
   A29        1.88638   0.00239   0.00000   0.02396   0.02396   1.91033
   A30        1.89536   0.00173   0.00000   0.01756   0.01755   1.91291
   A31        1.92676   0.00321   0.00000   0.01898   0.01880   1.94556
   A32        1.91250   0.00347   0.00000   0.02243   0.02218   1.93469
   A33        1.92620   0.00310   0.00000   0.01814   0.01796   1.94416
   A34        1.89592  -0.00321   0.00000  -0.01810  -0.01834   1.87758
   A35        1.90500  -0.00360   0.00000  -0.02443  -0.02454   1.88046
   A36        1.89692  -0.00319   0.00000  -0.01834  -0.01856   1.87836
    D1       -3.10234  -0.00017   0.00000   0.00334   0.00330  -3.09904
    D2       -1.05076  -0.00031   0.00000  -0.00999  -0.01001  -1.06077
    D3        1.06567  -0.00012   0.00000  -0.00328  -0.00333   1.06234
    D4        1.07338   0.00022   0.00000   0.00967   0.00970   1.08309
    D5        3.12496   0.00007   0.00000  -0.00365  -0.00361   3.12135
    D6       -1.04180   0.00026   0.00000   0.00306   0.00308  -1.03872
    D7       -1.01497   0.00005   0.00000   0.00694   0.00694  -1.00802
    D8        1.03661  -0.00009   0.00000  -0.00638  -0.00637   1.03024
    D9       -3.13015   0.00010   0.00000   0.00032   0.00032  -3.12983
   D10        1.09341  -0.00010   0.00000  -0.00850  -0.00853   1.08488
   D11       -0.95482   0.00074   0.00000   0.00883   0.00882  -0.94600
   D12       -3.04482  -0.00033   0.00000  -0.01611  -0.01608  -3.06090
   D13       -1.00374  -0.00165   0.00000  -0.03306  -0.03302  -1.03676
   D14       -3.05197  -0.00080   0.00000  -0.01573  -0.01567  -3.06764
   D15        1.14122  -0.00187   0.00000  -0.04066  -0.04057   1.10065
   D16       -3.08403   0.00098   0.00000   0.01041   0.01033  -3.07370
   D17        1.15092   0.00182   0.00000   0.02774   0.02768   1.17860
   D18       -0.93908   0.00075   0.00000   0.00281   0.00278  -0.93630
   D19        3.00469   0.00007   0.00000  -0.00538  -0.00537   2.99932
   D20        0.96881   0.00025   0.00000   0.00416   0.00413   0.97295
   D21       -1.17820   0.00077   0.00000   0.01522   0.01519  -1.16301
   D22       -1.13141  -0.00045   0.00000  -0.01645  -0.01644  -1.14785
   D23        3.11590  -0.00027   0.00000  -0.00691  -0.00694   3.10896
   D24        0.96888   0.00025   0.00000   0.00415   0.00412   0.97300
   D25        0.90430  -0.00062   0.00000  -0.02592  -0.02587   0.87843
   D26       -1.13157  -0.00045   0.00000  -0.01638  -0.01637  -1.14794
   D27        3.00460   0.00007   0.00000  -0.00532  -0.00531   2.99929
   D28        1.14128  -0.00187   0.00000  -0.04070  -0.04061   1.10067
   D29       -0.93890   0.00075   0.00000   0.00274   0.00271  -0.93619
   D30       -3.04489  -0.00033   0.00000  -0.01603  -0.01601  -3.06089
   D31       -3.05195  -0.00080   0.00000  -0.01574  -0.01568  -3.06763
   D32        1.15106   0.00182   0.00000   0.02769   0.02764   1.17870
   D33       -0.95493   0.00074   0.00000   0.00893   0.00892  -0.94601
   D34       -1.00358  -0.00165   0.00000  -0.03314  -0.03311  -1.03669
   D35       -3.08376   0.00097   0.00000   0.01029   0.01021  -3.07355
   D36        1.09344  -0.00010   0.00000  -0.00847  -0.00851   1.08493
   D37        1.06572  -0.00013   0.00000  -0.00336  -0.00340   1.06232
   D38       -3.13005   0.00009   0.00000   0.00021   0.00020  -3.12985
   D39       -1.04176   0.00026   0.00000   0.00295   0.00297  -1.03878
   D40       -3.10255  -0.00016   0.00000   0.00344   0.00340  -3.09915
   D41       -1.01514   0.00005   0.00000   0.00700   0.00701  -1.00813
   D42        1.07316   0.00022   0.00000   0.00975   0.00978   1.08294
   D43       -1.05090  -0.00031   0.00000  -0.00992  -0.00994  -1.06085
   D44        1.03651  -0.00009   0.00000  -0.00636  -0.00634   1.03017
   D45        3.12481   0.00007   0.00000  -0.00361  -0.00357   3.12124
         Item               Value     Threshold  Converged?
 Maximum Force            0.009970     0.000450     NO 
 RMS     Force            0.003159     0.000300     NO 
 Maximum Displacement     0.138724     0.001800     NO 
 RMS     Displacement     0.035300     0.001200     NO 
 Predicted change in Energy=-2.190472D-03
 GradGradGradGradGradGradGradGradGradGradGradGradGradGradGradGradGradGrad

 Leave Link  103 at Mon Sep 14 19:12:23 2015, MaxMem=  402653184 cpu:       0.0
 (Enter /share/apps/g09/l202.exe)
                          Input orientation:                          
 ---------------------------------------------------------------------
 Center     Atomic      Atomic             Coordinates (Angstroms)
 Number     Number       Type             X           Y           Z
 ---------------------------------------------------------------------
      1          6           0        1.977206   -2.553514    0.579824
      2          1           0        2.828279   -1.915335    0.850879
      3          1           0        2.111346   -2.864368   -0.464378
      4          1           0        2.026850   -3.455369    1.204203
      5          6           0        0.644035   -1.824947    0.779131
      6          1           0       -0.191663   -2.512048    0.538463
      7          1           0        0.529919   -1.543554    1.844997
      8          6           0        0.540796   -0.569914   -0.093714
      9          1           0        0.584424   -0.858665   -1.162042
     10          1           0        1.419941    0.080952    0.094088
     11          6           0       -0.734994    0.239288    0.169055
     12          1           0       -0.668320    1.198587   -0.385074
     13          1           0       -0.795538    0.499230    1.243927
     14          6           0       -2.009819   -0.500200   -0.250076
     15          1           0       -2.118790   -1.421404    0.356557
     16          1           0       -1.919284   -0.821945   -1.306725
     17          6           0       -3.258970    0.371365   -0.083345
     18          1           0       -3.204715    1.274505   -0.705007
     19          1           0       -4.162099   -0.179738   -0.377226
     20          1           0       -3.388604    0.690072    0.959063
 ---------------------------------------------------------------------
                    Distance matrix (angstroms):
                    1          2          3          4          5
     1  C    0.000000
     2  H    1.097756   0.000000
     3  H    1.097717   1.773290   0.000000
     4  H    1.098023   1.771674   1.772169   0.000000
     5  C    1.532279   2.187290   2.186256   2.179711   0.000000
     6  H    2.169659   3.094142   2.536468   2.500973   1.108341
     7  H    2.171479   2.531590   3.094943   2.511266   1.108276
     8  C    2.540000   2.816911   2.805092   3.495540   1.532196
     9  H    2.801153   3.194258   2.615545   3.797708   2.169195
    10  H    2.736220   2.557599   3.076498   3.755830   2.168816
    11  C    3.914653   4.219502   4.258588   4.727559   2.556361
    12  H    4.691279   4.842550   4.923458   5.607945   3.495626
    13  H    4.177127   4.372260   4.762570   4.858632   2.773122
    14  C    4.560833   5.159641   4.755966   5.209861   3.139611
    15  H    4.255433   4.996180   4.544242   4.694875   2.823937
    16  H    4.662621   5.328236   4.596414   5.367649   3.453608
    17  C    6.034257   6.569351   6.281358   6.651434   4.560822
    18  H    6.569385   6.999491   6.741563   7.306577   5.159665
    19  H    6.651453   7.306567   6.824291   7.178703   5.209875
    20  H    6.281449   6.741623   6.701469   6.824363   4.756036
                    6          7          8          9         10
     6  H    0.000000
     7  H    1.779239   0.000000
     8  C    2.169799   2.169492   0.000000
     9  H    2.495537   3.084531   1.107522   0.000000
    10  H    3.085188   2.548891   1.109861   1.777310   0.000000
    11  C    2.828696   2.754509   1.533459   2.172138   2.162044
    12  H    3.853431   3.732068   2.162047   2.530876   2.416513
    13  H    3.151212   2.508205   2.172129   3.088181   2.530896
    14  C    2.824007   3.453721   2.556354   2.773135   3.495631
    15  H    2.221804   3.040730   2.828636   3.151221   3.853386
    16  H    3.040697   4.056189   2.754434   2.508154   3.732013
    17  C    4.255478   4.662736   3.914631   4.177110   4.691272
    18  H    4.996267   5.328365   4.219527   4.372284   4.842578
    19  H    4.694946   5.367803   4.727562   4.858638   5.607965
    20  H    4.544328   4.596607   4.258649   4.762629   4.923547
                   11         12         13         14         15
    11  C    0.000000
    12  H    1.109846   0.000000
    13  H    1.107514   1.777338   0.000000
    14  C    1.532217   2.168806   2.169189   0.000000
    15  H    2.169781   3.085164   2.495447   1.108376   0.000000
    16  H    2.169489   2.548902   3.084499   1.108253   1.779231
    17  C    2.540001   2.736203   2.801160   1.532255   2.169688
    18  H    2.816945   2.557620   3.194296   2.187308   3.094200
    19  H    3.495576   3.755840   3.797745   2.179719   2.501057
    20  H    2.805168   3.076563   2.615638   2.186279   2.536488
                   16         17         18         19         20
    16  H    0.000000
    17  C    2.171499   0.000000
    18  H    2.531699   1.097756   0.000000
    19  H    2.511298   1.098054   1.771679   0.000000
    20  H    3.094979   1.097722   1.773275   1.772155   0.000000
 Stoichiometry    C6H14
 Framework group  C1[X(C6H14)]
 Deg. of freedom    54
 Full point group                 C1      NOp   1
 Largest Abelian subgroup         C1      NOp   1
 Largest concise Abelian subgroup C1      NOp   1
                         Standard orientation:                         
 ---------------------------------------------------------------------
 Center     Atomic      Atomic             Coordinates (Angstroms)
 Number     Number       Type             X           Y           Z
 ---------------------------------------------------------------------
      1          6           0        3.016054   -0.323757   -0.080636
      2          1           0        3.485707    0.587048    0.312973
      3          1           0        3.139267   -0.319129   -1.171406
      4          1           0        3.575624   -1.182343    0.313531
      5          6           0        1.537993   -0.408263    0.314424
      6          1           0        1.109222   -1.358670   -0.061479
      7          1           0        1.449196   -0.432038    1.418881
      8          6           0        0.729125    0.770342   -0.237162
      9          1           0        0.759966    0.753331   -1.344124
     10          1           0        1.205742    1.721858    0.077871
     11          6           0       -0.729129    0.770367    0.237170
     12          1           0       -1.205745    1.721848   -0.077915
     13          1           0       -0.759965    0.753335    1.344123
     14          6           0       -1.538000   -0.408268   -0.314407
     15          1           0       -1.109171   -1.358645    0.061605
     16          1           0       -1.449091   -0.432131   -1.418830
     17          6           0       -3.016048   -0.323752    0.080606
     18          1           0       -3.485737    0.587038   -0.312996
     19          1           0       -3.575635   -1.182358   -0.313575
     20          1           0       -3.139354   -0.319151    1.171371
 ---------------------------------------------------------------------
 Rotational constants (GHZ):     10.0177651      1.3176722      1.2494759
 Leave Link  202 at Mon Sep 14 19:12:23 2015, MaxMem=  402653184 cpu:       0.0
 (Enter /share/apps/g09/l301.exe)
 Standard basis: VSTO-6G (5D, 7F)
 Ernie: Thresh=  0.10000D-02 Tol=  0.10000D-05 Strict=F.
  NNHCO=     0 NNPyr=     0 NCTC=     0               EPep=         0.000000000
    EC=       125.324380160  ECS=         3.215856396   EG=         0.308691890
   EHC=         0.000451577  EAt=       -31.187935768  AtH=         2.796400831
 EPDDG=         0.000000000  ECC=       128.849380023 EAtT=        33.984336599
 There are    38 symmetry adapted basis functions of A   symmetry.
 Integral buffers will be    131072 words long.
 Regular integral format.
 Two-electron integral symmetry is turned off.
    38 basis functions,   228 primitive gaussians,    38 cartesian basis functions
    19 alpha electrons       19 beta electrons
       nuclear repulsion energy       162.8337166220 Hartrees.
 IExCor=    0 DFT=F Ex=HF Corr=None ExCW=0 ScaHFX=  1.000000
 ScaDFX=  1.000000  1.000000  1.000000  1.000000 ScalE2=  1.000000  1.000000
 IRadAn=      0 IRanWt=     -1 IRanGd=            0 ICorTp=0
 Leave Link  301 at Mon Sep 14 19:12:23 2015, MaxMem=  402653184 cpu:       0.1
 (Enter /share/apps/g09/l302.exe)
 Do NDO integrals.
 NPDir=0 NMtPBC=     1 NCelOv=     1 NCel=       1 NClECP=     1 NCelD=      1
         NCelK=      1 NCelE2=     1 NClLst=     1 CellRange=     0.0.
 One-electron integrals computed using PRISM.
 NBasis=    38 RedAO= F  NBF=    38
 NBsUse=    38 1.00D-04 NBFU=    38
 Leave Link  302 at Mon Sep 14 19:12:28 2015, MaxMem=  402653184 cpu:       0.1
 (Enter /share/apps/g09/l303.exe)
 DipDrv:  MaxL=1.
 Leave Link  303 at Mon Sep 14 19:12:29 2015, MaxMem=  402653184 cpu:       0.0
 (Enter /share/apps/g09/l401.exe)
 Initial guess read from the read-write file.
 B after Tr=     0.000000    0.000000    0.000000
         Rot=    1.000000    0.000000    0.000000    0.000000 Ang=   0.00 deg.
 Guess basis will be translated and rotated to current coordinates.
 Initial guess orbital symmetries:
       Occupied  (A) (A) (A) (A) (A) (A) (A) (A) (A) (A) (A) (A)
                 (A) (A) (A) (A) (A) (A) (A)
       Virtual   (A) (A) (A) (A) (A) (A) (A) (A) (A) (A) (A) (A)
                 (A) (A) (A) (A) (A) (A) (A)
 The electronic state of the initial guess is 1-A.
 Leave Link  401 at Mon Sep 14 19:12:30 2015, MaxMem=  402653184 cpu:       0.2
 (Enter /share/apps/g09/l502.exe)
 Closed shell SCF:
 Requested convergence on RMS density matrix=1.00D-08 within 128 cycles.
 Requested convergence on MAX density matrix=1.00D-06.
 Requested convergence on             energy=1.00D-06.
 No special actions if energy rises.
 Using DIIS extrapolation, IDIIS=  1040.
 Overlap will be assumed to be unity.
 Two-electron integral symmetry not used.
 Keep J ints in memory in canonical form, NReq=884654.
 IEnd=       81865 IEndB=       81865 NGot=   402653184 MDV=   402586639
 LenX=   402586639 LenY=   402584754
 Symmetry not used in FoFDir.
 MinBra= 0 MaxBra= 1 Meth=40.
 IRaf=       0 NMat=   1 IRICut=       1 DoRegI=T DoRafI=F ISym2E= 0 JSym2E=0.

 Cycle   1  Pass 1  IDiag  1:
 E=-0.547232474523298E-01
 DIIS: error= 3.23D-03 at cycle   1 NSaved=   1.
 NSaved= 1 IEnMin= 1 EnMin=-0.547232474523298E-01 IErMin= 1 ErrMin= 3.23D-03
 ErrMax= 3.23D-03 EMaxC= 1.00D-01 BMatC= 3.81D-04 BMatP= 3.81D-04
 IDIUse=3 WtCom= 9.68D-01 WtEn= 3.23D-02
 Coeff-Com:  0.100D+01
 Coeff-En:   0.100D+01
 Coeff:      0.100D+01
 GapD=    2.000 DampG=2.000 DampE=1.000 DampFc=2.0000 IDamp=-1.
 RMSDP=9.24D-04 MaxDP=6.45D-03              OVMax= 0.00D+00

 Cycle   2  Pass 1  IDiag  3:
 E=-0.560485713400283E-01 Delta-E=       -0.001325323888 Rises=F Damp=F
 DIIS: error= 1.36D-03 at cycle   2 NSaved=   2.
 NSaved= 2 IEnMin= 2 EnMin=-0.560485713400283E-01 IErMin= 2 ErrMin= 1.36D-03
 ErrMax= 1.36D-03 EMaxC= 1.00D-01 BMatC= 5.77D-05 BMatP= 3.81D-04
 IDIUse=3 WtCom= 9.86D-01 WtEn= 1.36D-02
 Coeff-Com: -0.577D+00 0.158D+01
 Coeff-En:   0.000D+00 0.100D+01
 Coeff:     -0.569D+00 0.157D+01
 Gap=     0.553 Goal=   None    Shift=    0.000
 RMSDP=6.05D-04 MaxDP=4.56D-03 DE=-1.33D-03 OVMax= 0.00D+00

 Cycle   3  Pass 1  IDiag  3:
 E=-0.563161073791605E-01 Delta-E=       -0.000267536039 Rises=F Damp=F
 DIIS: error= 1.48D-04 at cycle   3 NSaved=   3.
 NSaved= 3 IEnMin= 3 EnMin=-0.563161073791605E-01 IErMin= 3 ErrMin= 1.48D-04
 ErrMax= 1.48D-04 EMaxC= 1.00D-01 BMatC= 9.42D-07 BMatP= 5.77D-05
 IDIUse=3 WtCom= 9.99D-01 WtEn= 1.48D-03
 Coeff-Com:  0.214D+00-0.657D+00 0.144D+01
 Coeff-En:   0.000D+00 0.000D+00 0.100D+01
 Coeff:      0.214D+00-0.656D+00 0.144D+01
 Gap=     0.553 Goal=   None    Shift=    0.000
 RMSDP=8.78D-05 MaxDP=6.50D-04 DE=-2.68D-04 OVMax= 0.00D+00

 Cycle   4  Pass 1  IDiag  3:
 E=-0.563208653132392E-01 Delta-E=       -0.000004757934 Rises=F Damp=F
 DIIS: error= 1.67D-05 at cycle   4 NSaved=   4.
 NSaved= 4 IEnMin= 4 EnMin=-0.563208653132392E-01 IErMin= 4 ErrMin= 1.67D-05
 ErrMax= 1.67D-05 EMaxC= 1.00D-01 BMatC= 1.90D-08 BMatP= 9.42D-07
 IDIUse=1 WtCom= 1.00D+00 WtEn= 0.00D+00
 Coeff-Com: -0.968D-01 0.298D+00-0.694D+00 0.149D+01
 Coeff:     -0.968D-01 0.298D+00-0.694D+00 0.149D+01
 Gap=     0.553 Goal=   None    Shift=    0.000
 RMSDP=1.20D-05 MaxDP=1.00D-04 DE=-4.76D-06 OVMax= 0.00D+00

 Cycle   5  Pass 1  IDiag  3:
 E=-0.563209781888361E-01 Delta-E=       -0.000000112876 Rises=F Damp=F
 DIIS: error= 7.42D-06 at cycle   5 NSaved=   5.
 NSaved= 5 IEnMin= 5 EnMin=-0.563209781888361E-01 IErMin= 5 ErrMin= 7.42D-06
 ErrMax= 7.42D-06 EMaxC= 1.00D-01 BMatC= 2.48D-09 BMatP= 1.90D-08
 IDIUse=1 WtCom= 1.00D+00 WtEn= 0.00D+00
 Coeff-Com:  0.607D-01-0.187D+00 0.442D+00-0.117D+01 0.185D+01
 Coeff:      0.607D-01-0.187D+00 0.442D+00-0.117D+01 0.185D+01
 Gap=     0.553 Goal=   None    Shift=    0.000
 RMSDP=5.89D-06 MaxDP=5.20D-05 DE=-1.13D-07 OVMax= 0.00D+00

 Cycle   6  Pass 1  IDiag  3:
 E=-0.563209971260790E-01 Delta-E=       -0.000000018937 Rises=F Damp=F
 DIIS: error= 1.91D-06 at cycle   6 NSaved=   6.
 NSaved= 6 IEnMin= 6 EnMin=-0.563209971260790E-01 IErMin= 6 ErrMin= 1.91D-06
 ErrMax= 1.91D-06 EMaxC= 1.00D-01 BMatC= 2.05D-10 BMatP= 2.48D-09
 IDIUse=1 WtCom= 1.00D+00 WtEn= 0.00D+00
 Coeff-Com: -0.272D-01 0.840D-01-0.199D+00 0.557D+00-0.112D+01 0.171D+01
 Coeff:     -0.272D-01 0.840D-01-0.199D+00 0.557D+00-0.112D+01 0.171D+01
 Gap=     0.553 Goal=   None    Shift=    0.000
 RMSDP=1.86D-06 MaxDP=1.82D-05 DE=-1.89D-08 OVMax= 0.00D+00

 Cycle   7  Pass 1  IDiag  3:
 E=-0.563209987020343E-01 Delta-E=       -0.000000001576 Rises=F Damp=F
 DIIS: error= 3.39D-07 at cycle   7 NSaved=   7.
 NSaved= 7 IEnMin= 7 EnMin=-0.563209987020343E-01 IErMin= 7 ErrMin= 3.39D-07
 ErrMax= 3.39D-07 EMaxC= 1.00D-01 BMatC= 9.17D-12 BMatP= 2.05D-10
 IDIUse=1 WtCom= 1.00D+00 WtEn= 0.00D+00
 Coeff-Com:  0.974D-02-0.300D-01 0.714D-01-0.203D+00 0.435D+00-0.824D+00
 Coeff-Com:  0.154D+01
 Coeff:      0.974D-02-0.300D-01 0.714D-01-0.203D+00 0.435D+00-0.824D+00
 Coeff:      0.154D+01
 Gap=     0.553 Goal=   None    Shift=    0.000
 RMSDP=3.44D-07 MaxDP=2.96D-06 DE=-1.58D-09 OVMax= 0.00D+00

 Cycle   8  Pass 1  IDiag  3:
 E=-0.563209987613789E-01 Delta-E=       -0.000000000059 Rises=F Damp=F
 DIIS: error= 6.65D-08 at cycle   8 NSaved=   8.
 NSaved= 8 IEnMin= 8 EnMin=-0.563209987613789E-01 IErMin= 8 ErrMin= 6.65D-08
 ErrMax= 6.65D-08 EMaxC= 1.00D-01 BMatC= 2.87D-13 BMatP= 9.17D-12
 IDIUse=1 WtCom= 1.00D+00 WtEn= 0.00D+00
 Coeff-Com: -0.215D-02 0.662D-02-0.157D-01 0.452D-01-0.988D-01 0.202D+00
 Coeff-Com: -0.515D+00 0.138D+01
 Coeff:     -0.215D-02 0.662D-02-0.157D-01 0.452D-01-0.988D-01 0.202D+00
 Coeff:     -0.515D+00 0.138D+01
 Gap=     0.553 Goal=   None    Shift=    0.000
 RMSDP=5.22D-08 MaxDP=3.39D-07 DE=-5.93D-11 OVMax= 0.00D+00

 Cycle   9  Pass 1  IDiag  3:
 E=-0.563209987632263E-01 Delta-E=       -0.000000000002 Rises=F Damp=F
 DIIS: error= 9.23D-09 at cycle   9 NSaved=   9.
 NSaved= 9 IEnMin= 9 EnMin=-0.563209987632263E-01 IErMin= 9 ErrMin= 9.23D-09
 ErrMax= 9.23D-09 EMaxC= 1.00D-01 BMatC= 1.09D-14 BMatP= 2.87D-13
 IDIUse=1 WtCom= 1.00D+00 WtEn= 0.00D+00
 Coeff-Com:  0.333D-03-0.103D-02 0.244D-02-0.713D-02 0.160D-01-0.355D-01
 Coeff-Com:  0.113D+00-0.454D+00 0.137D+01
 Coeff:      0.333D-03-0.103D-02 0.244D-02-0.713D-02 0.160D-01-0.355D-01
 Coeff:      0.113D+00-0.454D+00 0.137D+01
 Gap=     0.553 Goal=   None    Shift=    0.000
 RMSDP=9.12D-09 MaxDP=6.31D-08 DE=-1.85D-12 OVMax= 0.00D+00

 Cycle  10  Pass 2  IDiag  1:
 RMSDP=9.12D-09 MaxDP=6.31D-08 DE=-1.85D-12 OVMax= 0.00D+00

 SCF Done:  E(RPM6) = -0.563209987632E-01 A.U. after   10 cycles
             Convg  =    0.9115D-08             -V/T =  0.9990
 KE=-5.609141562122D+01 PE=-2.466831433773D+02 EE= 1.398845213778D+02
 Leave Link  502 at Mon Sep 14 19:12:31 2015, MaxMem=  402653184 cpu:       0.7
 (Enter /share/apps/g09/l701.exe)
 Compute integral first derivatives.
 ... and contract with generalized density number  0.
 Leave Link  701 at Mon Sep 14 19:12:31 2015, MaxMem=  402653184 cpu:       0.1
 (Enter /share/apps/g09/l702.exe)
 L702 exits ... SP integral derivatives will be done elsewhere.
 Leave Link  702 at Mon Sep 14 19:12:37 2015, MaxMem=  402653184 cpu:       0.0
 (Enter /share/apps/g09/l703.exe)
 Compute integral first derivatives, UseDBF=F ICtDFT=           0.
 Integral derivatives from FoFDir, PRISM(SPDF).
 Calling FoFJK, ICntrl=      2127 FMM=F ISym2X=0 I1Cent= 0 IOpClX= 0 NMat=1 NMatS=1 NMatT=0.
 FoFCou: FMM=F IPFlag=           0 FMFlag=      100000 FMFlg1=         800
         NFxFlg=           0 DoJE=F BraDBF=F KetDBF=F FulRan=T
         Omega=  0.000000  0.000000  1.000000  0.000000  0.000000 ICntrl=    2127 IOpCl=  0
         NMat0=    1 NMatS0=    1 NMatT0=    0 NMatD0=    1 NMtDS0=    0 NMtDT0=    0
         I1Cent=           0 NGrid=           0.
 Symmetry not used in FoFCou.
 Leave Link  703 at Mon Sep 14 19:12:39 2015, MaxMem=  402653184 cpu:       0.0
 (Enter /share/apps/g09/l716.exe)
 Dipole        =-1.07242356D-05 9.52919901D-03 1.76467885D-05
 ***** Axes restored to original set *****
 -------------------------------------------------------------------
 Center     Atomic                   Forces (Hartrees/Bohr)
 Number     Number              X              Y              Z
 -------------------------------------------------------------------
      1        6          -0.002066293    0.000932031    0.000452330
      2        1          -0.000892993   -0.000955120   -0.000564772
      3        1           0.000200446    0.000376516    0.001324520
      4        1           0.000241065    0.001128818   -0.000962961
      5        6           0.002372809   -0.001967247    0.000702935
      6        1           0.000207930    0.000083320    0.001303248
      7        1          -0.000498227   -0.001162544   -0.000312235
      8        6           0.001038444    0.000739361   -0.001344099
      9        1           0.001063200    0.000651993    0.000040905
     10        1          -0.000414381   -0.000705797   -0.001281492
     11        6           0.000343889    0.001615365    0.000800122
     12        1          -0.000136440   -0.000229344    0.001495792
     13        1           0.000003237    0.001167158   -0.000451619
     14        6          -0.002972763    0.000905541   -0.000439471
     15        1          -0.000289258   -0.000201706   -0.001282221
     16        1          -0.000669555   -0.000818312    0.000753301
     17        6           0.001717189   -0.001484857   -0.000328539
     18        1          -0.000239498   -0.000981422    0.001003513
     19        1           0.001023599    0.001008653    0.000479365
     20        1          -0.000032398   -0.000102407   -0.001388624
 -------------------------------------------------------------------
 Cartesian Forces:  Max     0.002972763 RMS     0.001035852
 Leave Link  716 at Mon Sep 14 19:12:39 2015, MaxMem=  402653184 cpu:       0.0
 (Enter /share/apps/g09/l103.exe)

 GradGradGradGradGradGradGradGradGradGradGradGradGradGradGradGradGradGrad
 Berny optimization.
 Using GEDIIS/GDIIS optimizer.
 Internal  Forces:  Max     0.002927790 RMS     0.000774882
 Search for a local minimum.
 Step number   2 out of a maximum of  110
 All quantities printed in internal units (Hartrees-Bohrs-Radians)
 RMS Force = .77488D-03 SwitMx=.10000D-02 MixMth= 2
 Mixed Optimization -- En-DIIS/RFO-DIIS
 Update second derivatives using D2CorX and points    1    2
 DE= -2.38D-03 DEPred=-2.19D-03 R= 1.09D+00
 SS=  1.41D+00  RLast= 1.71D-01 DXNew= 5.0454D-01 5.1244D-01
 Trust test= 1.09D+00 RLast= 1.71D-01 DXMaxT set to 5.05D-01
 Use linear search instead of GDIIS.
     Eigenvalues ---    0.00289   0.00297   0.00298   0.00412   0.00414
     Eigenvalues ---    0.03442   0.03495   0.03592   0.03592   0.04445
     Eigenvalues ---    0.04777   0.04834   0.04846   0.05469   0.05474
     Eigenvalues ---    0.05548   0.05549   0.08213   0.08347   0.08357
     Eigenvalues ---    0.08512   0.12110   0.12115   0.12227   0.12230
     Eigenvalues ---    0.15511   0.16000   0.16000   0.16000   0.16000
     Eigenvalues ---    0.16003   0.20800   0.21899   0.21915   0.21999
     Eigenvalues ---    0.27795   0.28884   0.28927   0.29307   0.29733
     Eigenvalues ---    0.31965   0.32053   0.32069   0.32074   0.32106
     Eigenvalues ---    0.32113   0.32189   0.32190   0.32190   0.32191
     Eigenvalues ---    0.32201   0.32216   0.32234   0.344771000.00000
     Eigenvalues --- 1000.000001000.000001000.000001000.000001000.00000
     Eigenvalues --- 1000.000001000.000001000.000001000.000001000.00000
     Eigenvalues --- 1000.000001000.000001000.000001000.000001000.00000
     Eigenvalues --- 1000.000001000.000001000.000001000.000001000.00000
     Eigenvalues --- 1000.000001000.000001000.000001000.000001000.00000
     Eigenvalues --- 1000.000001000.000001000.000001000.000001000.00000
     Eigenvalues --- 1000.000001000.000001000.000001000.000001000.00000
     Eigenvalues --- 1000.000001000.000001000.000001000.000001000.00000
     Eigenvalues --- 1000.000001000.000001000.000001000.000001000.00000
 RFO step:  Lambda=-3.57707598D-04 EMin= 2.88772584D-03
 Quartic linear search produced a step of  0.12891.
 Iteration  1 RMS(Cart)=  0.02615619 RMS(Int)=  0.00032894
 Iteration  2 RMS(Cart)=  0.00038714 RMS(Int)=  0.00001436
 Iteration  3 RMS(Cart)=  0.00000007 RMS(Int)=  0.00001436
 Variable       Old X    -DE/DX   Delta X   Delta X   Delta X     New X
                                 (Linear)    (Quad)   (Total)
    R1        2.07446  -0.00139  -0.00394  -0.00328  -0.00722   2.06724
    R2        2.07438  -0.00134  -0.00394  -0.00312  -0.00706   2.06732
    R3        2.07496  -0.00146  -0.00376  -0.00361  -0.00737   2.06760
    R4        2.89559  -0.00293   0.00135  -0.01164  -0.01029   2.88530
    R5        2.09446  -0.00049  -0.00133  -0.00119  -0.00252   2.09194
    R6        2.09434  -0.00054  -0.00157  -0.00128  -0.00285   2.09148
    R7        2.89543   0.00236  -0.00078   0.00950   0.00872   2.90415
    R8        2.09291  -0.00017  -0.00184   0.00015  -0.00169   2.09122
    R9        2.09733  -0.00096  -0.00131  -0.00285  -0.00416   2.09317
   R10        2.89782   0.00162  -0.00062   0.00655   0.00593   2.90375
   R11        2.09730  -0.00095  -0.00131  -0.00283  -0.00413   2.09317
   R12        2.09290  -0.00016  -0.00184   0.00016  -0.00168   2.09122
   R13        2.89547   0.00235  -0.00079   0.00949   0.00870   2.90417
   R14        2.09453  -0.00051  -0.00135  -0.00123  -0.00258   2.09195
   R15        2.09429  -0.00054  -0.00157  -0.00125  -0.00282   2.09148
   R16        2.89554  -0.00293   0.00137  -0.01164  -0.01027   2.88527
   R17        2.07446  -0.00139  -0.00394  -0.00328  -0.00722   2.06724
   R18        2.07502  -0.00148  -0.00378  -0.00365  -0.00743   2.06759
   R19        2.07439  -0.00134  -0.00394  -0.00313  -0.00707   2.06733
    A1        1.88049  -0.00040  -0.00317  -0.00265  -0.00583   1.87466
    A2        1.87762  -0.00027  -0.00236  -0.00036  -0.00276   1.87486
    A3        1.94551   0.00022   0.00243   0.00019   0.00259   1.94810
    A4        1.87843  -0.00031  -0.00240  -0.00057  -0.00301   1.87542
    A5        1.94411   0.00031   0.00232   0.00096   0.00325   1.94736
    A6        1.93468   0.00040   0.00286   0.00223   0.00505   1.93973
    A7        1.91030   0.00025   0.00309  -0.00095   0.00214   1.91244
    A8        1.91283   0.00017   0.00228  -0.00147   0.00080   1.91364
    A9        1.95411  -0.00116  -0.00021  -0.00359  -0.00380   1.95031
   A10        1.86356  -0.00078  -0.00395  -0.01003  -0.01401   1.84955
   A11        1.91059   0.00074  -0.00088   0.00767   0.00677   1.91736
   A12        1.91024   0.00081  -0.00044   0.00807   0.00761   1.91785
   A13        1.91060   0.00048  -0.00019   0.00589   0.00569   1.91629
   A14        1.90772   0.00019   0.00175  -0.00051   0.00125   1.90898
   A15        1.97217  -0.00070  -0.00237   0.00024  -0.00213   1.97004
   A16        1.85971  -0.00076  -0.00260  -0.01263  -0.01522   1.84449
   A17        1.91309   0.00036   0.00064   0.00475   0.00536   1.91845
   A18        1.89712   0.00042   0.00277   0.00139   0.00416   1.90128
   A19        1.89714   0.00042   0.00277   0.00137   0.00415   1.90128
   A20        1.91308   0.00036   0.00064   0.00475   0.00537   1.91845
   A21        1.97214  -0.00070  -0.00236   0.00027  -0.00210   1.97004
   A22        1.85979  -0.00077  -0.00261  -0.01267  -0.01528   1.84451
   A23        1.90770   0.00019   0.00175  -0.00049   0.00127   1.90897
   A24        1.91057   0.00048  -0.00019   0.00591   0.00570   1.91628
   A25        1.91050   0.00074  -0.00087   0.00774   0.00685   1.91735
   A26        1.91023   0.00081  -0.00046   0.00808   0.00762   1.91785
   A27        1.95411  -0.00116  -0.00020  -0.00360  -0.00380   1.95032
   A28        1.86353  -0.00078  -0.00395  -0.01000  -0.01399   1.84954
[...]
 ! D10   D(1,5,8,9)             57.6284         -DE/DX =    0.0                 !
 ! D11   D(1,5,8,10)           -57.8097         -DE/DX =    0.0                 !
 ! D12   D(1,5,8,11)          -179.4514         -DE/DX =    0.0                 !
 ! D13   D(6,5,8,9)            -64.4289         -DE/DX =    0.0                 !
 ! D14   D(6,5,8,10)          -179.8669         -DE/DX =    0.0                 !
 ! D15   D(6,5,8,11)            58.4914         -DE/DX =    0.0                 !
 ! D16   D(7,5,8,9)            179.7182         -DE/DX =    0.0                 !
 ! D17   D(7,5,8,10)            64.2801         -DE/DX =    0.0                 !
 ! D18   D(7,5,8,11)           -57.3615         -DE/DX =    0.0                 !
 ! D19   D(5,8,11,12)          165.0972         -DE/DX =    0.0                 !
 ! D20   D(5,8,11,13)           49.708          -DE/DX =    0.0                 !
 ! D21   D(5,8,11,14)          -73.114          -DE/DX =    0.0                 !
 ! D22   D(9,8,11,12)          -72.0807         -DE/DX =    0.0                 !
 ! D23   D(9,8,11,13)          172.53           -DE/DX =    0.0                 !
 ! D24   D(9,8,11,14)           49.708          -DE/DX =    0.0                 !
 ! D25   D(10,8,11,12)          43.3085         -DE/DX =    0.0                 !
 ! D26   D(10,8,11,13)         -72.0808         -DE/DX =    0.0                 !
 ! D27   D(10,8,11,14)         165.0972         -DE/DX =    0.0                 !
 ! D28   D(8,11,14,15)          58.4917         -DE/DX =    0.0                 !
 ! D29   D(8,11,14,16)         -57.3612         -DE/DX =    0.0                 !
 ! D30   D(8,11,14,17)        -179.4511         -DE/DX =    0.0                 !
 ! D31   D(12,11,14,15)       -179.8667         -DE/DX =    0.0                 !
 ! D32   D(12,11,14,16)         64.2804         -DE/DX =    0.0                 !
 ! D33   D(12,11,14,17)        -57.8094         -DE/DX =    0.0                 !
 ! D34   D(13,11,14,15)        -64.4286         -DE/DX =    0.0                 !
 ! D35   D(13,11,14,16)        179.7185         -DE/DX =    0.0                 !
 ! D36   D(13,11,14,17)         57.6287         -DE/DX =    0.0                 !
 ! D37   D(11,14,17,18)         60.1521         -DE/DX =    0.0                 !
 ! D38   D(11,14,17,19)       -179.921          -DE/DX =    0.0                 !
 ! D39   D(11,14,17,20)        -60.0033         -DE/DX =    0.0                 !
 ! D40   D(15,14,17,18)       -177.7804         -DE/DX =    0.0                 !
 ! D41   D(15,14,17,19)        -57.8536         -DE/DX =    0.0                 !
 ! D42   D(15,14,17,20)         62.0642         -DE/DX =    0.0                 !
 ! D43   D(16,14,17,18)        -61.9407         -DE/DX =    0.0                 !
 ! D44   D(16,14,17,19)         57.9861         -DE/DX =    0.0                 !
 ! D45   D(16,14,17,20)        177.9039         -DE/DX =    0.0                 !
 --------------------------------------------------------------------------------
 GradGradGradGradGradGradGradGradGradGradGradGradGradGradGradGradGradGrad

 Largest change from initial coordinates is atom   15       0.183 Angstoms.
 Leave Link  103 at Mon Sep 14 19:14:20 2015, MaxMem=  402653184 cpu:       0.0
 (Enter /share/apps/g09/l202.exe)
                          Input orientation:                          
 ---------------------------------------------------------------------
 Center     Atomic      Atomic             Coordinates (Angstroms)
 Number     Number       Type             X           Y           Z
 ---------------------------------------------------------------------
      1          6           0        1.954234   -2.567310    0.582161
      2          1           0        2.844710   -1.946804    0.733085
      3          1           0        1.990932   -2.947905   -0.444779
      4          1           0        2.036841   -3.428537    1.254305
      5          6           0        0.670597   -1.782990    0.845612
      6          1           0       -0.206703   -2.448263    0.723475
      7          1           0        0.647290   -1.445287    1.900018
      8          6           0        0.539888   -0.573380   -0.090718
      9          1           0        0.568227   -0.909910   -1.144840
     10          1           0        1.420493    0.086592    0.033977
     11          6           0       -0.738034    0.236025    0.167567
     12          1           0       -0.652360    1.221071   -0.331354
     13          1           0       -0.833727    0.457890    1.247774
     14          6           0       -2.000686   -0.481413   -0.330378
     15          1           0       -2.092982   -1.466800    0.167273
     16          1           0       -1.906604   -0.698637   -1.412192
     17          6           0       -3.259411    0.345318   -0.076581
     18          1           0       -3.216945    1.313073   -0.588829
     19          1           0       -4.154164   -0.176074   -0.434187
     20          1           0       -3.401595    0.546340    0.991211
 ---------------------------------------------------------------------
                    Distance matrix (angstroms):
                    1          2          3          4          5
     1  C    0.000000
     2  H    1.095788   0.000000
     3  H    1.095813   1.765928   0.000000
     4  H    1.095588   1.766311   1.766353   0.000000
     5  C    1.527182   2.183177   2.182983   2.177493   0.000000
     6  H    2.168822   3.092357   2.538515   2.505236   1.107773
     7  H    2.168821   2.538091   3.092136   2.506208   1.107411
     8  C    2.535527   2.806626   2.805220   3.493119   1.535238
     9  H    2.765957   3.127958   2.582169   3.775739   2.175924
    10  H    2.761989   2.579117   3.124545   3.771633   2.171735
    11  C    3.908820   4.233273   4.237880   4.723340   2.553509
    12  H    4.688355   4.837144   4.937632   5.600444   3.487098
    13  H    4.167446   4.424744   4.737391   4.831617   2.728786
    14  C    4.563451   5.172638   4.693579   5.243890   3.195749
    15  H    4.214643   4.993130   4.387098   4.699520   2.863126
    16  H    4.730270   5.360515   4.602812   5.487561   3.593810
    17  C    6.008281   6.570364   6.208622   6.638036   4.563453
    18  H    6.570364   7.008417   6.730428   7.313158   5.172641
    19  H    6.638034   7.313156   6.741317   7.194308   5.243891
    20  H    6.208626   6.730432   6.584159   6.741324   4.693584
                    6          7          8          9         10
     6  H    0.000000
     7  H    1.766216   0.000000
     8  C    2.176119   2.175957   0.000000
     9  H    2.541190   3.092578   1.106901   0.000000
    10  H    3.090092   2.535076   1.107509   1.763230   0.000000
    11  C    2.792266   2.783401   1.534578   2.177589   2.167813
    12  H    3.843863   3.711816   2.167813   2.587020   2.391073
    13  H    3.018903   2.498183   2.177589   3.092079   2.587020
    14  C    2.863124   3.593814   2.553509   2.728786   3.487098
    15  H    2.197881   3.242215   2.792268   3.018907   3.843865
    16  H    3.242211   4.248600   2.783398   2.498181   3.711814
    17  C    4.214643   4.730278   3.908820   4.167444   4.688354
    18  H    4.993130   5.360525   4.233274   4.424741   4.837145
    19  H    4.699519   5.487566   4.723340   4.831617   5.600444
    20  H    4.387102   4.602823   4.237880   4.737390   4.937631
                   11         12         13         14         15
    11  C    0.000000
    12  H    1.107509   0.000000
    13  H    1.106900   1.763230   0.000000
    14  C    1.535239   2.171735   2.175924   0.000000
    15  H    2.176119   3.090091   2.541188   1.107773   0.000000
    16  H    2.175957   2.535077   3.092578   1.107411   1.766216
    17  C    2.535527   2.761986   2.765960   1.527182   2.168823
    18  H    2.806629   2.579118   3.127966   2.183177   3.092357
    19  H    3.493119   3.771633   3.775739   2.177493   2.505234
    20  H    2.805217   3.124537   2.582168   2.182984   2.538518
                   16         17         18         19         20
    16  H    0.000000
    17  C    2.168821   0.000000
    18  H    2.538089   1.095788   0.000000
    19  H    2.506210   1.095588   1.766311   0.000000
    20  H    3.092137   1.095813   1.765928   1.766352   0.000000
 Stoichiometry    C6H14
 Framework group  C1[X(C6H14)]
 Deg. of freedom    54
 Full point group                 C1      NOp   1
 Largest Abelian subgroup         C1      NOp   1
 Largest concise Abelian subgroup C1      NOp   1
                         Standard orientation:                         
 ---------------------------------------------------------------------
 Center     Atomic      Atomic             Coordinates (Angstroms)
 Number     Number       Type             X           Y           Z
 ---------------------------------------------------------------------
      1          6           0        3.002241   -0.348980   -0.106807
      2          1           0        3.500518    0.589572    0.160756
      3          1           0        3.067327   -0.455104   -1.195526
      4          1           0        3.581278   -1.166007    0.337599
      5          6           0        1.553257   -0.374041    0.374964
      6          1           0        1.091893   -1.349465    0.124261
      7          1           0        1.524187   -0.302841    1.479702
      8          6           0        0.728364    0.764706   -0.241285
      9          1           0        0.761280    0.696945   -1.345619
     10          1           0        1.195489    1.736795    0.010535
     11          6           0       -0.728364    0.764706    0.241284
     12          1           0       -1.195491    1.736794   -0.010540
     13          1           0       -0.761280    0.696950    1.345619
     14          6           0       -1.553256   -0.374044   -0.374961
     15          1           0       -1.091893   -1.349467   -0.124249
     16          1           0       -1.524181   -0.302852   -1.479699
     17          6           0       -3.002241   -0.348979    0.106805
     18          1           0       -3.500519    0.589569   -0.160772
     19          1           0       -3.581276   -1.166012   -0.337593
     20          1           0       -3.067332   -0.455089    1.195525
 ---------------------------------------------------------------------
 Rotational constants (GHZ):      9.8351289      1.3163998      1.2549885
 Leave Link  202 at Mon Sep 14 19:14:20 2015, MaxMem=  402653184 cpu:       0.0
 (Enter /share/apps/g09/l601.exe)
 Copying SCF densities to generalized density rwf, IOpCl= 0 IROHF=0.

 **********************************************************************

            Population analysis using the SCF density.

 **********************************************************************

 Orbital symmetries:
       Occupied  (A) (A) (A) (A) (A) (A) (A) (A) (A) (A) (A) (A)
                 (A) (A) (A) (A) (A) (A) (A)
       Virtual   (A) (A) (A) (A) (A) (A) (A) (A) (A) (A) (A) (A)
                 (A) (A) (A) (A) (A) (A) (A)
 The electronic state is 1-A.
 Alpha  occ. eigenvalues --   -1.05701  -0.99732  -0.91688  -0.80573  -0.76439
 Alpha  occ. eigenvalues --   -0.72218  -0.58085  -0.57374  -0.54650  -0.51814
 Alpha  occ. eigenvalues --   -0.51589  -0.49045  -0.46316  -0.46109  -0.44038
 Alpha  occ. eigenvalues --   -0.42700  -0.42125  -0.40732  -0.40132
 Alpha virt. eigenvalues --    0.15051   0.16348   0.16992   0.17042   0.18588
 Alpha virt. eigenvalues --    0.20675   0.20751   0.21991   0.22001   0.22229
 Alpha virt. eigenvalues --    0.22349   0.23231   0.23468   0.24261   0.24322
 Alpha virt. eigenvalues --    0.24750   0.25191   0.25590   0.25664
          Condensed to atoms (all electrons):
              1          2          3          4          5          6
     1  C    4.466673   0.000000   0.000000   0.000000   0.000000   0.000000
     2  H    0.000000   0.853895   0.000000   0.000000   0.000000   0.000000
     3  H    0.000000   0.000000   0.853672   0.000000   0.000000   0.000000
     4  H    0.000000   0.000000   0.000000   0.856001   0.000000   0.000000
     5  C    0.000000   0.000000   0.000000   0.000000   4.216827   0.000000
     6  H    0.000000   0.000000   0.000000   0.000000   0.000000   0.873320
     7  H    0.000000   0.000000   0.000000   0.000000   0.000000   0.000000
     8  C    0.000000   0.000000   0.000000   0.000000   0.000000   0.000000
     9  H    0.000000   0.000000   0.000000   0.000000   0.000000   0.000000
    10  H    0.000000   0.000000   0.000000   0.000000   0.000000   0.000000
    11  C    0.000000   0.000000   0.000000   0.000000   0.000000   0.000000
    12  H    0.000000   0.000000   0.000000   0.000000   0.000000   0.000000
    13  H    0.000000   0.000000   0.000000   0.000000   0.000000   0.000000
    14  C    0.000000   0.000000   0.000000   0.000000   0.000000   0.000000
    15  H    0.000000   0.000000   0.000000   0.000000   0.000000   0.000000
    16  H    0.000000   0.000000   0.000000   0.000000   0.000000   0.000000
    17  C    0.000000   0.000000   0.000000   0.000000   0.000000   0.000000
    18  H    0.000000   0.000000   0.000000   0.000000   0.000000   0.000000
    19  H    0.000000   0.000000   0.000000   0.000000   0.000000   0.000000
    20  H    0.000000   0.000000   0.000000   0.000000   0.000000   0.000000
              7          8          9         10         11         12
     1  C    0.000000   0.000000   0.000000   0.000000   0.000000   0.000000
     2  H    0.000000   0.000000   0.000000   0.000000   0.000000   0.000000
     3  H    0.000000   0.000000   0.000000   0.000000   0.000000   0.000000
     4  H    0.000000   0.000000   0.000000   0.000000   0.000000   0.000000
     5  C    0.000000   0.000000   0.000000   0.000000   0.000000   0.000000
     6  H    0.000000   0.000000   0.000000   0.000000   0.000000   0.000000
     7  H    0.874629   0.000000   0.000000   0.000000   0.000000   0.000000
     8  C    0.000000   4.266511   0.000000   0.000000   0.000000   0.000000
     9  H    0.000000   0.000000   0.867520   0.000000   0.000000   0.000000
    10  H    0.000000   0.000000   0.000000   0.870951   0.000000   0.000000
    11  C    0.000000   0.000000   0.000000   0.000000   4.266511   0.000000
    12  H    0.000000   0.000000   0.000000   0.000000   0.000000   0.870951
    13  H    0.000000   0.000000   0.000000   0.000000   0.000000   0.000000
    14  C    0.000000   0.000000   0.000000   0.000000   0.000000   0.000000
    15  H    0.000000   0.000000   0.000000   0.000000   0.000000   0.000000
    16  H    0.000000   0.000000   0.000000   0.000000   0.000000   0.000000
    17  C    0.000000   0.000000   0.000000   0.000000   0.000000   0.000000
    18  H    0.000000   0.000000   0.000000   0.000000   0.000000   0.000000
    19  H    0.000000   0.000000   0.000000   0.000000   0.000000   0.000000
    20  H    0.000000   0.000000   0.000000   0.000000   0.000000   0.000000
             13         14         15         16         17         18
     1  C    0.000000   0.000000   0.000000   0.000000   0.000000   0.000000
     2  H    0.000000   0.000000   0.000000   0.000000   0.000000   0.000000
     3  H    0.000000   0.000000   0.000000   0.000000   0.000000   0.000000
     4  H    0.000000   0.000000   0.000000   0.000000   0.000000   0.000000
     5  C    0.000000   0.000000   0.000000   0.000000   0.000000   0.000000
     6  H    0.000000   0.000000   0.000000   0.000000   0.000000   0.000000
     7  H    0.000000   0.000000   0.000000   0.000000   0.000000   0.000000
     8  C    0.000000   0.000000   0.000000   0.000000   0.000000   0.000000
     9  H    0.000000   0.000000   0.000000   0.000000   0.000000   0.000000
    10  H    0.000000   0.000000   0.000000   0.000000   0.000000   0.000000
    11  C    0.000000   0.000000   0.000000   0.000000   0.000000   0.000000
    12  H    0.000000   0.000000   0.000000   0.000000   0.000000   0.000000
    13  H    0.867520   0.000000   0.000000   0.000000   0.000000   0.000000
    14  C    0.000000   4.216827   0.000000   0.000000   0.000000   0.000000
    15  H    0.000000   0.000000   0.873320   0.000000   0.000000   0.000000
    16  H    0.000000   0.000000   0.000000   0.874629   0.000000   0.000000
    17  C    0.000000   0.000000   0.000000   0.000000   4.466673   0.000000
    18  H    0.000000   0.000000   0.000000   0.000000   0.000000   0.853895
    19  H    0.000000   0.000000   0.000000   0.000000   0.000000   0.000000
    20  H    0.000000   0.000000   0.000000   0.000000   0.000000   0.000000
             19         20
     1  C    0.000000   0.000000
     2  H    0.000000   0.000000
     3  H    0.000000   0.000000
     4  H    0.000000   0.000000
     5  C    0.000000   0.000000
     6  H    0.000000   0.000000
     7  H    0.000000   0.000000
     8  C    0.000000   0.000000
     9  H    0.000000   0.000000
    10  H    0.000000   0.000000
    11  C    0.000000   0.000000
    12  H    0.000000   0.000000
    13  H    0.000000   0.000000
    14  C    0.000000   0.000000
    15  H    0.000000   0.000000
    16  H    0.000000   0.000000
    17  C    0.000000   0.000000
    18  H    0.000000   0.000000
    19  H    0.856001   0.000000
    20  H    0.000000   0.853672
 Mulliken atomic charges:
              1
     1  C   -0.466673
     2  H    0.146105
     3  H    0.146328
     4  H    0.143999
     5  C   -0.216827
     6  H    0.126680
     7  H    0.125371
     8  C   -0.266511
     9  H    0.132480
    10  H    0.129049
    11  C   -0.266511
    12  H    0.129049
    13  H    0.132480
    14  C   -0.216827
    15  H    0.126680
    16  H    0.125371
    17  C   -0.466673
    18  H    0.146105
    19  H    0.143999
    20  H    0.146328
 Sum of Mulliken atomic charges =   0.00000
 Mulliken charges with hydrogens summed into heavy atoms:
              1
     1  C   -0.030242
     5  C    0.035224
     8  C   -0.004982
    11  C   -0.004982
    14  C    0.035224
    17  C   -0.030242
 Sum of Mulliken charges with hydrogens summed into heavy atoms =   0.00000
 Charge=              0.0000 electrons
 Dipole moment (field-independent basis, Debye):
    X=              0.0000    Y=              0.0170    Z=              0.0000  Tot=              0.0170
 N-N= 1.628276284657D+02 E-N=-2.466501091481D+02  KE=-5.609714638334D+01
 Leave Link  601 at Mon Sep 14 19:14:21 2015, MaxMem=  402653184 cpu:       0.0
 (Enter /share/apps/g09/l9999.exe)
 1\1\GINC-COMPUTE-0-10\FOpt\RPM6\ZDO\C6H14\HETANJIN\14-Sep-2015\0\\#p P
 M6 opt\\using PM6 to do opt and freq calc.\\0,1\C,1.9542340716,-2.5673
 095518,0.5821613051\H,2.8447097677,-1.9468041472,0.7330846813\H,1.9909
 316531,-2.9479046067,-0.4447792254\H,2.0368413829,-3.4285366358,1.2543
 050243\C,0.6705974039,-1.7829904819,0.8456119643\H,-0.2067030056,-2.44
 82632374,0.7234747634\H,0.6472900581,-1.4452872874,1.9000183861\C,0.53
 98875051,-0.5733795555,-0.0907177599\H,0.5682273871,-0.9099098085,-1.1
 448396783\H,1.4204928734,0.0865922208,0.0339767403\C,-0.7380335973,0.2
 360248127,0.1675668561\H,-0.6523603991,1.2210708231,-0.3313535916\H,-0
 .8337272684,0.4578902927,1.2477738013\C,-2.0006861911,-0.4814129151,-0
 .3303779273\H,-2.0929818408,-1.4667995059,0.1672726791\H,-1.9066044747
 ,-0.6986368438,-1.4121921386\C,-3.2594114401,0.3453176198,-0.076581176
 3\H,-3.216944835,1.3130731235,-0.5888289115\H,-4.154164161,-0.17607381
 62,-0.4341869171\H,-3.4015948896,0.5463395003,0.991211125\\Version=EM6
 4L-G09RevA.01\State=1-A\HF=-0.0565779\RMSD=4.081e-09\RMSF=7.486e-06\Di
 pole=0.0033157,0.0056451,-0.0012843\PG=C01 [X(C6H14)]\\@


 TOWERING GENIUS DISDAINS A BEATEN PATH.  IT SEEKS 
 REGIONS HITHERTO UNEXPLORED.

                                -- ABRAHAM LINCOLN
 Job cpu time:  0 days  0 hours  0 minutes 22.1 seconds.
 File lengths (MBytes):  RWF=      5 Int=      0 D2E=      0 Chk=      3 Scr=      1
 Normal termination of Gaussian 09 at Mon Sep 14 19:14:21 2015.
