 Entering Gaussian System, Link 0=/share/apps/g09/g09
 Input=C6H14_2_01_1_opt_B3L.gjf
 Output=C6H14_2_01_1_opt_B3L.log
 Initial command:
 /share/apps/g09/l1.exe /state/partition1/Gau-21361.inp -scrdir=/state/partition1/
 Entering Link 1 = /share/apps/g09/l1.exe PID=     21363.
  
 Copyright (c) 1988,1990,1992,1993,1995,1998,2003,2009, Gaussian, Inc.
                  All Rights Reserved.
  
 This is part of the Gaussian(R) 09 program.  It is based on
 the Gaussian(R) 03 system (copyright 2003, Gaussian, Inc.),
 the Gaussian(R) 98 system (copyright 1998, Gaussian, Inc.),
 the Gaussian(R) 94 system (copyright 1995, Gaussian, Inc.),
 the Gaussian 92(TM) system (copyright 1992, Gaussian, Inc.),
 the Gaussian 90(TM) system (copyright 1990, Gaussian, Inc.),
 the Gaussian 88(TM) system (copyright 1988, Gaussian, Inc.),
 the Gaussian 86(TM) system (copyright 1986, Carnegie Mellon
 University), and the Gaussian 82(TM) system (copyright 1983,
 Carnegie Mellon University). Gaussian is a federally registered
 trademark of Gaussian, Inc.
  
 This software contains proprietary and confidential information,
 including trade secrets, belonging to Gaussian, Inc.
  
 This software is provided under written license and may be
 used, copied, transmitted, or stored only in accord with that
 written license.
  
 The following legend is applicable only to US Government
 contracts under FAR:
  
                    RESTRICTED RIGHTS LEGEND
  
 Use, reproduction and disclosure by the US Government is
 subject to restrictions as set forth in subparagraphs (a)
 and (c) of the Commercial Computer Software - Restricted
 Rights clause in FAR 52.227-19.
  
 Gaussian, Inc.
 340 Quinnipiac St., Bldg. 40, Wallingford CT 06492
  
  
 ---------------------------------------------------------------
 Warning -- This program may not be used in any manner that
 competes with the business of Gaussian, Inc. or will provide
 assistance to any competitor of Gaussian, Inc.  The licensee
 of this program is prohibited from giving any competitor of
 Gaussian, Inc. access to this program.  By using this program,
 the user acknowledges that Gaussian, Inc. is engaged in the
 business of creating and licensing software in the field of
 computational chemistry and represents and warrants to the
 licensee that it is not a competitor of Gaussian, Inc. and that
 it will not use this program in any manner prohibited above.
 ---------------------------------------------------------------
  

 Cite this work as:
 Gaussian 09, Revision A.01,
 M. J. Frisch, G. W. Trucks, H. B. Schlegel, G. E. Scuseria, 
 M. A. Robb, J. R. Cheeseman, G. Scalmani, V. Barone, B. Mennucci, 
 G. A. Petersson, H. Nakatsuji, M. Caricato, X. Li, H. P. Hratchian, 
 A. F. Izmaylov, J. Bloino, G. Zheng, J. L. Sonnenberg, M. Hada, 
 M. Ehara, K. Toyota, R. Fukuda, J. Hasegawa, M. Ishida, T. Nakajima, 
 Y. Honda, O. Kitao, H. Nakai, T. Vreven, J. A. Montgomery, Jr., 
 J. E. Peralta, F. Ogliaro, M. Bearpark, J. J. Heyd, E. Brothers, 
 K. N. Kudin, V. N. Staroverov, R. Kobayashi, J. Normand, 
 K. Raghavachari, A. Rendell, J. C. Burant, S. S. Iyengar, J. Tomasi, 
 M. Cossi, N. Rega, J. M. Millam, M. Klene, J. E. Knox, J. B. Cross, 
 V. Bakken, C. Adamo, J. Jaramillo, R. Gomperts, R. E. Stratmann, 
 O. Yazyev, A. J. Austin, R. Cammi, C. Pomelli, J. W. Ochterski, 
 R. L. Martin, K. Morokuma, V. G. Zakrzewski, G. A. Voth, 
 P. Salvador, J. J. Dannenberg, S. Dapprich, A. D. Daniels, 
 O. Farkas, J. B. Foresman, J. V. Ortiz, J. Cioslowski, 
 and D. J. Fox, Gaussian, Inc., Wallingford CT, 2009.
 
 ******************************************
 Gaussian 09:  EM64L-G09RevA.01  8-May-2009
                18-Sep-2015 
 ******************************************
 %mem=3GB
 %nprocshared=2
 Will use up to    2 processors via shared memory.
 -----------------------------------------
 #p B3LYP/6-31G(d) opt=tight int=ultrafine
 -----------------------------------------
 1/7=10,14=-1,18=20,19=15,26=3,38=1/1,3;
 2/9=110,12=2,17=6,18=5,40=1/2;
 3/5=1,6=6,7=1,11=2,16=1,25=1,30=1,71=1,74=-5,75=-5/1,2,3;
 4//1;
 5/5=2,38=5/2;
 6/7=2,8=2,9=2,10=2,28=1/1;
 7//1,2,3,16;
 1/7=10,14=-1,18=20,19=15/3(2);
 2/9=110/2;
 99//99;
 2/9=110/2;
 3/5=1,6=6,7=1,11=2,16=1,25=1,30=1,71=1,74=-5,75=-5/1,2,3;
 4/5=5,16=3/1;
 5/5=2,38=5/2;
 7//1,2,3,16;
 1/7=10,14=-1,18=20,19=15/3(-5);
 2/9=110/2;
 6/7=2,8=2,9=2,10=2,19=2,28=1/1;
 99/9=1/99;
 Leave Link    1 at Fri Sep 18 13:22:32 2015, MaxMem=  402653184 cpu:       0.1
 (Enter /share/apps/g09/l101.exe)
 ---------------------------------------------
 using B3LYP/6-31G(d) to do opt and freq calc.
 ---------------------------------------------
 Symbolic Z-matrix:
 Charge =  0 Multiplicity = 1
 C                    -1.60081  -1.26218  -0.28579 
 H                    -1.2943   -2.16978   0.24427 
 H                    -1.15623  -1.30163  -1.28617 
 H                    -2.6878   -1.30131  -0.41061 
 C                    -1.17414  0.         0.47434 
 H                    -1.70671  -0.00001   1.46113 
 C                     0.33871  -0.00006   0.78271 
 H                     0.57822  -0.88222   1.40744 
 H                     0.57827   0.882     1.40756 
 C                     1.23522   0.       -0.46221 
 H                     1.0072    0.88383  -1.08944 
 H                     1.00721  -0.88378  -1.08951 
 C                     2.71725   0.00001  -0.09103 
 H                     2.9852   -0.88276   0.50015 
 H                     3.34902  -0.00021  -0.98596 
 H                     2.98527   0.88299   0.4998 
 C                    -1.60076   1.26222  -0.28574 
 H                    -1.29396   2.16979   0.24421 
 H                    -1.15641   1.30157  -1.28623 
 H                    -2.68778   1.30155  -0.41031 
 
 NAtoms=     20 NQM=     20 NQMF=      0 NMic=      0 NMicF=      0 NTot=     20.
                    Isotopes and Nuclear Properties:
 (Nuclear quadrupole moments (NQMom) in fm**2, nuclear magnetic moments (NMagM)
  in nuclear magnetons)

  Atom         1           2           3           4           5           6           7           8           9          10
 IAtWgt=          12           1           1           1          12           1          12           1           1          12
 AtmWgt=  12.0000000   1.0078250   1.0078250   1.0078250  12.0000000   1.0078250  12.0000000   1.0078250   1.0078250  12.0000000
 NucSpn=           0           1           1           1           0           1           0           1           1           0
 AtZEff=   0.0000000   0.0000000   0.0000000   0.0000000   0.0000000   0.0000000   0.0000000   0.0000000   0.0000000   0.0000000
 NQMom=    0.0000000   0.0000000   0.0000000   0.0000000   0.0000000   0.0000000   0.0000000   0.0000000   0.0000000   0.0000000
 NMagM=    0.0000000   2.7928460   2.7928460   2.7928460   0.0000000   2.7928460   0.0000000   2.7928460   2.7928460   0.0000000

  Atom        11          12          13          14          15          16          17          18          19          20
 IAtWgt=           1           1          12           1           1           1          12           1           1           1
 AtmWgt=   1.0078250   1.0078250  12.0000000   1.0078250   1.0078250   1.0078250  12.0000000   1.0078250   1.0078250   1.0078250
 NucSpn=           1           1           0           1           1           1           0           1           1           1
 AtZEff=   0.0000000   0.0000000   0.0000000   0.0000000   0.0000000   0.0000000   0.0000000   0.0000000   0.0000000   0.0000000
 NQMom=    0.0000000   0.0000000   0.0000000   0.0000000   0.0000000   0.0000000   0.0000000   0.0000000   0.0000000   0.0000000
 NMagM=    2.7928460   2.7928460   0.0000000   2.7928460   2.7928460   2.7928460   0.0000000   2.7928460   2.7928460   2.7928460
 Leave Link  101 at Fri Sep 18 13:22:32 2015, MaxMem=  402653184 cpu:       0.1
 (Enter /share/apps/g09/l103.exe)

 GradGradGradGradGradGradGradGradGradGradGradGradGradGradGradGradGradGrad
 Berny optimization.
 Initialization pass.
                           ----------------------------
                           !    Initial Parameters    !
                           ! (Angstroms and Degrees)  !
 --------------------------                            --------------------------
 ! Name  Definition              Value          Derivative Info.                !
 --------------------------------------------------------------------------------
 ! R1    R(1,2)                  1.0948         estimate D2E/DX2                !
 ! R2    R(1,3)                  1.0954         estimate D2E/DX2                !
 ! R3    R(1,4)                  1.0948         estimate D2E/DX2                !
 ! R4    R(1,5)                  1.5339         estimate D2E/DX2                !
 ! R5    R(5,6)                  1.1213         estimate D2E/DX2                !
 ! R6    R(5,7)                  1.544          estimate D2E/DX2                !
 ! R7    R(5,17)                 1.5339         estimate D2E/DX2                !
 ! R8    R(7,8)                  1.1072         estimate D2E/DX2                !
 ! R9    R(7,9)                  1.1072         estimate D2E/DX2                !
 ! R10   R(7,10)                 1.5341         estimate D2E/DX2                !
 ! R11   R(10,11)                1.1075         estimate D2E/DX2                !
 ! R12   R(10,12)                1.1075         estimate D2E/DX2                !
 ! R13   R(10,13)                1.5278         estimate D2E/DX2                !
 ! R14   R(13,14)                1.0957         estimate D2E/DX2                !
 ! R15   R(13,15)                1.0955         estimate D2E/DX2                !
 ! R16   R(13,16)                1.0957         estimate D2E/DX2                !
 ! R17   R(17,18)                1.0948         estimate D2E/DX2                !
 ! R18   R(17,19)                1.0954         estimate D2E/DX2                !
 ! R19   R(17,20)                1.0948         estimate D2E/DX2                !
 ! A1    A(2,1,3)              107.3768         estimate D2E/DX2                !
 ! A2    A(2,1,4)              107.6691         estimate D2E/DX2                !
 ! A3    A(2,1,5)              111.3665         estimate D2E/DX2                !
 ! A4    A(3,1,4)              107.3098         estimate D2E/DX2                !
 ! A5    A(3,1,5)              111.6723         estimate D2E/DX2                !
 ! A6    A(4,1,5)              111.2277         estimate D2E/DX2                !
 ! A7    A(1,5,6)              107.6963         estimate D2E/DX2                !
 ! A8    A(1,5,7)              111.808          estimate D2E/DX2                !
 ! A9    A(1,5,17)             110.7429         estimate D2E/DX2                !
 ! A10   A(6,5,7)              106.8349         estimate D2E/DX2                !
 ! A11   A(6,5,17)             107.6964         estimate D2E/DX2                !
 ! A12   A(7,5,17)             111.8092         estimate D2E/DX2                !
 ! A13   A(5,7,8)              108.947          estimate D2E/DX2                !
 ! A14   A(5,7,9)              108.9474         estimate D2E/DX2                !
 ! A15   A(5,7,10)             114.2382         estimate D2E/DX2                !
 ! A16   A(8,7,9)              105.6348         estimate D2E/DX2                !
 ! A17   A(8,7,10)             109.3593         estimate D2E/DX2                !
 ! A18   A(9,7,10)             109.3596         estimate D2E/DX2                !
 ! A19   A(7,10,11)            109.8341         estimate D2E/DX2                !
 ! A20   A(7,10,12)            109.8338         estimate D2E/DX2                !
 ! A21   A(7,10,13)            111.6988         estimate D2E/DX2                !
 ! A22   A(11,10,12)           105.8817         estimate D2E/DX2                !
 ! A23   A(11,10,13)           109.713          estimate D2E/DX2                !
 ! A24   A(12,10,13)           109.7133         estimate D2E/DX2                !
 ! A25   A(10,13,14)           111.6103         estimate D2E/DX2                !
 ! A26   A(10,13,15)           111.1594         estimate D2E/DX2                !
 ! A27   A(10,13,16)           111.6099         estimate D2E/DX2                !
 ! A28   A(14,13,15)           107.4333         estimate D2E/DX2                !
 ! A29   A(14,13,16)           107.367          estimate D2E/DX2                !
 ! A30   A(15,13,16)           107.4337         estimate D2E/DX2                !
 ! A31   A(5,17,18)            111.3666         estimate D2E/DX2                !
 ! A32   A(5,17,19)            111.6727         estimate D2E/DX2                !
 ! A33   A(5,17,20)            111.2276         estimate D2E/DX2                !
 ! A34   A(18,17,19)           107.3763         estimate D2E/DX2                !
 ! A35   A(18,17,20)           107.6693         estimate D2E/DX2                !
 ! A36   A(19,17,20)           107.3097         estimate D2E/DX2                !
 ! D1    D(2,1,5,6)            -62.9229         estimate D2E/DX2                !
 ! D2    D(2,1,5,7)             54.1487         estimate D2E/DX2                !
 ! D3    D(2,1,5,17)           179.5592         estimate D2E/DX2                !
 ! D4    D(3,1,5,6)            177.0402         estimate D2E/DX2                !
 ! D5    D(3,1,5,7)            -65.8882         estimate D2E/DX2                !
 ! D6    D(3,1,5,17)            59.5223         estimate D2E/DX2                !
 ! D7    D(4,1,5,6)             57.1835         estimate D2E/DX2                !
 ! D8    D(4,1,5,7)            174.255          estimate D2E/DX2                !
 ! D9    D(4,1,5,17)           -60.3345         estimate D2E/DX2                !
 ! D10   D(1,5,7,8)            -60.1976         estimate D2E/DX2                !
 ! D11   D(1,5,7,9)           -174.9766         estimate D2E/DX2                !
 ! D12   D(1,5,7,10)            62.4126         estimate D2E/DX2                !
 ! D13   D(6,5,7,8)             57.3921         estimate D2E/DX2                !
 ! D14   D(6,5,7,9)            -57.3869         estimate D2E/DX2                !
 ! D15   D(6,5,7,10)          -179.9978         estimate D2E/DX2                !
 ! D16   D(17,5,7,8)           174.9824         estimate D2E/DX2                !
 ! D17   D(17,5,7,9)            60.2034         estimate D2E/DX2                !
 ! D18   D(17,5,7,10)          -62.4074         estimate D2E/DX2                !
 ! D19   D(1,5,17,18)         -179.5424         estimate D2E/DX2                !
 ! D20   D(1,5,17,19)          -59.5058         estimate D2E/DX2                !
 ! D21   D(1,5,17,20)           60.351          estimate D2E/DX2                !
 ! D22   D(6,5,17,18)           62.9397         estimate D2E/DX2                !
 ! D23   D(6,5,17,19)         -177.0237         estimate D2E/DX2                !
 ! D24   D(6,5,17,20)          -57.1669         estimate D2E/DX2                !
 ! D25   D(7,5,17,18)          -54.1326         estimate D2E/DX2                !
 ! D26   D(7,5,17,19)           65.904          estimate D2E/DX2                !
 ! D27   D(7,5,17,20)         -174.2392         estimate D2E/DX2                !
 ! D28   D(5,7,10,11)           58.0289         estimate D2E/DX2                !
 ! D29   D(5,7,10,12)          -58.0337         estimate D2E/DX2                !
 ! D30   D(5,7,10,13)          179.9975         estimate D2E/DX2                !
 ! D31   D(8,7,10,11)         -179.5858         estimate D2E/DX2                !
 ! D32   D(8,7,10,12)           64.3517         estimate D2E/DX2                !
 ! D33   D(8,7,10,13)          -57.6171         estimate D2E/DX2                !
 ! D34   D(9,7,10,11)          -64.3572         estimate D2E/DX2                !
 ! D35   D(9,7,10,12)          179.5803         estimate D2E/DX2                !
 ! D36   D(9,7,10,13)           57.6114         estimate D2E/DX2                !
 ! D37   D(7,10,13,14)          60.0603         estimate D2E/DX2                !
 ! D38   D(7,10,13,15)         179.9857         estimate D2E/DX2                !
 ! D39   D(7,10,13,16)         -60.0888         estimate D2E/DX2                !
 ! D40   D(11,10,13,14)       -177.9014         estimate D2E/DX2                !
 ! D41   D(11,10,13,15)        -57.976          estimate D2E/DX2                !
 ! D42   D(11,10,13,16)         61.9495         estimate D2E/DX2                !
 ! D43   D(12,10,13,14)        -61.9778         estimate D2E/DX2                !
 ! D44   D(12,10,13,15)         57.9475         estimate D2E/DX2                !
 ! D45   D(12,10,13,16)        177.8731         estimate D2E/DX2                !
 --------------------------------------------------------------------------------
 Trust Radius=3.00D-01 FncErr=1.00D-07 GrdErr=1.00D-06
 Number of steps in this run= 110 maximum allowed number of steps= 120.
 GradGradGradGradGradGradGradGradGradGradGradGradGradGradGradGradGradGrad

 Leave Link  103 at Fri Sep 18 13:22:32 2015, MaxMem=  402653184 cpu:       0.0
 (Enter /share/apps/g09/l202.exe)
                          Input orientation:                          
 ---------------------------------------------------------------------
 Center     Atomic      Atomic             Coordinates (Angstroms)
 Number     Number       Type             X           Y           Z
 ---------------------------------------------------------------------
      1          6           0       -1.600812   -1.262176   -0.285792
      2          1           0       -1.294303   -2.169778    0.244266
      3          1           0       -1.156234   -1.301634   -1.286167
      4          1           0       -2.687804   -1.301311   -0.410613
      5          6           0       -1.174137   -0.000002    0.474342
      6          1           0       -1.706705   -0.000012    1.461125
      7          6           0        0.338707   -0.000057    0.782709
      8          1           0        0.578223   -0.882219    1.407439
      9          1           0        0.578268    0.882002    1.407562
     10          6           0        1.235219    0.000003   -0.462205
     11          1           0        1.007198    0.883830   -1.089441
     12          1           0        1.007213   -0.883781   -1.089510
     13          6           0        2.717250    0.000007   -0.091034
     14          1           0        2.985195   -0.882760    0.500153
     15          1           0        3.349015   -0.000205   -0.985963
     16          1           0        2.985272    0.882989    0.499797
     17          6           0       -1.600760    1.262221   -0.285741
     18          1           0       -1.293955    2.169791    0.244206
     19          1           0       -1.156415    1.301566   -1.286225
     20          1           0       -2.687775    1.301549   -0.410305
 ---------------------------------------------------------------------
                    Distance matrix (angstroms):
                    1          2          3          4          5
     1  C    0.000000
     2  H    1.094829   0.000000
     3  H    1.095425   1.764926   0.000000
     4  H    1.094835   1.767752   1.764172   0.000000
     5  C    1.533929   2.185247   2.189511   2.183515   0.000000
     6  H    2.157774   2.521647   3.089474   2.481801   1.121325
     7  C    2.548798   2.768453   2.865170   3.503862   1.543952
     8  H    2.785604   2.552868   3.231062   3.761367   2.172497
     9  H    3.494758   3.764723   3.877233   4.328954   2.172499
    10  C    3.109226   3.406689   2.844683   4.133544   2.584979
    11  H    3.471730   4.049716   3.081459   4.346112   2.825739
    12  H    2.755166   2.954610   2.212189   3.779998   2.825772
    13  C    4.502965   4.573068   4.257522   5.568677   3.932244
    14  H    4.668311   4.476159   4.529661   5.760868   4.252055
    15  H    5.155928   5.270760   4.699054   6.202184   4.753041
    16  H    5.123578   5.263026   5.011419   6.146853   4.252176
    17  C    2.524397   3.486178   2.787796   2.787284   1.533930
    18  H    3.486181   4.339569   3.796288   3.797388   2.185251
    19  H    2.787674   3.796267   2.603200   3.144331   2.189518
    20  H    2.787414   3.797412   3.144728   2.602860   2.183514
                    6          7          8          9         10
     6  H    0.000000
     7  C    2.154985   0.000000
     8  H    2.449912   1.107188   0.000000
     9  H    2.449881   1.107185   1.764221   0.000000
    10  C    3.514842   1.534127   2.169223   2.169225   0.000000
    11  H    3.827771   2.175565   3.088261   2.533576   1.107506
    12  H    3.827811   2.175563   2.533533   3.088260   1.107507
    13  C    4.688345   2.533948   2.756661   2.756619   1.527804
    14  H    4.869973   2.804087   2.572291   3.119467   2.183534
    15  H    5.616809   3.491440   3.766113   3.766204   2.177718
    16  H    4.870163   2.804303   3.119881   2.572490   2.183529
    17  C    2.157776   2.548816   3.494774   2.785678   3.109198
    18  H    2.521765   2.768359   3.764695   2.552845   3.406423
    19  H    3.089475   2.865327   3.877333   3.231354   2.844818
    20  H    2.481695   3.503863   4.328947   3.761342   4.133594
                   11         12         13         14         15
    11  H    0.000000
    12  H    1.767611   0.000000
    13  C    2.168464   2.168470   0.000000
    14  H    3.091945   2.537606   1.095707   0.000000
    15  H    2.505261   2.505088   1.095457   1.766298   0.000000
    16  H    2.537411   3.091940   1.095707   1.765749   1.766302
    17  C    2.755097   3.471728   4.502922   5.123432   5.155997
    18  H    2.954254   4.049503   4.572758   5.262576   5.270614
    19  H    2.212340   3.081513   4.257678   5.011523   4.699326
    20  H    3.780019   4.346254   5.568684   6.146766   6.202320
                   16         17         18         19         20
    16  H    0.000000
    17  C    4.668252   0.000000
    18  H    4.475821   1.094832   0.000000
    19  H    4.529752   1.095426   1.764922   0.000000
    20  H    5.760811   1.094835   1.767756   1.764171   0.000000
 Stoichiometry    C6H14
 Framework group  C1[X(C6H14)]
 Deg. of freedom    54
 Full point group                 C1      NOp   1
 Largest Abelian subgroup         C1      NOp   1
 Largest concise Abelian subgroup C1      NOp   1
                         Standard orientation:                         
 ---------------------------------------------------------------------
 Center     Atomic      Atomic             Coordinates (Angstroms)
 Number     Number       Type             X           Y           Z
 ---------------------------------------------------------------------
      1          6           0       -1.600812   -1.262176   -0.285792
      2          1           0       -1.294303   -2.169778    0.244266
      3          1           0       -1.156234   -1.301634   -1.286167
      4          1           0       -2.687804   -1.301311   -0.410613
      5          6           0       -1.174137   -0.000002    0.474342
      6          1           0       -1.706705   -0.000012    1.461125
      7          6           0        0.338707   -0.000057    0.782709
      8          1           0        0.578223   -0.882219    1.407439
      9          1           0        0.578268    0.882002    1.407562
     10          6           0        1.235219    0.000003   -0.462205
     11          1           0        1.007198    0.883830   -1.089441
     12          1           0        1.007213   -0.883781   -1.089510
     13          6           0        2.717250    0.000007   -0.091034
     14          1           0        2.985195   -0.882760    0.500153
     15          1           0        3.349015   -0.000205   -0.985963
     16          1           0        2.985272    0.882989    0.499797
     17          6           0       -1.600760    1.262221   -0.285741
     18          1           0       -1.293955    2.169791    0.244206
     19          1           0       -1.156415    1.301566   -1.286225
     20          1           0       -2.687775    1.301549   -0.410305
 ---------------------------------------------------------------------
 Rotational constants (GHZ):      5.7596951      1.8692581      1.6781353
 Leave Link  202 at Fri Sep 18 13:22:32 2015, MaxMem=  402653184 cpu:       0.0
 (Enter /share/apps/g09/l301.exe)
 Standard basis: 6-31G(d) (6D, 7F)
 Ernie: Thresh=  0.10000D-02 Tol=  0.10000D-05 Strict=F.
 There are   118 symmetry adapted basis functions of A   symmetry.
 Integral buffers will be    131072 words long.
 Raffenetti 2 integral format.
 Two-electron integral symmetry is turned on.
   118 basis functions,   224 primitive gaussians,   118 cartesian basis functions
    25 alpha electrons       25 beta electrons
       nuclear repulsion energy       255.9981997850 Hartrees.
 IExCor=  402 DFT=T Ex+Corr=B3LYP ExCW=0 ScaHFX=  0.200000
 ScaDFX=  0.800000  0.720000  1.000000  0.810000 ScalE2=  1.000000  1.000000
 IRadAn=      5 IRanWt=     -1 IRanGd=            0 ICorTp=0
 NAtoms=   20 NActive=   20 NUniq=   20 SFac= 7.50D-01 NAtFMM=   80 NAOKFM=F Big=F
 Leave Link  301 at Fri Sep 18 13:22:33 2015, MaxMem=  402653184 cpu:       0.2
 (Enter /share/apps/g09/l302.exe)
 NPDir=0 NMtPBC=     1 NCelOv=     1 NCel=       1 NClECP=     1 NCelD=      1
         NCelK=      1 NCelE2=     1 NClLst=     1 CellRange=     0.0.
 One-electron integrals computed using PRISM.
 NBasis=   118 RedAO= T  NBF=   118
 NBsUse=   118 1.00D-06 NBFU=   118
 Precomputing XC quadrature grid using
 IXCGrd= 2 IRadAn=           5 IRanWt=          -1 IRanGd=           0 AccXCQ= 1.00D-10.
 NRdTot=    1644 NPtTot=      440632 NUsed=      452413 NTot=      452445
 NSgBfM=   118   118   118   118   118 NAtAll=    20    20.
 Leave Link  302 at Fri Sep 18 13:22:34 2015, MaxMem=  402653184 cpu:       1.6
 (Enter /share/apps/g09/l303.exe)
 DipDrv:  MaxL=1.
 Leave Link  303 at Fri Sep 18 13:22:34 2015, MaxMem=  402653184 cpu:       0.0
 (Enter /share/apps/g09/l401.exe)
 Harris functional with IExCor=  402 diagonalized for initial guess.
 ExpMin= 1.61D-01 ExpMax= 3.05D+03 ExpMxC= 4.57D+02 IAcc=3 IRadAn=         5 AccDes= 0.00D+00
 HarFok:  IExCor=  402 AccDes= 0.00D+00 IRadAn=         5 IDoV= 1
 ScaDFX=  1.000000  1.000000  1.000000  1.000000
 FoFCou: FMM=F IPFlag=           0 FMFlag=      100000 FMFlg1=           0
         NFxFlg=           0 DoJE=T BraDBF=F KetDBF=T FulRan=T
         Omega=  0.000000  0.000000  1.000000  0.000000  0.000000 ICntrl=     500 IOpCl=  0
         NMat0=    1 NMatS0=    1 NMatT0=    0 NMatD0=    1 NMtDS0=    0 NMtDT0=    0
         I1Cent=           4 NGrid=           0.
 Petite list used in FoFCou.
 Harris En= -237.178373628968    
 Initial guess orbital symmetries:
       Occupied  (A) (A) (A) (A) (A) (A) (A) (A) (A) (A) (A) (A)
                 (A) (A) (A) (A) (A) (A) (A) (A) (A) (A) (A) (A)
                 (A)
       Virtual   (A) (A) (A) (A) (A) (A) (A) (A) (A) (A) (A) (A)
                 (A) (A) (A) (A) (A) (A) (A) (A) (A) (A) (A) (A)
                 (A) (A) (A) (A) (A) (A) (A) (A) (A) (A) (A) (A)
                 (A) (A) (A) (A) (A) (A) (A) (A) (A) (A) (A) (A)
                 (A) (A) (A) (A) (A) (A) (A) (A) (A) (A) (A) (A)
                 (A) (A) (A) (A) (A) (A) (A) (A) (A) (A) (A) (A)
                 (A) (A) (A) (A) (A) (A) (A) (A) (A) (A) (A) (A)
                 (A) (A) (A) (A) (A) (A) (A) (A) (A)
 The electronic state of the initial guess is 1-A.
 Leave Link  401 at Fri Sep 18 13:22:41 2015, MaxMem=  402653184 cpu:      10.0
 (Enter /share/apps/g09/l502.exe)
 Closed shell SCF:
 Requested convergence on RMS density matrix=1.00D-08 within 128 cycles.
 Requested convergence on MAX density matrix=1.00D-06.
 Requested convergence on             energy=1.00D-06.
 No special actions if energy rises.
 Using DIIS extrapolation, IDIIS=  1040.
 Integral symmetry usage will be decided dynamically.
       452220 words used for storage of precomputed grid.
 Keep R1 ints in memory in canonical form, NReq=26106275.
 IEnd=      513764 IEndB=      513764 NGot=   402653184 MDV=   377519344
 LenX=   377519344 LenY=   377504979
 Symmetry not used in FoFDir.
 MinBra= 0 MaxBra= 2 Meth= 1.
 IRaf=       0 NMat=   1 IRICut=       1 DoRegI=T DoRafI=F ISym2E= 0 JSym2E=0.
 Integral accuracy reduced to 1.0D-05 until final iterations.

 Cycle   1  Pass 0  IDiag  1:
 E= -236.789973530770    
 DIIS: error= 5.48D-02 at cycle   1 NSaved=   1.
 NSaved= 1 IEnMin= 1 EnMin= -236.789973530770     IErMin= 1 ErrMin= 5.48D-02
 ErrMax= 5.48D-02 EMaxC= 1.00D-01 BMatC= 2.59D-01 BMatP= 2.59D-01
 IDIUse=3 WtCom= 4.52D-01 WtEn= 5.48D-01
 Coeff-Com:  0.100D+01
 Coeff-En:   0.100D+01
 Coeff:      0.100D+01
 Gap=     0.326 Goal=   None    Shift=    0.000
 GapD=    0.326 DampG=1.000 DampE=0.500 DampFc=0.5000 IDamp=-1.
 Damping current iteration by 5.00D-01
 RMSDP=1.02D-02 MaxDP=1.57D-01              OVMax= 1.79D-01

 Cycle   2  Pass 0  IDiag  1:
 E= -236.917262818885     Delta-E=       -0.127289288116 Rises=F Damp=T
 DIIS: error= 9.81D-03 at cycle   2 NSaved=   2.
 NSaved= 2 IEnMin= 2 EnMin= -236.917262818885     IErMin= 2 ErrMin= 9.81D-03
 ErrMax= 9.81D-03 EMaxC= 1.00D-01 BMatC= 1.05D-02 BMatP= 2.59D-01
 IDIUse=3 WtCom= 9.02D-01 WtEn= 9.81D-02
 Coeff-Com:  0.905D-01 0.910D+00
 Coeff-En:   0.149D+00 0.851D+00
 Coeff:      0.962D-01 0.904D+00
 Gap=     0.396 Goal=   None    Shift=    0.000
 RMSDP=1.65D-03 MaxDP=2.70D-02 DE=-1.27D-01 OVMax= 1.01D-01

 Cycle   3  Pass 0  IDiag  1:
 E= -237.081008698764     Delta-E=       -0.163745879879 Rises=F Damp=F
 DIIS: error= 2.72D-03 at cycle   3 NSaved=   3.
 NSaved= 3 IEnMin= 3 EnMin= -237.081008698764     IErMin= 3 ErrMin= 2.72D-03
 ErrMax= 2.72D-03 EMaxC= 1.00D-01 BMatC= 1.18D-03 BMatP= 1.05D-02
 IDIUse=3 WtCom= 9.73D-01 WtEn= 2.72D-02
 Coeff-Com:  0.111D-01 0.199D+00 0.790D+00
 Coeff-En:   0.000D+00 0.000D+00 0.100D+01
 Coeff:      0.108D-01 0.193D+00 0.796D+00
 Gap=     0.382 Goal=   None    Shift=    0.000
 RMSDP=5.09D-04 MaxDP=7.88D-03 DE=-1.64D-01 OVMax= 1.02D-02

 Cycle   4  Pass 0  IDiag  1:
 E= -237.081711622987     Delta-E=       -0.000702924222 Rises=F Damp=F
 DIIS: error= 1.27D-03 at cycle   4 NSaved=   4.
 NSaved= 4 IEnMin= 4 EnMin= -237.081711622987     IErMin= 4 ErrMin= 1.27D-03
 ErrMax= 1.27D-03 EMaxC= 1.00D-01 BMatC= 4.74D-04 BMatP= 1.18D-03
 IDIUse=3 WtCom= 9.87D-01 WtEn= 1.27D-02
 Coeff-Com:  0.624D-03 0.307D-01 0.391D+00 0.578D+00
 Coeff-En:   0.000D+00 0.000D+00 0.265D+00 0.735D+00
 Coeff:      0.616D-03 0.303D-01 0.389D+00 0.580D+00
 Gap=     0.384 Goal=   None    Shift=    0.000
 RMSDP=1.98D-04 MaxDP=3.89D-03 DE=-7.03D-04 OVMax= 4.38D-03

 Cycle   5  Pass 0  IDiag  1:
 E= -237.082155264565     Delta-E=       -0.000443641578 Rises=F Damp=F
 DIIS: error= 2.74D-04 at cycle   5 NSaved=   5.
 NSaved= 5 IEnMin= 5 EnMin= -237.082155264565     IErMin= 5 ErrMin= 2.74D-04
 ErrMax= 2.74D-04 EMaxC= 1.00D-01 BMatC= 1.84D-05 BMatP= 4.74D-04
 IDIUse=3 WtCom= 9.97D-01 WtEn= 2.74D-03
 Coeff-Com:  0.141D-03-0.118D-02 0.105D+00 0.238D+00 0.658D+00
 Coeff-En:   0.000D+00 0.000D+00 0.000D+00 0.000D+00 0.100D+01
 Coeff:      0.141D-03-0.118D-02 0.105D+00 0.237D+00 0.659D+00
 Gap=     0.384 Goal=   None    Shift=    0.000
 RMSDP=3.82D-05 MaxDP=7.12D-04 DE=-4.44D-04 OVMax= 7.59D-04

 Cycle   6  Pass 0  IDiag  1:
 E= -237.082172631816     Delta-E=       -0.000017367251 Rises=F Damp=F
 DIIS: error= 5.16D-05 at cycle   6 NSaved=   6.
 NSaved= 6 IEnMin= 6 EnMin= -237.082172631816     IErMin= 6 ErrMin= 5.16D-05
 ErrMax= 5.16D-05 EMaxC= 1.00D-01 BMatC= 3.53D-07 BMatP= 1.84D-05
 IDIUse=1 WtCom= 1.00D+00 WtEn= 0.00D+00
 Coeff-Com:  0.146D-03-0.115D-02 0.317D-01 0.774D-01 0.252D+00 0.640D+00
 Coeff:      0.146D-03-0.115D-02 0.317D-01 0.774D-01 0.252D+00 0.640D+00
 Gap=     0.384 Goal=   None    Shift=    0.000
 RMSDP=7.69D-06 MaxDP=1.11D-04 DE=-1.74D-05 OVMax= 1.91D-04

 Initial convergence to 1.0D-05 achieved.  Increase integral accuracy.
 Cycle   7  Pass 1  IDiag  1:
 E= -237.082144806610     Delta-E=        0.000027825205 Rises=F Damp=F
 DIIS: error= 1.47D-05 at cycle   1 NSaved=   1.
 NSaved= 1 IEnMin= 1 EnMin= -237.082144806610     IErMin= 1 ErrMin= 1.47D-05
 ErrMax= 1.47D-05 EMaxC= 1.00D-01 BMatC= 3.53D-08 BMatP= 3.53D-08
 IDIUse=1 WtCom= 1.00D+00 WtEn= 0.00D+00
 Coeff-Com:  0.100D+01
 Coeff:      0.100D+01
 Gap=     0.384 Goal=   None    Shift=    0.000
 RMSDP=7.69D-06 MaxDP=1.11D-04 DE= 2.78D-05 OVMax= 8.20D-05

 Cycle   8  Pass 1  IDiag  1:
 E= -237.082144793991     Delta-E=        0.000000012619 Rises=F Damp=F
 DIIS: error= 1.92D-05 at cycle   2 NSaved=   2.
 NSaved= 2 IEnMin= 1 EnMin= -237.082144806610     IErMin= 1 ErrMin= 1.47D-05
 ErrMax= 1.92D-05 EMaxC= 1.00D-01 BMatC= 4.95D-08 BMatP= 3.53D-08
 IDIUse=1 WtCom= 1.00D+00 WtEn= 0.00D+00
 Coeff-Com:  0.543D+00 0.457D+00
 Coeff:      0.543D+00 0.457D+00
 Gap=     0.384 Goal=   None    Shift=    0.000
 RMSDP=1.74D-06 MaxDP=5.02D-05 DE= 1.26D-08 OVMax= 4.58D-05

 Cycle   9  Pass 1  IDiag  1:
 E= -237.082144842331     Delta-E=       -0.000000048340 Rises=F Damp=F
 DIIS: error= 8.18D-07 at cycle   3 NSaved=   3.
 NSaved= 3 IEnMin= 3 EnMin= -237.082144842331     IErMin= 3 ErrMin= 8.18D-07
 ErrMax= 8.18D-07 EMaxC= 1.00D-01 BMatC= 1.24D-10 BMatP= 3.53D-08
 IDIUse=1 WtCom= 1.00D+00 WtEn= 0.00D+00
 Coeff-Com:  0.502D-01 0.688D-01 0.881D+00
 Coeff:      0.502D-01 0.688D-01 0.881D+00
 Gap=     0.384 Goal=   None    Shift=    0.000
 RMSDP=1.48D-07 MaxDP=2.83D-06 DE=-4.83D-08 OVMax= 3.24D-06

 Cycle  10  Pass 1  IDiag  1:
 E= -237.082144842417     Delta-E=       -0.000000000086 Rises=F Damp=F
 DIIS: error= 4.42D-07 at cycle   4 NSaved=   4.
 NSaved= 4 IEnMin= 4 EnMin= -237.082144842417     IErMin= 4 ErrMin= 4.42D-07
 ErrMax= 4.42D-07 EMaxC= 1.00D-01 BMatC= 3.96D-11 BMatP= 1.24D-10
 IDIUse=1 WtCom= 1.00D+00 WtEn= 0.00D+00
 Coeff-Com: -0.532D-02 0.820D-02 0.409D+00 0.588D+00
 Coeff:     -0.532D-02 0.820D-02 0.409D+00 0.588D+00
 Gap=     0.384 Goal=   None    Shift=    0.000
 RMSDP=6.21D-08 MaxDP=1.53D-06 DE=-8.58D-11 OVMax= 1.47D-06

 Cycle  11  Pass 1  IDiag  1:
 E= -237.082144842454     Delta-E=       -0.000000000037 Rises=F Damp=F
 DIIS: error= 1.14D-07 at cycle   5 NSaved=   5.
 NSaved= 5 IEnMin= 5 EnMin= -237.082144842454     IErMin= 5 ErrMin= 1.14D-07
 ErrMax= 1.14D-07 EMaxC= 1.00D-01 BMatC= 2.49D-12 BMatP= 3.96D-11
 IDIUse=1 WtCom= 1.00D+00 WtEn= 0.00D+00
 Coeff-Com: -0.599D-02-0.724D-03 0.135D+00 0.278D+00 0.593D+00
 Coeff:     -0.599D-02-0.724D-03 0.135D+00 0.278D+00 0.593D+00
 Gap=     0.384 Goal=   None    Shift=    0.000
 RMSDP=1.33D-08 MaxDP=3.13D-07 DE=-3.71D-11 OVMax= 3.27D-07

 Cycle  12  Pass 1  IDiag  1:
 E= -237.082144842455     Delta-E=       -0.000000000001 Rises=F Damp=F
 DIIS: error= 8.81D-09 at cycle   6 NSaved=   6.
 NSaved= 6 IEnMin= 6 EnMin= -237.082144842455     IErMin= 6 ErrMin= 8.81D-09
 ErrMax= 8.81D-09 EMaxC= 1.00D-01 BMatC= 1.39D-14 BMatP= 2.49D-12
 IDIUse=1 WtCom= 1.00D+00 WtEn= 0.00D+00
 Coeff-Com: -0.129D-02-0.288D-03 0.238D-01 0.548D-01 0.140D+00 0.783D+00
 Coeff:     -0.129D-02-0.288D-03 0.238D-01 0.548D-01 0.140D+00 0.783D+00
 Gap=     0.384 Goal=   None    Shift=    0.000
 RMSDP=1.65D-09 MaxDP=2.92D-08 DE=-1.31D-12 OVMax= 3.68D-08

 SCF Done:  E(RB3LYP) =  -237.082144842     A.U. after   12 cycles
             Convg  =    0.1653D-08             -V/T =  2.0105
 KE= 2.346100699590D+02 PE=-1.058910285908D+03 EE= 3.312198713216D+02
 Leave Link  502 at Fri Sep 18 13:23:57 2015, MaxMem=  402653184 cpu:     111.6
 (Enter /share/apps/g09/l601.exe)
 Copying SCF densities to generalized density rwf, IOpCl= 0 IROHF=0.

 **********************************************************************

            Population analysis using the SCF density.

 **********************************************************************

 Orbital symmetries:
       Occupied  (A) (A) (A) (A) (A) (A) (A) (A) (A) (A) (A) (A)
                 (A) (A) (A) (A) (A) (A) (A) (A) (A) (A) (A) (A)
                 (A)
       Virtual   (A) (A) (A) (A) (A) (A) (A) (A) (A) (A) (A) (A)
                 (A) (A) (A) (A) (A) (A) (A) (A) (A) (A) (A) (A)
                 (A) (A) (A) (A) (A) (A) (A) (A) (A) (A) (A) (A)
                 (A) (A) (A) (A) (A) (A) (A) (A) (A) (A) (A) (A)
                 (A) (A) (A) (A) (A) (A) (A) (A) (A) (A) (A) (A)
                 (A) (A) (A) (A) (A) (A) (A) (A) (A) (A) (A) (A)
                 (A) (A) (A) (A) (A) (A) (A) (A) (A) (A) (A) (A)
                 (A) (A) (A) (A) (A) (A) (A) (A) (A)
 The electronic state is 1-A.
 Alpha  occ. eigenvalues --  -10.18465 -10.17642 -10.17371 -10.16902 -10.16717
 Alpha  occ. eigenvalues --  -10.16716  -0.80638  -0.75306  -0.67699  -0.66867
 Alpha  occ. eigenvalues --   -0.59663  -0.53712  -0.45710  -0.45419  -0.43260
 Alpha  occ. eigenvalues --   -0.40802  -0.40100  -0.37948  -0.36298  -0.35801
 Alpha  occ. eigenvalues --   -0.35010  -0.32975  -0.31244  -0.31056  -0.29981
 Alpha virt. eigenvalues --    0.08426   0.11281   0.12212   0.12299   0.15243
 Alpha virt. eigenvalues --    0.15974   0.17156   0.17601   0.17959   0.18697
 Alpha virt. eigenvalues --    0.19021   0.20189   0.21611   0.21889   0.23834
 Alpha virt. eigenvalues --    0.25888   0.27132   0.27675   0.27926   0.50189
 Alpha virt. eigenvalues --    0.51426   0.52723   0.52965   0.54394   0.56617
 Alpha virt. eigenvalues --    0.56888   0.62358   0.65658   0.69252   0.69700
 Alpha virt. eigenvalues --    0.71533   0.73001   0.73450   0.79247   0.81770
 Alpha virt. eigenvalues --    0.85952   0.86487   0.87382   0.89350   0.90598
 Alpha virt. eigenvalues --    0.91007   0.92390   0.93269   0.93675   0.95842
 Alpha virt. eigenvalues --    0.96708   0.97280   0.99262   1.01643   1.01950
 Alpha virt. eigenvalues --    1.04490   1.10560   1.25821   1.41249   1.42987
 Alpha virt. eigenvalues --    1.44351   1.45609   1.57561   1.63788   1.67827
 Alpha virt. eigenvalues --    1.72645   1.76868   1.77474   1.85787   1.87521
 Alpha virt. eigenvalues --    1.95433   1.95519   1.97257   2.01697   2.02772
 Alpha virt. eigenvalues --    2.09237   2.12660   2.14445   2.17463   2.23451
 Alpha virt. eigenvalues --    2.27110   2.27222   2.34488   2.34979   2.38920
 Alpha virt. eigenvalues --    2.43800   2.51137   2.52740   2.61013   2.70917
 Alpha virt. eigenvalues --    2.71180   2.80005   4.12454   4.22066   4.29402
 Alpha virt. eigenvalues --    4.34360   4.48519   4.59095
          Condensed to atoms (all electrons):
              1          2          3          4          5          6
     1  C    5.111751   0.369835   0.373299   0.369899   0.381331  -0.046375
     2  H    0.369835   0.582675  -0.032719  -0.030570  -0.030834  -0.002932
     3  H    0.373299  -0.032719   0.578206  -0.031716  -0.033124   0.005619
     4  H    0.369899  -0.030570  -0.031716   0.582051  -0.029339  -0.004238
     5  C    0.381331  -0.030834  -0.033124  -0.029339   4.842483   0.376207
     6  H   -0.046375  -0.002932   0.005619  -0.004238   0.376207   0.649575
     7  C   -0.049611  -0.003547  -0.006767   0.004958   0.382089  -0.041923
     8  H   -0.005716   0.004706  -0.000112  -0.000058  -0.033941  -0.003667
     9  H    0.005688  -0.000018  -0.000051  -0.000165  -0.033939  -0.003668
    10  C   -0.008435  -0.000504   0.002615   0.000197  -0.039584   0.005087
    11  H   -0.000438   0.000068   0.000277  -0.000033  -0.004782   0.000014
    12  H    0.003400   0.000378   0.002870  -0.000092  -0.004780   0.000013
    13  C    0.000173  -0.000037  -0.000101  -0.000002   0.004241  -0.000149
    14  H   -0.000010   0.000004   0.000004   0.000000   0.000017  -0.000003
    15  H    0.000003   0.000000   0.000008   0.000000  -0.000153   0.000003
    16  H    0.000003   0.000000   0.000000   0.000000   0.000016  -0.000003
    17  C   -0.057152   0.005393  -0.005916  -0.003215   0.381329  -0.046375
    18  H    0.005393  -0.000192  -0.000010  -0.000061  -0.030837  -0.002930
    19  H   -0.005917  -0.000010   0.004969  -0.000253  -0.033125   0.005619
    20  H   -0.003214  -0.000061  -0.000253   0.003623  -0.029335  -0.004241
              7          8          9         10         11         12
     1  C   -0.049611  -0.005716   0.005688  -0.008435  -0.000438   0.003400
     2  H   -0.003547   0.004706  -0.000018  -0.000504   0.000068   0.000378
     3  H   -0.006767  -0.000112  -0.000051   0.002615   0.000277   0.002870
     4  H    0.004958  -0.000058  -0.000165   0.000197  -0.000033  -0.000092
     5  C    0.382089  -0.033941  -0.033939  -0.039584  -0.004782  -0.004780
     6  H   -0.041923  -0.003667  -0.003668   0.005087   0.000014   0.000013
     7  C    5.021644   0.366706   0.366706   0.387662  -0.040542  -0.040542
     8  H    0.366706   0.622448  -0.038589  -0.041484   0.005742  -0.005049
     9  H    0.366706  -0.038589   0.622448  -0.041488  -0.005049   0.005742
    10  C    0.387662  -0.041484  -0.041488   4.966287   0.377511   0.377512
    11  H   -0.040542   0.005742  -0.005049   0.377511   0.606831  -0.040443
    12  H   -0.040542  -0.005049   0.005742   0.377512  -0.040443   0.606833
    13  C   -0.044799  -0.003592  -0.003590   0.372602  -0.037368  -0.037369
    14  H   -0.004560   0.005101  -0.000383  -0.034520   0.005077  -0.004501
    15  H    0.004369  -0.000018  -0.000018  -0.029242  -0.002529  -0.002533
    16  H   -0.004557  -0.000382   0.005099  -0.034515  -0.004506   0.005077
    17  C   -0.049610   0.005688  -0.005715  -0.008434   0.003403  -0.000438
    18  H   -0.003548  -0.000018   0.004706  -0.000505   0.000378   0.000068
    19  H   -0.006764  -0.000051  -0.000112   0.002614   0.002867   0.000277
    20  H    0.004957  -0.000165  -0.000058   0.000197  -0.000092  -0.000033
             13         14         15         16         17         18
     1  C    0.000173  -0.000010   0.000003   0.000003  -0.057152   0.005393
     2  H   -0.000037   0.000004   0.000000   0.000000   0.005393  -0.000192
     3  H   -0.000101   0.000004   0.000008   0.000000  -0.005916  -0.000010
     4  H   -0.000002   0.000000   0.000000   0.000000  -0.003215  -0.000061
     5  C    0.004241   0.000017  -0.000153   0.000016   0.381329  -0.030837
     6  H   -0.000149  -0.000003   0.000003  -0.000003  -0.046375  -0.002930
     7  C   -0.044799  -0.004560   0.004369  -0.004557  -0.049610  -0.003548
     8  H   -0.003592   0.005101  -0.000018  -0.000382   0.005688  -0.000018
     9  H   -0.003590  -0.000383  -0.000018   0.005099  -0.005715   0.004706
    10  C    0.372602  -0.034520  -0.029242  -0.034515  -0.008434  -0.000505
    11  H   -0.037368   0.005077  -0.002529  -0.004506   0.003403   0.000378
    12  H   -0.037369  -0.004501  -0.002533   0.005077  -0.000438   0.000068
    13  C    5.064306   0.377696   0.371232   0.377696   0.000173  -0.000037
    14  H    0.377696   0.579929  -0.031651  -0.033280   0.000003   0.000000
    15  H    0.371232  -0.031651   0.582753  -0.031650   0.000003   0.000000
    16  H    0.377696  -0.033280  -0.031650   0.579927  -0.000010   0.000004
    17  C    0.000173   0.000003   0.000003  -0.000010   5.111748   0.369835
    18  H   -0.000037   0.000000   0.000000   0.000004   0.369835   0.582677
    19  H   -0.000101   0.000000   0.000008   0.000004   0.373300  -0.032720
    20  H   -0.000002   0.000000   0.000000   0.000000   0.369898  -0.030569
             19         20
     1  C   -0.005917  -0.003214
     2  H   -0.000010  -0.000061
     3  H    0.004969  -0.000253
     4  H   -0.000253   0.003623
     5  C   -0.033125  -0.029335
     6  H    0.005619  -0.004241
     7  C   -0.006764   0.004957
     8  H   -0.000051  -0.000165
     9  H   -0.000112  -0.000058
    10  C    0.002614   0.000197
    11  H    0.002867  -0.000092
    12  H    0.000277  -0.000033
    13  C   -0.000101  -0.000002
    14  H    0.000000   0.000000
    15  H    0.000008   0.000000
    16  H    0.000004   0.000000
    17  C    0.373300   0.369898
    18  H   -0.032720  -0.030569
    19  H    0.578210  -0.031717
    20  H   -0.031717   0.582049
 Mulliken atomic charges:
              1
     1  C   -0.443907
     2  H    0.138364
     3  H    0.142901
     4  H    0.139014
     5  C   -0.063940
     6  H    0.114368
     7  C   -0.242320
     8  H    0.122451
     9  H    0.122452
    10  C   -0.253574
    11  H    0.133613
    12  H    0.133610
    13  C   -0.440973
    14  H    0.141075
    15  H    0.139416
    16  H    0.141077
    17  C   -0.443908
    18  H    0.138364
    19  H    0.142900
    20  H    0.139016
 Sum of Mulliken atomic charges =   0.00000
 Mulliken charges with hydrogens summed into heavy atoms:
              1
     1  C   -0.023627
     5  C    0.050428
     7  C    0.002583
    10  C    0.013649
    13  C   -0.019405
    17  C   -0.023628
 Sum of Mulliken charges with hydrogens summed into heavy atoms =   0.00000
 Electronic spatial extent (au):  <R**2>=            840.4229
 Charge=              0.0000 electrons
 Dipole moment (field-independent basis, Debye):
    X=             -0.0373    Y=              0.0000    Z=              0.0042  Tot=              0.0375
 Quadrupole moment (field-independent basis, Debye-Ang):
   XX=            -42.0455   YY=            -41.5257   ZZ=            -41.4239
   XY=              0.0000   XZ=             -0.2006   YZ=              0.0000
 Traceless Quadrupole moment (field-independent basis, Debye-Ang):
   XX=             -0.3805   YY=              0.1394   ZZ=              0.2411
   XY=              0.0000   XZ=             -0.2006   YZ=              0.0000
 Octapole moment (field-independent basis, Debye-Ang**2):
  XXX=             -3.9292  YYY=              0.0001  ZZZ=             -0.7039  XYY=              1.7128
  XXY=              0.0003  XXZ=             -0.1327  XZZ=              0.6111  YZZ=             -0.0003
  YYZ=              1.3861  XYZ=              0.0003
 Hexadecapole moment (field-independent basis, Debye-Ang**3):
 XXXX=           -782.4319 YYYY=           -239.8582 ZZZZ=           -144.5989 XXXY=             -0.0018
 XXXZ=             -1.7305 YYYX=              0.0017 YYYZ=             -0.0005 ZZZX=             -2.2555
 ZZZY=              0.0000 XXYY=           -172.1937 XXZZ=           -154.0126 YYZZ=            -63.0619
 XXYZ=              0.0005 YYXZ=              0.0490 ZZXY=             -0.0007
 N-N= 2.559981997850D+02 E-N=-1.058910288502D+03  KE= 2.346100699590D+02
 No NMR shielding tensors so no spin-rotation constants.
 Leave Link  601 at Fri Sep 18 13:23:57 2015, MaxMem=  402653184 cpu:       0.3
 (Enter /share/apps/g09/l701.exe)
 Compute integral first derivatives.
 ... and contract with generalized density number  0.
 Leave Link  701 at Fri Sep 18 13:23:57 2015, MaxMem=  402653184 cpu:       0.4
 (Enter /share/apps/g09/l702.exe)
 L702 exits ... SP integral derivatives will be done elsewhere.
 Leave Link  702 at Fri Sep 18 13:23:57 2015, MaxMem=  402653184 cpu:       0.0
 (Enter /share/apps/g09/l703.exe)
 Compute integral first derivatives, UseDBF=F ICtDFT=           0.
 Integral derivatives from FoFDir, PRISM(SPDF).
 Calling FoFJK, ICntrl=      2127 FMM=F ISym2X=0 I1Cent= 0 IOpClX= 0 NMat=1 NMatS=1 NMatT=0.
 FoFCou: FMM=F IPFlag=           0 FMFlag=      100000 FMFlg1=         800
         NFxFlg=           0 DoJE=F BraDBF=F KetDBF=F FulRan=T
         Omega=  0.000000  0.000000  1.000000  0.000000  0.000000 ICntrl=    2127 IOpCl=  0
         NMat0=    1 NMatS0=    1 NMatT0=    0 NMatD0=    1 NMtDS0=    0 NMtDT0=    0
         I1Cent=           0 NGrid=           0.
 Symmetry not used in FoFCou.
 Leave Link  703 at Fri Sep 18 13:24:13 2015, MaxMem=  402653184 cpu:      26.3
 (Enter /share/apps/g09/l716.exe)
 Dipole        =-1.46657089D-02 5.39633876D-06 1.63450646D-03
 ***** Axes restored to original set *****
 -------------------------------------------------------------------
 Center     Atomic                   Forces (Hartrees/Bohr)
 Number     Number              X              Y              Z
 -------------------------------------------------------------------
      1        6          -0.001330184   -0.001347914    0.000530040
      2        1           0.000199867   -0.001250817    0.000990377
      3        1          -0.000397424    0.000409128   -0.000568832
      4        1          -0.001173472    0.000240480   -0.000007593
      5        6          -0.004495316   -0.000001259    0.010043899
      6        1           0.005441854    0.000000490   -0.010832490
      7        6          -0.001750237   -0.000000635    0.003088614
      8        1          -0.000666925    0.003015157   -0.003285308
      9        1          -0.000667185   -0.003012735   -0.003285126
     10        6          -0.000825311   -0.000001369   -0.002610789
     11        1           0.002571932   -0.004757168    0.003835290
     12        1           0.002572448    0.004757212    0.003837175
     13        6           0.003320510    0.000000193   -0.003470550
     14        1          -0.000561419   -0.000881992    0.000562248
     15        1           0.001020195    0.000001184   -0.000334374
     16        1          -0.000560907    0.000880957    0.000563129
     17        6          -0.001327823    0.001349832    0.000529956
     18        1           0.000198584    0.001249624    0.000990391
     19        1          -0.000396379   -0.000409654   -0.000568382
     20        1          -0.001172809   -0.000240712   -0.000007675
 -------------------------------------------------------------------
 Cartesian Forces:  Max     0.010832490 RMS     0.002771344
 Leave Link  716 at Fri Sep 18 13:24:13 2015, MaxMem=  402653184 cpu:       0.1
 (Enter /share/apps/g09/l103.exe)

 GradGradGradGradGradGradGradGradGradGradGradGradGradGradGradGradGradGrad
 Berny optimization.
 Internal  Forces:  Max     0.012117055 RMS     0.002422069
 Search for a local minimum.
 Step number   1 out of a maximum of  110
 All quantities printed in internal units (Hartrees-Bohrs-Radians)
 RMS Force = .24221D-02 SwitMx=.10000D-02 MixMth= 1
 Mixed Optimization -- RFO/linear search
 Second derivative matrix not updated -- first step.
     Eigenvalues ---    0.00230   0.00315   0.00317   0.00317   0.00398
     Eigenvalues ---    0.03283   0.03332   0.03579   0.04712   0.04757
     Eigenvalues ---    0.04825   0.04838   0.05397   0.05397   0.05429
     Eigenvalues ---    0.05429   0.05437   0.05485   0.08207   0.08586
     Eigenvalues ---    0.12111   0.12396   0.16000   0.16000   0.16000
     Eigenvalues ---    0.16000   0.16000   0.16000   0.16000   0.16000
     Eigenvalues ---    0.16000   0.16922   0.17105   0.21856   0.21907
     Eigenvalues ---    0.28172   0.29046   0.29063   0.29064   0.29627
     Eigenvalues ---    0.31430   0.32865   0.32866   0.32900   0.32900
     Eigenvalues ---    0.34161   0.34161   0.34190   0.34193   0.34193
     Eigenvalues ---    0.34260   0.34260   0.34260   0.342601000.00000
     Eigenvalues --- 1000.000001000.000001000.000001000.000001000.00000
     Eigenvalues --- 1000.000001000.000001000.000001000.000001000.00000
     Eigenvalues --- 1000.000001000.000001000.000001000.000001000.00000
     Eigenvalues --- 1000.000001000.000001000.000001000.000001000.00000
     Eigenvalues --- 1000.000001000.000001000.000001000.000001000.00000
     Eigenvalues --- 1000.000001000.000001000.000001000.000001000.00000
     Eigenvalues --- 1000.000001000.000001000.000001000.000001000.00000
     Eigenvalues --- 1000.000001000.000001000.000001000.000001000.00000
     Eigenvalues --- 1000.000001000.000001000.000001000.000001000.00000
 RFO step:  Lambda=-2.84619217D-03 EMin= 2.30000000D-03
 Linear search not attempted -- first point.
 Iteration  1 RMS(Cart)=  0.06397700 RMS(Int)=  0.00107930
 Iteration  2 RMS(Cart)=  0.00148598 RMS(Int)=  0.00017180
 Iteration  3 RMS(Cart)=  0.00000053 RMS(Int)=  0.00017180
 Variable       Old X    -DE/DX   Delta X   Delta X   Delta X     New X
                                 (Linear)    (Quad)   (Total)
    R1        2.06893   0.00157   0.00000   0.00455   0.00455   2.07348
    R2        2.07005   0.00034   0.00000   0.00099   0.00099   2.07105
    R3        2.06894   0.00116   0.00000   0.00335   0.00335   2.07229
    R4        2.89871   0.00189   0.00000   0.00643   0.00643   2.90513
    R5        2.11900  -0.01212   0.00000  -0.03821  -0.03821   2.08079
    R6        2.91765   0.00414   0.00000   0.01456   0.01456   2.93221
    R7        2.89871   0.00189   0.00000   0.00642   0.00642   2.90513
    R8        2.09228  -0.00440   0.00000  -0.01326  -0.01326   2.07902
    R9        2.09228  -0.00440   0.00000  -0.01325  -0.01325   2.07902
   R10        2.89908   0.00248   0.00000   0.00844   0.00844   2.90752
   R11        2.09288  -0.00650   0.00000  -0.01960  -0.01960   2.07328
   R12        2.09289  -0.00650   0.00000  -0.01960  -0.01960   2.07328
   R13        2.88713   0.00247   0.00000   0.00826   0.00826   2.89539
   R14        2.07059   0.00088   0.00000   0.00254   0.00254   2.07313
   R15        2.07011   0.00086   0.00000   0.00250   0.00250   2.07261
   R16        2.07059   0.00088   0.00000   0.00254   0.00254   2.07313
   R17        2.06893   0.00157   0.00000   0.00455   0.00455   2.07348
   R18        2.07006   0.00034   0.00000   0.00100   0.00100   2.07105
   R19        2.06894   0.00116   0.00000   0.00335   0.00335   2.07229
    A1        1.87408   0.00036   0.00000   0.00583   0.00582   1.87990
    A2        1.87918   0.00014   0.00000  -0.00033  -0.00033   1.87885
    A3        1.94371   0.00006   0.00000   0.00173   0.00172   1.94543
    A4        1.87291   0.00000   0.00000  -0.00247  -0.00248   1.87043
    A5        1.94905   0.00003   0.00000   0.00083   0.00082   1.94987
    A6        1.94129  -0.00056   0.00000  -0.00541  -0.00542   1.93587
    A7        1.87966  -0.00059   0.00000  -0.02194  -0.02174   1.85792
    A8        1.95142   0.00145   0.00000   0.02433   0.02365   1.97507
    A9        1.93283  -0.00072   0.00000   0.01084   0.00983   1.94266
   A10        1.86462  -0.00117   0.00000  -0.02072  -0.02032   1.84430
   A11        1.87966  -0.00059   0.00000  -0.02194  -0.02173   1.85792
   A12        1.95144   0.00144   0.00000   0.02431   0.02363   1.97507
   A13        1.90148  -0.00341   0.00000  -0.01115  -0.01108   1.89040
   A14        1.90149  -0.00341   0.00000  -0.01117  -0.01109   1.89040
   A15        1.99383   0.01198   0.00000   0.05735   0.05738   2.05122
   A16        1.84368   0.00224   0.00000  -0.00157  -0.00194   1.84173
   A17        1.90868  -0.00405   0.00000  -0.01891  -0.01908   1.88960
   A18        1.90868  -0.00405   0.00000  -0.01892  -0.01909   1.88959
   A19        1.91697  -0.00056   0.00000   0.00229   0.00236   1.91933
   A20        1.91696  -0.00056   0.00000   0.00231   0.00237   1.91934
   A21        1.94951   0.00373   0.00000   0.01691   0.01694   1.96645
   A22        1.84798   0.00097   0.00000   0.00415   0.00403   1.85201
   A23        1.91485  -0.00188   0.00000  -0.01325  -0.01332   1.90153
   A24        1.91486  -0.00188   0.00000  -0.01325  -0.01333   1.90153
   A25        1.94797  -0.00115   0.00000  -0.00814  -0.00817   1.93980
   A26        1.94010   0.00141   0.00000   0.01077   0.01079   1.95089
   A27        1.94796  -0.00115   0.00000  -0.00813  -0.00816   1.93980
   A28        1.87507   0.00008   0.00000   0.00247   0.00249   1.87755
   A29        1.87391   0.00080   0.00000   0.00100   0.00093   1.87483
   A30        1.87507   0.00008   0.00000   0.00246   0.00248   1.87755
   A31        1.94371   0.00006   0.00000   0.00173   0.00172   1.94544
   A32        1.94906   0.00003   0.00000   0.00083   0.00082   1.94987
   A33        1.94129  -0.00056   0.00000  -0.00541  -0.00542   1.93587
   A34        1.87407   0.00036   0.00000   0.00584   0.00582   1.87989
   A35        1.87918   0.00014   0.00000  -0.00033  -0.00033   1.87885
   A36        1.87291   0.00000   0.00000  -0.00247  -0.00248   1.87043
    D1       -1.09821  -0.00002   0.00000  -0.01207  -0.01203  -1.11024
    D2        0.94507  -0.00098   0.00000  -0.03699  -0.03707   0.90800
    D3        3.13390   0.00144   0.00000   0.02137   0.02142  -3.12787
    D4        3.08994  -0.00054   0.00000  -0.02125  -0.02121   3.06872
    D5       -1.14997  -0.00150   0.00000  -0.04617  -0.04626  -1.19622
    D6        1.03886   0.00092   0.00000   0.01219   0.01223   1.05109
    D7        0.99804  -0.00018   0.00000  -0.01498  -0.01495   0.98309
    D8        3.04132  -0.00115   0.00000  -0.03991  -0.04000   3.00133
    D9       -1.05304   0.00128   0.00000   0.01845   0.01850  -1.03454
   D10       -1.05065   0.00013   0.00000   0.01888   0.01907  -1.03157
   D11       -3.05392   0.00113   0.00000   0.03271   0.03296  -3.02096
   D12        1.08931   0.00063   0.00000   0.02581   0.02603   1.11533
   D13        1.00168  -0.00050   0.00000  -0.00690  -0.00693   0.99475
   D14       -1.00159   0.00050   0.00000   0.00693   0.00695  -0.99464
   D15       -3.14155   0.00000   0.00000   0.00003   0.00003  -3.14153
   D16        3.05402  -0.00113   0.00000  -0.03269  -0.03293   3.02109
   D17        1.05075  -0.00013   0.00000  -0.01886  -0.01905   1.03169
   D18       -1.08921  -0.00063   0.00000  -0.02576  -0.02598  -1.11520
   D19       -3.13361  -0.00145   0.00000  -0.02148  -0.02153   3.12805
   D20       -1.03857  -0.00092   0.00000  -0.01230  -0.01234  -1.05092
   D21        1.05332  -0.00128   0.00000  -0.01856  -0.01861   1.03472
   D22        1.09850   0.00001   0.00000   0.01196   0.01192   1.11042
   D23       -3.08965   0.00054   0.00000   0.02114   0.02111  -3.06854
   D24       -0.99775   0.00018   0.00000   0.01487   0.01484  -0.98291
   D25       -0.94479   0.00098   0.00000   0.03689   0.03697  -0.90782
   D26        1.15024   0.00150   0.00000   0.04608   0.04616   1.19640
   D27       -3.04105   0.00115   0.00000   0.03981   0.03990  -3.00115
   D28        1.01280   0.00026   0.00000   0.00383   0.00381   1.01661
   D29       -1.01288  -0.00026   0.00000  -0.00385  -0.00383  -1.01671
   D30        3.14155   0.00000   0.00000  -0.00001  -0.00001   3.14154
   D31       -3.13436   0.00117   0.00000   0.01526   0.01510  -3.11926
   D32        1.12315   0.00064   0.00000   0.00758   0.00746   1.13061
   D33       -1.00561   0.00090   0.00000   0.01141   0.01127  -0.99433
   D34       -1.12325  -0.00064   0.00000  -0.00757  -0.00745  -1.13069
   D35        3.13427  -0.00117   0.00000  -0.01525  -0.01509   3.11918
   D36        1.00551  -0.00090   0.00000  -0.01141  -0.01127   0.99424
   D37        1.04825  -0.00028   0.00000  -0.00486  -0.00484   1.04341
   D38        3.14134   0.00000   0.00000   0.00010   0.00010   3.14144
   D39       -1.04875   0.00028   0.00000   0.00506   0.00503  -1.04371
   D40       -3.10497   0.00021   0.00000   0.00021   0.00017  -3.10479
   D41       -1.01187   0.00049   0.00000   0.00517   0.00511  -1.00677
   D42        1.08122   0.00078   0.00000   0.01013   0.01004   1.09126
   D43       -1.08172  -0.00078   0.00000  -0.00995  -0.00986  -1.09158
   D44        1.01138  -0.00049   0.00000  -0.00499  -0.00493   1.00645
   D45        3.10447  -0.00021   0.00000  -0.00003   0.00001   3.10448
         Item               Value     Threshold  Converged?
 Maximum Force            0.012117     0.000015     NO 
 RMS     Force            0.002422     0.000010     NO 
 Maximum Displacement     0.222127     0.000060     NO 
 RMS     Displacement     0.063373     0.000040     NO 
 Predicted change in Energy=-1.477223D-03
 GradGradGradGradGradGradGradGradGradGradGradGradGradGradGradGradGradGrad

 Leave Link  103 at Fri Sep 18 13:24:13 2015, MaxMem=  402653184 cpu:       0.1
 (Enter /share/apps/g09/l202.exe)
                          Input orientation:                          
 ---------------------------------------------------------------------
 Center     Atomic      Atomic             Coordinates (Angstroms)
 Number     Number       Type             X           Y           Z
 ---------------------------------------------------------------------
      1          6           0       -1.655125   -1.269257   -0.281035
      2          1           0       -1.327174   -2.176853    0.241124
      3          1           0       -1.273778   -1.318841   -1.307303
      4          1           0       -2.749748   -1.297178   -0.340768
      5          6           0       -1.177149   -0.000003    0.442787
      6          1           0       -1.667349    0.000009    1.428759
      7          6           0        0.347201   -0.000061    0.732602
      8          1           0        0.580490   -0.875982    1.356072
      9          1           0        0.580528    0.875769    1.356186
     10          6           0        1.300598    0.000000   -0.475000
     11          1           0        1.106881    0.876881   -1.105282
     12          1           0        1.106912   -0.876833   -1.105358
     13          6           0        2.776175    0.000013   -0.062414
     14          1           0        3.018595   -0.884186    0.540039
     15          1           0        3.442321   -0.000098   -0.933721
     16          1           0        3.018635    0.884333    0.539845
     17          6           0       -1.655025    1.269293   -0.281024
     18          1           0       -1.326853    2.176864    0.241041
     19          1           0       -1.273821    1.318768   -1.307351
     20          1           0       -2.749653    1.297385   -0.340597
 ---------------------------------------------------------------------
                    Distance matrix (angstroms):
                    1          2          3          4          5
     1  C    0.000000
     2  H    1.097238   0.000000
     3  H    1.095952   1.771062   0.000000
     4  H    1.096608   1.770915   1.764411   0.000000
     5  C    1.537330   2.191313   2.193511   2.183962   0.000000
     6  H    2.129455   2.502983   3.062727   2.446530   1.101107
     7  C    2.578299   2.789894   2.920269   3.525015   1.551656
     8  H    2.798706   2.564090   3.275363   3.761271   2.165808
     9  H    3.504250   3.768447   3.917772   4.323435   2.165803
    10  C    3.222566   3.486647   3.009898   4.255114   2.642265
    11  H    3.593600   4.130705   3.244927   4.492728   2.895209
    12  H    2.909012   3.070479   2.429782   3.954126   2.895258
    13  C    4.614678   4.654928   4.437482   5.682958   3.985473
    14  H    4.760892   4.543792   4.693194   5.849801   4.288998
    15  H    5.293460   5.372765   4.911236   6.354190   4.820195
    16  H    5.211125   5.324111   5.166309   6.229664   4.289065
    17  C    2.538550   3.500864   2.810167   2.790836   1.537329
    18  H    3.500867   4.353716   3.823629   3.798960   2.191315
    19  H    2.810087   3.823609   2.637609   3.155284   2.193510
    20  H    2.790912   3.798970   3.155529   2.594564   2.183959
                    6          7          8          9         10
     6  H    0.000000
     7  C    2.131443   0.000000
     8  H    2.413591   1.100171   0.000000
     9  H    2.413540   1.100171   1.751751   0.000000
    10  C    3.526047   1.538593   2.153771   2.153767   0.000000
    11  H    3.858318   2.173467   3.067227   2.517116   1.097133
    12  H    3.858383   2.173473   2.517093   3.067228   1.097133
    13  C    4.687057   2.555770   2.756901   2.756853   1.532173
    14  H    4.850742   2.820479   2.571057   3.115719   2.182568
    15  H    5.629391   3.515167   3.768343   3.768378   2.190298
    16  H    4.850840   2.820615   3.116006   2.571157   2.182569
    17  C    2.129458   2.578296   3.504257   2.798753   3.222490
    18  H    2.503060   2.789820   3.768437   2.564079   3.486394
    19  H    3.062726   2.920348   3.917808   3.275559   3.009915
    20  H    2.446464   3.525001   4.323432   3.761242   4.255091
                   11         12         13         14         15
    11  H    0.000000
    12  H    1.753714   0.000000
    13  C    2.154765   2.154769   0.000000
    14  H    3.076213   2.522284   1.097053   0.000000
    15  H    2.500561   2.500452   1.096780   1.770063   0.000000
    16  H    2.522162   3.076212   1.097053   1.768519   1.770064
    17  C    2.908868   3.593561   4.614585   5.210983   5.293421
    18  H    3.070114   4.130504   4.654632   5.323753   5.372546
    19  H    2.429781   3.244896   4.437504   5.166303   4.911313
    20  H    3.954038   4.492791   5.682898   6.229563   6.354195
                   16         17         18         19         20
    16  H    0.000000
    17  C    4.760790   0.000000
    18  H    4.543477   1.097239   0.000000
    19  H    4.693191   1.095953   1.771061   0.000000
    20  H    5.849695   1.096607   1.770916   1.764412   0.000000
 Stoichiometry    C6H14
 Framework group  C1[X(C6H14)]
 Deg. of freedom    54
 Full point group                 C1      NOp   1
 Largest Abelian subgroup         C1      NOp   1
 Largest concise Abelian subgroup C1      NOp   1
                         Standard orientation:                         
 ---------------------------------------------------------------------
 Center     Atomic      Atomic             Coordinates (Angstroms)
 Number     Number       Type             X           Y           Z
 ---------------------------------------------------------------------
      1          6           0       -1.658433   -1.269238   -0.268240
      2          1           0       -1.328229   -2.176847    0.252473
      3          1           0       -1.281538   -1.318804   -1.296153
      4          1           0       -2.753305   -1.297150   -0.323229
      5          6           0       -1.177315   -0.000003    0.453530
      6          1           0       -1.663238   -0.000008    1.441617
      7          6           0        0.348277   -0.000078    0.736736
      8          1           0        0.584259   -0.876014    1.359171
      9          1           0        0.584311    0.875737    1.359321
     10          6           0        1.296431    0.000002   -0.474987
     11          1           0        1.099990    0.876897   -1.104405
     12          1           0        1.100008   -0.876817   -1.104517
     13          6           0        2.773782   -0.000005   -0.068800
     14          1           0        3.018804   -0.884218    0.532579
     15          1           0        3.436146   -0.000103   -0.942986
     16          1           0        3.018857    0.884301    0.532421
     17          6           0       -1.658315    1.269312   -0.268176
     18          1           0       -1.327876    2.176869    0.252480
     19          1           0       -1.281561    1.318805   -1.296145
     20          1           0       -2.753190    1.297413   -0.323005
 ---------------------------------------------------------------------
 Rotational constants (GHZ):      5.8277919      1.7930630      1.6058675
 Leave Link  202 at Fri Sep 18 13:24:14 2015, MaxMem=  402653184 cpu:       0.0
 (Enter /share/apps/g09/l301.exe)
 Standard basis: 6-31G(d) (6D, 7F)
 Ernie: Thresh=  0.10000D-02 Tol=  0.10000D-05 Strict=F.
 There are   118 symmetry adapted basis functions of A   symmetry.
 Integral buffers will be    131072 words long.
 Raffenetti 2 integral format.
 Two-electron integral symmetry is turned on.
   118 basis functions,   224 primitive gaussians,   118 cartesian basis functions
    25 alpha electrons       25 beta electrons
       nuclear repulsion energy       253.9439210052 Hartrees.
 IExCor=  402 DFT=T Ex+Corr=B3LYP ExCW=0 ScaHFX=  0.200000
 ScaDFX=  0.800000  0.720000  1.000000  0.810000 ScalE2=  1.000000  1.000000
 IRadAn=      5 IRanWt=     -1 IRanGd=            0 ICorTp=0
 NAtoms=   20 NActive=   20 NUniq=   20 SFac= 7.50D-01 NAtFMM=   80 NAOKFM=F Big=F
 Leave Link  301 at Fri Sep 18 13:24:14 2015, MaxMem=  402653184 cpu:       0.2
 (Enter /share/apps/g09/l302.exe)
 NPDir=0 NMtPBC=     1 NCelOv=     1 NCel=       1 NClECP=     1 NCelD=      1
         NCelK=      1 NCelE2=     1 NClLst=     1 CellRange=     0.0.
 One-electron integrals computed using PRISM.
 NBasis=   118 RedAO= T  NBF=   118
 NBsUse=   118 1.00D-06 NBFU=   118
 Precomputing XC quadrature grid using
 IXCGrd= 2 IRadAn=           5 IRanWt=          -1 IRanGd=           0 AccXCQ= 1.00D-10.
 NRdTot=    1644 NPtTot=      440632 NUsed=      452413 NTot=      452445
 NSgBfM=   118   118   118   118   118 NAtAll=    20    20.
 Leave Link  302 at Fri Sep 18 13:24:15 2015, MaxMem=  402653184 cpu:       1.6
 (Enter /share/apps/g09/l303.exe)
 DipDrv:  MaxL=1.
 Leave Link  303 at Fri Sep 18 13:24:15 2015, MaxMem=  402653184 cpu:       0.1
 (Enter /share/apps/g09/l401.exe)
 Initial guess read from the read-write file.
 B after Tr=     0.000000    0.000000    0.000000
         Rot=    1.000000    0.000000    0.000000    0.000000 Ang=   0.00 deg.
 Guess basis will be translated and rotated to current coordinates.
 Initial guess orbital symmetries:
       Occupied  (A) (A) (A) (A) (A) (A) (A) (A) (A) (A) (A) (A)
                 (A) (A) (A) (A) (A) (A) (A) (A) (A) (A) (A) (A)
                 (A)
       Virtual   (A) (A) (A) (A) (A) (A) (A) (A) (A) (A) (A) (A)
                 (A) (A) (A) (A) (A) (A) (A) (A) (A) (A) (A) (A)
                 (A) (A) (A) (A) (A) (A) (A) (A) (A) (A) (A) (A)
                 (A) (A) (A) (A) (A) (A) (A) (A) (A) (A) (A) (A)
                 (A) (A) (A) (A) (A) (A) (A) (A) (A) (A) (A) (A)
                 (A) (A) (A) (A) (A) (A) (A) (A) (A) (A) (A) (A)
                 (A) (A) (A) (A) (A) (A) (A) (A) (A) (A) (A) (A)
                 (A) (A) (A) (A) (A) (A) (A) (A) (A)
 The electronic state of the initial guess is 1-A.
 Generating alternative initial guess.
 Harris functional with IExCor=  402 diagonalized for initial guess.
 ExpMin= 1.61D-01 ExpMax= 3.05D+03 ExpMxC= 4.57D+02 IAcc=3 IRadAn=         5 AccDes= 0.00D+00
 HarFok:  IExCor=  402 AccDes= 0.00D+00 IRadAn=         5 IDoV= 1
 ScaDFX=  1.000000  1.000000  1.000000  1.000000
 FoFCou: FMM=F IPFlag=           0 FMFlag=      100000 FMFlg1=           0
         NFxFlg=           0 DoJE=T BraDBF=F KetDBF=T FulRan=T
         Omega=  0.000000  0.000000  1.000000  0.000000  0.000000 ICntrl=     500 IOpCl=  0
         NMat0=    1 NMatS0=    1 NMatT0=    0 NMatD0=    1 NMtDS0=    0 NMtDT0=    0
         I1Cent=           4 NGrid=           0.
 Petite list used in FoFCou.
 Harris En= -237.181940891769    
 Leave Link  401 at Fri Sep 18 13:24:22 2015, MaxMem=  402653184 cpu:      10.5
 (Enter /share/apps/g09/l502.exe)
 Closed shell SCF:
 Requested convergence on RMS density matrix=1.00D-08 within 128 cycles.
 Requested convergence on MAX density matrix=1.00D-06.
 Requested convergence on             energy=1.00D-06.
 No special actions if energy rises.
 Using DIIS extrapolation, IDIIS=  1040.
 Integral symmetry usage will be decided dynamically.
       452220 words used for storage of precomputed grid.
 Keep R1 ints in memory in canonical form, NReq=26106275.
 IEnd=      513764 IEndB=      513764 NGot=   402653184 MDV=   377519344
 LenX=   377519344 LenY=   377504979
 Symmetry not used in FoFDir.
 MinBra= 0 MaxBra= 2 Meth= 1.
 IRaf=       0 NMat=   1 IRICut=       1 DoRegI=T DoRafI=F ISym2E= 0 JSym2E=0.
 Integral accuracy reduced to 1.0D-05 until final iterations.

 Cycle   1  Pass 0  IDiag  1:
 E= -237.079787322893    
 DIIS: error= 3.92D-03 at cycle   1 NSaved=   1.
 NSaved= 1 IEnMin= 1 EnMin= -237.079787322893     IErMin= 1 ErrMin= 3.92D-03
 ErrMax= 3.92D-03 EMaxC= 1.00D-01 BMatC= 1.65D-03 BMatP= 1.65D-03
 IDIUse=3 WtCom= 9.61D-01 WtEn= 3.92D-02
 Coeff-Com:  0.100D+01
 Coeff-En:   0.100D+01
 Coeff:      0.100D+01
 Gap=     0.385 Goal=   None    Shift=    0.000
 GapD=    0.385 DampG=1.000 DampE=1.000 DampFc=1.0000 IDamp=-1.
 RMSDP=4.92D-04 MaxDP=7.70D-03              OVMax= 1.61D-02

 Cycle   2  Pass 0  IDiag  1:
 E= -237.082987556521     Delta-E=       -0.003200233628 Rises=F Damp=F
 DIIS: error= 3.92D-04 at cycle   2 NSaved=   2.
 NSaved= 2 IEnMin= 2 EnMin= -237.082987556521     IErMin= 2 ErrMin= 3.92D-04
 ErrMax= 3.92D-04 EMaxC= 1.00D-01 BMatC= 3.51D-05 BMatP= 1.65D-03
 IDIUse=3 WtCom= 9.96D-01 WtEn= 3.92D-03
 Coeff-Com: -0.395D-01 0.104D+01
 Coeff-En:   0.000D+00 0.100D+01
 Coeff:     -0.393D-01 0.104D+01
 Gap=     0.383 Goal=   None    Shift=    0.000
 RMSDP=1.09D-04 MaxDP=1.74D-03 DE=-3.20D-03 OVMax= 2.58D-03

 Cycle   3  Pass 0  IDiag  1:
 E= -237.083013328703     Delta-E=       -0.000025772183 Rises=F Damp=F
 DIIS: error= 3.42D-04 at cycle   3 NSaved=   3.
 NSaved= 3 IEnMin= 3 EnMin= -237.083013328703     IErMin= 3 ErrMin= 3.42D-04
 ErrMax= 3.42D-04 EMaxC= 1.00D-01 BMatC= 2.75D-05 BMatP= 3.51D-05
 IDIUse=3 WtCom= 9.97D-01 WtEn= 3.42D-03
 Coeff-Com: -0.385D-01 0.504D+00 0.534D+00
 Coeff-En:   0.000D+00 0.225D+00 0.775D+00
 Coeff:     -0.384D-01 0.503D+00 0.535D+00
 Gap=     0.383 Goal=   None    Shift=    0.000
 RMSDP=4.80D-05 MaxDP=1.16D-03 DE=-2.58D-05 OVMax= 1.07D-03

 Cycle   4  Pass 0  IDiag  1:
 E= -237.083040153974     Delta-E=       -0.000026825271 Rises=F Damp=F
 DIIS: error= 6.52D-05 at cycle   4 NSaved=   4.
 NSaved= 4 IEnMin= 4 EnMin= -237.083040153974     IErMin= 4 ErrMin= 6.52D-05
 ErrMax= 6.52D-05 EMaxC= 1.00D-01 BMatC= 8.05D-07 BMatP= 2.75D-05
 IDIUse=1 WtCom= 1.00D+00 WtEn= 0.00D+00
 Coeff-Com: -0.145D-01 0.155D+00 0.219D+00 0.641D+00
 Coeff:     -0.145D-01 0.155D+00 0.219D+00 0.641D+00
 Gap=     0.383 Goal=   None    Shift=    0.000
 RMSDP=9.60D-06 MaxDP=1.34D-04 DE=-2.68D-05 OVMax= 2.12D-04

 Initial convergence to 1.0D-05 achieved.  Increase integral accuracy.
 Cycle   5  Pass 1  IDiag  1:
 E= -237.083026211534     Delta-E=        0.000013942440 Rises=F Damp=F
 DIIS: error= 1.21D-05 at cycle   1 NSaved=   1.
 NSaved= 1 IEnMin= 1 EnMin= -237.083026211534     IErMin= 1 ErrMin= 1.21D-05
 ErrMax= 1.21D-05 EMaxC= 1.00D-01 BMatC= 2.73D-08 BMatP= 2.73D-08
 IDIUse=1 WtCom= 1.00D+00 WtEn= 0.00D+00
 Coeff-Com:  0.100D+01
 Coeff:      0.100D+01
 Gap=     0.383 Goal=   None    Shift=    0.000
 RMSDP=9.60D-06 MaxDP=1.34D-04 DE= 1.39D-05 OVMax= 7.72D-05

 Cycle   6  Pass 1  IDiag  1:
 E= -237.083026213452     Delta-E=       -0.000000001918 Rises=F Damp=F
 DIIS: error= 1.17D-05 at cycle   2 NSaved=   2.
 NSaved= 2 IEnMin= 2 EnMin= -237.083026213452     IErMin= 2 ErrMin= 1.17D-05
 ErrMax= 1.17D-05 EMaxC= 1.00D-01 BMatC= 2.81D-08 BMatP= 2.73D-08
 IDIUse=1 WtCom= 1.00D+00 WtEn= 0.00D+00
 Coeff-Com:  0.504D+00 0.496D+00
 Coeff:      0.504D+00 0.496D+00
 Gap=     0.383 Goal=   None    Shift=    0.000
 RMSDP=1.73D-06 MaxDP=3.46D-05 DE=-1.92D-09 OVMax= 3.96D-05

 Cycle   7  Pass 1  IDiag  1:
 E= -237.083026242169     Delta-E=       -0.000000028718 Rises=F Damp=F
 DIIS: error= 1.98D-06 at cycle   3 NSaved=   3.
 NSaved= 3 IEnMin= 3 EnMin= -237.083026242169     IErMin= 3 ErrMin= 1.98D-06
 ErrMax= 1.98D-06 EMaxC= 1.00D-01 BMatC= 6.23D-10 BMatP= 2.73D-08
 IDIUse=1 WtCom= 1.00D+00 WtEn= 0.00D+00
 Coeff-Com:  0.153D+00 0.197D+00 0.650D+00
 Coeff:      0.153D+00 0.197D+00 0.650D+00
 Gap=     0.383 Goal=   None    Shift=    0.000
 RMSDP=3.00D-07 MaxDP=5.13D-06 DE=-2.87D-08 OVMax= 5.98D-06

 Cycle   8  Pass 1  IDiag  1:
 E= -237.083026242797     Delta-E=       -0.000000000628 Rises=F Damp=F
 DIIS: error= 4.11D-07 at cycle   4 NSaved=   4.
 NSaved= 4 IEnMin= 4 EnMin= -237.083026242797     IErMin= 4 ErrMin= 4.11D-07
 ErrMax= 4.11D-07 EMaxC= 1.00D-01 BMatC= 2.50D-11 BMatP= 6.23D-10
 IDIUse=1 WtCom= 1.00D+00 WtEn= 0.00D+00
 Coeff-Com: -0.113D-01 0.964D-03 0.172D+00 0.838D+00
 Coeff:     -0.113D-01 0.964D-03 0.172D+00 0.838D+00
 Gap=     0.383 Goal=   None    Shift=    0.000
 RMSDP=6.38D-08 MaxDP=7.84D-07 DE=-6.28D-10 OVMax= 1.35D-06

 Cycle   9  Pass 1  IDiag  1:
 E= -237.083026242825     Delta-E=       -0.000000000028 Rises=F Damp=F
 DIIS: error= 6.15D-08 at cycle   5 NSaved=   5.
 NSaved= 5 IEnMin= 5 EnMin= -237.083026242825     IErMin= 5 ErrMin= 6.15D-08
 ErrMax= 6.15D-08 EMaxC= 1.00D-01 BMatC= 8.17D-13 BMatP= 2.50D-11
 IDIUse=1 WtCom= 1.00D+00 WtEn= 0.00D+00
 Coeff-Com: -0.651D-02-0.163D-02 0.655D-01 0.352D+00 0.590D+00
 Coeff:     -0.651D-02-0.163D-02 0.655D-01 0.352D+00 0.590D+00
 Gap=     0.383 Goal=   None    Shift=    0.000
 RMSDP=9.01D-09 MaxDP=1.74D-07 DE=-2.79D-11 OVMax= 1.95D-07

 SCF Done:  E(RB3LYP) =  -237.083026243     A.U. after    9 cycles
             Convg  =    0.9014D-08             -V/T =  2.0106
 KE= 2.346071013788D+02 PE=-1.054799880511D+03 EE= 3.291658318839D+02
 Leave Link  502 at Fri Sep 18 13:25:20 2015, MaxMem=  402653184 cpu:      89.9
 (Enter /share/apps/g09/l701.exe)
 Compute integral first derivatives.
 ... and contract with generalized density number  0.
 Leave Link  701 at Fri Sep 18 13:25:20 2015, MaxMem=  402653184 cpu:       0.3
 (Enter /share/apps/g09/l702.exe)
 L702 exits ... SP integral derivatives will be done elsewhere.
 Leave Link  702 at Fri Sep 18 13:25:20 2015, MaxMem=  402653184 cpu:       0.1
 (Enter /share/apps/g09/l703.exe)
 Compute integral first derivatives, UseDBF=F ICtDFT=           0.
 Integral derivatives from FoFDir, PRISM(SPDF).
 Calling FoFJK, ICntrl=      2127 FMM=F ISym2X=0 I1Cent= 0 IOpClX= 0 NMat=1 NMatS=1 NMatT=0.
 FoFCou: FMM=F IPFlag=           0 FMFlag=      100000 FMFlg1=         800
         NFxFlg=           0 DoJE=F BraDBF=F KetDBF=F FulRan=T
         Omega=  0.000000  0.000000  1.000000  0.000000  0.000000 ICntrl=    2127 IOpCl=  0
         NMat0=    1 NMatS0=    1 NMatT0=    0 NMatD0=    1 NMtDS0=    0 NMtDT0=    0
         I1Cent=           0 NGrid=           0.
 Symmetry not used in FoFCou.
 Leave Link  703 at Fri Sep 18 13:25:37 2015, MaxMem=  402653184 cpu:      24.9
 (Enter /share/apps/g09/l716.exe)
 Dipole        =-1.97025771D-02 3.92578769D-06 1.28152320D-02
 ***** Axes restored to original set *****
 -------------------------------------------------------------------
 Center     Atomic                   Forces (Hartrees/Bohr)
 Number     Number              X              Y              Z
 -------------------------------------------------------------------
      1        6           0.001064646    0.000207114   -0.000618642
      2        1           0.000080393    0.000342803    0.000056064
      3        1           0.000548707   -0.000127253   -0.000604645
      4        1           0.000002043    0.000308169    0.000159557
      5        6           0.000282044   -0.000000627    0.002298148
      6        1           0.000954300    0.000000227    0.000344795
      7        6          -0.000274640    0.000000259   -0.000196398
      8        1          -0.000505030   -0.000385637   -0.000092079
      9        1          -0.000505129    0.000385886   -0.000092142
     10        6          -0.002100231    0.000000485   -0.000830637
     11        1          -0.000525662    0.000640068   -0.000354202
     12        1          -0.000526199   -0.000640899   -0.000353321
     13        6           0.000481398   -0.000000357    0.001021219
     14        1           0.000073413   -0.000064995    0.000139856
     15        1          -0.000818051    0.000000604   -0.000010376
     16        1           0.000073013    0.000064426    0.000140785
     17        6           0.001064802   -0.000206490   -0.000619511
     18        1           0.000079709   -0.000342980    0.000056452
     19        1           0.000548592    0.000127368   -0.000603878
     20        1           0.000001882   -0.000308170    0.000158955
 -------------------------------------------------------------------
 Cartesian Forces:  Max     0.002298148 RMS     0.000592111
 Leave Link  716 at Fri Sep 18 13:25:37 2015, MaxMem=  402653184 cpu:       0.1
 (Enter /share/apps/g09/l103.exe)

 GradGradGradGradGradGradGradGradGradGradGradGradGradGradGradGradGradGrad
 Berny optimization.
 Using GEDIIS/GDIIS optimizer.
 Internal  Forces:  Max     0.004662779 RMS     0.000824495
 Search for a local minimum.
 Step number   2 out of a maximum of  110
 All quantities printed in internal units (Hartrees-Bohrs-Radians)
 RMS Force = .82449D-03 SwitMx=.10000D-02 MixMth= 2
 Mixed Optimization -- En-DIIS/RFO-DIIS
 Update second derivatives using D2CorX and points    1    2
 DE= -8.81D-04 DEPred=-1.48D-03 R= 5.97D-01
 SS=  1.41D+00  RLast= 1.74D-01 DXNew= 5.0454D-01 5.2184D-01
 Trust test= 5.97D-01 RLast= 1.74D-01 DXMaxT set to 5.05D-01
 Use linear search instead of GDIIS.
[...]

 Largest change from initial coordinates is atom   15       6.008 Angstoms.
 Leave Link  103 at Fri Sep 18 13:35:02 2015, MaxMem=  402653184 cpu:       0.1
 (Enter /share/apps/g09/l202.exe)
                          Input orientation:                          
 ---------------------------------------------------------------------
 Center     Atomic      Atomic             Coordinates (Angstroms)
 Number     Number       Type             X           Y           Z
 ---------------------------------------------------------------------
      1          6           0       -1.636025   -1.267024   -0.281617
      2          1           0       -1.320885   -2.174481    0.248058
      3          1           0       -1.226988   -1.314781   -1.298002
      4          1           0       -2.728872   -1.293522   -0.368289
      5          6           0       -1.175960    0.000018    0.456622
      6          1           0       -1.672840    0.000015    1.438614
      7          6           0        0.342097   -0.000001    0.748188
      8          1           0        0.576454   -0.878086    1.368439
      9          1           0        0.576478    0.878081    1.368434
     10          6           0        1.276424   -0.000019   -0.471230
     11          1           0        1.073553    0.878058   -1.098414
     12          1           0        1.073523   -0.878092   -1.098410
     13          6           0        2.756828   -0.000044   -0.072939
     14          1           0        3.006204   -0.884547    0.526382
     15          1           0        3.409084   -0.000058   -0.953863
     16          1           0        3.006235    0.884455    0.526376
     17          6           0       -1.636000    1.267081   -0.281595
     18          1           0       -1.320836    2.174523    0.248092
     19          1           0       -1.226968    1.314844   -1.297981
     20          1           0       -2.728846    1.293605   -0.368261
 ---------------------------------------------------------------------
                    Distance matrix (angstroms):
                    1          2          3          4          5
     1  C    0.000000
     2  H    1.096972   0.000000
     3  H    1.096645   1.771497   0.000000
     4  H    1.096598   1.771553   1.766486   0.000000
     5  C    1.536896   2.189280   2.193172   2.182947   0.000000
     6  H    2.136805   2.503943   3.068637   2.460353   1.100544
     7  C    2.564920   2.782805   2.894403   3.514337   1.545804
     8  H    2.787296   2.556519   3.248540   3.756859   2.161812
     9  H    3.495613   3.764753   3.894999   4.319422   2.161813
    10  C    3.181762   3.462899   2.946052   4.210242   2.622040
    11  H    3.551105   4.106618   3.184473   4.439288   2.872177
    12  H    2.856584   3.037563   2.350083   3.894081   2.872173
    13  C    4.576674   4.632381   4.370367   5.643866   3.968281
    14  H    4.727520   4.523836   4.629622   5.818831   4.275257
    15  H    5.245021   5.342783   4.831159   6.300035   4.797093
    16  H    5.179989   5.306460   5.107364   6.199634   4.275260
    17  C    2.534105   3.496310   2.804707   2.785422   1.536896
    18  H    3.496310   4.349004   3.817651   3.793393   2.189280
    19  H    2.804704   3.817650   2.629625   3.150178   2.193172
    20  H    2.785424   3.793393   3.150186   2.587127   2.182947
                    6          7          8          9         10
     6  H    0.000000
     7  C    2.129943   0.000000
     8  H    2.415638   1.100303   0.000000
     9  H    2.415648   1.100304   1.756167   0.000000
    10  C    3.513639   1.536211   2.155306   2.155307   0.000000
    11  H    3.840591   2.171624   3.068634   2.516431   1.097969
    12  H    3.840582   2.171624   2.516431   3.068635   1.097969
    13  C    4.680464   2.550524   2.757274   2.757279   1.533047
    14  H    4.848512   2.815863   2.571534   3.117608   2.183978
    15  H    5.616929   3.507618   3.766671   3.766676   2.186590
    16  H    4.848520   2.815864   3.117605   2.571541   2.183978
    17  C    2.136804   2.564921   3.495612   2.787288   3.181779
    18  H    2.503944   2.782804   3.764746   2.556507   3.462920
    19  H    3.068637   2.894407   3.895006   3.248530   2.946074
    20  H    2.460350   3.514338   4.319419   3.756852   4.210256
                   11         12         13         14         15
    11  H    0.000000
    12  H    1.756150   0.000000
    13  C    2.157794   2.157794   0.000000
    14  H    3.079266   2.524925   1.097142   0.000000
    15  H    2.499337   2.499336   1.096113   1.770807   0.000000
    16  H    2.524923   3.079266   1.097142   1.769002   1.770807
    17  C    2.856608   3.551123   4.576689   5.179999   5.245041
    18  H    3.037598   4.106639   4.632402   5.306471   5.342812
    19  H    2.350108   3.184503   4.370387   5.107383   4.831186
    20  H    3.894104   4.439302   5.643879   6.199640   6.300054
                   16         17         18         19         20
    16  H    0.000000
    17  C    4.727532   0.000000
    18  H    4.523854   1.096972   0.000000
    19  H    4.629634   1.096645   1.771497   0.000000
    20  H    5.818843   1.096598   1.771553   1.766485   0.000000
 Stoichiometry    C6H14
 Framework group  C1[X(C6H14)]
 Deg. of freedom    54
 Full point group                 C1      NOp   1
 Largest Abelian subgroup         C1      NOp   1
 Largest concise Abelian subgroup C1      NOp   1
                         Standard orientation:                         
 ---------------------------------------------------------------------
 Center     Atomic      Atomic             Coordinates (Angstroms)
 Number     Number       Type             X           Y           Z
 ---------------------------------------------------------------------
      1          6           0        1.637801    1.267058   -0.274508
      2          1           0        1.321478    2.174503    0.254484
      3          1           0        1.231002    1.314822   -1.291791
      4          1           0        2.730835    1.293577   -0.358773
      5          6           0        1.176134   -0.000001    0.462698
      6          1           0        1.670849   -0.000003    1.445782
      7          6           0       -0.342562   -0.000014    0.750920
      8          1           0       -0.578300    0.878058    1.370666
      9          1           0       -0.578292   -0.878108    1.370637
     10          6           0       -1.274201    0.000004   -0.470552
     11          1           0       -1.069934   -0.878061   -1.097299
     12          1           0       -1.069936    0.878090   -1.097272
     13          6           0       -2.755479   -0.000003   -0.075522
     14          1           0       -3.006190    0.884488    0.523260
     15          1           0       -3.405793    0.000012   -0.957880
     16          1           0       -3.006189   -0.884515    0.523230
     17          6           0        1.637821   -1.267046   -0.274521
     18          1           0        1.321507   -2.174501    0.254458
     19          1           0        1.231028   -1.314803   -1.291807
     20          1           0        2.730856   -1.293550   -0.358781
 ---------------------------------------------------------------------
 Rotational constants (GHZ):      5.8081583      1.8198738      1.6308064
 Leave Link  202 at Fri Sep 18 13:35:02 2015, MaxMem=  402653184 cpu:       0.0
 (Enter /share/apps/g09/l601.exe)
 Copying SCF densities to generalized density rwf, IOpCl= 0 IROHF=0.

 **********************************************************************

            Population analysis using the SCF density.

 **********************************************************************

 Orbital symmetries:
       Occupied  (A) (A) (A) (A) (A) (A) (A) (A) (A) (A) (A) (A)
                 (A) (A) (A) (A) (A) (A) (A) (A) (A) (A) (A) (A)
                 (A)
       Virtual   (A) (A) (A) (A) (A) (A) (A) (A) (A) (A) (A) (A)
                 (A) (A) (A) (A) (A) (A) (A) (A) (A) (A) (A) (A)
                 (A) (A) (A) (A) (A) (A) (A) (A) (A) (A) (A) (A)
                 (A) (A) (A) (A) (A) (A) (A) (A) (A) (A) (A) (A)
                 (A) (A) (A) (A) (A) (A) (A) (A) (A) (A) (A) (A)
                 (A) (A) (A) (A) (A) (A) (A) (A) (A) (A) (A) (A)
                 (A) (A) (A) (A) (A) (A) (A) (A) (A) (A) (A) (A)
                 (A) (A) (A) (A) (A) (A) (A) (A) (A)
 The electronic state is 1-A.
 Alpha  occ. eigenvalues --  -10.18326 -10.17494 -10.17255 -10.16986 -10.16801
 Alpha  occ. eigenvalues --  -10.16800  -0.80471  -0.75353  -0.67621  -0.66938
 Alpha  occ. eigenvalues --   -0.59729  -0.53858  -0.45770  -0.45354  -0.43227
 Alpha  occ. eigenvalues --   -0.40773  -0.40041  -0.37872  -0.36384  -0.35891
 Alpha  occ. eigenvalues --   -0.34832  -0.33123  -0.31289  -0.30924  -0.30169
 Alpha virt. eigenvalues --    0.08273   0.11432   0.12417   0.12618   0.15234
 Alpha virt. eigenvalues --    0.15935   0.17037   0.17598   0.17911   0.18874
 Alpha virt. eigenvalues --    0.19088   0.20036   0.21520   0.21660   0.23701
 Alpha virt. eigenvalues --    0.25401   0.26997   0.27571   0.28082   0.49718
 Alpha virt. eigenvalues --    0.51342   0.52493   0.52941   0.54186   0.56600
 Alpha virt. eigenvalues --    0.56822   0.62461   0.64986   0.69133   0.70125
 Alpha virt. eigenvalues --    0.71312   0.72960   0.73350   0.79040   0.81674
 Alpha virt. eigenvalues --    0.86218   0.86517   0.87396   0.89524   0.90459
 Alpha virt. eigenvalues --    0.90947   0.92239   0.93342   0.94100   0.95866
 Alpha virt. eigenvalues --    0.96215   0.97619   0.99572   1.01313   1.01872
 Alpha virt. eigenvalues --    1.03346   1.09845   1.23928   1.41498   1.43343
 Alpha virt. eigenvalues --    1.43784   1.45083   1.57345   1.63739   1.67952
 Alpha virt. eigenvalues --    1.73601   1.77006   1.77528   1.85605   1.86329
 Alpha virt. eigenvalues --    1.95440   1.95954   1.97081   2.02201   2.03208
 Alpha virt. eigenvalues --    2.09072   2.12985   2.13770   2.17054   2.23739
 Alpha virt. eigenvalues --    2.26891   2.27004   2.34227   2.35802   2.38489
 Alpha virt. eigenvalues --    2.43535   2.50596   2.53142   2.61429   2.70805
 Alpha virt. eigenvalues --    2.71963   2.78587   4.11788   4.21446   4.29186
 Alpha virt. eigenvalues --    4.34325   4.48943   4.58644
          Condensed to atoms (all electrons):
              1          2          3          4          5          6
     1  C    5.109191   0.369702   0.372995   0.370116   0.380971  -0.047780
     2  H    0.369702   0.582487  -0.032049  -0.030553  -0.030564  -0.003081
     3  H    0.372995  -0.032049   0.578417  -0.032055  -0.032994   0.005806
     4  H    0.370116  -0.030553  -0.032055   0.582751  -0.029403  -0.004513
     5  C    0.380971  -0.030564  -0.032994  -0.029403   4.836449   0.378166
     6  H   -0.047780  -0.003081   0.005806  -0.004513   0.378166   0.646731
     7  C   -0.048290  -0.003519  -0.006314   0.004873   0.384586  -0.042599
     8  H   -0.005632   0.004704  -0.000142  -0.000058  -0.034454  -0.003971
     9  H    0.005720  -0.000019  -0.000051  -0.000170  -0.034454  -0.003971
    10  C   -0.006916  -0.000424   0.002780   0.000129  -0.036859   0.005108
    11  H   -0.000390   0.000057   0.000197  -0.000022  -0.004326   0.000007
    12  H    0.003574   0.000286   0.002341  -0.000091  -0.004326   0.000007
    13  C    0.000109  -0.000031  -0.000086  -0.000001   0.003945  -0.000147
    14  H   -0.000008   0.000004   0.000003   0.000000   0.000005  -0.000003
    15  H    0.000002   0.000000   0.000006   0.000000  -0.000136   0.000002
    16  H    0.000004   0.000000   0.000000   0.000000   0.000005  -0.000003
    17  C   -0.055639   0.005258  -0.005664  -0.003194   0.380971  -0.047780
    18  H    0.005258  -0.000186  -0.000021  -0.000060  -0.030564  -0.003080
    19  H   -0.005664  -0.000021   0.004869  -0.000276  -0.032994   0.005806
    20  H   -0.003194  -0.000060  -0.000276   0.003773  -0.029403  -0.004513
              7          8          9         10         11         12
     1  C   -0.048290  -0.005632   0.005720  -0.006916  -0.000390   0.003574
     2  H   -0.003519   0.004704  -0.000019  -0.000424   0.000057   0.000286
     3  H   -0.006314  -0.000142  -0.000051   0.002780   0.000197   0.002341
     4  H    0.004873  -0.000058  -0.000170   0.000129  -0.000022  -0.000091
     5  C    0.384586  -0.034454  -0.034454  -0.036859  -0.004326  -0.004326
     6  H   -0.042599  -0.003971  -0.003971   0.005108   0.000007   0.000007
     7  C    5.015162   0.366912   0.366912   0.388500  -0.040271  -0.040271
     8  H    0.366912   0.623531  -0.038336  -0.042911   0.005976  -0.005215
     9  H    0.366912  -0.038336   0.623530  -0.042911  -0.005215   0.005976
    10  C    0.388500  -0.042911  -0.042911   4.960925   0.378079   0.378079
    11  H   -0.040271   0.005976  -0.005215   0.378079   0.606429  -0.040284
    12  H   -0.040271  -0.005215   0.005976   0.378079  -0.040284   0.606428
    13  C   -0.042265  -0.003701  -0.003700   0.373340  -0.038598  -0.038598
    14  H   -0.004457   0.005283  -0.000394  -0.035040   0.005214  -0.004530
    15  H    0.004120  -0.000020  -0.000020  -0.028437  -0.002503  -0.002503
    16  H   -0.004457  -0.000394   0.005283  -0.035040  -0.004530   0.005214
    17  C   -0.048290   0.005720  -0.005633  -0.006916   0.003574  -0.000390
    18  H   -0.003519  -0.000019   0.004704  -0.000424   0.000286   0.000057
    19  H   -0.006314  -0.000051  -0.000142   0.002780   0.002341   0.000197
    20  H    0.004873  -0.000170  -0.000058   0.000129  -0.000091  -0.000022
             13         14         15         16         17         18
     1  C    0.000109  -0.000008   0.000002   0.000004  -0.055639   0.005258
     2  H   -0.000031   0.000004   0.000000   0.000000   0.005258  -0.000186
     3  H   -0.000086   0.000003   0.000006   0.000000  -0.005664  -0.000021
     4  H   -0.000001   0.000000   0.000000   0.000000  -0.003194  -0.000060
     5  C    0.003945   0.000005  -0.000136   0.000005   0.380971  -0.030564
     6  H   -0.000147  -0.000003   0.000002  -0.000003  -0.047780  -0.003080
     7  C   -0.042265  -0.004457   0.004120  -0.004457  -0.048290  -0.003519
     8  H   -0.003701   0.005283  -0.000020  -0.000394   0.005720  -0.000019
     9  H   -0.003700  -0.000394  -0.000020   0.005283  -0.005633   0.004704
    10  C    0.373340  -0.035040  -0.028437  -0.035040  -0.006916  -0.000424
    11  H   -0.038598   0.005214  -0.002503  -0.004530   0.003574   0.000286
    12  H   -0.038598  -0.004530  -0.002503   0.005214  -0.000390   0.000057
    13  C    5.064879   0.377186   0.371836   0.377186   0.000109  -0.000031
    14  H    0.377186   0.580440  -0.031440  -0.032940   0.000004   0.000000
    15  H    0.371836  -0.031440   0.580170  -0.031440   0.000002   0.000000
    16  H    0.377186  -0.032940  -0.031440   0.580440  -0.000008   0.000004
    17  C    0.000109   0.000004   0.000002  -0.000008   5.109191   0.369702
    18  H   -0.000031   0.000000   0.000000   0.000004   0.369702   0.582486
    19  H   -0.000086   0.000000   0.000006   0.000003   0.372995  -0.032049
    20  H   -0.000001   0.000000   0.000000   0.000000   0.370116  -0.030553
             19         20
     1  C   -0.005664  -0.003194
     2  H   -0.000021  -0.000060
     3  H    0.004869  -0.000276
     4  H   -0.000276   0.003773
     5  C   -0.032994  -0.029403
     6  H    0.005806  -0.004513
     7  C   -0.006314   0.004873
     8  H   -0.000051  -0.000170
     9  H   -0.000142  -0.000058
    10  C    0.002780   0.000129
    11  H    0.002341  -0.000091
    12  H    0.000197  -0.000022
    13  C   -0.000086  -0.000001
    14  H    0.000000   0.000000
    15  H    0.000006   0.000000
    16  H    0.000003   0.000000
    17  C    0.372995   0.370116
    18  H   -0.032049  -0.030553
    19  H    0.578417  -0.032055
    20  H   -0.032055   0.582751
 Mulliken atomic charges:
              1
     1  C   -0.444128
     2  H    0.138008
     3  H    0.142240
     4  H    0.138755
     5  C   -0.064621
     6  H    0.119808
     7  C   -0.245372
     8  H    0.122949
     9  H    0.122949
    10  C   -0.253971
    11  H    0.134072
    12  H    0.134073
    13  C   -0.441342
    14  H    0.140675
    15  H    0.140354
    16  H    0.140675
    17  C   -0.444128
    18  H    0.138008
    19  H    0.142239
    20  H    0.138755
 Sum of Mulliken atomic charges =   0.00000
 Mulliken charges with hydrogens summed into heavy atoms:
              1
     1  C   -0.025125
     5  C    0.055187
     7  C    0.000527
    10  C    0.014174
    13  C   -0.019638
    17  C   -0.025125
 Sum of Mulliken charges with hydrogens summed into heavy atoms =   0.00000
 Electronic spatial extent (au):  <R**2>=            856.6882
 Charge=              0.0000 electrons
 Dipole moment (field-independent basis, Debye):
    X=              0.0498    Y=              0.0000    Z=              0.0294  Tot=              0.0578
 Quadrupole moment (field-independent basis, Debye-Ang):
   XX=            -41.9229   YY=            -41.5102   ZZ=            -41.3990
   XY=              0.0000   XZ=              0.3149   YZ=              0.0000
 Traceless Quadrupole moment (field-independent basis, Debye-Ang):
   XX=             -0.3122   YY=              0.1005   ZZ=              0.2117
   XY=              0.0000   XZ=              0.3149   YZ=              0.0000
 Octapole moment (field-independent basis, Debye-Ang**2):
  XXX=              3.9417  YYY=             -0.0001  ZZZ=             -0.7018  XYY=             -1.7727
  XXY=              0.0000  XXZ=             -0.2023  XZZ=             -0.5601  YZZ=              0.0000
  YYZ=              1.4591  XYZ=              0.0000
 Hexadecapole moment (field-independent basis, Debye-Ang**3):
 XXXX=           -806.9762 YYYY=           -240.8602 ZZZZ=           -140.9147 XXXY=              0.0000
 XXXZ=              3.4549 YYYX=              0.0000 YYYZ=             -0.0001 ZZZX=              2.3093
 ZZZY=              0.0001 XXYY=           -176.8139 XXZZ=           -157.5468 YYZZ=            -62.6086
 XXYZ=              0.0000 YYXZ=              0.1434 ZZXY=             -0.0001
 N-N= 2.547460341110D+02 E-N=-1.056419619834D+03  KE= 2.346241848576D+02
 No NMR shielding tensors so no spin-rotation constants.
 Leave Link  601 at Fri Sep 18 13:35:02 2015, MaxMem=  402653184 cpu:       0.4
 (Enter /share/apps/g09/l9999.exe)
 1\1\GINC-COMPUTE-0-9\FOpt\RB3LYP\6-31G(d)\C6H14\HETANJIN\18-Sep-2015\0
 \\#p B3LYP/6-31G(d) opt=tight int=ultrafine\\using B3LYP/6-31G(d) to d
 o opt and freq calc.\\0,1\C,-1.6360251064,-1.2670240066,-0.2816168954\
 H,-1.3208845295,-2.1744813126,0.248058019\H,-1.2269883719,-1.314780991
 9,-1.2980017049\H,-2.7288718122,-1.2935222828,-0.3682887639\C,-1.17596
 02892,0.0000175808,0.4566218945\H,-1.6728395254,0.0000148063,1.4386137
 802\C,0.3420971608,-0.0000011254,0.7481877663\H,0.576453626,-0.8780858
 889,1.3684393006\H,0.5764779501,0.8780809307,1.3684341235\C,1.27642359
 77,-0.0000193701,-0.4712300008\H,1.0735533404,0.8780578374,-1.09841376
 89\H,1.0735234134,-0.8780924844,-1.0984101662\C,2.7568278845,-0.000043
 7428,-0.0729392302\H,3.0062040551,-0.8845470998,0.5263820864\H,3.40908
 39755,-0.0000583649,-0.9538627186\H,3.006234672,0.8844553981,0.5263755
 183\C,-1.6359998745,1.267080874,-0.2815953263\H,-1.3208361896,2.174523
 1054,0.2480917402\H,-1.2269675604,1.3148439852,-1.2979814581\H,-2.7288
 464164,1.2936051523,-0.3682611956\\Version=EM64L-G09RevA.01\State=1-A\
 HF=-237.0832109\RMSD=6.433e-09\RMSF=6.073e-07\Dipole=-0.019612,-0.0000
 003,0.01152\Quadrupole=-0.231081,0.0747149,0.1563662,0.0000073,-0.2350
 11,0.0000017\PG=C01 [X(C6H14)]\\@


 Everywhere is walking distance if you have the time.
                                    -- Steven Wright
 Job cpu time:  0 days  0 hours 18 minutes 20.1 seconds.
 File lengths (MBytes):  RWF=     15 Int=      0 D2E=      0 Chk=      2 Scr=      1
 Normal termination of Gaussian 09 at Fri Sep 18 13:35:02 2015.
