 Entering Gaussian System, Link 0=/home/hetanjin/apps/g09D01/g09/g09
 Input=C6H14_4_r001_C17_2_opt_B3L.gjf
 Output=C6H14_4_r001_C17_2_opt_B3L.log
 Initial command:
 /home/hetanjin/apps/g09D01/g09/l1.exe "/state/partition1/Gau-6215.inp" -scrdir="/state/partition1/"
 Entering Link 1 = /home/hetanjin/apps/g09D01/g09/l1.exe PID=      6216.
  
 Copyright (c) 1988,1990,1992,1993,1995,1998,2003,2009,2013,
            Gaussian, Inc.  All Rights Reserved.
  
 This is part of the Gaussian(R) 09 program.  It is based on
 the Gaussian(R) 03 system (copyright 2003, Gaussian, Inc.),
 the Gaussian(R) 98 system (copyright 1998, Gaussian, Inc.),
 the Gaussian(R) 94 system (copyright 1995, Gaussian, Inc.),
 the Gaussian 92(TM) system (copyright 1992, Gaussian, Inc.),
 the Gaussian 90(TM) system (copyright 1990, Gaussian, Inc.),
 the Gaussian 88(TM) system (copyright 1988, Gaussian, Inc.),
 the Gaussian 86(TM) system (copyright 1986, Carnegie Mellon
 University), and the Gaussian 82(TM) system (copyright 1983,
 Carnegie Mellon University). Gaussian is a federally registered
 trademark of Gaussian, Inc.
  
 This software contains proprietary and confidential information,
 including trade secrets, belonging to Gaussian, Inc.
  
 This software is provided under written license and may be
 used, copied, transmitted, or stored only in accord with that
 written license.
  
 The following legend is applicable only to US Government
 contracts under FAR:
  
                    RESTRICTED RIGHTS LEGEND
  
 Use, reproduction and disclosure by the US Government is
 subject to restrictions as set forth in subparagraphs (a)
 and (c) of the Commercial Computer Software - Restricted
 Rights clause in FAR 52.227-19.
  
 Gaussian, Inc.
 340 Quinnipiac St., Bldg. 40, Wallingford CT 06492
  
  
 ---------------------------------------------------------------
 Warning -- This program may not be used in any manner that
 competes with the business of Gaussian, Inc. or will provide
 assistance to any competitor of Gaussian, Inc.  The licensee
 of this program is prohibited from giving any competitor of
 Gaussian, Inc. access to this program.  By using this program,
 the user acknowledges that Gaussian, Inc. is engaged in the
 business of creating and licensing software in the field of
 computational chemistry and represents and warrants to the
 licensee that it is not a competitor of Gaussian, Inc. and that
 it will not use this program in any manner prohibited above.
 ---------------------------------------------------------------
  

 Cite this work as:
 Gaussian 09, Revision D.01,
 M. J. Frisch, G. W. Trucks, H. B. Schlegel, G. E. Scuseria, 
 M. A. Robb, J. R. Cheeseman, G. Scalmani, V. Barone, B. Mennucci, 
 G. A. Petersson, H. Nakatsuji, M. Caricato, X. Li, H. P. Hratchian, 
 A. F. Izmaylov, J. Bloino, G. Zheng, J. L. Sonnenberg, M. Hada, 
 M. Ehara, K. Toyota, R. Fukuda, J. Hasegawa, M. Ishida, T. Nakajima, 
 Y. Honda, O. Kitao, H. Nakai, T. Vreven, J. A. Montgomery, Jr., 
 J. E. Peralta, F. Ogliaro, M. Bearpark, J. J. Heyd, E. Brothers, 
 K. N. Kudin, V. N. Staroverov, T. Keith, R. Kobayashi, J. Normand, 
 K. Raghavachari, A. Rendell, J. C. Burant, S. S. Iyengar, J. Tomasi, 
 M. Cossi, N. Rega, J. M. Millam, M. Klene, J. E. Knox, J. B. Cross, 
 V. Bakken, C. Adamo, J. Jaramillo, R. Gomperts, R. E. Stratmann, 
 O. Yazyev, A. J. Austin, R. Cammi, C. Pomelli, J. W. Ochterski, 
 R. L. Martin, K. Morokuma, V. G. Zakrzewski, G. A. Voth, 
 P. Salvador, J. J. Dannenberg, S. Dapprich, A. D. Daniels, 
 O. Farkas, J. B. Foresman, J. V. Ortiz, J. Cioslowski, 
 and D. J. Fox, Gaussian, Inc., Wallingford CT, 2013.
 
 ******************************************
 Gaussian 09:  ES64L-G09RevD.01 24-Apr-2013
                 7-Nov-2015 
 ******************************************
 %mem=6GB
 %nprocshared=4
 Will use up to    4 processors via shared memory.
 ----------------------------------------------
 #p B3LYP/6-31G(d) opt=tight int=ultrafine freq
 ----------------------------------------------
 1/7=10,14=-1,18=20,19=15,26=4,38=1/1,3;
 2/9=110,12=2,17=6,18=5,40=1/2;
 3/5=1,6=6,7=1,11=2,16=1,25=1,30=1,71=1,74=-5,75=-5/1,2,3;
 4//1;
 5/5=2,38=5/2;
 6/7=2,8=2,9=2,10=2,28=1/1;
 7//1,2,3,16;
 1/7=10,14=-1,18=20,19=15,26=4/3(2);
 2/9=110/2;
 99//99;
 2/9=110/2;
 3/5=1,6=6,7=1,11=2,16=1,25=1,30=1,71=1,74=-5,75=-5/1,2,3;
 4/5=5,16=3,69=1/1;
 5/5=2,38=5/2;
 7//1,2,3,16;
 1/7=10,14=-1,18=20,19=15,26=4/3(-5);
 2/9=110/2;
 6/7=2,8=2,9=2,10=2,19=2,28=1/1;
 99/9=1/99;
 Leave Link    1 at Sat Nov  7 02:08:02 2015, MaxMem=   805306368 cpu:         0.2
 (Enter /home/hetanjin/apps/g09D01/g09/l101.exe)
 ---------------------------------------------
 using B3LYP/6-31G(d) to do opt and freq calc.
 ---------------------------------------------
 Symbolic Z-matrix:
 Charge =  0 Multiplicity = 2
 C                     0.00001   1.51843   1.25476 
 H                     0.34915   1.04207   2.17587 
 H                    -1.085     1.66472   1.34294 
 H                     0.4623    2.51127   1.20422 
 C                     0.34297   0.69665  -0.00001 
 H                     1.43141   0.52249  -0.00002 
 C                    -0.34297  -0.69665  -0.00001 
 H                    -1.43141  -0.52249  -0.00002 
 C                     0.00001  -1.51845  -1.25475 
 H                     1.08502  -1.66473  -1.34293 
 H                    -0.46227  -2.51129  -1.2042 
 H                    -0.34913  -1.04211  -2.17587 
 C                    -0.00001   1.51845  -1.25475 
 H                     0.34913   1.04211  -2.17587 
 H                    -1.08502   1.66473  -1.34293 
 H                     0.46227   2.51129  -1.2042 
 C                    -0.00001  -1.51843   1.25476 
 H                     1.085    -1.66472   1.34294 
 H                    -0.34915  -1.04207   2.17587 
 
 NAtoms=     19 NQM=       19 NQMF=       0 NMMI=      0 NMMIF=      0
                NMic=       0 NMicF=      0.
                    Isotopes and Nuclear Properties:
 (Nuclear quadrupole moments (NQMom) in fm**2, nuclear magnetic moments (NMagM)
  in nuclear magnetons)

  Atom         1           2           3           4           5           6           7           8           9          10
 IAtWgt=          12           1           1           1          12           1          12           1          12           1
 AtmWgt=  12.0000000   1.0078250   1.0078250   1.0078250  12.0000000   1.0078250  12.0000000   1.0078250  12.0000000   1.0078250
 NucSpn=           0           1           1           1           0           1           0           1           0           1
 AtZEff=   0.0000000   0.0000000   0.0000000   0.0000000   0.0000000   0.0000000   0.0000000   0.0000000   0.0000000   0.0000000
 NQMom=    0.0000000   0.0000000   0.0000000   0.0000000   0.0000000   0.0000000   0.0000000   0.0000000   0.0000000   0.0000000
 NMagM=    0.0000000   2.7928460   2.7928460   2.7928460   0.0000000   2.7928460   0.0000000   2.7928460   0.0000000   2.7928460
 AtZNuc=   6.0000000   1.0000000   1.0000000   1.0000000   6.0000000   1.0000000   6.0000000   1.0000000   6.0000000   1.0000000

  Atom        11          12          13          14          15          16          17          18          19
 IAtWgt=           1           1          12           1           1           1          12           1           1
 AtmWgt=   1.0078250   1.0078250  12.0000000   1.0078250   1.0078250   1.0078250  12.0000000   1.0078250   1.0078250
 NucSpn=           1           1           0           1           1           1           0           1           1
 AtZEff=   0.0000000   0.0000000   0.0000000   0.0000000   0.0000000   0.0000000   0.0000000   0.0000000   0.0000000
 NQMom=    0.0000000   0.0000000   0.0000000   0.0000000   0.0000000   0.0000000   0.0000000   0.0000000   0.0000000
 NMagM=    2.7928460   2.7928460   0.0000000   2.7928460   2.7928460   2.7928460   0.0000000   2.7928460   2.7928460
 AtZNuc=   1.0000000   1.0000000   6.0000000   1.0000000   1.0000000   1.0000000   6.0000000   1.0000000   1.0000000
 Leave Link  101 at Sat Nov  7 02:08:02 2015, MaxMem=   805306368 cpu:         0.7
 (Enter /home/hetanjin/apps/g09D01/g09/l103.exe)

 GradGradGradGradGradGradGradGradGradGradGradGradGradGradGradGradGradGrad
 Berny optimization.
 Initialization pass.
                           ----------------------------
                           !    Initial Parameters    !
                           ! (Angstroms and Degrees)  !
 --------------------------                            --------------------------
 ! Name  Definition              Value          Derivative Info.                !
 --------------------------------------------------------------------------------
 ! R1    R(1,2)                  1.0942         estimate D2E/DX2                !
 ! R2    R(1,3)                  1.0984         estimate D2E/DX2                !
 ! R3    R(1,4)                  1.0964         estimate D2E/DX2                !
 ! R4    R(1,5)                  1.5386         estimate D2E/DX2                !
 ! R5    R(5,6)                  1.1023         estimate D2E/DX2                !
 ! R6    R(5,7)                  1.553          estimate D2E/DX2                !
 ! R7    R(5,13)                 1.5386         estimate D2E/DX2                !
 ! R8    R(7,8)                  1.1023         estimate D2E/DX2                !
 ! R9    R(7,9)                  1.5386         estimate D2E/DX2                !
 ! R10   R(7,17)                 1.5386         estimate D2E/DX2                !
 ! R11   R(9,10)                 1.0984         estimate D2E/DX2                !
 ! R12   R(9,11)                 1.0964         estimate D2E/DX2                !
 ! R13   R(9,12)                 1.0942         estimate D2E/DX2                !
 ! R14   R(13,14)                1.0942         estimate D2E/DX2                !
 ! R15   R(13,15)                1.0984         estimate D2E/DX2                !
 ! R16   R(13,16)                1.0964         estimate D2E/DX2                !
 ! R17   R(17,18)                1.0984         estimate D2E/DX2                !
 ! R18   R(17,19)                1.0942         estimate D2E/DX2                !
 ! A1    A(2,1,3)              107.7942         estimate D2E/DX2                !
 ! A2    A(2,1,4)              107.3678         estimate D2E/DX2                !
 ! A3    A(2,1,5)              112.5112         estimate D2E/DX2                !
 ! A4    A(3,1,4)              107.4347         estimate D2E/DX2                !
 ! A5    A(3,1,5)              110.9038         estimate D2E/DX2                !
 ! A6    A(4,1,5)              110.6151         estimate D2E/DX2                !
 ! A7    A(1,5,6)              107.7277         estimate D2E/DX2                !
 ! A8    A(1,5,7)              112.3785         estimate D2E/DX2                !
 ! A9    A(1,5,13)             109.2744         estimate D2E/DX2                !
 ! A10   A(6,5,7)              107.1209         estimate D2E/DX2                !
 ! A11   A(6,5,13)             107.7277         estimate D2E/DX2                !
 ! A12   A(7,5,13)             112.3788         estimate D2E/DX2                !
 ! A13   A(5,7,8)              107.1209         estimate D2E/DX2                !
 ! A14   A(5,7,9)              112.3788         estimate D2E/DX2                !
 ! A15   A(5,7,17)             112.3785         estimate D2E/DX2                !
 ! A16   A(8,7,9)              107.7277         estimate D2E/DX2                !
 ! A17   A(8,7,17)             107.7277         estimate D2E/DX2                !
 ! A18   A(9,7,17)             109.2744         estimate D2E/DX2                !
 ! A19   A(7,9,10)             110.9039         estimate D2E/DX2                !
 ! A20   A(7,9,11)             110.6151         estimate D2E/DX2                !
 ! A21   A(7,9,12)             112.5112         estimate D2E/DX2                !
 ! A22   A(10,9,11)            107.4347         estimate D2E/DX2                !
 ! A23   A(10,9,12)            107.7943         estimate D2E/DX2                !
 ! A24   A(11,9,12)            107.3677         estimate D2E/DX2                !
 ! A25   A(5,13,14)            112.5112         estimate D2E/DX2                !
 ! A26   A(5,13,15)            110.9039         estimate D2E/DX2                !
 ! A27   A(5,13,16)            110.6151         estimate D2E/DX2                !
 ! A28   A(14,13,15)           107.7943         estimate D2E/DX2                !
 ! A29   A(14,13,16)           107.3677         estimate D2E/DX2                !
 ! A30   A(15,13,16)           107.4347         estimate D2E/DX2                !
 ! A31   A(7,17,18)            110.9038         estimate D2E/DX2                !
 ! A32   A(7,17,19)            112.5112         estimate D2E/DX2                !
 ! A33   A(18,17,19)           107.7942         estimate D2E/DX2                !
 ! D1    D(2,1,5,6)            -55.3394         estimate D2E/DX2                !
 ! D2    D(2,1,5,7)             62.4263         estimate D2E/DX2                !
 ! D3    D(2,1,5,13)          -172.1116         estimate D2E/DX2                !
 ! D4    D(3,1,5,6)           -176.1635         estimate D2E/DX2                !
 ! D5    D(3,1,5,7)            -58.3978         estimate D2E/DX2                !
 ! D6    D(3,1,5,13)            67.0643         estimate D2E/DX2                !
 ! D7    D(4,1,5,6)             64.7357         estimate D2E/DX2                !
 ! D8    D(4,1,5,7)           -177.4986         estimate D2E/DX2                !
 ! D9    D(4,1,5,13)           -52.0364         estimate D2E/DX2                !
 ! D10   D(1,5,7,8)             61.8763         estimate D2E/DX2                !
 ! D11   D(1,5,7,9)           -179.9988         estimate D2E/DX2                !
 ! D12   D(1,5,7,17)           -56.2483         estimate D2E/DX2                !
 ! D13   D(6,5,7,8)           -179.999          estimate D2E/DX2                !
 ! D14   D(6,5,7,9)            -61.8741         estimate D2E/DX2                !
 ! D15   D(6,5,7,17)            61.8763         estimate D2E/DX2                !
 ! D16   D(13,5,7,8)           -61.8741         estimate D2E/DX2                !
 ! D17   D(13,5,7,9)            56.2508         estimate D2E/DX2                !
 ! D18   D(13,5,7,17)         -179.9988         estimate D2E/DX2                !
 ! D19   D(1,5,13,14)          172.1107         estimate D2E/DX2                !
 ! D20   D(1,5,13,15)          -67.0651         estimate D2E/DX2                !
 ! D21   D(1,5,13,16)           52.0357         estimate D2E/DX2                !
 ! D22   D(6,5,13,14)           55.3386         estimate D2E/DX2                !
 ! D23   D(6,5,13,15)          176.1628         estimate D2E/DX2                !
 ! D24   D(6,5,13,16)          -64.7364         estimate D2E/DX2                !
 ! D25   D(7,5,13,14)          -62.4273         estimate D2E/DX2                !
 ! D26   D(7,5,13,15)           58.3969         estimate D2E/DX2                !
 ! D27   D(7,5,13,16)          177.4977         estimate D2E/DX2                !
 ! D28   D(5,7,9,10)            58.3969         estimate D2E/DX2                !
 ! D29   D(5,7,9,11)           177.4977         estimate D2E/DX2                !
 ! D30   D(5,7,9,12)           -62.4273         estimate D2E/DX2                !
 ! D31   D(8,7,9,10)           176.1628         estimate D2E/DX2                !
 ! D32   D(8,7,9,11)           -64.7364         estimate D2E/DX2                !
 ! D33   D(8,7,9,12)            55.3386         estimate D2E/DX2                !
 ! D34   D(17,7,9,10)          -67.0651         estimate D2E/DX2                !
 ! D35   D(17,7,9,11)           52.0357         estimate D2E/DX2                !
 ! D36   D(17,7,9,12)          172.1107         estimate D2E/DX2                !
 ! D37   D(5,7,17,18)          -58.3978         estimate D2E/DX2                !
 ! D38   D(5,7,17,19)           62.4263         estimate D2E/DX2                !
 ! D39   D(8,7,17,18)         -176.1635         estimate D2E/DX2                !
 ! D40   D(8,7,17,19)          -55.3394         estimate D2E/DX2                !
 ! D41   D(9,7,17,18)           67.0643         estimate D2E/DX2                !
 ! D42   D(9,7,17,19)         -172.1116         estimate D2E/DX2                !
 --------------------------------------------------------------------------------
 Trust Radius=3.00D-01 FncErr=1.00D-07 GrdErr=1.00D-06
 Number of steps in this run=    103 maximum allowed number of steps=    114.
 GradGradGradGradGradGradGradGradGradGradGradGradGradGradGradGradGradGrad

 Leave Link  103 at Sat Nov  7 02:08:02 2015, MaxMem=   805306368 cpu:         0.0
 (Enter /home/hetanjin/apps/g09D01/g09/l202.exe)
                          Input orientation:                          
 ---------------------------------------------------------------------
 Center     Atomic      Atomic             Coordinates (Angstroms)
 Number     Number       Type             X           Y           Z
 ---------------------------------------------------------------------
      1          6           0        0.000010    1.518429    1.254759
      2          1           0        0.349148    1.042070    2.175866
      3          1           0       -1.085003    1.664723    1.342944
      4          1           0        0.462302    2.511266    1.204222
      5          6           0        0.342970    0.696651   -0.000006
      6          1           0        1.431409    0.522493   -0.000015
      7          6           0       -0.342970   -0.696651   -0.000006
      8          1           0       -1.431409   -0.522493   -0.000015
      9          6           0        0.000010   -1.518447   -1.254754
     10          1           0        1.085024   -1.664732   -1.342928
     11          1           0       -0.462273   -2.511288   -1.204204
     12          1           0       -0.349127   -1.042109   -2.175873
     13          6           0       -0.000010    1.518447   -1.254754
     14          1           0        0.349127    1.042109   -2.175873
     15          1           0       -1.085024    1.664732   -1.342928
     16          1           0        0.462273    2.511288   -1.204204
     17          6           0       -0.000010   -1.518429    1.254759
     18          1           0        1.085003   -1.664723    1.342944
     19          1           0       -0.349148   -1.042070    2.175866
 ---------------------------------------------------------------------
                    Distance matrix (angstroms):
                    1          2          3          4          5
     1  C    0.000000
     2  H    1.094191   0.000000
     3  H    1.098377   1.771509   0.000000
     4  H    1.096355   1.765059   1.769190   0.000000
     5  C    1.538628   2.203128   2.186272   2.181108   0.000000
     6  H    2.148313   2.485097   3.072549   2.518844   1.102284
     7  C    2.568784   2.869947   2.816064   3.519852   1.552998
     8  H    2.790839   3.217561   2.589874   3.773595   2.152843
     9  C    3.939578   4.295032   4.249454   4.743297   2.568788
    10  H    4.249441   4.500022   4.796686   4.930995   2.816063
    11  H    4.743292   4.970878   4.931006   5.646362   3.519855
    12  H    4.295054   4.875348   4.500058   4.970909   2.869962
    13  C    2.509513   3.481092   2.818979   2.691837   1.538628
    14  H    3.481092   4.351739   3.850513   3.687312   2.203129
    15  H    2.818986   3.850515   2.685872   3.098195   2.186272
    16  H    2.691831   3.687312   3.098177   2.408426   2.181108
    17  C    3.036858   2.743448   3.364141   4.056443   2.568784
    18  H    3.364141   2.926084   3.974184   4.224439   2.816064
    19  H    2.743448   2.198012   2.926084   3.772100   2.869947
                    6          7          8          9         10
     6  H    0.000000
     7  C    2.152843   0.000000
     8  H    3.047577   1.102284   0.000000
     9  C    2.790826   1.538628   2.148314   0.000000
    10  H    2.589855   2.186272   3.072549   1.098376   0.000000
    11  H    3.773583   2.181108   2.518849   1.096355   1.769189
    12  H    3.217553   2.203129   2.485094   1.094191   1.771509
    13  C    2.148314   2.568788   2.790826   3.036894   3.364179
    14  H    2.485094   2.869962   3.217553   2.743500   2.926146
    15  H    3.072549   2.816063   2.589855   3.364179   3.974222
    16  H    2.518849   3.519855   3.773583   4.056477   4.224477
    17  C    2.790839   1.538628   2.148313   2.509513   2.818986
    18  H    2.589874   2.186272   3.072549   2.818979   2.685872
    19  H    3.217561   2.203128   2.485097   3.481092   3.850515
                   11         12         13         14         15
    11  H    0.000000
    12  H    1.765058   0.000000
    13  C    4.056477   2.743500   0.000000
    14  H    3.772153   2.198073   1.094191   0.000000
    15  H    4.224477   2.926146   1.098376   1.771509   0.000000
    16  H    5.106961   3.772153   1.096355   1.765058   1.769189
    17  C    2.691831   3.481092   3.939578   4.295054   4.249441
    18  H    3.098177   3.850513   4.249454   4.500058   4.796686
    19  H    3.687312   4.351739   4.295032   4.875348   4.500022
                   16         17         18         19
    16  H    0.000000
    17  C    4.743292   0.000000
    18  H    4.931006   1.098377   0.000000
    19  H    4.970878   1.094191   1.771509   0.000000
 Stoichiometry    C6H13(2)
 Framework group  C1[X(C6H13)]
 Deg. of freedom    51
 Full point group                 C1      NOp   1
 Largest Abelian subgroup         C1      NOp   1
 Largest concise Abelian subgroup C1      NOp   1
                         Standard orientation:                         
 ---------------------------------------------------------------------
 Center     Atomic      Atomic             Coordinates (Angstroms)
 Number     Number       Type             X           Y           Z
 ---------------------------------------------------------------------
      1          6           0       -1.598069    1.110171    0.055619
      2          1           0       -1.234488    2.080147   -0.296815
      3          1           0       -1.726279    1.175234    1.144545
      4          1           0       -2.590486    0.953542   -0.383208
      5          6           0       -0.652248   -0.044548   -0.317773
      6          1           0       -0.506116   -0.018886   -1.410026
      7          6           0        0.749170    0.104546    0.334610
      8          1           0        0.603039    0.078866    1.426863
      9          6           0        1.695007   -1.050154   -0.038802
     10          1           0        1.823206   -1.115207   -1.127729
     11          1           0        2.687426   -0.893512    0.400016
     12          1           0        1.331448   -2.020140    0.313630
     13          6           0       -1.322598   -1.384082    0.033876
     14          1           0       -0.756802   -2.245130   -0.334533
     15          1           0       -1.431438   -1.494305    1.121274
     16          1           0       -2.326115   -1.440239   -0.404065
     17          6           0        1.419500    1.444095   -0.017018
     18          1           0        1.528349    1.554329   -1.104415
     19          1           0        0.853685    2.305129    0.351392
 ---------------------------------------------------------------------
 Rotational constants (GHZ):      4.2549391      2.9653166      1.9152107
 Leave Link  202 at Sat Nov  7 02:08:02 2015, MaxMem=   805306368 cpu:         0.0
 (Enter /home/hetanjin/apps/g09D01/g09/l301.exe)
 Standard basis: 6-31G(d) (6D, 7F)
 Ernie: Thresh=  0.10000D-02 Tol=  0.10000D-05 Strict=F.
 There are   116 symmetry adapted cartesian basis functions of A   symmetry.
 There are   116 symmetry adapted basis functions of A   symmetry.
   116 basis functions,   220 primitive gaussians,   116 cartesian basis functions
    25 alpha electrons       24 beta electrons
       nuclear repulsion energy       251.4644345555 Hartrees.
 IExCor=  402 DFT=T Ex+Corr=B3LYP ExCW=0 ScaHFX=  0.200000
 ScaDFX=  0.800000  0.720000  1.000000  0.810000 ScalE2=  1.000000  1.000000
 IRadAn=      5 IRanWt=     -1 IRanGd=            0 ICorTp=0 IEmpDi=  4
 NAtoms=   19 NActive=   19 NUniq=   19 SFac= 1.00D+00 NAtFMM=   60 NAOKFM=F Big=F
 Integral buffers will be    131072 words long.
 Raffenetti 2 integral format.
 Two-electron integral symmetry is turned on.
 Leave Link  301 at Sat Nov  7 02:08:02 2015, MaxMem=   805306368 cpu:         0.2
 (Enter /home/hetanjin/apps/g09D01/g09/l302.exe)
 NPDir=0 NMtPBC=     1 NCelOv=     1 NCel=       1 NClECP=     1 NCelD=      1
         NCelK=      1 NCelE2=     1 NClLst=     1 CellRange=     0.0.
 One-electron integrals computed using PRISM.
 NBasis=   116 RedAO= T EigKep=  3.69D-03  NBF=   116
 NBsUse=   116 1.00D-06 EigRej= -1.00D+00 NBFU=   116
 Precomputing XC quadrature grid using
 IXCGrd= 4 IRadAn=           5 IRanWt=          -1 IRanGd=           0 AccXCQ= 0.00D+00.
 Generated NRdTot=       0 NPtTot=           0 NUsed=           0 NTot=          32
 NSgBfM=   116   116   116   116   116 MxSgAt=    19 MxSgA2=    19.
 Leave Link  302 at Sat Nov  7 02:08:03 2015, MaxMem=   805306368 cpu:         2.4
 (Enter /home/hetanjin/apps/g09D01/g09/l303.exe)
 DipDrv:  MaxL=1.
 Leave Link  303 at Sat Nov  7 02:08:03 2015, MaxMem=   805306368 cpu:         0.2
 (Enter /home/hetanjin/apps/g09D01/g09/l401.exe)
 ExpMin= 1.61D-01 ExpMax= 3.05D+03 ExpMxC= 4.57D+02 IAcc=3 IRadAn=         5 AccDes= 0.00D+00
 Harris functional with IExCor=  402 and IRadAn=       5 diagonalized for initial guess.
 HarFok:  IExCor=  402 AccDes= 0.00D+00 IRadAn=         5 IDoV= 1 UseB2=F ITyADJ=14
 ICtDFT=  3500011 ScaDFX=  1.000000  1.000000  1.000000  1.000000
 FoFCou: FMM=F IPFlag=           0 FMFlag=      100000 FMFlg1=           0
         NFxFlg=           0 DoJE=T BraDBF=F KetDBF=T FulRan=T
         wScrn=  0.000000 ICntrl=     500 IOpCl=  0 I1Cent=   200000004 NGrid=           0
         NMat0=    1 NMatS0=      1 NMatT0=    0 NMatD0=    1 NMtDS0=    0 NMtDT0=    0
 Petite list used in FoFCou.
 Harris En= -236.438088796944    
 JPrj=0 DoOrth=F DoCkMO=F.
 Initial guess <Sx>= 0.0000 <Sy>= 0.0000 <Sz>= 0.5000 <S**2>= 0.7500 S= 0.5000
 Leave Link  401 at Sat Nov  7 02:08:05 2015, MaxMem=   805306368 cpu:         8.9
 (Enter /home/hetanjin/apps/g09D01/g09/l502.exe)
 UHF open shell SCF:
 Using DIIS extrapolation, IDIIS=  1040.
 Integral symmetry usage will be decided dynamically.
 Keep R1 and R2 ints in memory in canonical form, NReq=47059932.
 IVT=       60514 IEndB=       60514 NGot=   805306368 MDV=   759189273
 LenX=   759189273 LenY=   759175376
 Requested convergence on RMS density matrix=1.00D-08 within 128 cycles.
 Requested convergence on MAX density matrix=1.00D-06.
 Requested convergence on             energy=1.00D-06.
 No special actions if energy rises.
 FoFCou: FMM=F IPFlag=           0 FMFlag=           0 FMFlg1=           0
         NFxFlg=           0 DoJE=F BraDBF=F KetDBF=F FulRan=T
         wScrn=  0.000000 ICntrl=     600 IOpCl=  0 I1Cent=           0 NGrid=           0
         NMat0=    1 NMatS0=   6786 NMatT0=    0 NMatD0=    1 NMtDS0=    0 NMtDT0=    0
 Symmetry not used in FoFCou.
 Integral accuracy reduced to 1.0D-05 until final iterations.

 Cycle   1  Pass 0  IDiag  1:
 E= -236.150346601610    
 DIIS: error= 4.93D-02 at cycle   1 NSaved=   1.
 NSaved= 1 IEnMin= 1 EnMin= -236.150346601610     IErMin= 1 ErrMin= 4.93D-02
 ErrMax= 4.93D-02  0.00D+00 EMaxC= 1.00D-01 BMatC= 8.88D-01 BMatP= 8.88D-01
 IDIUse=3 WtCom= 5.07D-01 WtEn= 4.93D-01
 Coeff-Com:  0.100D+01
 Coeff-En:   0.100D+01
 Coeff:      0.100D+01
 Gap=     0.277 Goal=   None    Shift=    0.000
 Gap=     0.245 Goal=   None    Shift=    0.000
 GapD=    0.245 DampG=1.000 DampE=0.500 DampFc=0.5000 IDamp=-1.
 Damping current iteration by 5.00D-01
 RMSDP=9.50D-03 MaxDP=1.37D-01              OVMax= 1.81D-01

 Cycle   2  Pass 0  IDiag  1:
 E= -236.261962601544     Delta-E=       -0.111615999934 Rises=F Damp=T
 DIIS: error= 7.59D-03 at cycle   2 NSaved=   2.
 NSaved= 2 IEnMin= 2 EnMin= -236.261962601544     IErMin= 2 ErrMin= 7.59D-03
 ErrMax= 7.59D-03  0.00D+00 EMaxC= 1.00D-01 BMatC= 3.85D-02 BMatP= 8.88D-01
 IDIUse=3 WtCom= 9.24D-01 WtEn= 7.59D-02
 Coeff-Com:  0.689D-01 0.931D+00
 Coeff-En:   0.113D+00 0.887D+00
 Coeff:      0.723D-01 0.928D+00
 Gap=     0.314 Goal=   None    Shift=    0.000
 Gap=     0.261 Goal=   None    Shift=    0.000
 RMSDP=1.62D-03 MaxDP=2.18D-02 DE=-1.12D-01 OVMax= 1.03D-01

 Cycle   3  Pass 0  IDiag  1:
 E= -236.397866854820     Delta-E=       -0.135904253275 Rises=F Damp=F
 DIIS: error= 3.96D-03 at cycle   3 NSaved=   3.
 NSaved= 3 IEnMin= 3 EnMin= -236.397866854820     IErMin= 3 ErrMin= 3.96D-03
 ErrMax= 3.96D-03  0.00D+00 EMaxC= 1.00D-01 BMatC= 7.56D-03 BMatP= 3.85D-02
 IDIUse=3 WtCom= 9.60D-01 WtEn= 3.96D-02
 Coeff-Com: -0.928D-03 0.247D+00 0.753D+00
 Coeff-En:   0.000D+00 0.000D+00 0.100D+01
 Coeff:     -0.891D-03 0.238D+00 0.763D+00
 Gap=     0.315 Goal=   None    Shift=    0.000
 Gap=     0.242 Goal=   None    Shift=    0.000
 RMSDP=6.78D-04 MaxDP=1.59D-02 DE=-1.36D-01 OVMax= 1.65D-02

 Cycle   4  Pass 0  IDiag  1:
 E= -236.398909518175     Delta-E=       -0.001042663355 Rises=F Damp=F
 DIIS: error= 2.51D-03 at cycle   4 NSaved=   4.
 NSaved= 4 IEnMin= 4 EnMin= -236.398909518175     IErMin= 4 ErrMin= 2.51D-03
 ErrMax= 2.51D-03  0.00D+00 EMaxC= 1.00D-01 BMatC= 3.64D-03 BMatP= 7.56D-03
 IDIUse=3 WtCom= 9.75D-01 WtEn= 2.51D-02
 Coeff-Com: -0.595D-02 0.358D-01 0.416D+00 0.554D+00
 Coeff-En:   0.000D+00 0.000D+00 0.319D+00 0.681D+00
 Coeff:     -0.580D-02 0.349D-01 0.414D+00 0.557D+00
 Gap=     0.311 Goal=   None    Shift=    0.000
 Gap=     0.248 Goal=   None    Shift=    0.000
 RMSDP=2.57D-04 MaxDP=5.46D-03 DE=-1.04D-03 OVMax= 8.64D-03

 Cycle   5  Pass 0  IDiag  1:
 E= -236.399810974883     Delta-E=       -0.000901456708 Rises=F Damp=F
 DIIS: error= 2.58D-04 at cycle   5 NSaved=   5.
 NSaved= 5 IEnMin= 5 EnMin= -236.399810974883     IErMin= 5 ErrMin= 2.58D-04
 ErrMax= 2.58D-04  0.00D+00 EMaxC= 1.00D-01 BMatC= 5.58D-05 BMatP= 3.64D-03
 IDIUse=3 WtCom= 9.97D-01 WtEn= 2.58D-03
 Coeff-Com: -0.110D-02-0.383D-02 0.761D-01 0.167D+00 0.762D+00
 Coeff-En:   0.000D+00 0.000D+00 0.000D+00 0.000D+00 0.100D+01
 Coeff:     -0.110D-02-0.382D-02 0.759D-01 0.167D+00 0.762D+00
 Gap=     0.311 Goal=   None    Shift=    0.000
 Gap=     0.248 Goal=   None    Shift=    0.000
 RMSDP=3.93D-05 MaxDP=6.97D-04 DE=-9.01D-04 OVMax= 9.69D-04

 Cycle   6  Pass 0  IDiag  1:
 E= -236.399825941858     Delta-E=       -0.000014966975 Rises=F Damp=F
 DIIS: error= 8.19D-05 at cycle   6 NSaved=   6.
 NSaved= 6 IEnMin= 6 EnMin= -236.399825941858     IErMin= 6 ErrMin= 8.19D-05
 ErrMax= 8.19D-05  0.00D+00 EMaxC= 1.00D-01 BMatC= 3.36D-06 BMatP= 5.58D-05
 IDIUse=1 WtCom= 1.00D+00 WtEn= 0.00D+00
 Coeff-Com:  0.190D-04-0.252D-02-0.662D-02 0.624D-02 0.148D+00 0.855D+00
 Coeff:      0.190D-04-0.252D-02-0.662D-02 0.624D-02 0.148D+00 0.855D+00
 Gap=     0.311 Goal=   None    Shift=    0.000
 Gap=     0.248 Goal=   None    Shift=    0.000
 RMSDP=1.45D-05 MaxDP=5.42D-04 DE=-1.50D-05 OVMax= 4.88D-04

 Cycle   7  Pass 0  IDiag  1:
 E= -236.399827133347     Delta-E=       -0.000001191489 Rises=F Damp=F
 DIIS: error= 3.96D-05 at cycle   7 NSaved=   7.
 NSaved= 7 IEnMin= 7 EnMin= -236.399827133347     IErMin= 7 ErrMin= 3.96D-05
 ErrMax= 3.96D-05  0.00D+00 EMaxC= 1.00D-01 BMatC= 1.29D-06 BMatP= 3.36D-06
 IDIUse=1 WtCom= 1.00D+00 WtEn= 0.00D+00
 Coeff-Com:  0.217D-03-0.217D-03-0.195D-01-0.331D-01-0.104D+00 0.391D+00
 Coeff-Com:  0.765D+00
 Coeff:      0.217D-03-0.217D-03-0.195D-01-0.331D-01-0.104D+00 0.391D+00
 Coeff:      0.765D+00
 Gap=     0.311 Goal=   None    Shift=    0.000
 Gap=     0.248 Goal=   None    Shift=    0.000
 RMSDP=6.66D-06 MaxDP=2.41D-04 DE=-1.19D-06 OVMax= 2.09D-04

 Initial convergence to 1.0D-05 achieved.  Increase integral accuracy.
 Cycle   8  Pass 1  IDiag  1:
 E= -236.399775403693     Delta-E=        0.000051729654 Rises=F Damp=F
 DIIS: error= 1.22D-05 at cycle   1 NSaved=   1.
 NSaved= 1 IEnMin= 1 EnMin= -236.399775403693     IErMin= 1 ErrMin= 1.22D-05
 ErrMax= 1.22D-05  0.00D+00 EMaxC= 1.00D-01 BMatC= 1.23D-07 BMatP= 1.23D-07
 IDIUse=1 WtCom= 1.00D+00 WtEn= 0.00D+00
 Coeff-Com:  0.100D+01
 Coeff:      0.100D+01
 Gap=     0.311 Goal=   None    Shift=    0.000
 Gap=     0.248 Goal=   None    Shift=    0.000
 RMSDP=6.66D-06 MaxDP=2.41D-04 DE= 5.17D-05 OVMax= 7.00D-05

 Cycle   9  Pass 1  IDiag  1:
 E= -236.399775440361     Delta-E=       -0.000000036669 Rises=F Damp=F
 DIIS: error= 6.59D-06 at cycle   2 NSaved=   2.
 NSaved= 2 IEnMin= 2 EnMin= -236.399775440361     IErMin= 2 ErrMin= 6.59D-06
 ErrMax= 6.59D-06  0.00D+00 EMaxC= 1.00D-01 BMatC= 4.54D-08 BMatP= 1.23D-07
 IDIUse=1 WtCom= 1.00D+00 WtEn= 0.00D+00
 Coeff-Com:  0.332D+00 0.668D+00
 Coeff:      0.332D+00 0.668D+00
 Gap=     0.311 Goal=   None    Shift=    0.000
 Gap=     0.248 Goal=   None    Shift=    0.000
 RMSDP=1.26D-06 MaxDP=3.09D-05 DE=-3.67D-08 OVMax= 2.94D-05

 Cycle  10  Pass 1  IDiag  1:
 E= -236.399775450632     Delta-E=       -0.000000010270 Rises=F Damp=F
 DIIS: error= 3.20D-06 at cycle   3 NSaved=   3.
 NSaved= 3 IEnMin= 3 EnMin= -236.399775450632     IErMin= 3 ErrMin= 3.20D-06
 ErrMax= 3.20D-06  0.00D+00 EMaxC= 1.00D-01 BMatC= 9.47D-09 BMatP= 4.54D-08
 IDIUse=1 WtCom= 1.00D+00 WtEn= 0.00D+00
 Coeff-Com: -0.330D-01 0.284D+00 0.749D+00
 Coeff:     -0.330D-01 0.284D+00 0.749D+00
 Gap=     0.311 Goal=   None    Shift=    0.000
 Gap=     0.248 Goal=   None    Shift=    0.000
 RMSDP=5.04D-07 MaxDP=1.40D-05 DE=-1.03D-08 OVMax= 1.31D-05

 Cycle  11  Pass 1  IDiag  1:
 E= -236.399775453361     Delta-E=       -0.000000002730 Rises=F Damp=F
 DIIS: error= 8.75D-07 at cycle   4 NSaved=   4.
 NSaved= 4 IEnMin= 4 EnMin= -236.399775453361     IErMin= 4 ErrMin= 8.75D-07
 ErrMax= 8.75D-07  0.00D+00 EMaxC= 1.00D-01 BMatC= 6.40D-10 BMatP= 9.47D-09
 IDIUse=1 WtCom= 1.00D+00 WtEn= 0.00D+00
 Coeff-Com: -0.367D-01 0.251D-01 0.215D+00 0.796D+00
 Coeff:     -0.367D-01 0.251D-01 0.215D+00 0.796D+00
 Gap=     0.311 Goal=   None    Shift=    0.000
 Gap=     0.248 Goal=   None    Shift=    0.000
 RMSDP=1.88D-07 MaxDP=4.27D-06 DE=-2.73D-09 OVMax= 4.49D-06

 Cycle  12  Pass 1  IDiag  1:
 E= -236.399775453604     Delta-E=       -0.000000000243 Rises=F Damp=F
 DIIS: error= 3.69D-07 at cycle   5 NSaved=   5.
 NSaved= 5 IEnMin= 5 EnMin= -236.399775453604     IErMin= 5 ErrMin= 3.69D-07
 ErrMax= 3.69D-07  0.00D+00 EMaxC= 1.00D-01 BMatC= 1.04D-10 BMatP= 6.40D-10
 IDIUse=1 WtCom= 1.00D+00 WtEn= 0.00D+00
 Coeff-Com: -0.342D-02-0.489D-01-0.900D-01 0.196D+00 0.947D+00
 Coeff:     -0.342D-02-0.489D-01-0.900D-01 0.196D+00 0.947D+00
 Gap=     0.311 Goal=   None    Shift=    0.000
 Gap=     0.248 Goal=   None    Shift=    0.000
 RMSDP=8.99D-08 MaxDP=2.93D-06 DE=-2.43D-10 OVMax= 2.80D-06

 Cycle  13  Pass 1  IDiag  1:
 E= -236.399775453648     Delta-E=       -0.000000000044 Rises=F Damp=F
 DIIS: error= 1.63D-07 at cycle   6 NSaved=   6.
 NSaved= 6 IEnMin= 6 EnMin= -236.399775453648     IErMin= 6 ErrMin= 1.63D-07
 ErrMax= 1.63D-07  0.00D+00 EMaxC= 1.00D-01 BMatC= 2.67D-11 BMatP= 1.04D-10
 IDIUse=1 WtCom= 1.00D+00 WtEn= 0.00D+00
 Coeff-Com:  0.284D-02-0.273D-01-0.708D-01-0.337D-02 0.465D+00 0.633D+00
 Coeff:      0.284D-02-0.273D-01-0.708D-01-0.337D-02 0.465D+00 0.633D+00
 Gap=     0.311 Goal=   None    Shift=    0.000
 Gap=     0.248 Goal=   None    Shift=    0.000
 RMSDP=2.93D-08 MaxDP=1.01D-06 DE=-4.36D-11 OVMax= 8.55D-07

 Cycle  14  Pass 1  IDiag  1:
 E= -236.399775453659     Delta-E=       -0.000000000011 Rises=F Damp=F
 DIIS: error= 3.09D-08 at cycle   7 NSaved=   7.
 NSaved= 7 IEnMin= 7 EnMin= -236.399775453659     IErMin= 7 ErrMin= 3.09D-08
 ErrMax= 3.09D-08  0.00D+00 EMaxC= 1.00D-01 BMatC= 4.85D-13 BMatP= 2.67D-11
 IDIUse=1 WtCom= 1.00D+00 WtEn= 0.00D+00
 Coeff-Com:  0.898D-03-0.574D-02-0.161D-01-0.813D-02 0.906D-01 0.178D+00
 Coeff-Com:  0.761D+00
 Coeff:      0.898D-03-0.574D-02-0.161D-01-0.813D-02 0.906D-01 0.178D+00
 Coeff:      0.761D+00
 Gap=     0.311 Goal=   None    Shift=    0.000
 Gap=     0.248 Goal=   None    Shift=    0.000
 RMSDP=5.23D-09 MaxDP=9.14D-08 DE=-1.10D-11 OVMax= 1.54D-07

 SCF Done:  E(UB3LYP) =  -236.399775454     A.U. after   14 cycles
            NFock= 14  Conv=0.52D-08     -V/T= 2.0104
 <Sx>= 0.0000 <Sy>= 0.0000 <Sz>= 0.5000 <S**2>= 0.7527 S= 0.5014
 <L.S>= 0.000000000000E+00
 KE= 2.339711526474D+02 PE=-1.048433626620D+03 EE= 3.265982639630D+02
 Annihilation of the first spin contaminant:
 S**2 before annihilation     0.7527,   after     0.7500
 Leave Link  502 at Sat Nov  7 02:08:50 2015, MaxMem=   805306368 cpu:       165.7
 (Enter /home/hetanjin/apps/g09D01/g09/l601.exe)
 Copying SCF densities to generalized density rwf, IOpCl= 1 IROHF=0.

 **********************************************************************

            Population analysis using the SCF density.

 **********************************************************************

 Orbital symmetries:
 Alpha Orbitals:
       Occupied  (A) (A) (A) (A) (A) (A) (A) (A) (A) (A) (A) (A)
                 (A) (A) (A) (A) (A) (A) (A) (A) (A) (A) (A) (A)
                 (A)
       Virtual   (A) (A) (A) (A) (A) (A) (A) (A) (A) (A) (A) (A)
                 (A) (A) (A) (A) (A) (A) (A) (A) (A) (A) (A) (A)
                 (A) (A) (A) (A) (A) (A) (A) (A) (A) (A) (A) (A)
                 (A) (A) (A) (A) (A) (A) (A) (A) (A) (A) (A) (A)
                 (A) (A) (A) (A) (A) (A) (A) (A) (A) (A) (A) (A)
                 (A) (A) (A) (A) (A) (A) (A) (A) (A) (A) (A) (A)
                 (A) (A) (A) (A) (A) (A) (A) (A) (A) (A) (A) (A)
                 (A) (A) (A) (A) (A) (A) (A)
 Beta  Orbitals:
       Occupied  (A) (A) (A) (A) (A) (A) (A) (A) (A) (A) (A) (A)
                 (A) (A) (A) (A) (A) (A) (A) (A) (A) (A) (A) (A)
       Virtual   (A) (A) (A) (A) (A) (A) (A) (A) (A) (A) (A) (A)
                 (A) (A) (A) (A) (A) (A) (A) (A) (A) (A) (A) (A)
                 (A) (A) (A) (A) (A) (A) (A) (A) (A) (A) (A) (A)
                 (A) (A) (A) (A) (A) (A) (A) (A) (A) (A) (A) (A)
                 (A) (A) (A) (A) (A) (A) (A) (A) (A) (A) (A) (A)
                 (A) (A) (A) (A) (A) (A) (A) (A) (A) (A) (A) (A)
                 (A) (A) (A) (A) (A) (A) (A) (A) (A) (A) (A) (A)
                 (A) (A) (A) (A) (A) (A) (A) (A)
 The electronic state is 2-A.
 Alpha  occ. eigenvalues --  -10.19230 -10.19110 -10.18855 -10.17257 -10.17191
 Alpha  occ. eigenvalues --  -10.16929  -0.81666  -0.74266  -0.68842  -0.66199
 Alpha  occ. eigenvalues --   -0.60172  -0.54718  -0.45593  -0.44836  -0.42990
 Alpha  occ. eigenvalues --   -0.41415  -0.38817  -0.38208  -0.37275  -0.35646
 Alpha  occ. eigenvalues --   -0.34055  -0.32682  -0.31621  -0.31282  -0.22678
 Alpha virt. eigenvalues --    0.08464   0.11488   0.13032   0.13370   0.14638
 Alpha virt. eigenvalues --    0.15985   0.17113   0.17636   0.18036   0.18539
 Alpha virt. eigenvalues --    0.19221   0.20463   0.23043   0.23532   0.25163
 Alpha virt. eigenvalues --    0.25796   0.27840   0.27912   0.49626   0.50461
 Alpha virt. eigenvalues --    0.51065   0.51510   0.55099   0.56312   0.59486
 Alpha virt. eigenvalues --    0.62077   0.63268   0.65428   0.68552   0.73472
 Alpha virt. eigenvalues --    0.74637   0.75321   0.78465   0.82721   0.84562
 Alpha virt. eigenvalues --    0.87349   0.88587   0.89368   0.90681   0.91212
 Alpha virt. eigenvalues --    0.92167   0.92483   0.93452   0.94689   0.95097
 Alpha virt. eigenvalues --    0.96110   0.98673   1.00465   1.03539   1.05854
 Alpha virt. eigenvalues --    1.27581   1.33760   1.40610   1.41265   1.49896
 Alpha virt. eigenvalues --    1.56676   1.57290   1.67888   1.71151   1.78785
 Alpha virt. eigenvalues --    1.81011   1.83300   1.90247   1.91326   1.95607
 Alpha virt. eigenvalues --    1.97583   2.00741   2.00918   2.02924   2.08120
 Alpha virt. eigenvalues --    2.11607   2.15377   2.19107   2.24836   2.25432
 Alpha virt. eigenvalues --    2.27311   2.33615   2.40052   2.44698   2.47700
 Alpha virt. eigenvalues --    2.51560   2.58685   2.75126   2.76151   2.76849
 Alpha virt. eigenvalues --    4.10882   4.21251   4.26123   4.28723   4.46209
 Alpha virt. eigenvalues --    4.61398
  Beta  occ. eigenvalues --  -10.18997 -10.18888 -10.17785 -10.17240 -10.17185
  Beta  occ. eigenvalues --  -10.16902  -0.81244  -0.73756  -0.68406  -0.65041
  Beta  occ. eigenvalues --   -0.59144  -0.54398  -0.45252  -0.44558  -0.42693
  Beta  occ. eigenvalues --   -0.41126  -0.38575  -0.38069  -0.36953  -0.35414
  Beta  occ. eigenvalues --   -0.33837  -0.31998  -0.31310  -0.30878
  Beta virt. eigenvalues --   -0.06043   0.08614   0.11665   0.13195   0.13716
  Beta virt. eigenvalues --    0.14822   0.16191   0.17292   0.17810   0.18206
  Beta virt. eigenvalues --    0.18872   0.19405   0.20758   0.23343   0.23857
  Beta virt. eigenvalues --    0.25463   0.26310   0.28370   0.28572   0.49854
  Beta virt. eigenvalues --    0.51016   0.51258   0.51895   0.55921   0.57498
  Beta virt. eigenvalues --    0.62373   0.62566   0.64795   0.66050   0.69107
  Beta virt. eigenvalues --    0.73757   0.74996   0.75946   0.78875   0.82974
  Beta virt. eigenvalues --    0.84728   0.87557   0.88730   0.89618   0.90792
  Beta virt. eigenvalues --    0.91621   0.92529   0.92717   0.93562   0.95207
  Beta virt. eigenvalues --    0.95446   0.96621   0.98778   1.01002   1.03647
  Beta virt. eigenvalues --    1.06318   1.29000   1.33916   1.41095   1.42052
  Beta virt. eigenvalues --    1.50592   1.56769   1.58180   1.68823   1.71827
  Beta virt. eigenvalues --    1.79403   1.82008   1.84680   1.91244   1.91810
  Beta virt. eigenvalues --    1.96895   2.00260   2.01214   2.02005   2.04343
  Beta virt. eigenvalues --    2.08930   2.12722   2.16060   2.20566   2.24961
  Beta virt. eigenvalues --    2.26112   2.27959   2.34175   2.40459   2.45300
  Beta virt. eigenvalues --    2.48293   2.51820   2.59134   2.75468   2.76704
  Beta virt. eigenvalues --    2.77440   4.12184   4.23341   4.26239   4.28748
  Beta virt. eigenvalues --    4.46557   4.61560
          Condensed to atoms (all electrons):
               1          2          3          4          5          6
     1  C    5.122101   0.368511   0.371551   0.368460   0.378013  -0.046966
     2  H    0.368511   0.575370  -0.032045  -0.029831  -0.027718  -0.003659
     3  H    0.371551  -0.032045   0.582222  -0.031674  -0.035288   0.005899
     4  H    0.368460  -0.029831  -0.031674   0.580779  -0.029424  -0.002809
     5  C    0.378013  -0.027718  -0.035288  -0.029424   4.884550   0.369459
     6  H   -0.046966  -0.003659   0.005899  -0.002809   0.369459   0.645121
     7  C   -0.044348  -0.004961  -0.005928   0.004550   0.385592  -0.046172
     8  H   -0.006504  -0.000054   0.005937  -0.000076  -0.045068   0.007269
     9  C    0.004725  -0.000007   0.000034  -0.000140  -0.042885  -0.006224
    10  H    0.000035  -0.000005   0.000011   0.000000  -0.005892   0.006001
    11  H   -0.000134  -0.000001  -0.000001   0.000002   0.004586  -0.000079
    12  H   -0.000014  -0.000004  -0.000004  -0.000002  -0.005006  -0.000102
    13  C   -0.056389   0.005239  -0.004539  -0.005261   0.374455  -0.046191
    14  H    0.005114  -0.000183  -0.000055   0.000018  -0.027615  -0.003703
    15  H   -0.004480  -0.000053   0.004246  -0.000201  -0.035499   0.005885
    16  H   -0.005282   0.000010  -0.000203   0.005055  -0.028807  -0.002861
    17  C   -0.007324   0.003776  -0.000678   0.000332  -0.046619  -0.005787
    18  H   -0.000882   0.000711   0.000126  -0.000038  -0.003708   0.006090
    19  H    0.002214   0.001969   0.000575  -0.000024  -0.002906  -0.000182
               7          8          9         10         11         12
     1  C   -0.044348  -0.006504   0.004725   0.000035  -0.000134  -0.000014
     2  H   -0.004961  -0.000054  -0.000007  -0.000005  -0.000001  -0.000004
     3  H   -0.005928   0.005937   0.000034   0.000011  -0.000001  -0.000004
     4  H    0.004550  -0.000076  -0.000140   0.000000   0.000002  -0.000002
     5  C    0.385592  -0.045068  -0.042885  -0.005892   0.004586  -0.005006
     6  H   -0.046172   0.007269  -0.006224   0.006001  -0.000079  -0.000102
     7  C    4.896431   0.367199   0.371153  -0.035433  -0.028959  -0.027928
     8  H    0.367199   0.642556  -0.046949   0.005838  -0.002746  -0.003655
     9  C    0.371153  -0.046949   5.118154   0.371305   0.370392   0.368949
    10  H   -0.035433   0.005838   0.371305   0.584984  -0.031049  -0.032273
    11  H   -0.028959  -0.002746   0.370392  -0.031049   0.572324  -0.030494
    12  H   -0.027928  -0.003655   0.368949  -0.032273  -0.030494   0.577179
    13  C   -0.042548  -0.006539  -0.005712  -0.000816   0.000181   0.001999
    14  H   -0.004973  -0.000097   0.002135   0.000635  -0.000060   0.002156
    15  H   -0.005785   0.005947  -0.000743   0.000128  -0.000040   0.000606
    16  H    0.004438  -0.000077   0.000176  -0.000041  -0.000001  -0.000048
    17  C    0.384634  -0.045520  -0.054088  -0.004638  -0.000999   0.004940
    18  H   -0.044493   0.006087  -0.006025   0.004338  -0.000152  -0.000055
    19  H   -0.036119  -0.004931   0.005144  -0.000054   0.000049  -0.000193
              13         14         15         16         17         18
     1  C   -0.056389   0.005114  -0.004480  -0.005282  -0.007324  -0.000882
     2  H    0.005239  -0.000183  -0.000053   0.000010   0.003776   0.000711
     3  H   -0.004539  -0.000055   0.004246  -0.000203  -0.000678   0.000126
     4  H   -0.005261   0.000018  -0.000201   0.005055   0.000332  -0.000038
     5  C    0.374455  -0.027615  -0.035499  -0.028807  -0.046619  -0.003708
     6  H   -0.046191  -0.003703   0.005885  -0.002861  -0.005787   0.006090
     7  C   -0.042548  -0.004973  -0.005785   0.004438   0.384634  -0.044493
     8  H   -0.006539  -0.000097   0.005947  -0.000077  -0.045520   0.006087
     9  C   -0.005712   0.002135  -0.000743   0.000176  -0.054088  -0.006025
    10  H   -0.000816   0.000635   0.000128  -0.000041  -0.004638   0.004338
    11  H    0.000181  -0.000060  -0.000040  -0.000001  -0.000999  -0.000152
    12  H    0.001999   0.002156   0.000606  -0.000048   0.004940  -0.000055
    13  C    5.118823   0.370942   0.371701   0.368962   0.004715  -0.000038
    14  H    0.370942   0.569355  -0.031649  -0.030155  -0.000003  -0.000006
    15  H    0.371701  -0.031649   0.581674  -0.031783   0.000032   0.000011
    16  H    0.368962  -0.030155  -0.031783   0.578855  -0.000138   0.000003
    17  C    0.004715  -0.000003   0.000032  -0.000138   5.349181   0.354474
    18  H   -0.000038  -0.000006   0.000011   0.000003   0.354474   0.601620
    19  H   -0.000094  -0.000003  -0.000004   0.000002   0.355342  -0.046146
              19
     1  C    0.002214
     2  H    0.001969
     3  H    0.000575
     4  H   -0.000024
     5  C   -0.002906
     6  H   -0.000182
     7  C   -0.036119
     8  H   -0.004931
     9  C    0.005144
    10  H   -0.000054
    11  H    0.000049
    12  H   -0.000193
    13  C   -0.000094
    14  H   -0.000003
    15  H   -0.000004
    16  H    0.000002
    17  C    0.355342
    18  H   -0.046146
    19  H    0.590085
          Atomic-Atomic Spin Densities.
               1          2          3          4          5          6
     1  C    0.008271  -0.002258  -0.000592   0.000207  -0.000783   0.000058
     2  H   -0.002258  -0.000493   0.000467  -0.000052  -0.001400   0.000232
     3  H   -0.000592   0.000467   0.000464   0.000108  -0.000891   0.000011
     4  H    0.000207  -0.000052   0.000108  -0.001047   0.000235   0.000052
     5  C   -0.000783  -0.001400  -0.000891   0.000235   0.086053  -0.003362
     6  H    0.000058   0.000232   0.000011   0.000052  -0.003362  -0.001822
     7  C    0.000730  -0.000514   0.000006  -0.000135   0.012592   0.000493
     8  H    0.000140   0.000098   0.000124   0.000010  -0.005535   0.000073
     9  C    0.000027   0.000022   0.000007   0.000001  -0.004512   0.000123
    10  H    0.000001   0.000000   0.000000   0.000000  -0.000206  -0.000006
    11  H   -0.000003  -0.000002  -0.000001   0.000000   0.000527  -0.000025
    12  H   -0.000014  -0.000001  -0.000002   0.000000   0.001286  -0.000053
    13  C    0.001298   0.000245   0.000332   0.000067  -0.013450   0.001461
    14  H    0.000010   0.000002   0.000002   0.000003  -0.000495   0.000061
    15  H    0.000078   0.000006   0.000009   0.000004  -0.000339  -0.000004
    16  H   -0.000319  -0.000058  -0.000070  -0.000163   0.001254  -0.000294
    17  C   -0.003767   0.003546   0.000415   0.000081  -0.024564   0.001681
    18  H   -0.000203   0.000243   0.000013   0.000006  -0.001907   0.000205
    19  H   -0.000561   0.001173   0.000097  -0.000002  -0.001708   0.000102
               7          8          9         10         11         12
     1  C    0.000730   0.000140   0.000027   0.000001  -0.000003  -0.000014
     2  H   -0.000514   0.000098   0.000022   0.000000  -0.000002  -0.000001
     3  H    0.000006   0.000124   0.000007   0.000000  -0.000001  -0.000002
     4  H   -0.000135   0.000010   0.000001   0.000000   0.000000   0.000000
     5  C    0.012592  -0.005535  -0.004512  -0.000206   0.000527   0.001286
     6  H    0.000493   0.000073   0.000123  -0.000006  -0.000025  -0.000053
     7  C   -0.044173   0.003911   0.007964   0.000483  -0.001019  -0.000198
     8  H    0.003911   0.006064   0.001897  -0.000005  -0.000430  -0.000290
     9  C    0.007964   0.001897   0.016676   0.000065  -0.003841  -0.001688
    10  H    0.000483  -0.000005   0.000065  -0.000952   0.000055   0.000020
    11  H   -0.001019  -0.000430  -0.003841   0.000055   0.000438   0.001168
    12  H   -0.000198  -0.000290  -0.001688   0.000020   0.001168   0.001033
    13  C   -0.001391   0.000909   0.000599   0.000049  -0.000071  -0.000606
    14  H    0.000020   0.000021   0.000012   0.000002  -0.000007  -0.000123
    15  H   -0.000021   0.000049   0.000014   0.000000  -0.000002  -0.000023
    16  H   -0.000006  -0.000045  -0.000008  -0.000002   0.000002   0.000046
    17  C   -0.030967  -0.003365  -0.010600  -0.000108   0.004456   0.000289
    18  H    0.001582   0.000079   0.001183  -0.000034  -0.000248  -0.000050
    19  H    0.000772   0.000939   0.000129   0.000011  -0.000078  -0.000004
              13         14         15         16         17         18
     1  C    0.001298   0.000010   0.000078  -0.000319  -0.003767  -0.000203
     2  H    0.000245   0.000002   0.000006  -0.000058   0.003546   0.000243
     3  H    0.000332   0.000002   0.000009  -0.000070   0.000415   0.000013
     4  H    0.000067   0.000003   0.000004  -0.000163   0.000081   0.000006
     5  C   -0.013450  -0.000495  -0.000339   0.001254  -0.024564  -0.001907
     6  H    0.001461   0.000061  -0.000004  -0.000294   0.001681   0.000205
     7  C   -0.001391   0.000020  -0.000021  -0.000006  -0.030967   0.001582
     8  H    0.000909   0.000021   0.000049  -0.000045  -0.003365   0.000079
     9  C    0.000599   0.000012   0.000014  -0.000008  -0.010600   0.001183
    10  H    0.000049   0.000002   0.000000  -0.000002  -0.000108  -0.000034
    11  H   -0.000071  -0.000007  -0.000002   0.000002   0.004456  -0.000248
    12  H   -0.000606  -0.000123  -0.000023   0.000046   0.000289  -0.000050
    13  C    0.018621   0.000667   0.000459  -0.002925   0.001729   0.000086
    14  H    0.000667  -0.000202   0.000062  -0.000339   0.000020   0.000002
    15  H    0.000459   0.000062  -0.000395  -0.000310   0.000023   0.000001
    16  H   -0.002925  -0.000339  -0.000310   0.007119  -0.000083  -0.000004
    17  C    0.001729   0.000020   0.000023  -0.000083   1.126217  -0.012217
    18  H    0.000086   0.000002   0.000001  -0.000004  -0.012217  -0.025669
    19  H    0.000076   0.000000   0.000001  -0.000003  -0.010752   0.005987
              19
     1  C   -0.000561
     2  H    0.001173
     3  H    0.000097
     4  H   -0.000002
     5  C   -0.001708
     6  H    0.000102
     7  C    0.000772
     8  H    0.000939
     9  C    0.000129
    10  H    0.000011
    11  H   -0.000078
    12  H   -0.000004
    13  C    0.000076
    14  H    0.000000
    15  H    0.000001
    16  H   -0.000003
    17  C   -0.010752
    18  H    0.005987
    19  H   -0.027696
 Mulliken charges and spin densities:
               1          2
     1  C   -0.448402   0.002320
     2  H    0.142935   0.001255
     3  H    0.139815   0.000497
     4  H    0.140283  -0.000625
     5  C   -0.060219   0.042796
     6  H    0.119009  -0.001015
     7  C   -0.086351  -0.049871
     8  H    0.121384   0.004642
     9  C   -0.449392   0.008072
    10  H    0.136925  -0.000627
    11  H    0.147179   0.000918
    12  H    0.143948   0.000788
    13  C   -0.448888   0.008156
    14  H    0.148147  -0.000281
    15  H    0.140007  -0.000387
    16  H    0.141894   0.003790
    17  C   -0.291633   1.042033
    18  H    0.128083  -0.030946
    19  H    0.135276  -0.031517
 Sum of Mulliken charges =   0.00000   1.00000
 Mulliken charges and spin densities with hydrogens summed into heavy atoms:
               1          2
     1  C   -0.025369   0.003448
     5  C    0.058790   0.041781
     7  C    0.035032  -0.045229
     9  C   -0.021340   0.009152
    13  C   -0.018840   0.011279
    17  C   -0.028274   0.979570
 Electronic spatial extent (au):  <R**2>=            719.2435
 Charge=              0.0000 electrons
 Dipole moment (field-independent basis, Debye):
    X=             -0.6573    Y=             -0.2291    Z=             -0.1924  Tot=              0.7222
 Quadrupole moment (field-independent basis, Debye-Ang):
   XX=            -42.7310   YY=            -41.2732   ZZ=            -40.3131
   XY=             -0.9763   XZ=             -0.2365   YZ=             -0.3352
 Traceless Quadrupole moment (field-independent basis, Debye-Ang):
   XX=             -1.2919   YY=              0.1659   ZZ=              1.1260
   XY=             -0.9763   XZ=             -0.2365   YZ=             -0.3352
 Octapole moment (field-independent basis, Debye-Ang**2):
  XXX=             -6.4770  YYY=             -0.7925  ZZZ=             -0.0933  XYY=             -1.9438
  XXY=             -3.7032  XXZ=             -1.2167  XZZ=             -0.4014  YZZ=             -0.2276
  YYZ=             -0.6263  XYZ=             -0.8648
 Hexadecapole moment (field-independent basis, Debye-Ang**3):
 XXXX=           -530.4163 YYYY=           -378.5998 ZZZZ=            -92.0487 XXXY=             -7.4660
 XXXZ=              4.7185 YYYX=             -5.6735 YYYZ=             -0.8926 ZZZX=             -2.9676
 ZZZY=             -0.6679 XXYY=           -162.0801 XXZZ=           -102.5718 YYZZ=            -79.4841
 XXYZ=             -1.4469 YYXZ=             -0.5683 ZZXY=             -0.4619
 N-N= 2.514644345555D+02 E-N=-1.048433629635D+03  KE= 2.339711526474D+02
                          Isotropic Fermi Contact Couplings
        Atom                 a.u.       MegaHertz       Gauss      10(-4) cm-1
     1  C(13)              0.00177       1.99125       0.71053       0.66421
     2  H(1)               0.00016       0.69733       0.24883       0.23261
     3  H(1)               0.00006       0.28660       0.10226       0.09560
     4  H(1)              -0.00018      -0.79810      -0.28478      -0.26622
     5  C(13)              0.04387      49.31349      17.59628      16.44921
     6  H(1)              -0.00066      -2.95916      -1.05590      -0.98707
     7  C(13)             -0.01150     -12.92474      -4.61187      -4.31123
     8  H(1)               0.00280      12.49550       4.45870       4.16805
     9  C(13)              0.01156      12.99648       4.63747       4.33516
    10  H(1)              -0.00026      -1.18024      -0.42114      -0.39368
    11  H(1)              -0.00019      -0.85296      -0.30436      -0.28452
    12  H(1)               0.00027       1.18752       0.42374       0.39611
    13  C(13)              0.00483       5.42618       1.93620       1.80998
    14  H(1)               0.00002       0.08746       0.03121       0.02917
    15  H(1)              -0.00012      -0.54235      -0.19353      -0.18091
    16  H(1)               0.00170       7.62029       2.71911       2.54186
    17  C(13)              0.30793     346.16710     123.52102     115.46891
    18  H(1)              -0.00471     -21.04434      -7.50914      -7.01964
    19  H(1)              -0.00409     -18.28846      -6.52578      -6.10037
 --------------------------------------------------------
       Center         ----  Spin Dipole Couplings  ----
                      3XX-RR        3YY-RR        3ZZ-RR
 --------------------------------------------------------
     1   Atom        0.007952     -0.001173     -0.006779
     2   Atom        0.010885     -0.003699     -0.007186
     3   Atom        0.004828     -0.003079     -0.001750
     4   Atom        0.004279     -0.001731     -0.002547
     5   Atom        0.050124     -0.025644     -0.024480
     6   Atom       -0.000329     -0.003585      0.003914
     7   Atom        0.013020      0.008780     -0.021801
     8   Atom       -0.002287      0.000718      0.001570
     9   Atom       -0.012416      0.023363     -0.010947
    10   Atom       -0.005158      0.007080     -0.001922
    11   Atom       -0.002792      0.011612     -0.008819
    12   Atom       -0.003131      0.006638     -0.003507
    13   Atom        0.002185      0.005646     -0.007831
    14   Atom       -0.000890      0.003571     -0.002681
    15   Atom        0.000136      0.000397     -0.000533
    16   Atom        0.001837     -0.000131     -0.001706
    17   Atom        0.714709     -0.480173     -0.234536
    18   Atom       -0.011770     -0.058743      0.070512
    19   Atom        0.008308      0.022613     -0.030920
 --------------------------------------------------------
                        XY            XZ            YZ
 --------------------------------------------------------
     1   Atom        0.003919     -0.001532     -0.002529
     2   Atom       -0.003400      0.001038     -0.000938
     3   Atom        0.000361     -0.003442      0.000240
     4   Atom        0.000288      0.000749     -0.000051
     5   Atom        0.024976      0.029129      0.007960
     6   Atom        0.005992      0.006734      0.003804
     7   Atom        0.029103      0.002632      0.000007
     8   Atom        0.009176     -0.008179     -0.012173
     9   Atom       -0.001143     -0.000245      0.008259
    10   Atom       -0.001001     -0.000648      0.006715
    11   Atom       -0.007616      0.001532     -0.002236
    12   Atom        0.000769     -0.000009     -0.001051
    13   Atom        0.012127     -0.002908     -0.003072
    14   Atom        0.001835      0.000149      0.000667
    15   Atom        0.002900     -0.001213     -0.001689
    16   Atom        0.002065      0.001066     -0.000175
    17   Atom        0.019393      0.538450      0.009692
    18   Atom        0.002545     -0.003668     -0.011603
    19   Atom       -0.045055     -0.002171      0.041013
 --------------------------------------------------------


 ---------------------------------------------------------------------------------
              Anisotropic Spin Dipole Couplings in Principal Axis System
 ---------------------------------------------------------------------------------

       Atom             a.u.   MegaHertz   Gauss  10(-4) cm-1        Axes

              Baa    -0.0078    -1.040    -0.371    -0.347  0.0017  0.3579  0.9337
     1 C(13)  Bbb    -0.0020    -0.266    -0.095    -0.089 -0.3900  0.8601 -0.3289
              Bcc     0.0097     1.306     0.466     0.436  0.9208  0.3636 -0.1411
 
              Baa    -0.0074    -3.961    -1.413    -1.321 -0.0117  0.2340  0.9722
     2 H(1)   Bbb    -0.0043    -2.290    -0.817    -0.764  0.2276  0.9473 -0.2253
              Bcc     0.0117     6.252     2.231     2.085  0.9737 -0.2187  0.0643
 
              Baa    -0.0035    -1.879    -0.671    -0.627  0.3168 -0.6381  0.7017
     3 H(1)   Bbb    -0.0028    -1.485    -0.530    -0.495  0.2325  0.7695  0.5948
              Bcc     0.0063     3.365     1.201     1.122  0.9196  0.0253 -0.3921
 
              Baa    -0.0026    -1.406    -0.502    -0.469 -0.1110  0.0912  0.9896
     4 H(1)   Bbb    -0.0017    -0.927    -0.331    -0.309 -0.0357  0.9948 -0.0957
              Bcc     0.0044     2.333     0.832     0.778  0.9932  0.0460  0.1072
 
              Baa    -0.0347    -4.657    -1.662    -1.553 -0.3895  0.3127  0.8663
     5 C(13)  Bbb    -0.0328    -4.404    -1.571    -1.469 -0.1371  0.9104 -0.3903
              Bcc     0.0675     9.061     3.233     3.022  0.9107  0.2708  0.3118
 
              Baa    -0.0083    -4.438    -1.583    -1.480 -0.6667  0.7322  0.1393
     6 H(1)   Bbb    -0.0035    -1.844    -0.658    -0.615 -0.4564 -0.5488  0.7003
              Bcc     0.0118     6.281     2.241     2.095  0.5893  0.4033  0.7001
 
              Baa    -0.0226    -3.033    -1.082    -1.012 -0.2811  0.2605  0.9236
     7 C(13)  Bbb    -0.0175    -2.354    -0.840    -0.785 -0.6199  0.6855 -0.3820
              Bcc     0.0401     5.387     1.922     1.797  0.7326  0.6799  0.0312
 
              Baa    -0.0113    -6.042    -2.156    -2.015 -0.2950  0.7811  0.5503
     8 H(1)   Bbb    -0.0087    -4.659    -1.663    -1.554  0.8254 -0.0818  0.5586
              Bcc     0.0201    10.702     3.819     3.570 -0.4814 -0.6190  0.6206
 
              Baa    -0.0128    -1.722    -0.614    -0.574 -0.0415 -0.2235  0.9738
     9 C(13)  Bbb    -0.0125    -1.671    -0.596    -0.557  0.9987  0.0210  0.0473
              Bcc     0.0253     3.393     1.211     1.132 -0.0310  0.9745  0.2223
 
              Baa    -0.0055    -2.956    -1.055    -0.986  0.3239 -0.4243  0.8456
    10 H(1)   Bbb    -0.0052    -2.781    -0.992    -0.928  0.9432  0.2151 -0.2533
              Bcc     0.0108     5.737     2.047     1.914 -0.0745  0.8796  0.4698
 
              Baa    -0.0092    -4.909    -1.752    -1.637 -0.1934  0.0346  0.9805
    11 H(1)   Bbb    -0.0060    -3.194    -1.140    -1.065  0.8978  0.4092  0.1626
              Bcc     0.0152     8.103     2.891     2.703 -0.3956  0.9118 -0.1102
 
              Baa    -0.0036    -1.934    -0.690    -0.645 -0.1567  0.1122  0.9813
    12 H(1)   Bbb    -0.0032    -1.696    -0.605    -0.566  0.9846 -0.0596  0.1641
              Bcc     0.0068     3.631     1.296     1.211  0.0768  0.9919 -0.1011
 
              Baa    -0.0087    -1.161    -0.414    -0.387  0.4666 -0.2111  0.8589
    13 C(13)  Bbb    -0.0082    -1.105    -0.394    -0.368 -0.6033  0.6342  0.4836
              Bcc     0.0169     2.266     0.809     0.756  0.6468  0.7438 -0.1686
 
              Baa    -0.0028    -1.469    -0.524    -0.490  0.0334 -0.1144  0.9929
    14 H(1)   Bbb    -0.0015    -0.823    -0.294    -0.274  0.9418 -0.3289 -0.0696
              Bcc     0.0043     2.292     0.818     0.764  0.3346  0.9374  0.0967
 
              Baa    -0.0027    -1.438    -0.513    -0.480 -0.6589  0.7258  0.1975
    15 H(1)   Bbb    -0.0014    -0.744    -0.265    -0.248  0.4287  0.1466  0.8915
              Bcc     0.0041     2.182     0.778     0.728  0.6181  0.6721 -0.4078
 
              Baa    -0.0024    -1.266    -0.452    -0.422 -0.4197  0.4481  0.7893
    16 H(1)   Bbb    -0.0009    -0.481    -0.172    -0.160 -0.3256  0.7375 -0.5917
              Bcc     0.0033     1.747     0.623     0.583  0.8473  0.5053  0.1637
 
              Baa    -0.4807   -64.510   -23.019   -21.518  0.0973  0.9631 -0.2508
    17 C(13)  Bbb    -0.4774   -64.069   -22.861   -21.371 -0.4001  0.2686  0.8762
              Bcc     0.9582   128.579    45.880    42.889  0.9113  0.0151  0.4115
 
              Baa    -0.0599   -31.948   -11.400   -10.657 -0.0460  0.9951  0.0873
    18 H(1)   Bbb    -0.0118    -6.322    -2.256    -2.109  0.9979  0.0417  0.0503
              Bcc     0.0717    38.270    13.656    12.765 -0.0464 -0.0894  0.9949
 
              Baa    -0.0603   -32.197   -11.489   -10.740 -0.3433 -0.5594  0.7544
    19 H(1)   Bbb    -0.0117    -6.246    -2.229    -2.084  0.7581  0.3091  0.5742
              Bcc     0.0721    38.443    13.717    12.823 -0.5544  0.7691  0.3180
 

 ---------------------------------------------------------------------------------

 No NMR shielding tensors so no spin-rotation constants.
 Leave Link  601 at Sat Nov  7 02:08:50 2015, MaxMem=   805306368 cpu:         0.9
 (Enter /home/hetanjin/apps/g09D01/g09/l701.exe)
 Compute integral first derivatives.
 ... and contract with generalized density number  0.
 Leave Link  701 at Sat Nov  7 02:08:51 2015, MaxMem=   805306368 cpu:         1.7
 (Enter /home/hetanjin/apps/g09D01/g09/l702.exe)
 L702 exits ... SP integral derivatives will be done elsewhere.
 Leave Link  702 at Sat Nov  7 02:08:51 2015, MaxMem=   805306368 cpu:         0.1
 (Enter /home/hetanjin/apps/g09D01/g09/l703.exe)
 Compute integral first derivatives, UseDBF=F ICtDFT=           0.
 Integral derivatives from FoFJK, PRISM(SPDF).
 Calling FoFJK, ICntrl=      2127 FMM=F ISym2X=0 I1Cent= 0 IOpClX= 1 NMat=1 NMatS=1 NMatT=0.
 FoFJK:  IHMeth= 1 ICntrl=    2127 DoSepK=F KAlg= 0 I1Cent=   0 FoldK=F
 IRaf=         0 NMat=   1 IRICut=       1 DoRegI=T DoRafI=F ISym2E= 0.
 FoFCou: FMM=F IPFlag=           0 FMFlag=      100000 FMFlg1=         800
         NFxFlg=           0 DoJE=F BraDBF=F KetDBF=F FulRan=T
         wScrn=  0.000000 ICntrl=    2127 IOpCl=  1 I1Cent=           0 NGrid=           0
         NMat0=    1 NMatS0=      1 NMatT0=    0 NMatD0=    1 NMtDS0=    0 NMtDT0=    0
 Symmetry not used in FoFCou.
 Leave Link  703 at Sat Nov  7 02:09:00 2015, MaxMem=   805306368 cpu:        34.3
 (Enter /home/hetanjin/apps/g09D01/g09/l716.exe)
 Dipole        =-2.58608273D-01-9.01508490D-02-7.56874509D-02
 ***** Axes restored to original set *****
 -------------------------------------------------------------------
 Center     Atomic                   Forces (Hartrees/Bohr)
 Number     Number              X              Y              Z
 -------------------------------------------------------------------
      1        6          -0.000240262    0.000545972    0.000213364
      2        1           0.000059184   -0.000109276    0.000034419
      3        1           0.000099661   -0.000059930    0.000002878
      4        1          -0.000029802   -0.000074872   -0.000097191
      5        6           0.003916125    0.003378088    0.003116401
      6        1          -0.000346174    0.000092602   -0.000103227
      7        6          -0.007979947   -0.018987482    0.003845874
      8        1           0.000089766    0.000864829   -0.000228700
      9        6           0.000259042   -0.001497990   -0.001551801
     10        1          -0.000032219    0.000059892    0.000099528
     11        1           0.000311430    0.000618425    0.000430328
     12        1          -0.000034378    0.000258078   -0.000065863
     13        6          -0.001122264   -0.001137710   -0.001099404
     14        1          -0.000017949    0.000089577    0.000110133
     15        1           0.000126673   -0.000026616    0.000045271
     16        1           0.000255493   -0.000239305    0.000534681
     17        6           0.016301476    0.043051109   -0.005603600
     18        1          -0.002405985   -0.014481307   -0.001731819
     19        1          -0.009209870   -0.012344085    0.002048728
 -------------------------------------------------------------------
 Cartesian Forces:  Max     0.043051109 RMS     0.007371065
 Leave Link  716 at Sat Nov  7 02:09:00 2015, MaxMem=   805306368 cpu:         0.1
 (Enter /home/hetanjin/apps/g09D01/g09/l103.exe)

 GradGradGradGradGradGradGradGradGradGradGradGradGradGradGradGradGradGrad
 Berny optimization.
 FormGI is forming the generalized inverse of G from B-inverse, IUseBI=4.
 Internal  Forces:  Max     0.014070837 RMS     0.003312707
 Search for a local minimum.
 Step number   1 out of a maximum of  103
 All quantities printed in internal units (Hartrees-Bohrs-Radians)
 RMS Force = .33127D-02 SwitMx=.10000D-02 MixMth= 1
 Mixed Optimization -- RFO/linear search
 Second derivative matrix not updated -- first step.
 ITU=  0
     Eigenvalues ---    0.00230   0.00255   0.00255   0.00255   0.00255
     Eigenvalues ---    0.03324   0.03435   0.03622   0.04612   0.04690
     Eigenvalues ---    0.04914   0.05276   0.05276   0.05276   0.05491
     Eigenvalues ---    0.05491   0.05491   0.05726   0.16000   0.16000
     Eigenvalues ---    0.16000   0.16000   0.16000   0.16000   0.16000
     Eigenvalues ---    0.16000   0.16000   0.16000   0.16000   0.16647
     Eigenvalues ---    0.17030   0.17237   0.18157   0.27398   0.28641
     Eigenvalues ---    0.28641   0.28641   0.28641   0.33431   0.33431
     Eigenvalues ---    0.33862   0.33862   0.33862   0.33862   0.34088
     Eigenvalues ---    0.34088   0.34088   0.34333   0.34333   0.34333
     Eigenvalues ---    0.34333
 RFO step:  Lambda=-1.43610690D-02 EMin= 2.30000000D-03
 Linear search not attempted -- first point.
 Iteration  1 RMS(Cart)=  0.05218120 RMS(Int)=  0.00932134
 Iteration  2 RMS(Cart)=  0.00743266 RMS(Int)=  0.00607646
 Iteration  3 RMS(Cart)=  0.00011952 RMS(Int)=  0.00607582
 Iteration  4 RMS(Cart)=  0.00000264 RMS(Int)=  0.00607582
 Iteration  5 RMS(Cart)=  0.00000008 RMS(Int)=  0.00607582
 ITry= 1 IFail=0 DXMaxC= 2.85D-01 DCOld= 1.00D+10 DXMaxT= 3.00D-01 DXLimC= 3.00D+00 Rises=F
 Variable       Old X    -DE/DX   Delta X   Delta X   Delta X     New X
                                 (Linear)    (Quad)   (Total)
    R1        2.06772   0.00010   0.00000   0.00027   0.00027   2.06799
    R2        2.07563  -0.00011   0.00000  -0.00030  -0.00030   2.07533
    R3        2.07181  -0.00008   0.00000  -0.00022  -0.00022   2.07159
    R4        2.90759   0.00031   0.00000   0.00104   0.00104   2.90862
    R5        2.08302  -0.00036   0.00000  -0.00102  -0.00102   2.08199
    R6        2.93474   0.00340   0.00000   0.01180   0.01180   2.94654
    R7        2.90759  -0.00020   0.00000  -0.00067  -0.00067   2.90691
    R8        2.08302   0.00005   0.00000   0.00014   0.00014   2.08316
    R9        2.90759   0.00130   0.00000   0.00432   0.00432   2.91191
   R10        2.90759  -0.01193   0.00000  -0.03968  -0.03968   2.86790
   R11        2.07563  -0.00005   0.00000  -0.00014  -0.00014   2.07549
   R12        2.07181  -0.00067   0.00000  -0.00189  -0.00189   2.06992
   R13        2.06772   0.00018   0.00000   0.00050   0.00050   2.06823
   R14        2.06772  -0.00014   0.00000  -0.00039  -0.00039   2.06734
   R15        2.07563  -0.00013   0.00000  -0.00038  -0.00038   2.07525
   R16        2.07181  -0.00008   0.00000  -0.00023  -0.00023   2.07158
   R17        2.07563  -0.00059   0.00000  -0.00167  -0.00167   2.07396
   R18        2.06772  -0.00071   0.00000  -0.00199  -0.00199   2.06573
    A1        1.88136   0.00004   0.00000   0.00016   0.00016   1.88153
    A2        1.87392   0.00011   0.00000   0.00060   0.00060   1.87452
    A3        1.96369  -0.00010   0.00000  -0.00063  -0.00063   1.96306
    A4        1.87509   0.00005   0.00000   0.00038   0.00038   1.87547
    A5        1.93564   0.00002   0.00000   0.00011   0.00011   1.93575
    A6        1.93060  -0.00010   0.00000  -0.00055  -0.00055   1.93004
    A7        1.88020  -0.00033   0.00000   0.00162   0.00160   1.88181
    A8        1.96138   0.00072   0.00000   0.00346   0.00345   1.96483
    A9        1.90720   0.00053   0.00000   0.00187   0.00187   1.90907
   A10        1.86961   0.00029   0.00000   0.00225   0.00224   1.87185
   A11        1.88020   0.00028   0.00000   0.00105   0.00105   1.88125
   A12        1.96138  -0.00148   0.00000  -0.00986  -0.00986   1.95152
   A13        1.86961   0.00010   0.00000  -0.00041  -0.00039   1.86922
   A14        1.96138   0.00109   0.00000   0.00283   0.00281   1.96419
   A15        1.96138  -0.00245   0.00000  -0.01701  -0.01700   1.94437
   A16        1.88020  -0.00040   0.00000   0.00402   0.00399   1.88420
   A17        1.88020   0.00088   0.00000   0.00877   0.00873   1.88894
   A18        1.90720   0.00085   0.00000   0.00292   0.00288   1.91008
   A19        1.93564  -0.00006   0.00000  -0.00061  -0.00061   1.93502
   A20        1.93060  -0.00051   0.00000  -0.00302  -0.00303   1.92757
   A21        1.96369  -0.00009   0.00000  -0.00017  -0.00017   1.96352
   A22        1.87509   0.00020   0.00000   0.00046   0.00045   1.87554
   A23        1.88137   0.00011   0.00000   0.00083   0.00083   1.88220
   A24        1.87392   0.00040   0.00000   0.00273   0.00273   1.87665
   A25        1.96369   0.00020   0.00000   0.00139   0.00138   1.96508
   A26        1.93564   0.00012   0.00000   0.00106   0.00106   1.93670
   A27        1.93060  -0.00095   0.00000  -0.00611  -0.00611   1.92449
   A28        1.88137   0.00000   0.00000   0.00115   0.00115   1.88251
   A29        1.87392   0.00032   0.00000   0.00110   0.00110   1.87502
   A30        1.87509   0.00036   0.00000   0.00160   0.00160   1.87668
   A31        1.93564   0.01287   0.00000   0.14501   0.11469   2.05032
   A32        1.96369   0.01407   0.00000   0.15003   0.11999   2.08368
   A33        1.88136  -0.00081   0.00000   0.12404   0.08699   1.96835
    D1       -0.96586  -0.00003   0.00000   0.00009   0.00009  -0.96577
    D2        1.08954   0.00054   0.00000   0.00587   0.00587   1.09542
    D3       -3.00391  -0.00046   0.00000  -0.00305  -0.00305  -3.00697
    D4       -3.07463  -0.00002   0.00000   0.00023   0.00023  -3.07440
    D5       -1.01923   0.00055   0.00000   0.00602   0.00602  -1.01321
    D6        1.17049  -0.00045   0.00000  -0.00290  -0.00291   1.16759
    D7        1.12985  -0.00003   0.00000   0.00005   0.00005   1.12990
    D8       -3.09793   0.00054   0.00000   0.00583   0.00583  -3.09210
    D9       -0.90821  -0.00047   0.00000  -0.00309  -0.00309  -0.91130
   D10        1.07995  -0.00019   0.00000  -0.00553  -0.00551   1.07443
   D11       -3.14157   0.00000   0.00000   0.00075   0.00073  -3.14084
   D12       -0.98172   0.00007   0.00000  -0.00630  -0.00630  -0.98802
   D13       -3.14158   0.00000   0.00000  -0.00016  -0.00014   3.14147
   D14       -1.07991   0.00019   0.00000   0.00611   0.00610  -1.07380
   D15        1.07995   0.00027   0.00000  -0.00093  -0.00093   1.07901
   D16       -1.07991  -0.00032   0.00000  -0.00307  -0.00305  -1.08296
   D17        0.98176  -0.00013   0.00000   0.00320   0.00319   0.98495
   D18       -3.14157  -0.00005   0.00000  -0.00384  -0.00384   3.13777
   D19        3.00390  -0.00018   0.00000   0.00019   0.00019   3.00409
   D20       -1.17051   0.00003   0.00000   0.00338   0.00338  -1.16713
   D21        0.90819  -0.00005   0.00000   0.00210   0.00210   0.91030
   D22        0.96584  -0.00023   0.00000  -0.00330  -0.00330   0.96254
   D23        3.07462  -0.00002   0.00000  -0.00012  -0.00011   3.07451
   D24       -1.12986  -0.00011   0.00000  -0.00139  -0.00139  -1.13125
   D25       -1.08956   0.00009   0.00000  -0.00103  -0.00103  -1.09059
   D26        1.01922   0.00030   0.00000   0.00216   0.00216   1.02138
   D27        3.09792   0.00022   0.00000   0.00088   0.00088   3.09880
   D28        1.01922  -0.00073   0.00000  -0.00798  -0.00799   1.01123
   D29        3.09792  -0.00085   0.00000  -0.00975  -0.00977   3.08815
   D30       -1.08956  -0.00076   0.00000  -0.00849  -0.00851  -1.09807
   D31        3.07462  -0.00023   0.00000  -0.00429  -0.00429   3.07033
   D32       -1.12986  -0.00035   0.00000  -0.00607  -0.00607  -1.13593
   D33        0.96584  -0.00027   0.00000  -0.00481  -0.00480   0.96104
   D34       -1.17051   0.00104   0.00000   0.00990   0.00991  -1.16060
   D35        0.90819   0.00092   0.00000   0.00812   0.00813   0.91632
   D36        3.00390   0.00100   0.00000   0.00938   0.00939   3.01329
   D37       -1.01923  -0.00915   0.00000  -0.17616  -0.18249  -1.20172
   D38        1.08954   0.00869   0.00000   0.19007   0.19634   1.28589
   D39       -3.07463  -0.00841   0.00000  -0.17138  -0.17765   3.03090
   D40       -0.96586   0.00943   0.00000   0.19485   0.20118  -0.76467
   D41        1.17049  -0.00887   0.00000  -0.18257  -0.18887   0.98162
   D42       -3.00391   0.00897   0.00000   0.18367   0.18996  -2.81395
         Item               Value     Threshold  Converged?
 Maximum Force            0.014071     0.000015     NO 
 RMS     Force            0.003313     0.000010     NO 
 Maximum Displacement     0.284800     0.000060     NO 
 RMS     Displacement     0.049385     0.000040     NO 
 Predicted change in Energy=-1.051494D-02
 Lowest energy point so far.  Saving SCF results.
 GradGradGradGradGradGradGradGradGradGradGradGradGradGradGradGradGradGrad

 Leave Link  103 at Sat Nov  7 02:09:00 2015, MaxMem=   805306368 cpu:         0.1
 (Enter /home/hetanjin/apps/g09D01/g09/l202.exe)
                          Input orientation:                          
 ---------------------------------------------------------------------
 Center     Atomic      Atomic             Coordinates (Angstroms)
 Number     Number       Type             X           Y           Z
 ---------------------------------------------------------------------
      1          6           0        0.007085    1.551149    1.246651
      2          1           0        0.364460    1.084852    2.169916
      3          1           0       -1.078250    1.690916    1.339347
      4          1           0        0.462665    2.546288    1.184292
      5          6           0        0.349204    0.720117   -0.002911
      6          1           0        1.438080    0.552311   -0.008487
      7          6           0       -0.334539   -0.681197    0.004486
      8          1           0       -1.423575   -0.510430    0.010189
      9          6           0        0.009371   -1.512848   -1.246317
     10          1           0        1.095154   -1.650148   -1.338481
     11          1           0       -0.443333   -2.508090   -1.180347
     12          1           0       -0.349469   -1.048145   -2.169964
     13          6           0       -0.008826    1.524183   -1.264487
     14          1           0        0.338303    1.041707   -2.182925
     15          1           0       -1.095072    1.663038   -1.346808
     16          1           0        0.448997    2.519376   -1.223098
     17          6           0        0.029079   -1.468320    1.250045
     18          1           0        1.065900   -1.815433    1.344949
     19          1           0       -0.412931   -1.188058    2.209749
 ---------------------------------------------------------------------
                    Distance matrix (angstroms):
                    1          2          3          4          5
     1  C    0.000000
     2  H    1.094334   0.000000
     3  H    1.098217   1.771601   0.000000
     4  H    1.096240   1.765473   1.769215   0.000000
     5  C    1.539177   2.203280   2.186718   2.181106   0.000000
     6  H    2.149603   2.486302   3.073271   2.519940   1.101744
     7  C    2.577411   2.880384   2.821680   3.527625   1.559244
     8  H    2.797452   3.225897   2.594578   3.778881   2.158046
     9  C    3.950060   4.306364   4.258248   4.752885   2.578309
    10  H    4.256184   4.508102   4.801787   4.937054   2.821054
    11  H    4.750855   4.978556   4.937978   5.653237   3.526442
    12  H    4.307751   4.888141   4.510969   4.983026   2.882882
    13  C    2.511334   3.482453   2.819827   2.695092   1.538272
    14  H    3.482991   4.353133   3.851557   3.690173   2.203633
    15  H    2.820159   3.851217   2.686352   3.100506   2.186570
    16  H    2.689315   3.684773   3.095959   2.407580   2.176269
    17  C    3.019551   2.734470   3.348869   4.038489   2.541975
    18  H    3.530527   3.095842   4.109974   4.406167   2.959627
    19  H    2.933807   2.402507   3.080379   3.970336   3.019578
                    6          7          8          9         10
     6  H    0.000000
     7  C    2.159604   0.000000
[...]
 539,-0.03018932,0.00182803,0.10728160,-0.10537156,-0.25631073,0.010107
 52,-0.00686522,-0.01301051,0.00034521,0.00241054,0.00604652,-0.0001143
 4,0.11582292,0.27886977,0.00509629,0.01120935,-0.04922676,0.01412916,0
 .02396368,-0.00011352,0.00022514,0.00139928,-0.00102626,-0.00669071,-0
 .00955143,0.05245655,-0.08765647,0.01390390,0.02045537,0.00166460,-0.0
 0697270,-0.00865707,-0.00846677,0.01916826,0.02869620,0.00323263,-0.00
 842209,-0.01383657,0.57727233,0.01428970,-0.10793393,-0.04324765,-0.00
 477098,0.00989250,0.01402676,0.00169690,-0.00393015,-0.00408133,0.0084
 0158,-0.01636889,-0.02427899,-0.03554188,0.43801478,0.02045517,-0.0465
 9720,-0.14865552,0.00746025,-0.01575827,-0.02108300,0.00090360,-0.0009
 3798,-0.00185717,-0.00020745,0.00171592,0.00064746,-0.00243363,0.00266
 236,0.47119409,-0.00745687,0.00135157,0.00071289,0.00037766,-0.0001467
 3,0.00045626,0.00118362,0.00076044,0.00128824,0.00056964,0.00049939,0.
 00006250,-0.28909528,0.03618909,0.00347074,0.31570726,0.01887219,-0.00
 343055,-0.00181109,-0.00068640,0.00058866,0.00027932,0.00088200,-0.001
 52461,-0.00332996,0.00000961,0.00034814,0.00077423,0.03505544,-0.05354
 947,-0.00031394,-0.03819911,0.06290075,0.02881903,-0.00529361,-0.00270
 881,-0.00014983,0.00089094,0.00099750,0.00161470,-0.00345920,-0.004478
 59,-0.00068658,0.00036724,0.00106932,0.00332762,-0.00023757,-0.0481713
 2,-0.00379919,0.00037339,0.05750837,0.00351280,0.00571566,-0.00189272,
 -0.00013843,-0.00042556,-0.00045684,0.00028918,0.00184225,0.00062136,-
 0.00014071,0.00248818,0.00192049,-0.09151829,-0.02935910,0.00449368,-0
 .01715258,-0.03049759,0.00122355,0.56760553,-0.00774929,-0.02116741,-0
 .00455236,-0.00009308,0.00080326,0.00061703,-0.00078238,0.00102976,0.0
 0119695,0.00045983,-0.00047747,-0.00204276,-0.01975196,-0.11176891,0.0
 0673344,-0.00049088,-0.00019479,-0.00006504,-0.05788002,0.40018097,-0.
 01223276,-0.02503034,0.00117698,-0.00064130,0.00036913,0.00014130,-0.0
 0026446,0.00050410,0.00086570,0.00117513,-0.00335101,-0.00470824,-0.00
 337949,-0.00874825,-0.07097434,0.00085111,0.00099510,-0.00038419,0.003
 73510,-0.01000585,0.46807636,0.00036154,0.00109650,0.00047100,0.000025
 86,-0.00000917,0.00005698,0.00067871,-0.00075410,-0.00070152,0.0005207
 5,-0.00011430,0.00003123,-0.01927610,-0.00005849,0.00048148,-0.0004448
 6,-0.00331717,0.00012465,-0.28609711,0.03834667,0.00426732,0.31355693,
 -0.00078315,0.00159889,0.00074738,0.00002736,-0.00007140,-0.00005464,0
 .00071489,-0.00013643,-0.00022062,0.00031403,0.00021527,0.00029623,-0.
 03112509,-0.00026516,0.00061493,-0.00301402,-0.00510300,0.00024869,0.0
 3697681,-0.05129019,-0.00199268,-0.04029657,0.06323732,-0.00104542,0.0
 0013628,0.00015061,-0.00005173,0.00001025,0.00005586,0.00013353,-0.000
 17026,0.00011564,0.00014027,0.00003494,-0.00004025,0.00138153,-0.00061
 602,0.00027385,0.00019577,0.00023148,0.00030840,0.00449731,-0.00180604
 ,-0.05030231,-0.00520615,0.00011463,0.05777574,-0.00196930,-0.00260379
 ,0.00082716,0.00001410,0.00025558,0.00018917,0.00048529,-0.00016831,-0
 .00004128,0.00059371,-0.00085368,-0.00073557,0.00349057,-0.00843282,-0
 .01152921,0.00039367,-0.00063986,-0.00102327,-0.08755322,0.01397060,0.
 01490985,-0.00649817,0.01826185,0.02820135,0.56528165,-0.00279454,-0.0
 0503364,0.00158681,-0.00017544,0.00007613,-0.00013218,0.00004902,-0.00
 001463,0.00008982,0.00034933,-0.00087413,-0.00166462,0.00594810,-0.021
 14594,-0.02648304,0.00099289,0.00180904,0.00024829,0.01455858,-0.10303
 543,-0.03968576,0.00119992,-0.00321153,-0.00486465,0.01727204,0.543513
 21,0.00090583,0.00169894,0.00010239,0.00005248,0.00004298,-0.00001173,
 -0.00003789,-0.00017332,-0.00010086,0.00010140,0.00067330,0.00052023,-
 0.00110609,-0.00542360,0.00184449,0.00047062,0.00095033,0.00007695,0.0
 1642794,-0.04743122,-0.13770004,0.00088557,-0.00115455,-0.00264803,0.0
 2381491,-0.05715722,0.50756705,0.00045845,0.00005355,-0.00008029,-0.00
 001937,-0.00001751,-0.00000338,-0.00000802,-0.00018793,-0.00015420,0.0
 0000892,0.00008514,0.00006624,0.00040283,-0.00091336,-0.00029230,0.000
 63663,0.00076862,0.00014174,-0.00774205,0.00173850,0.00120794,0.001203
 30,0.00070619,0.00156550,-0.30154425,0.02907005,0.02061342,0.32847822,
 -0.00014337,-0.00000414,-0.00010981,0.00000860,0.00001038,0.00003377,-
 0.00019554,0.00008873,0.00011112,-0.00008455,-0.00001113,0.00001492,0.
 00183694,0.00120236,0.00052314,-0.00073484,-0.00010623,-0.00015822,0.0
 1975042,-0.00364456,-0.00183138,0.00071960,-0.00165388,-0.00360212,0.0
 2912470,-0.05250643,-0.00132418,-0.03344443,0.05319844,-0.00006228,0.0
 0011601,-0.00011061,0.00001299,-0.00000535,-0.00003120,-0.00016209,0.0
 0012007,0.00009010,-0.00009608,-0.00000073,0.00001421,0.00065621,0.001
 45950,0.00112019,-0.00073596,-0.00024467,0.00009124,0.02805168,-0.0034
 4774,-0.00298545,0.00109732,-0.00321676,-0.00438871,0.02072347,-0.0013
 6724,-0.05122438,-0.02448063,0.00511300,0.05326476,0.00055042,0.000308
 87,0.00010704,-0.00001810,-0.00000170,-0.00000668,0.00000482,-0.000073
 78,-0.00009700,-0.00003317,0.00009275,0.00013384,-0.00021592,0.0003426
 1,0.00104459,0.00048138,0.00032104,0.00015655,0.00302514,0.00829342,-0
 .00081066,0.00043286,-0.00000104,-0.00070237,-0.09626830,-0.10038627,0
 .00900699,-0.01289924,-0.03069285,0.00320011,0.09950393,-0.00080147,-0
 .00090490,0.00049178,-0.00000935,0.00004371,-0.00007963,0.00006957,-0.
 00001009,0.00000269,0.00011301,-0.00025571,-0.00039188,0.00200499,-0.0
 0075986,-0.00330458,-0.00008428,0.00016689,0.00002911,-0.00744276,-0.0
 1474731,0.00123153,0.00045708,0.00015898,0.00033799,-0.10034327,-0.265
 68961,0.02147012,0.00183296,0.00520543,-0.00023752,0.10973514,0.287848
 64,-0.00086220,-0.00163227,0.00062844,-0.00004933,0.00003525,0.0000267
 1,0.00006790,0.00001544,-0.00000217,0.00011937,-0.00046535,-0.00051663
 ,0.00223940,-0.00131424,-0.00535460,0.00000800,0.00022437,-0.00002489,
 -0.01286202,-0.02526615,0.00105976,0.00006746,0.00083596,0.00094613,0.
 00958032,0.02251949,-0.04972475,0.00044066,0.00219586,-0.00114031,-0.0
 1147653,-0.02148976,0.05433812,0.00006204,-0.00024042,0.00008286,-0.00
 002099,-0.00000664,0.00005174,-0.00001827,0.00000529,-0.00000746,-0.00
 001752,-0.00001674,-0.00005911,-0.00034356,0.00011337,-0.00091513,0.00
 009973,-0.00002942,-0.00005159,0.00228175,-0.00324132,0.00808949,0.000
 47659,-0.00063654,-0.00010261,-0.08151729,0.03879636,-0.07662237,-0.01
 011039,0.01483643,-0.02819966,0.00527865,-0.00577557,0.01301770,0.0828
 6866,0.00025274,0.00010082,0.00006201,0.00000296,0.00005086,0.00013740
 ,-0.00000424,0.00000236,-0.00001523,-0.00000073,0.00002518,0.00008806,
 -0.00053576,0.00071311,0.00054777,-0.00000627,-0.00011104,-0.00002169,
 -0.00798645,0.00885621,-0.01620352,-0.00015992,0.00076278,0.00082493,0
 .04002647,-0.09815284,0.09604019,0.00035246,-0.00212987,0.00188331,0.0
 1193995,-0.01215408,0.02462537,-0.04401625,0.10716868,0.00005943,-0.00
 008188,0.00019282,0.00003553,0.00013475,0.00022490,0.00002647,0.000015
 73,-0.00002817,-0.00001553,-0.00016040,0.00002335,0.00016592,0.0012799
 5,0.00004107,0.00002208,-0.00010060,0.00004800,-0.00992765,0.01168187,
 -0.02066091,0.00052585,0.00025253,0.00098738,-0.07708996,0.09461500,-0
 .23315884,0.00094808,-0.00203827,0.00370501,-0.00032643,0.00117933,-0.
 00157135,0.08320932,-0.10497258,0.25378326,0.00310221,-0.00420411,0.00
 666579,0.00007225,0.00082043,0.00242836,0.00047585,-0.00041060,0.00113
 878,-0.00011078,-0.00011022,-0.00074300,-0.08932174,0.01534955,-0.0228
 0446,-0.00850479,0.01749122,-0.02931772,0.00340946,-0.00826471,0.01202
 481,0.00041470,-0.00075039,0.00104478,-0.00076226,-0.00022966,-0.00053
 181,0.00011071,0.00000619,-0.00015706,0.00019097,-0.00025447,0.0004076
 1,0.00081573,-0.00053067,0.00042480,0.56264578,-0.00501461,0.00954155,
 -0.01282022,0.00078846,-0.00232269,-0.00479663,-0.00009998,0.00020730,
 -0.00002214,-0.00021279,0.00039289,-0.00145463,0.01532062,-0.10325172,
 0.04324048,0.00130887,-0.00285727,0.00496832,0.00615884,-0.02160016,0.
 02549151,0.00100826,0.00164555,-0.00043569,-0.00050358,-0.00047385,-0.
 00006056,0.00034873,-0.00015155,-0.00007654,0.00013067,0.00037577,0.00
 054959,-0.00003840,-0.00167058,0.00050724,0.01557665,0.54628370,-0.007
 14321,0.01250138,-0.03324637,0.00117022,-0.00213378,-0.00403158,-0.000
 67367,0.00094698,0.00175855,-0.00016778,0.00148216,0.00118129,-0.02300
 984,0.03904922,-0.14717701,-0.00047887,0.00097548,-0.00201138,0.001302
 89,0.00501531,-0.00090448,-0.00051883,-0.00083673,0.00004573,0.0004301
 7,0.00025439,0.00148329,0.00014401,-0.00004904,0.00011620,0.00007238,-
 0.00012717,-0.00075211,-0.00069703,-0.00008638,-0.00057244,-0.02584995
 ,0.05202137,0.51450296,-0.00011909,0.00103916,-0.00149050,0.00058742,-
 0.00006017,-0.00064220,0.00038638,-0.00009762,-0.00039665,-0.00004078,
 0.00033441,0.00017781,0.00209807,-0.00563222,-0.00830532,0.00053912,-0
 .00067989,0.00020665,-0.00018428,0.00020069,0.00059481,0.00008883,0.00
 000432,0.00004127,0.00073360,0.00000388,0.00069948,-0.00019444,0.00012
 038,-0.00007268,-0.00017748,0.00014714,-0.00028770,-0.00013330,-0.0005
 6708,-0.00046571,-0.07814760,0.03905168,0.07200415,0.07939093,0.000671
 37,-0.00194328,0.00221478,0.00000752,0.00078734,0.00092466,-0.00005932
 ,-0.00015970,-0.00000036,0.00028051,0.00032098,0.00018268,-0.00729505,
 0.00935068,0.01437275,-0.00022784,0.00072811,-0.00087121,-0.00042758,0
 .00084938,-0.00030478,0.00000078,-0.00009037,0.00004169,-0.00054283,-0
 .00165255,0.00006052,0.00010081,-0.00003540,-0.00008425,0.00008121,0.0
 0003022,0.00007132,-0.00052392,-0.00268091,0.00040200,0.03983655,-0.10
 327420,-0.10044450,-0.04354244,0.11281105,-0.00256787,0.00481222,-0.00
 396669,0.00050633,-0.00107953,-0.00164415,0.00012583,0.00011452,0.0002
 9135,-0.00011317,0.00008567,0.00040178,0.00939087,-0.01395889,-0.02060
 611,-0.00045940,-0.00018611,0.00113946,-0.00000517,-0.00096074,-0.0002
 4420,-0.00005668,0.00006944,0.00003757,-0.00051684,-0.00061849,-0.0004
 8226,-0.00012568,0.00021542,-0.00005716,0.00000193,-0.00021547,0.00064
 444,0.00051052,-0.00022587,0.00122772,0.07184393,-0.09910031,-0.232245
 25,-0.07765896,0.10988196,0.25269167,0.00034525,-0.00006696,0.00063030
 ,0.00038608,-0.00003571,-0.00014454,0.00046364,-0.00031046,-0.00073418
 ,-0.00001944,0.00006058,0.00001770,-0.00965821,0.00164365,-0.00090590,
 0.00107163,0.00083462,-0.00190811,0.00048855,-0.00079347,0.00034307,0.
 00065655,0.00080450,-0.00024232,0.00011756,0.00031403,-0.00012887,0.00
 011843,-0.00018949,0.00005233,0.00003566,0.00006333,0.00001282,-0.0002
 0639,0.00011287,0.00015209,-0.30234323,0.02413982,-0.01318203,-0.00951
 967,0.00017522,-0.00048038,0.33008282,-0.00053478,0.00003781,-0.000803
 67,-0.00005555,-0.00012153,-0.00009016,-0.00024391,0.00042045,0.000073
 41,-0.00013179,0.00005815,0.00007584,0.01869810,-0.00316540,0.00104738
 ,0.00095475,-0.00131792,0.00350056,0.00178443,0.00107690,-0.00058629,-
 0.00071695,-0.00006518,0.00019835,0.00000900,-0.00011354,0.00005982,-0
 .00018175,0.00020860,0.00002672,-0.00009499,-0.00001336,-0.00005513,0.
 00012941,-0.00003693,-0.00022713,0.02417969,-0.05160215,0.00031043,0.0
 1578180,-0.00184925,0.00165011,-0.02800113,0.05184135,-0.00116783,0.00
 014298,0.00175440,0.00044639,0.00003409,0.00023185,0.00076524,-0.00017
 873,-0.00031065,0.00001752,-0.00000784,-0.00010572,-0.02882945,0.00252
 644,-0.00165331,-0.00146713,0.00305400,-0.00450352,-0.00069786,-0.0011
 3067,0.00114581,0.00076580,0.00020861,0.00003842,0.00014531,0.00005956
 ,0.00012541,-0.00004495,-0.00003712,-0.00014577,-0.00004250,0.00001183
 ,0.00005693,0.00007405,0.00007331,-0.00006599,-0.01346964,0.00044936,-
 0.05064191,0.02817223,-0.00116748,0.00274972,0.01658718,-0.00373115,0.
 05232577,0.00013661,-0.00012561,0.00015958,-0.00008628,0.00027536,0.00
 015039,-0.00008902,-0.00018324,0.00000798,0.00028281,0.00002671,0.0002
 0199,0.00324012,0.00906205,0.00020683,0.00040820,-0.00004121,0.0006866
 4,-0.00011487,0.00083452,-0.00116814,0.00047129,0.00028874,-0.00017727
 ,0.00017923,0.00005174,-0.00013637,0.00003485,-0.00009084,0.00005238,0
 .00000225,0.00000896,-0.00006343,-0.00016617,0.00006120,0.00006497,-0.
 09170803,-0.09604760,-0.00301940,0.00465011,0.01126139,-0.00029587,-0.
 01242672,-0.03121134,-0.00159410,0.09474273,-0.00027856,0.00058563,-0.
 00157881,0.00035759,0.00033115,-0.00019083,0.00002877,0.00004159,0.000
 07046,0.00010416,0.00098170,0.00058214,-0.00735588,-0.01626549,-0.0006
 0681,0.00051262,0.00025011,-0.00026578,0.00238630,-0.00012072,0.002693
 36,-0.00013328,0.00020656,-0.00006967,-0.00033359,0.00032770,0.0000130
 1,0.00007744,-0.00002121,-0.00000720,0.00002447,-0.00008782,0.00007865
 ,0.00018015,-0.00001409,0.00022963,-0.09642733,-0.26722313,-0.00866681
 ,-0.00593292,-0.01327301,-0.00056543,0.00143226,0.00450601,0.00000091,
 0.10575601,0.29052402,0.00077846,0.00143441,0.00097745,-0.00013074,-0.
 00022119,0.00047762,0.00003896,-0.00009450,-0.00009231,-0.00031534,-0.
 00056344,-0.00059424,0.01253303,0.02563518,-0.00042556,-0.00011697,-0.
 00073496,0.00089200,-0.00210089,0.00215338,-0.00500548,-0.00004603,-0.
 00029221,0.00004188,-0.00036594,-0.00072587,-0.00059897,-0.00001241,0.
 00006517,0.00006296,0.00006941,-0.00011884,0.00031304,0.00027535,-0.00
 002692,0.00068974,-0.00328990,-0.00925150,-0.04797299,-0.01254125,-0.0
 2508445,-0.00024041,-0.00016944,-0.00138436,-0.00100713,0.00499610,0.0
 0796254,0.05260520,0.00005606,-0.00005763,-0.00076295,0.00026896,-0.00
 007327,0.00050473,0.00014336,-0.00018947,-0.00000667,0.00008015,-0.000
 27293,0.00023749,0.00491101,-0.00211014,0.00992461,0.00071303,-0.00055
 336,0.00072729,-0.09265577,0.03281988,-0.02180261,-0.00842217,0.018155
 39,-0.02854339,0.00402410,-0.00571442,0.00588501,0.00055393,-0.0006348
 4,0.00107680,0.00047649,0.00059574,-0.00004859,0.00026935,0.00149125,0
 .00280644,-0.00088359,-0.00217331,-0.00059649,0.00004117,0.00022017,0.
 00001290,0.00045614,-0.00025064,0.00022896,0.00050245,-0.00049997,0.00
 054323,0.50789066,-0.00002780,-0.00238022,-0.00015321,0.00018105,-0.00
 089538,0.00106910,0.00032729,-0.00011599,0.00005008,0.00006382,0.00000
 907,0.00101847,0.00418405,-0.02132083,0.02231042,0.00092914,0.00168906
 ,-0.00047358,0.03770892,-0.08671154,0.06742183,0.00271949,-0.00564960,
 0.00787360,-0.00486532,0.00788218,-0.00835614,0.00024759,0.00005934,-0
 .00071857,0.00003297,0.00081214,-0.00071205,0.00099223,-0.00118110,-0.
 00312951,-0.00191455,-0.00361495,-0.00030311,-0.00018773,0.00002384,0.
 00025174,-0.00004691,0.00000861,-0.00019534,0.00015474,-0.00053215,0.0
 0120016,-0.19356411,0.21566403,-0.00029400,-0.00191948,0.00138486,-0.0
 0033121,0.00010527,0.00022435,0.00015309,-0.00000524,0.00012389,0.0001
 4585,-0.00063702,-0.00036330,0.00425300,0.01649828,-0.00737632,-0.0009
 9095,-0.00127398,-0.00001448,-0.02592115,0.06429723,-0.17048854,-0.000
 32321,0.00168710,-0.00071442,-0.00488830,0.00972104,-0.03581915,-0.000
 76835,0.00093915,0.00171277,-0.00020921,0.00169560,0.00121686,0.000831
 84,-0.00188782,-0.00396741,-0.00040851,-0.00001449,0.00009022,-0.00003
 167,-0.00009339,0.00027508,0.00002077,0.00005177,-0.00007122,-0.000107
 08,0.00002326,0.00019701,-0.11204801,-0.11851091,0.51475667,0.00007971
 ,0.00011347,-0.00002454,-0.00011139,-0.00004945,-0.00006285,0.00004130
 ,-0.00007375,-0.00000758,0.00001847,0.00006811,-0.00004603,-0.00021486
 ,0.00010760,-0.00012896,0.00020925,0.00031215,-0.00007691,-0.00392793,
 0.00032729,0.00153983,0.00064287,0.00126794,-0.00136380,0.00065163,0.0
 0033646,0.00088756,0.00026985,-0.00015623,-0.00065031,-0.00025312,-0.0
 0020056,-0.00024884,0.00022779,-0.00029010,-0.00004641,0.00018886,0.00
 013376,0.00012609,0.00000965,-0.00000542,-0.00004794,-0.00002181,-0.00
 009471,0.00007846,-0.00000668,0.00003083,-0.00007873,-0.27505318,0.133
 49229,-0.00373510,0.28686239,-0.00010044,-0.00017329,0.00021071,0.0001
 2427,-0.00016014,-0.00027828,-0.00013589,0.00020051,-0.00003168,-0.000
 03340,-0.00003742,-0.00008115,0.00073864,0.00136799,-0.00028980,-0.000
 69499,-0.00029443,0.00015326,0.01476992,-0.00408424,-0.00240138,-0.000
 22444,-0.00055695,0.00262812,-0.00068080,0.00078073,-0.00064337,-0.000
 36280,0.00031686,0.00048030,-0.00012422,-0.00002419,0.00004296,-0.0001
 5629,-0.00018996,0.00001676,-0.00026547,-0.00009274,0.00009714,0.00000
 502,0.00000262,-0.00003204,-0.00013278,0.00009571,-0.00012138,-0.00006
 333,-0.00009023,0.00004478,0.13019038,-0.08134798,0.01978358,-0.142164
 93,0.08149196,0.00002617,-0.00005809,-0.00009732,0.00013028,0.00001408
 ,0.00001157,-0.00004356,0.00001562,-0.00010360,-0.00002183,0.00003042,
 0.00009740,-0.00103577,-0.00053627,-0.00010644,0.00044550,0.00014229,0
 .00008799,-0.02142579,0.00863043,0.00248849,-0.00168936,0.00312109,-0.
 00375454,-0.00125136,0.00056056,0.00234684,0.00071343,-0.00004507,-0.0
 0026621,-0.00008198,-0.00030250,-0.00015008,0.00032940,-0.00015741,0.0
 0023434,0.00024916,0.00033784,0.00001780,0.00002113,-0.00000290,-0.000
 05240,0.00011910,-0.00010487,0.00009495,0.00008583,0.00009589,-0.00014
 397,-0.00478554,0.01941928,-0.05304041,0.00732468,-0.02038298,0.047768
 87,0.00035816,0.00006096,0.00043555,-0.00019109,-0.00019885,-0.0002285
 9,-0.00005497,0.00002270,0.00000185,-0.00005305,0.00013802,-0.00018888
 ,-0.00054492,-0.00037711,-0.00091862,0.00026357,0.00009712,-0.00001522
 ,0.00661283,0.00205568,-0.00843905,0.00120764,-0.00091522,0.00023377,0
 .00014771,0.00035794,-0.00118782,0.00024166,-0.00003628,-0.00030653,-0
 .00011722,-0.00011620,-0.00006262,0.00015361,-0.00014242,-0.00056929,0
 .00035550,0.00012391,0.00008719,-0.00000864,-0.00001113,-0.00006433,-0
 .00002681,-0.00001965,0.00003230,-0.00005285,0.00007095,-0.00006691,-0
 .14337215,0.01957285,0.14465220,-0.00961280,-0.00068846,0.02089052,0.1
 4469385,-0.00029748,-0.00016630,-0.00018293,-0.00026984,-0.00105555,-0
 .00006924,0.00009489,-0.00007406,-0.00001326,0.00007962,0.00007834,-0.
 00013942,0.00014138,-0.00081568,0.00052305,0.00010020,0.00000854,0.000
 06612,-0.01012125,0.00604624,0.01143469,0.00023612,0.00026834,-0.00086
 781,0.00104761,-0.00248487,0.00071494,-0.00027424,-0.00002575,0.000207
 65,0.00007175,0.00000515,-0.00025934,-0.00037173,0.00064140,0.00039558
 ,0.00010188,-0.00031178,-0.00000634,0.00001159,0.00005445,-0.00013819,
 -0.00000396,0.00003167,0.00000861,-0.00001826,-0.00012661,0.00000261,0
 .02262128,-0.02239854,0.00954007,0.00684527,0.00279519,-0.01077742,-0.
 01999482,0.01752979,-0.00014032,-0.00014477,-0.00047728,0.00021766,-0.
 00027247,0.00052792,-0.00010849,0.00013222,-0.00003143,-0.00004115,0.0
 0000918,0.00028334,-0.00081123,-0.00069489,-0.00168047,0.00006476,-0.0
 0000470,0.00007796,0.01301608,-0.00361707,-0.01059623,-0.00023287,-0.0
 0042840,0.00107105,-0.00137998,0.00304411,-0.00259766,0.00012117,-0.00
 001631,0.00017237,-0.00003947,-0.00018263,0.00000644,0.00018268,-0.000
 68491,-0.00113249,0.00034404,0.00046700,0.00035949,-0.00002491,-0.0000
 9904,0.00007984,-0.00003958,-0.00001162,-0.00001802,-0.00005105,0.0002
 0149,-0.00017583,0.14664679,0.01193772,-0.24812646,-0.00343862,0.00080
 445,0.00456674,-0.15428551,-0.01043936,0.25769074\\0.00000078,0.000000
 32,-0.00000125,0.00000109,0.00000111,-0.00000065,0.00000074,0.00000106
 ,-0.00000042,0.00000106,0.00000051,-0.00000147,0.00000026,-0.00000056,
 0.00000003,0.00000026,-0.00000029,-0.00000085,0.00000003,0.00000061,-0
 .00000031,-0.00000023,0.00000026,0.00000094,-0.00000095,-0.00000003,0.
 00000161,-0.00000082,-0.00000098,0.00000043,-0.00000099,-0.00000049,0.
 00000148,-0.00000107,-0.00000102,0.00000057,-0.00000035,-0.00000038,-0
 .00000088,-0.00000059,-0.00000123,-0.00000044,-0.00000014,-0.00000044,
 -0.00000038,0.00000010,-0.00000071,-0.00000133,0.00000040,0.00000030,0
 .00000140,0.00000005,0.00000057,0.00000057,0.00000037,0.00000139,0.000
 00094\\\@


 LIVE PURE, SPEAK TRUE, RIGHT WRONG, FOLLOW THE KING...
 ELSE, WHEREFORE BORN......
           IDYLLS OF THE KING, TENNYSON
 Job cpu time:       0 days  0 hours 30 minutes  5.3 seconds.
 File lengths (MBytes):  RWF=     64 Int=      0 D2E=      0 Chk=      3 Scr=      1
 Normal termination of Gaussian 09 at Sat Nov  7 02:26:31 2015.
