 Entering Gaussian System, Link 0=/home/hetanjin/apps/g09D01/g09/g09
 Input=C6H14_1_r013_C17_2_opt_B3L.gjf
 Output=C6H14_1_r013_C17_2_opt_B3L.log
 Initial command:
 /home/hetanjin/apps/g09D01/g09/l1.exe "/state/partition1/Gau-17548.inp" -scrdir="/state/partition1/"
 Entering Link 1 = /home/hetanjin/apps/g09D01/g09/l1.exe PID=     17549.
  
 Copyright (c) 1988,1990,1992,1993,1995,1998,2003,2009,2013,
            Gaussian, Inc.  All Rights Reserved.
  
 This is part of the Gaussian(R) 09 program.  It is based on
 the Gaussian(R) 03 system (copyright 2003, Gaussian, Inc.),
 the Gaussian(R) 98 system (copyright 1998, Gaussian, Inc.),
 the Gaussian(R) 94 system (copyright 1995, Gaussian, Inc.),
 the Gaussian 92(TM) system (copyright 1992, Gaussian, Inc.),
 the Gaussian 90(TM) system (copyright 1990, Gaussian, Inc.),
 the Gaussian 88(TM) system (copyright 1988, Gaussian, Inc.),
 the Gaussian 86(TM) system (copyright 1986, Carnegie Mellon
 University), and the Gaussian 82(TM) system (copyright 1983,
 Carnegie Mellon University). Gaussian is a federally registered
 trademark of Gaussian, Inc.
  
 This software contains proprietary and confidential information,
 including trade secrets, belonging to Gaussian, Inc.
  
 This software is provided under written license and may be
 used, copied, transmitted, or stored only in accord with that
 written license.
  
 The following legend is applicable only to US Government
 contracts under FAR:
  
                    RESTRICTED RIGHTS LEGEND
  
 Use, reproduction and disclosure by the US Government is
 subject to restrictions as set forth in subparagraphs (a)
 and (c) of the Commercial Computer Software - Restricted
 Rights clause in FAR 52.227-19.
  
 Gaussian, Inc.
 340 Quinnipiac St., Bldg. 40, Wallingford CT 06492
  
  
 ---------------------------------------------------------------
 Warning -- This program may not be used in any manner that
 competes with the business of Gaussian, Inc. or will provide
 assistance to any competitor of Gaussian, Inc.  The licensee
 of this program is prohibited from giving any competitor of
 Gaussian, Inc. access to this program.  By using this program,
 the user acknowledges that Gaussian, Inc. is engaged in the
 business of creating and licensing software in the field of
 computational chemistry and represents and warrants to the
 licensee that it is not a competitor of Gaussian, Inc. and that
 it will not use this program in any manner prohibited above.
 ---------------------------------------------------------------
  

 Cite this work as:
 Gaussian 09, Revision D.01,
 M. J. Frisch, G. W. Trucks, H. B. Schlegel, G. E. Scuseria, 
 M. A. Robb, J. R. Cheeseman, G. Scalmani, V. Barone, B. Mennucci, 
 G. A. Petersson, H. Nakatsuji, M. Caricato, X. Li, H. P. Hratchian, 
 A. F. Izmaylov, J. Bloino, G. Zheng, J. L. Sonnenberg, M. Hada, 
 M. Ehara, K. Toyota, R. Fukuda, J. Hasegawa, M. Ishida, T. Nakajima, 
 Y. Honda, O. Kitao, H. Nakai, T. Vreven, J. A. Montgomery, Jr., 
 J. E. Peralta, F. Ogliaro, M. Bearpark, J. J. Heyd, E. Brothers, 
 K. N. Kudin, V. N. Staroverov, T. Keith, R. Kobayashi, J. Normand, 
 K. Raghavachari, A. Rendell, J. C. Burant, S. S. Iyengar, J. Tomasi, 
 M. Cossi, N. Rega, J. M. Millam, M. Klene, J. E. Knox, J. B. Cross, 
 V. Bakken, C. Adamo, J. Jaramillo, R. Gomperts, R. E. Stratmann, 
 O. Yazyev, A. J. Austin, R. Cammi, C. Pomelli, J. W. Ochterski, 
 R. L. Martin, K. Morokuma, V. G. Zakrzewski, G. A. Voth, 
 P. Salvador, J. J. Dannenberg, S. Dapprich, A. D. Daniels, 
 O. Farkas, J. B. Foresman, J. V. Ortiz, J. Cioslowski, 
 and D. J. Fox, Gaussian, Inc., Wallingford CT, 2013.
 
 ******************************************
 Gaussian 09:  ES64L-G09RevD.01 24-Apr-2013
                 7-Nov-2015 
 ******************************************
 %mem=6GB
 %nprocshared=4
 Will use up to    4 processors via shared memory.
 ----------------------------------------------
 #p B3LYP/6-31G(d) opt=tight int=ultrafine freq
 ----------------------------------------------
 1/7=10,14=-1,18=20,19=15,26=4,38=1/1,3;
 2/9=110,12=2,17=6,18=5,40=1/2;
 3/5=1,6=6,7=1,11=2,16=1,25=1,30=1,71=1,74=-5,75=-5/1,2,3;
 4//1;
 5/5=2,38=5/2;
 6/7=2,8=2,9=2,10=2,28=1/1;
 7//1,2,3,16;
 1/7=10,14=-1,18=20,19=15,26=4/3(2);
 2/9=110/2;
 99//99;
 2/9=110/2;
 3/5=1,6=6,7=1,11=2,16=1,25=1,30=1,71=1,74=-5,75=-5/1,2,3;
 4/5=5,16=3,69=1/1;
 5/5=2,38=5/2;
 7//1,2,3,16;
 1/7=10,14=-1,18=20,19=15,26=4/3(-5);
 2/9=110/2;
 6/7=2,8=2,9=2,10=2,19=2,28=1/1;
 99/9=1/99;
 Leave Link    1 at Sat Nov  7 01:58:47 2015, MaxMem=   805306368 cpu:         0.1
 (Enter /home/hetanjin/apps/g09D01/g09/l101.exe)
 ---------------------------------------------
 using B3LYP/6-31G(d) to do opt and freq calc.
 ---------------------------------------------
 Symbolic Z-matrix:
 Charge =  0 Multiplicity = 2
 C                    -1.41423   2.90508   0. 
 H                    -0.9005    3.3015   -0.8846 
 H                    -0.9005    3.3015    0.8846 
 H                    -2.43424   3.30628   0. 
 C                    -1.41423   1.37295   0. 
 H                    -1.9654    1.00688   0.878 
 H                    -1.9654    1.00688  -0.878 
 C                    -0.00489   0.76692   0. 
 H                     0.54683   1.1341    0.87848 
 H                     0.54683   1.1341   -0.87848 
 C                     0.00489  -0.76692   0. 
 H                    -0.54683  -1.1341   -0.87848 
 H                    -0.54683  -1.1341    0.87848 
 C                     1.41423  -1.37295   0. 
 H                     1.9654   -1.00688   0.878 
 H                     1.9654   -1.00688  -0.878 
 C                     1.41423  -2.90508   0. 
 H                     0.9005   -3.3015   -0.8846 
 H                     0.9005   -3.3015    0.8846 
 
 NAtoms=     19 NQM=       19 NQMF=       0 NMMI=      0 NMMIF=      0
                NMic=       0 NMicF=      0.
                    Isotopes and Nuclear Properties:
 (Nuclear quadrupole moments (NQMom) in fm**2, nuclear magnetic moments (NMagM)
  in nuclear magnetons)

  Atom         1           2           3           4           5           6           7           8           9          10
 IAtWgt=          12           1           1           1          12           1           1          12           1           1
 AtmWgt=  12.0000000   1.0078250   1.0078250   1.0078250  12.0000000   1.0078250   1.0078250  12.0000000   1.0078250   1.0078250
 NucSpn=           0           1           1           1           0           1           1           0           1           1
 AtZEff=   0.0000000   0.0000000   0.0000000   0.0000000   0.0000000   0.0000000   0.0000000   0.0000000   0.0000000   0.0000000
 NQMom=    0.0000000   0.0000000   0.0000000   0.0000000   0.0000000   0.0000000   0.0000000   0.0000000   0.0000000   0.0000000
 NMagM=    0.0000000   2.7928460   2.7928460   2.7928460   0.0000000   2.7928460   2.7928460   0.0000000   2.7928460   2.7928460
 AtZNuc=   6.0000000   1.0000000   1.0000000   1.0000000   6.0000000   1.0000000   1.0000000   6.0000000   1.0000000   1.0000000

  Atom        11          12          13          14          15          16          17          18          19
 IAtWgt=          12           1           1          12           1           1          12           1           1
 AtmWgt=  12.0000000   1.0078250   1.0078250  12.0000000   1.0078250   1.0078250  12.0000000   1.0078250   1.0078250
 NucSpn=           0           1           1           0           1           1           0           1           1
 AtZEff=   0.0000000   0.0000000   0.0000000   0.0000000   0.0000000   0.0000000   0.0000000   0.0000000   0.0000000
 NQMom=    0.0000000   0.0000000   0.0000000   0.0000000   0.0000000   0.0000000   0.0000000   0.0000000   0.0000000
 NMagM=    0.0000000   2.7928460   2.7928460   0.0000000   2.7928460   2.7928460   0.0000000   2.7928460   2.7928460
 AtZNuc=   6.0000000   1.0000000   1.0000000   6.0000000   1.0000000   1.0000000   6.0000000   1.0000000   1.0000000
 Leave Link  101 at Sat Nov  7 01:58:48 2015, MaxMem=   805306368 cpu:         1.3
 (Enter /home/hetanjin/apps/g09D01/g09/l103.exe)

 GradGradGradGradGradGradGradGradGradGradGradGradGradGradGradGradGradGrad
 Berny optimization.
 Initialization pass.
                           ----------------------------
                           !    Initial Parameters    !
                           ! (Angstroms and Degrees)  !
 --------------------------                            --------------------------
 ! Name  Definition              Value          Derivative Info.                !
 --------------------------------------------------------------------------------
 ! R1    R(1,2)                  1.0971         estimate D2E/DX2                !
 ! R2    R(1,3)                  1.0971         estimate D2E/DX2                !
 ! R3    R(1,4)                  1.0961         estimate D2E/DX2                !
 ! R4    R(1,5)                  1.5321         estimate D2E/DX2                !
 ! R5    R(5,6)                  1.0994         estimate D2E/DX2                !
 ! R6    R(5,7)                  1.0994         estimate D2E/DX2                !
 ! R7    R(5,8)                  1.5341         estimate D2E/DX2                !
 ! R8    R(8,9)                  1.1004         estimate D2E/DX2                !
 ! R9    R(8,10)                 1.1004         estimate D2E/DX2                !
 ! R10   R(8,11)                 1.5339         estimate D2E/DX2                !
 ! R11   R(11,12)                1.1004         estimate D2E/DX2                !
 ! R12   R(11,13)                1.1004         estimate D2E/DX2                !
 ! R13   R(11,14)                1.5341         estimate D2E/DX2                !
 ! R14   R(14,15)                1.0994         estimate D2E/DX2                !
 ! R15   R(14,16)                1.0994         estimate D2E/DX2                !
 ! R16   R(14,17)                1.5321         estimate D2E/DX2                !
 ! R17   R(17,18)                1.0971         estimate D2E/DX2                !
 ! R18   R(17,19)                1.0971         estimate D2E/DX2                !
 ! A1    A(2,1,3)              107.4766         estimate D2E/DX2                !
 ! A2    A(2,1,4)              107.6687         estimate D2E/DX2                !
 ! A3    A(2,1,5)              111.1823         estimate D2E/DX2                !
 ! A4    A(3,1,4)              107.6687         estimate D2E/DX2                !
 ! A5    A(3,1,5)              111.1823         estimate D2E/DX2                !
 ! A6    A(4,1,5)              111.4711         estimate D2E/DX2                !
 ! A7    A(1,5,6)              109.4494         estimate D2E/DX2                !
 ! A8    A(1,5,7)              109.4494         estimate D2E/DX2                !
 ! A9    A(1,5,8)              113.2685         estimate D2E/DX2                !
 ! A10   A(6,5,7)              105.9962         estimate D2E/DX2                !
 ! A11   A(6,5,8)              109.2096         estimate D2E/DX2                !
 ! A12   A(7,5,8)              109.2096         estimate D2E/DX2                !
 ! A13   A(5,8,9)              109.1945         estimate D2E/DX2                !
 ! A14   A(5,8,10)             109.1945         estimate D2E/DX2                !
 ! A15   A(5,8,11)             113.634          estimate D2E/DX2                !
 ! A16   A(9,8,10)             105.9372         estimate D2E/DX2                !
 ! A17   A(9,8,11)             109.2971         estimate D2E/DX2                !
 ! A18   A(10,8,11)            109.2971         estimate D2E/DX2                !
 ! A19   A(8,11,12)            109.2971         estimate D2E/DX2                !
 ! A20   A(8,11,13)            109.2971         estimate D2E/DX2                !
 ! A21   A(8,11,14)            113.634          estimate D2E/DX2                !
 ! A22   A(12,11,13)           105.9372         estimate D2E/DX2                !
 ! A23   A(12,11,14)           109.1945         estimate D2E/DX2                !
 ! A24   A(13,11,14)           109.1945         estimate D2E/DX2                !
 ! A25   A(11,14,15)           109.2096         estimate D2E/DX2                !
 ! A26   A(11,14,16)           109.2096         estimate D2E/DX2                !
 ! A27   A(11,14,17)           113.2685         estimate D2E/DX2                !
 ! A28   A(15,14,16)           105.9962         estimate D2E/DX2                !
 ! A29   A(15,14,17)           109.4494         estimate D2E/DX2                !
 ! A30   A(16,14,17)           109.4494         estimate D2E/DX2                !
 ! A31   A(14,17,18)           111.1823         estimate D2E/DX2                !
 ! A32   A(14,17,19)           111.1823         estimate D2E/DX2                !
 ! A33   A(18,17,19)           107.4766         estimate D2E/DX2                !
 ! D1    D(2,1,5,6)           -178.0268         estimate D2E/DX2                !
 ! D2    D(2,1,5,7)            -62.2647         estimate D2E/DX2                !
 ! D3    D(2,1,5,8)             59.8542         estimate D2E/DX2                !
 ! D4    D(3,1,5,6)             62.2647         estimate D2E/DX2                !
 ! D5    D(3,1,5,7)            178.0268         estimate D2E/DX2                !
 ! D6    D(3,1,5,8)            -59.8542         estimate D2E/DX2                !
 ! D7    D(4,1,5,6)            -57.881          estimate D2E/DX2                !
 ! D8    D(4,1,5,7)             57.881          estimate D2E/DX2                !
 ! D9    D(4,1,5,8)            180.0            estimate D2E/DX2                !
 ! D10   D(1,5,8,9)             57.7038         estimate D2E/DX2                !
 ! D11   D(1,5,8,10)           -57.7038         estimate D2E/DX2                !
 ! D12   D(1,5,8,11)           180.0            estimate D2E/DX2                !
 ! D13   D(6,5,8,9)            -64.5489         estimate D2E/DX2                !
 ! D14   D(6,5,8,10)          -179.9565         estimate D2E/DX2                !
 ! D15   D(6,5,8,11)            57.7473         estimate D2E/DX2                !
 ! D16   D(7,5,8,9)            179.9565         estimate D2E/DX2                !
 ! D17   D(7,5,8,10)            64.5489         estimate D2E/DX2                !
 ! D18   D(7,5,8,11)           -57.7473         estimate D2E/DX2                !
 ! D19   D(5,8,11,12)           57.7606         estimate D2E/DX2                !
 ! D20   D(5,8,11,13)          -57.7606         estimate D2E/DX2                !
 ! D21   D(5,8,11,14)          180.0            estimate D2E/DX2                !
 ! D22   D(9,8,11,12)          180.0            estimate D2E/DX2                !
 ! D23   D(9,8,11,13)           64.4789         estimate D2E/DX2                !
 ! D24   D(9,8,11,14)          -57.7606         estimate D2E/DX2                !
 ! D25   D(10,8,11,12)         -64.4789         estimate D2E/DX2                !
 ! D26   D(10,8,11,13)         180.0            estimate D2E/DX2                !
 ! D27   D(10,8,11,14)          57.7606         estimate D2E/DX2                !
 ! D28   D(8,11,14,15)          57.7473         estimate D2E/DX2                !
 ! D29   D(8,11,14,16)         -57.7473         estimate D2E/DX2                !
 ! D30   D(8,11,14,17)         180.0            estimate D2E/DX2                !
 ! D31   D(12,11,14,15)       -179.9565         estimate D2E/DX2                !
 ! D32   D(12,11,14,16)         64.5489         estimate D2E/DX2                !
 ! D33   D(12,11,14,17)        -57.7038         estimate D2E/DX2                !
 ! D34   D(13,11,14,15)        -64.5489         estimate D2E/DX2                !
 ! D35   D(13,11,14,16)        179.9565         estimate D2E/DX2                !
 ! D36   D(13,11,14,17)         57.7038         estimate D2E/DX2                !
 ! D37   D(11,14,17,18)         59.8542         estimate D2E/DX2                !
 ! D38   D(11,14,17,19)        -59.8542         estimate D2E/DX2                !
 ! D39   D(15,14,17,18)       -178.0268         estimate D2E/DX2                !
 ! D40   D(15,14,17,19)         62.2647         estimate D2E/DX2                !
 ! D41   D(16,14,17,18)        -62.2647         estimate D2E/DX2                !
 ! D42   D(16,14,17,19)        178.0268         estimate D2E/DX2                !
 --------------------------------------------------------------------------------
 Trust Radius=3.00D-01 FncErr=1.00D-07 GrdErr=1.00D-06
 Number of steps in this run=    103 maximum allowed number of steps=    114.
 GradGradGradGradGradGradGradGradGradGradGradGradGradGradGradGradGradGrad

 Leave Link  103 at Sat Nov  7 01:58:48 2015, MaxMem=   805306368 cpu:         0.1
 (Enter /home/hetanjin/apps/g09D01/g09/l202.exe)
                          Input orientation:                          
 ---------------------------------------------------------------------
 Center     Atomic      Atomic             Coordinates (Angstroms)
 Number     Number       Type             X           Y           Z
 ---------------------------------------------------------------------
      1          6           0       -1.414227    2.905083    0.000000
      2          1           0       -0.900497    3.301499   -0.884602
      3          1           0       -0.900497    3.301499    0.884602
      4          1           0       -2.434236    3.306282    0.000000
      5          6           0       -1.414227    1.372954    0.000000
      6          1           0       -1.965398    1.006883    0.877995
      7          1           0       -1.965398    1.006883   -0.877995
      8          6           0       -0.004893    0.766918    0.000000
      9          1           0        0.546827    1.134100    0.878477
     10          1           0        0.546827    1.134100   -0.878477
     11          6           0        0.004893   -0.766918    0.000000
     12          1           0       -0.546827   -1.134100   -0.878477
     13          1           0       -0.546827   -1.134100    0.878477
     14          6           0        1.414227   -1.372954    0.000000
     15          1           0        1.965398   -1.006883    0.877995
     16          1           0        1.965398   -1.006883   -0.877995
     17          6           0        1.414227   -2.905083    0.000000
     18          1           0        0.900497   -3.301499   -0.884602
     19          1           0        0.900497   -3.301499    0.884602
 ---------------------------------------------------------------------
                    Distance matrix (angstroms):
                    1          2          3          4          5
     1  C    0.000000
     2  H    1.097080   0.000000
     3  H    1.097080   1.769204   0.000000
     4  H    1.096074   1.770565   1.770565   0.000000
     5  C    1.532129   2.183054   2.183054   2.185904   0.000000
     6  H    2.162829   3.083184   2.529688   2.505578   1.099397
     7  H    2.162829   2.529688   3.083184   2.505578   1.099397
     8  C    2.560854   2.829970   2.829970   3.514268   1.534113
     9  H    2.784571   3.146556   2.606224   3.791679   2.162061
    10  H    2.784571   2.606224   3.146556   3.791679   2.162061
    11  C    3.936686   4.260783   4.260783   4.747663   2.567675
    12  H    4.223636   4.449681   4.786237   4.904185   2.794535
    13  H    4.223636   4.786237   4.449681   4.904185   2.794535
    14  C    5.128523   5.290650   5.290650   6.058541   3.942101
    15  H    5.243684   5.466467   5.174510   6.223427   4.225679
    16  H    5.243684   5.174510   5.466467   6.223427   4.225679
    17  C    6.462057   6.682973   6.682973   7.306964   5.128523
    18  H    6.682973   6.844206   7.069176   7.454243   5.290650
    19  H    6.682973   7.069176   6.844206   7.454243   5.290650
                    6          7          8          9         10
     6  H    0.000000
     7  H    1.755990   0.000000
     8  C    2.161490   2.161490   0.000000
     9  H    2.515444   3.068005   1.100427   0.000000
    10  H    3.068005   2.515444   1.100427   1.756954   0.000000
    11  C    2.792721   2.792721   1.533867   2.163165   2.163165
    12  H    3.111486   2.568298   2.163165   3.070456   2.518097
    13  H    2.568298   3.111486   2.163165   2.518097   3.070456
    14  C    4.225679   4.225679   2.567675   2.794535   2.794535
    15  H    4.416606   4.752885   2.792721   2.568298   3.111486
    16  H    4.752885   4.416606   2.792721   3.111486   2.568298
    17  C    5.243684   5.243684   3.936686   4.223636   4.223636
    18  H    5.466467   5.174510   4.260783   4.786237   4.449681
    19  H    5.174510   5.466467   4.260783   4.449681   4.786237
                   11         12         13         14         15
    11  C    0.000000
    12  H    1.100427   0.000000
    13  H    1.100427   1.756954   0.000000
    14  C    1.534113   2.162061   2.162061   0.000000
    15  H    2.161490   3.068005   2.515444   1.099397   0.000000
    16  H    2.161490   2.515444   3.068005   1.099397   1.755990
    17  C    2.560854   2.784571   2.784571   1.532129   2.162829
    18  H    2.829970   2.606224   3.146556   2.183054   3.083184
    19  H    2.829970   3.146556   2.606224   2.183054   2.529688
                   16         17         18         19
    16  H    0.000000
    17  C    2.162829   0.000000
    18  H    2.529688   1.097080   0.000000
    19  H    3.083184   1.097080   1.769204   0.000000
 Stoichiometry    C6H13(2)
 Framework group  CS[SG(C6H),X(H12)]
 Deg. of freedom    29
 Full point group                 CS      NOp   2
 Largest Abelian subgroup         CS      NOp   2
 Largest concise Abelian subgroup CS      NOp   2
                         Standard orientation:                         
 ---------------------------------------------------------------------
 Center     Atomic      Atomic             Coordinates (Angstroms)
 Number     Number       Type             X           Y           Z
 ---------------------------------------------------------------------
      1          6           0        1.364549    2.837608    0.000000
      2          1           0        0.850819    3.234024    0.884602
      3          1           0        0.850819    3.234024   -0.884602
      4          1           0        2.384558    3.238807    0.000000
      5          6           0        1.364549    1.305479    0.000000
      6          1           0        1.915720    0.939408   -0.877995
      7          1           0        1.915720    0.939408    0.877995
      8          6           0       -0.044785    0.699443    0.000000
      9          1           0       -0.596505    1.066625   -0.878477
     10          1           0       -0.596505    1.066625    0.878477
     11          6           0       -0.054571   -0.834393    0.000000
     12          1           0        0.497149   -1.201575    0.878477
     13          1           0        0.497149   -1.201575   -0.878477
     14          6           0       -1.463905   -1.440429    0.000000
     15          1           0       -2.015076   -1.074358   -0.877995
     16          1           0       -2.015076   -1.074358    0.877995
     17          6           0       -1.463905   -2.972558    0.000000
     18          1           0       -0.950175   -3.368974    0.884602
     19          1           0       -0.950175   -3.368974   -0.884602
 ---------------------------------------------------------------------
 Rotational constants (GHZ):     14.6815643      1.1691085      1.1281953
 Leave Link  202 at Sat Nov  7 01:58:48 2015, MaxMem=   805306368 cpu:         0.1
 (Enter /home/hetanjin/apps/g09D01/g09/l301.exe)
 Standard basis: 6-31G(d) (6D, 7F)
 Ernie: Thresh=  0.10000D-02 Tol=  0.10000D-05 Strict=F.
 There are    80 symmetry adapted cartesian basis functions of A'  symmetry.
 There are    36 symmetry adapted cartesian basis functions of A"  symmetry.
 There are    80 symmetry adapted basis functions of A'  symmetry.
 There are    36 symmetry adapted basis functions of A"  symmetry.
   116 basis functions,   220 primitive gaussians,   116 cartesian basis functions
    25 alpha electrons       24 beta electrons
       nuclear repulsion energy       234.3661698455 Hartrees.
 IExCor=  402 DFT=T Ex+Corr=B3LYP ExCW=0 ScaHFX=  0.200000
 ScaDFX=  0.800000  0.720000  1.000000  0.810000 ScalE2=  1.000000  1.000000
 IRadAn=      5 IRanWt=     -1 IRanGd=            0 ICorTp=0 IEmpDi=  4
 NAtoms=   19 NActive=   19 NUniq=   13 SFac= 2.14D+00 NAtFMM=   60 NAOKFM=F Big=F
 Integral buffers will be    131072 words long.
 Raffenetti 2 integral format.
 Two-electron integral symmetry is turned on.
 Leave Link  301 at Sat Nov  7 01:58:48 2015, MaxMem=   805306368 cpu:         0.3
 (Enter /home/hetanjin/apps/g09D01/g09/l302.exe)
 NPDir=0 NMtPBC=     1 NCelOv=     1 NCel=       1 NClECP=     1 NCelD=      1
         NCelK=      1 NCelE2=     1 NClLst=     1 CellRange=     0.0.
 One-electron integrals computed using PRISM.
 One-electron integral symmetry used in STVInt
 NBasis=   116 RedAO= T EigKep=  4.71D-03  NBF=    80    36
 NBsUse=   116 1.00D-06 EigRej= -1.00D+00 NBFU=    80    36
 Precomputing XC quadrature grid using
 IXCGrd= 4 IRadAn=           5 IRanWt=          -1 IRanGd=           0 AccXCQ= 0.00D+00.
 Generated NRdTot=       0 NPtTot=           0 NUsed=           0 NTot=          32
 NSgBfM=   116   116   116   116   116 MxSgAt=    19 MxSgA2=    19.
 Leave Link  302 at Sat Nov  7 01:58:48 2015, MaxMem=   805306368 cpu:         1.5
 (Enter /home/hetanjin/apps/g09D01/g09/l303.exe)
 DipDrv:  MaxL=1.
 Leave Link  303 at Sat Nov  7 01:58:48 2015, MaxMem=   805306368 cpu:         0.1
 (Enter /home/hetanjin/apps/g09D01/g09/l401.exe)
 ExpMin= 1.61D-01 ExpMax= 3.05D+03 ExpMxC= 4.57D+02 IAcc=3 IRadAn=         5 AccDes= 0.00D+00
 Harris functional with IExCor=  402 and IRadAn=       5 diagonalized for initial guess.
 HarFok:  IExCor=  402 AccDes= 0.00D+00 IRadAn=         5 IDoV= 1 UseB2=F ITyADJ=14
 ICtDFT=  3500011 ScaDFX=  1.000000  1.000000  1.000000  1.000000
 FoFCou: FMM=F IPFlag=           0 FMFlag=      100000 FMFlg1=           0
         NFxFlg=           0 DoJE=T BraDBF=F KetDBF=T FulRan=T
         wScrn=  0.000000 ICntrl=     500 IOpCl=  0 I1Cent=   200000004 NGrid=           0
         NMat0=    1 NMatS0=      1 NMatT0=    0 NMatD0=    1 NMtDS0=    0 NMtDT0=    0
 Petite list used in FoFCou.
 Harris En= -236.440204124178    
 JPrj=0 DoOrth=F DoCkMO=F.
 Initial guess orbital symmetries:
 Alpha Orbitals:
       Occupied  (A') (A') (A') (A') (A') (A') (A') (A') (A') (A')
                 (A') (A') (A") (A") (A') (A') (A") (A') (A') (A")
                 (A') (A') (A") (A") (A')
       Virtual   (A') (A') (A") (A') (A') (A') (A") (A') (A') (A')
                 (A") (A") (A") (A") (A') (A') (A') (A') (A') (A')
                 (A') (A") (A") (A') (A") (A') (A') (A') (A") (A')
                 (A') (A') (A") (A') (A") (A") (A') (A") (A') (A')
                 (A") (A') (A") (A') (A') (A") (A') (A') (A') (A")
                 (A') (A') (A") (A') (A') (A') (A') (A') (A") (A')
                 (A') (A") (A') (A') (A') (A") (A') (A') (A") (A')
                 (A") (A') (A") (A") (A') (A") (A") (A") (A") (A')
                 (A') (A') (A') (A') (A') (A') (A') (A') (A') (A')
                 (A')
 Beta  Orbitals:
       Occupied  (A') (A') (A') (A') (A') (A') (A') (A') (A') (A')
                 (A') (A') (A") (A") (A') (A') (A") (A') (A') (A")
                 (A') (A') (A") (A")
       Virtual   (A') (A') (A') (A") (A') (A') (A') (A") (A') (A')
                 (A') (A") (A") (A") (A") (A') (A') (A') (A') (A')
                 (A') (A') (A") (A") (A') (A") (A') (A') (A') (A")
                 (A') (A') (A') (A") (A') (A") (A") (A') (A") (A')
                 (A') (A") (A') (A") (A') (A') (A") (A') (A') (A')
                 (A") (A') (A') (A") (A') (A') (A') (A') (A') (A")
                 (A') (A') (A") (A') (A') (A') (A") (A') (A') (A")
                 (A') (A") (A') (A") (A") (A') (A") (A") (A") (A")
                 (A') (A') (A') (A') (A') (A') (A') (A') (A') (A')
                 (A') (A')
 The electronic state of the initial guess is 2-A'.
 Initial guess <Sx>= 0.0000 <Sy>= 0.0000 <Sz>= 0.5000 <S**2>= 0.7500 S= 0.5000
 Leave Link  401 at Sat Nov  7 01:58:50 2015, MaxMem=   805306368 cpu:         4.4
 (Enter /home/hetanjin/apps/g09D01/g09/l502.exe)
 UHF open shell SCF:
 Using DIIS extrapolation, IDIIS=  1040.
 Integral symmetry usage will be decided dynamically.
 Keep R1 and R2 ints in memory in symmetry-blocked form, NReq=35412769.
 IVT=       60684 IEndB=       60684 NGot=   805306368 MDV=   781672727
 LenX=   781672727 LenY=   781658830
 Requested convergence on RMS density matrix=1.00D-08 within 128 cycles.
 Requested convergence on MAX density matrix=1.00D-06.
 Requested convergence on             energy=1.00D-06.
 No special actions if energy rises.
 FoFCou: FMM=F IPFlag=           0 FMFlag=           0 FMFlg1=           0
         NFxFlg=           0 DoJE=F BraDBF=F KetDBF=F FulRan=T
         wScrn=  0.000000 ICntrl=     600 IOpCl=  0 I1Cent=           0 NGrid=           0
         NMat0=    1 NMatS0=   6786 NMatT0=    0 NMatD0=    1 NMtDS0=    0 NMtDT0=    0
 Petite list used in FoFCou.
 Integral accuracy reduced to 1.0D-05 until final iterations.

 Cycle   1  Pass 0  IDiag  1:
 E= -236.161017998988    
 DIIS: error= 5.31D-02 at cycle   1 NSaved=   1.
 NSaved= 1 IEnMin= 1 EnMin= -236.161017998988     IErMin= 1 ErrMin= 5.31D-02
 ErrMax= 5.31D-02  0.00D+00 EMaxC= 1.00D-01 BMatC= 8.42D-01 BMatP= 8.42D-01
 IDIUse=3 WtCom= 4.69D-01 WtEn= 5.31D-01
 Coeff-Com:  0.100D+01
 Coeff-En:   0.100D+01
 Coeff:      0.100D+01
 Gap=     0.290 Goal=   None    Shift=    0.000
 Gap=     0.230 Goal=   None    Shift=    0.000
 GapD=    0.230 DampG=1.000 DampE=0.500 DampFc=0.5000 IDamp=-1.
 Damping current iteration by 5.00D-01
 RMSDP=9.29D-03 MaxDP=1.39D-01              OVMax= 1.84D-01

 Cycle   2  Pass 0  IDiag  1:
 E= -236.269855009663     Delta-E=       -0.108837010675 Rises=F Damp=T
 DIIS: error= 9.10D-03 at cycle   2 NSaved=   2.
 NSaved= 2 IEnMin= 2 EnMin= -236.269855009663     IErMin= 2 ErrMin= 9.10D-03
 ErrMax= 9.10D-03  0.00D+00 EMaxC= 1.00D-01 BMatC= 3.68D-02 BMatP= 8.42D-01
 IDIUse=3 WtCom= 9.09D-01 WtEn= 9.10D-02
 Coeff-Com:  0.638D-01 0.936D+00
 Coeff-En:   0.101D+00 0.899D+00
 Coeff:      0.672D-01 0.933D+00
 Gap=     0.331 Goal=   None    Shift=    0.000
 Gap=     0.267 Goal=   None    Shift=    0.000
 RMSDP=1.36D-03 MaxDP=2.15D-02 DE=-1.09D-01 OVMax= 1.13D-01

 Cycle   3  Pass 0  IDiag  1:
 E= -236.401078356254     Delta-E=       -0.131223346591 Rises=F Damp=F
 DIIS: error= 3.46D-03 at cycle   3 NSaved=   3.
 NSaved= 3 IEnMin= 3 EnMin= -236.401078356254     IErMin= 3 ErrMin= 3.46D-03
 ErrMax= 3.46D-03  0.00D+00 EMaxC= 1.00D-01 BMatC= 5.25D-03 BMatP= 3.68D-02
 IDIUse=3 WtCom= 9.65D-01 WtEn= 3.46D-02
 Coeff-Com: -0.654D-02 0.208D+00 0.799D+00
 Coeff-En:   0.000D+00 0.000D+00 0.100D+01
 Coeff:     -0.631D-02 0.200D+00 0.806D+00
 Gap=     0.324 Goal=   None    Shift=    0.000
 Gap=     0.251 Goal=   None    Shift=    0.000
 RMSDP=5.72D-04 MaxDP=1.66D-02 DE=-1.31D-01 OVMax= 1.82D-02

 Cycle   4  Pass 0  IDiag  1:
 E= -236.401855156777     Delta-E=       -0.000776800523 Rises=F Damp=F
 DIIS: error= 2.03D-03 at cycle   4 NSaved=   4.
 NSaved= 4 IEnMin= 4 EnMin= -236.401855156777     IErMin= 4 ErrMin= 2.03D-03
 ErrMax= 2.03D-03  0.00D+00 EMaxC= 1.00D-01 BMatC= 2.43D-03 BMatP= 5.25D-03
 IDIUse=3 WtCom= 9.80D-01 WtEn= 2.03D-02
 Coeff-Com: -0.654D-02 0.348D-01 0.416D+00 0.556D+00
 Coeff-En:   0.000D+00 0.000D+00 0.300D+00 0.700D+00
 Coeff:     -0.641D-02 0.341D-01 0.413D+00 0.559D+00
 Gap=     0.316 Goal=   None    Shift=    0.000
 Gap=     0.258 Goal=   None    Shift=    0.000
 RMSDP=2.24D-04 MaxDP=6.65D-03 DE=-7.77D-04 OVMax= 7.88D-03

 Cycle   5  Pass 0  IDiag  1:
 E= -236.402491750506     Delta-E=       -0.000636593729 Rises=F Damp=F
 DIIS: error= 2.78D-04 at cycle   5 NSaved=   5.
 NSaved= 5 IEnMin= 5 EnMin= -236.402491750506     IErMin= 5 ErrMin= 2.78D-04
 ErrMax= 2.78D-04  0.00D+00 EMaxC= 1.00D-01 BMatC= 5.44D-05 BMatP= 2.43D-03
 IDIUse=3 WtCom= 9.97D-01 WtEn= 2.78D-03
 Coeff-Com: -0.133D-02-0.273D-02 0.757D-01 0.177D+00 0.751D+00
 Coeff-En:   0.000D+00 0.000D+00 0.000D+00 0.000D+00 0.100D+01
 Coeff:     -0.133D-02-0.272D-02 0.755D-01 0.177D+00 0.752D+00
 Gap=     0.316 Goal=   None    Shift=    0.000
 Gap=     0.258 Goal=   None    Shift=    0.000
 RMSDP=3.96D-05 MaxDP=9.33D-04 DE=-6.37D-04 OVMax= 1.04D-03

 Cycle   6  Pass 0  IDiag  1:
 E= -236.402505852192     Delta-E=       -0.000014101685 Rises=F Damp=F
 DIIS: error= 1.08D-04 at cycle   6 NSaved=   6.
 NSaved= 6 IEnMin= 6 EnMin= -236.402505852192     IErMin= 6 ErrMin= 1.08D-04
 ErrMax= 1.08D-04  0.00D+00 EMaxC= 1.00D-01 BMatC= 6.93D-06 BMatP= 5.44D-05
 IDIUse=3 WtCom= 9.99D-01 WtEn= 1.08D-03
 Coeff-Com: -0.166D-03-0.320D-02 0.197D-02 0.339D-01 0.291D+00 0.677D+00
 Coeff-En:   0.000D+00 0.000D+00 0.000D+00 0.000D+00 0.000D+00 0.100D+01
 Coeff:     -0.166D-03-0.319D-02 0.197D-02 0.339D-01 0.290D+00 0.677D+00
 Gap=     0.317 Goal=   None    Shift=    0.000
 Gap=     0.258 Goal=   None    Shift=    0.000
 RMSDP=1.52D-05 MaxDP=4.13D-04 DE=-1.41D-05 OVMax= 3.69D-04

 Cycle   7  Pass 0  IDiag  1:
 E= -236.402507859851     Delta-E=       -0.000002007660 Rises=F Damp=F
 DIIS: error= 4.99D-05 at cycle   7 NSaved=   7.
 NSaved= 7 IEnMin= 7 EnMin= -236.402507859851     IErMin= 7 ErrMin= 4.99D-05
 ErrMax= 4.99D-05  0.00D+00 EMaxC= 1.00D-01 BMatC= 1.13D-06 BMatP= 6.93D-06
 IDIUse=1 WtCom= 1.00D+00 WtEn= 0.00D+00
 Coeff-Com:  0.241D-03-0.211D-03-0.196D-01-0.354D-01-0.107D+00 0.230D+00
 Coeff-Com:  0.932D+00
 Coeff:      0.241D-03-0.211D-03-0.196D-01-0.354D-01-0.107D+00 0.230D+00
 Coeff:      0.932D+00
 Gap=     0.317 Goal=   None    Shift=    0.000
 Gap=     0.258 Goal=   None    Shift=    0.000
 RMSDP=7.57D-06 MaxDP=2.59D-04 DE=-2.01D-06 OVMax= 2.30D-04

 Initial convergence to 1.0D-05 achieved.  Increase integral accuracy.
 Cycle   8  Pass 1  IDiag  1:
 E= -236.402486638511     Delta-E=        0.000021221340 Rises=F Damp=F
 DIIS: error= 7.60D-06 at cycle   1 NSaved=   1.
 NSaved= 1 IEnMin= 1 EnMin= -236.402486638511     IErMin= 1 ErrMin= 7.60D-06
 ErrMax= 7.60D-06  0.00D+00 EMaxC= 1.00D-01 BMatC= 6.05D-08 BMatP= 6.05D-08
 IDIUse=1 WtCom= 1.00D+00 WtEn= 0.00D+00
 Coeff-Com:  0.100D+01
 Coeff:      0.100D+01
 Gap=     0.317 Goal=   None    Shift=    0.000
 Gap=     0.258 Goal=   None    Shift=    0.000
 RMSDP=7.57D-06 MaxDP=2.59D-04 DE= 2.12D-05 OVMax= 4.66D-05

 Cycle   9  Pass 1  IDiag  1:
 E= -236.402486654675     Delta-E=       -0.000000016164 Rises=F Damp=F
 DIIS: error= 7.12D-06 at cycle   2 NSaved=   2.
 NSaved= 2 IEnMin= 2 EnMin= -236.402486654675     IErMin= 2 ErrMin= 7.12D-06
 ErrMax= 7.12D-06  0.00D+00 EMaxC= 1.00D-01 BMatC= 3.45D-08 BMatP= 6.05D-08
 IDIUse=1 WtCom= 1.00D+00 WtEn= 0.00D+00
 Coeff-Com:  0.409D+00 0.591D+00
 Coeff:      0.409D+00 0.591D+00
 Gap=     0.317 Goal=   None    Shift=    0.000
 Gap=     0.258 Goal=   None    Shift=    0.000
 RMSDP=1.06D-06 MaxDP=1.97D-05 DE=-1.62D-08 OVMax= 2.47D-05

 Cycle  10  Pass 1  IDiag  1:
 E= -236.402486663201     Delta-E=       -0.000000008526 Rises=F Damp=F
 DIIS: error= 2.80D-06 at cycle   3 NSaved=   3.
 NSaved= 3 IEnMin= 3 EnMin= -236.402486663201     IErMin= 3 ErrMin= 2.80D-06
 ErrMax= 2.80D-06  0.00D+00 EMaxC= 1.00D-01 BMatC= 4.78D-09 BMatP= 3.45D-08
 IDIUse=1 WtCom= 1.00D+00 WtEn= 0.00D+00
 Coeff-Com: -0.281D-01 0.223D+00 0.805D+00
 Coeff:     -0.281D-01 0.223D+00 0.805D+00
 Gap=     0.317 Goal=   None    Shift=    0.000
 Gap=     0.258 Goal=   None    Shift=    0.000
 RMSDP=4.09D-07 MaxDP=9.28D-06 DE=-8.53D-09 OVMax= 9.73D-06

 Cycle  11  Pass 1  IDiag  1:
 E= -236.402486664757     Delta-E=       -0.000000001556 Rises=F Damp=F
 DIIS: error= 8.77D-07 at cycle   4 NSaved=   4.
 NSaved= 4 IEnMin= 4 EnMin= -236.402486664757     IErMin= 4 ErrMin= 8.77D-07
 ErrMax= 8.77D-07  0.00D+00 EMaxC= 1.00D-01 BMatC= 5.71D-10 BMatP= 4.78D-09
 IDIUse=1 WtCom= 1.00D+00 WtEn= 0.00D+00
 Coeff-Com: -0.787D-01-0.316D-01 0.249D+00 0.862D+00
 Coeff:     -0.787D-01-0.316D-01 0.249D+00 0.862D+00
 Gap=     0.317 Goal=   None    Shift=    0.000
 Gap=     0.258 Goal=   None    Shift=    0.000
 RMSDP=1.85D-07 MaxDP=5.64D-06 DE=-1.56D-09 OVMax= 4.84D-06

 Cycle  12  Pass 1  IDiag  1:
 E= -236.402486665006     Delta-E=       -0.000000000249 Rises=F Damp=F
 DIIS: error= 3.28D-07 at cycle   5 NSaved=   5.
 NSaved= 5 IEnMin= 5 EnMin= -236.402486665006     IErMin= 5 ErrMin= 3.28D-07
 ErrMax= 3.28D-07  0.00D+00 EMaxC= 1.00D-01 BMatC= 4.17D-11 BMatP= 5.71D-10
 IDIUse=1 WtCom= 1.00D+00 WtEn= 0.00D+00
 Coeff-Com: -0.115D-01-0.302D-01-0.383D-01 0.155D+00 0.925D+00
 Coeff:     -0.115D-01-0.302D-01-0.383D-01 0.155D+00 0.925D+00
 Gap=     0.317 Goal=   None    Shift=    0.000
 Gap=     0.258 Goal=   None    Shift=    0.000
 RMSDP=5.62D-08 MaxDP=2.21D-06 DE=-2.49D-10 OVMax= 1.74D-06

 Cycle  13  Pass 1  IDiag  1:
 E= -236.402486665022     Delta-E=       -0.000000000015 Rises=F Damp=F
 DIIS: error= 1.85D-07 at cycle   6 NSaved=   6.
 NSaved= 6 IEnMin= 6 EnMin= -236.402486665022     IErMin= 6 ErrMin= 1.85D-07
 ErrMax= 1.85D-07  0.00D+00 EMaxC= 1.00D-01 BMatC= 1.78D-11 BMatP= 4.17D-11
 IDIUse=1 WtCom= 1.00D+00 WtEn= 0.00D+00
 Coeff-Com:  0.394D-02-0.124D-01-0.523D-01-0.253D-01 0.496D+00 0.590D+00
 Coeff:      0.394D-02-0.124D-01-0.523D-01-0.253D-01 0.496D+00 0.590D+00
 Gap=     0.317 Goal=   None    Shift=    0.000
 Gap=     0.258 Goal=   None    Shift=    0.000
 RMSDP=2.01D-08 MaxDP=6.37D-07 DE=-1.52D-11 OVMax= 5.59D-07

 Cycle  14  Pass 1  IDiag  1:
 E= -236.402486665024     Delta-E=       -0.000000000002 Rises=F Damp=F
 DIIS: error= 1.97D-08 at cycle   7 NSaved=   7.
 NSaved= 7 IEnMin= 7 EnMin= -236.402486665024     IErMin= 7 ErrMin= 1.97D-08
 ErrMax= 1.97D-08  0.00D+00 EMaxC= 1.00D-01 BMatC= 2.26D-13 BMatP= 1.78D-11
 IDIUse=1 WtCom= 1.00D+00 WtEn= 0.00D+00
 Coeff-Com:  0.141D-02-0.256D-02-0.134D-01-0.116D-01 0.110D+00 0.170D+00
 Coeff-Com:  0.746D+00
 Coeff:      0.141D-02-0.256D-02-0.134D-01-0.116D-01 0.110D+00 0.170D+00
 Coeff:      0.746D+00
 Gap=     0.317 Goal=   None    Shift=    0.000
 Gap=     0.258 Goal=   None    Shift=    0.000
 RMSDP=3.34D-09 MaxDP=7.06D-08 DE=-1.99D-12 OVMax= 7.63D-08

 SCF Done:  E(UB3LYP) =  -236.402486665     A.U. after   14 cycles
            NFock= 14  Conv=0.33D-08     -V/T= 2.0104
 <Sx>= 0.0000 <Sy>= 0.0000 <Sz>= 0.5000 <S**2>= 0.7527 S= 0.5014
 <L.S>= 0.000000000000E+00
 KE= 2.339635600424D+02 PE=-1.014205602808D+03 EE= 3.094733862549D+02
 Annihilation of the first spin contaminant:
 S**2 before annihilation     0.7527,   after     0.7500
 Leave Link  502 at Sat Nov  7 01:59:11 2015, MaxMem=   805306368 cpu:        81.3
 (Enter /home/hetanjin/apps/g09D01/g09/l601.exe)
 Copying SCF densities to generalized density rwf, IOpCl= 1 IROHF=0.

 **********************************************************************

            Population analysis using the SCF density.

 **********************************************************************

 Orbital symmetries:
 Alpha Orbitals:
       Occupied  (A') (A') (A') (A') (A') (A') (A') (A') (A') (A')
                 (A') (A') (A") (A") (A') (A') (A") (A') (A") (A')
                 (A") (A') (A') (A") (A')
       Virtual   (A') (A') (A") (A') (A') (A") (A') (A') (A') (A")
                 (A") (A") (A") (A') (A') (A') (A') (A') (A') (A')
                 (A') (A") (A") (A") (A') (A') (A') (A") (A') (A')
                 (A') (A') (A") (A') (A") (A") (A') (A") (A') (A")
                 (A') (A") (A') (A') (A") (A') (A') (A') (A') (A")
                 (A') (A') (A") (A') (A') (A') (A') (A') (A") (A')
                 (A') (A") (A') (A') (A') (A") (A') (A") (A') (A')
                 (A") (A') (A") (A") (A') (A") (A") (A") (A") (A')
                 (A') (A') (A') (A') (A') (A') (A') (A') (A') (A')
                 (A')
 Beta  Orbitals:
       Occupied  (A') (A') (A') (A') (A') (A') (A') (A') (A') (A')
                 (A') (A') (A") (A") (A') (A') (A") (A') (A") (A')
                 (A") (A') (A") (A')
       Virtual   (A') (A') (A') (A") (A') (A') (A") (A') (A') (A')
                 (A") (A") (A") (A") (A') (A') (A') (A') (A') (A')
                 (A') (A') (A") (A") (A") (A') (A') (A') (A") (A')
                 (A') (A') (A') (A") (A') (A") (A") (A') (A") (A')
                 (A") (A') (A") (A') (A") (A') (A') (A') (A') (A')
                 (A") (A') (A') (A") (A') (A') (A') (A') (A') (A")
                 (A') (A') (A") (A') (A') (A') (A") (A') (A') (A")
                 (A') (A") (A') (A") (A") (A') (A") (A") (A") (A")
                 (A') (A') (A') (A') (A') (A') (A') (A') (A') (A')
                 (A') (A')
 The electronic state is 2-A'.
 Alpha  occ. eigenvalues --  -10.19426 -10.18330 -10.18243 -10.17999 -10.17922
 Alpha  occ. eigenvalues --  -10.17295  -0.80514  -0.76490  -0.70313  -0.63131
 Alpha  occ. eigenvalues --   -0.57905  -0.57546  -0.47863  -0.44517  -0.42699
 Alpha  occ. eigenvalues --   -0.41001  -0.40013  -0.38011  -0.35615  -0.35367
 Alpha  occ. eigenvalues --   -0.32836  -0.32706  -0.32423  -0.32152  -0.22642
 Alpha virt. eigenvalues --    0.09020   0.10713   0.11903   0.12904   0.13816
 Alpha virt. eigenvalues --    0.15976   0.16583   0.18168   0.18587   0.19022
 Alpha virt. eigenvalues --    0.19722   0.20142   0.20361   0.22594   0.24089
 Alpha virt. eigenvalues --    0.25477   0.28106   0.29447   0.49451   0.49844
 Alpha virt. eigenvalues --    0.51538   0.54916   0.55791   0.57526   0.57870
 Alpha virt. eigenvalues --    0.58517   0.60545   0.65265   0.65599   0.68821
 Alpha virt. eigenvalues --    0.69256   0.75398   0.76786   0.79585   0.81585
 Alpha virt. eigenvalues --    0.84416   0.87998   0.88173   0.89692   0.92065
 Alpha virt. eigenvalues --    0.92780   0.93218   0.93285   0.95121   0.95263
 Alpha virt. eigenvalues --    0.95822   0.97107   0.98576   1.00879   1.14862
 Alpha virt. eigenvalues --    1.25705   1.35196   1.40199   1.43247   1.45090
 Alpha virt. eigenvalues --    1.49984   1.52688   1.62840   1.75357   1.78014
 Alpha virt. eigenvalues --    1.83074   1.86978   1.88967   1.92873   1.94100
 Alpha virt. eigenvalues --    1.94167   1.97903   2.01541   2.01780   2.03053
 Alpha virt. eigenvalues --    2.09940   2.11214   2.22739   2.24926   2.28436
 Alpha virt. eigenvalues --    2.33061   2.33342   2.41966   2.42309   2.43546
 Alpha virt. eigenvalues --    2.55924   2.60072   2.62720   2.76953   2.81242
 Alpha virt. eigenvalues --    4.08538   4.15928   4.26210   4.35008   4.43402
 Alpha virt. eigenvalues --    4.55191
  Beta  occ. eigenvalues --  -10.18274 -10.18198 -10.17993 -10.17979 -10.17897
  Beta  occ. eigenvalues --  -10.17292  -0.80223  -0.75928  -0.69409  -0.61982
  Beta  occ. eigenvalues --   -0.57513  -0.56965  -0.47749  -0.44270  -0.42534
  Beta  occ. eigenvalues --   -0.40405  -0.39638  -0.37550  -0.35293  -0.34876
  Beta  occ. eigenvalues --   -0.32663  -0.32549  -0.32104  -0.31744
  Beta virt. eigenvalues --   -0.05933   0.09086   0.10943   0.11987   0.13012
  Beta virt. eigenvalues --    0.14212   0.16199   0.16696   0.18470   0.18707
  Beta virt. eigenvalues --    0.19279   0.19912   0.20201   0.20928   0.22949
  Beta virt. eigenvalues --    0.24436   0.25797   0.28714   0.30143   0.49836
  Beta virt. eigenvalues --    0.50207   0.52297   0.55020   0.55954   0.57807
  Beta virt. eigenvalues --    0.58630   0.61129   0.63638   0.65620   0.66311
  Beta virt. eigenvalues --    0.69294   0.69775   0.75731   0.77055   0.79877
  Beta virt. eigenvalues --    0.81688   0.84526   0.88103   0.88506   0.89750
  Beta virt. eigenvalues --    0.92510   0.92931   0.93413   0.93977   0.95516
  Beta virt. eigenvalues --    0.95774   0.95962   0.97578   0.98681   1.01065
  Beta virt. eigenvalues --    1.15534   1.26698   1.35792   1.40945   1.43385
  Beta virt. eigenvalues --    1.45465   1.50241   1.53465   1.64009   1.75972
  Beta virt. eigenvalues --    1.80456   1.84388   1.87816   1.89397   1.93164
  Beta virt. eigenvalues --    1.94993   1.95181   1.98943   2.02449   2.02615
  Beta virt. eigenvalues --    2.04840   2.10770   2.13570   2.22973   2.25793
  Beta virt. eigenvalues --    2.29339   2.33239   2.34117   2.42284   2.42505
  Beta virt. eigenvalues --    2.44554   2.56298   2.60286   2.63414   2.77403
  Beta virt. eigenvalues --    2.81647   4.09900   4.17011   4.27084   4.35419
  Beta virt. eigenvalues --    4.43593   4.55328
          Condensed to atoms (all electrons):
               1          2          3          4          5          6
     1  C    5.063608   0.377608   0.377608   0.371952   0.371730  -0.038414
     2  H    0.377608   0.578392  -0.032797  -0.031223  -0.034741   0.005245
     3  H    0.377608  -0.032797   0.578392  -0.031223  -0.034741  -0.004494
     4  H    0.371952  -0.031223  -0.031223   0.576581  -0.027192  -0.002717
     5  C    0.371730  -0.034741  -0.034741  -0.027192   4.952884   0.376679
     6  H   -0.038414   0.005245  -0.004494  -0.002717   0.376679   0.611444
     7  H   -0.038414  -0.004494   0.005245  -0.002717   0.376679  -0.040068
     8  C   -0.041767  -0.004516  -0.004516   0.004070   0.385323  -0.040419
     9  H   -0.002832  -0.000394   0.004849  -0.000034  -0.040342  -0.005474
    10  H   -0.002832   0.004849  -0.000394  -0.000034  -0.040342   0.005950
    11  C    0.003511   0.000032   0.000032  -0.000129  -0.034755  -0.003518
    12  H    0.000033   0.000003   0.000006   0.000002  -0.003484  -0.000454
    13  H    0.000033   0.000006   0.000003   0.000002  -0.003484   0.005079
    14  C   -0.000112   0.000001   0.000001   0.000001   0.003278   0.000022
    15  H    0.000001   0.000000  -0.000001   0.000000   0.000025   0.000004
    16  H    0.000001  -0.000001   0.000000   0.000000   0.000025   0.000005
    17  C    0.000001   0.000000   0.000000   0.000000  -0.000114   0.000000
    18  H    0.000000   0.000000   0.000000   0.000000   0.000003   0.000000
    19  H    0.000000   0.000000   0.000000   0.000000   0.000003  -0.000001
               7          8          9         10         11         12
     1  C   -0.038414  -0.041767  -0.002832  -0.002832   0.003511   0.000033
     2  H   -0.004494  -0.004516  -0.000394   0.004849   0.000032   0.000003
     3  H    0.005245  -0.004516   0.004849  -0.000394   0.000032   0.000006
     4  H   -0.002717   0.004070  -0.000034  -0.000034  -0.000129   0.000002
     5  C    0.376679   0.385323  -0.040342  -0.040342  -0.034755  -0.003484
     6  H   -0.040068  -0.040419  -0.005474   0.005950  -0.003518  -0.000454
     7  H    0.611444  -0.040419   0.005950  -0.005474  -0.003518   0.005079
     8  C   -0.040419   4.980106   0.373068   0.373068   0.375378  -0.038402
     9  H    0.005950   0.373068   0.614699  -0.040487  -0.040031   0.005897
    10  H   -0.005474   0.373068  -0.040487   0.614699  -0.040031  -0.005367
    11  C   -0.003518   0.375378  -0.040031  -0.040031   5.011578   0.370778
    12  H    0.005079  -0.038402   0.005897  -0.005367   0.370778   0.613658
    13  H   -0.000454  -0.038402  -0.005367   0.005897   0.370778  -0.040607
    14  C    0.000022  -0.034643  -0.003282  -0.003282   0.369762  -0.040445
    15  H    0.000005  -0.003727   0.005142  -0.000456  -0.039458   0.005989
    16  H    0.000004  -0.003727  -0.000456   0.005142  -0.039458  -0.005513
    17  C    0.000000   0.003883   0.000039   0.000039  -0.044741  -0.002342
    18  H   -0.000001  -0.000047   0.000007   0.000003  -0.002262   0.005030
    19  H    0.000000  -0.000047   0.000003   0.000007  -0.002262  -0.000504
              13         14         15         16         17         18
     1  C    0.000033  -0.000112   0.000001   0.000001   0.000001   0.000000
     2  H    0.000006   0.000001   0.000000  -0.000001   0.000000   0.000000
     3  H    0.000003   0.000001  -0.000001   0.000000   0.000000   0.000000
     4  H    0.000002   0.000001   0.000000   0.000000   0.000000   0.000000
     5  C   -0.003484   0.003278   0.000025   0.000025  -0.000114   0.000003
     6  H    0.005079   0.000022   0.000004   0.000005   0.000000   0.000000
     7  H   -0.000454   0.000022   0.000005   0.000004   0.000000  -0.000001
     8  C   -0.038402  -0.034643  -0.003727  -0.003727   0.003883  -0.000047
     9  H   -0.005367  -0.003282   0.005142  -0.000456   0.000039   0.000007
    10  H    0.005897  -0.003282  -0.000456   0.005142   0.000039   0.000003
    11  C    0.370778   0.369762  -0.039458  -0.039458  -0.044741  -0.002262
    12  H   -0.040607  -0.040445   0.005989  -0.005513  -0.002342   0.005030
    13  H    0.613658  -0.040445  -0.005513   0.005989  -0.002342  -0.000504
    14  C   -0.040445   4.990730   0.372300   0.372300   0.381324  -0.044467
    15  H   -0.005513   0.372300   0.604936  -0.039681  -0.036854   0.005397
    16  H    0.005989   0.372300  -0.039681   0.604936  -0.036854  -0.005607
    17  C   -0.002342   0.381324  -0.036854  -0.036854   5.298150   0.361492
    18  H   -0.000504  -0.044467   0.005397  -0.005607   0.361492   0.596000
    19  H    0.005030  -0.044467  -0.005607   0.005397   0.361492  -0.046808
              19
     1  C    0.000000
     2  H    0.000000
     3  H    0.000000
     4  H    0.000000
     5  C    0.000003
     6  H   -0.000001
     7  H    0.000000
     8  C   -0.000047
     9  H    0.000003
    10  H    0.000007
    11  C   -0.002262
    12  H   -0.000504
    13  H    0.005030
    14  C   -0.044467
    15  H   -0.005607
    16  H    0.005397
    17  C    0.361492
    18  H   -0.046808
    19  H    0.596000
          Atomic-Atomic Spin Densities.
               1          2          3          4          5          6
     1  C    0.004069  -0.000021  -0.000021  -0.000520  -0.001782  -0.000134
     2  H   -0.000021  -0.000080   0.000007   0.000009   0.000025  -0.000001
     3  H   -0.000021   0.000007  -0.000080   0.000009   0.000025   0.000001
     4  H   -0.000520   0.000009   0.000009   0.000824   0.000096   0.000022
     5  C   -0.001782   0.000025   0.000025   0.000096   0.006138   0.000236
     6  H   -0.000134  -0.000001   0.000001   0.000022   0.000236  -0.000053
     7  H   -0.000134   0.000001  -0.000001   0.000022   0.000236   0.000025
     8  C   -0.000136   0.000002   0.000002   0.000006  -0.003378  -0.000103
     9  H    0.000054   0.000000  -0.000001  -0.000003  -0.000161   0.000000
    10  H    0.000054  -0.000001   0.000000  -0.000003  -0.000161  -0.000004
    11  C   -0.000094   0.000000   0.000000   0.000003   0.001266  -0.000017
    12  H    0.000016   0.000000   0.000000  -0.000001  -0.000256  -0.000008
    13  H    0.000016   0.000000   0.000000  -0.000001  -0.000256  -0.000026
    14  C    0.000002   0.000000   0.000000   0.000000   0.000026   0.000004
    15  H    0.000001   0.000000   0.000000   0.000000  -0.000034  -0.000001
    16  H    0.000001   0.000000   0.000000   0.000000  -0.000034   0.000000
    17  C    0.000001   0.000000   0.000000   0.000000  -0.000058  -0.000002
    18  H    0.000000   0.000000   0.000000   0.000000  -0.000002   0.000000
    19  H    0.000000   0.000000   0.000000   0.000000  -0.000002   0.000000
               7          8          9         10         11         12
     1  C   -0.000134  -0.000136   0.000054   0.000054  -0.000094   0.000016
     2  H    0.000001   0.000002   0.000000  -0.000001   0.000000   0.000000
     3  H   -0.000001   0.000002  -0.000001   0.000000   0.000000   0.000000
     4  H    0.000022   0.000006  -0.000003  -0.000003   0.000003  -0.000001
     5  C    0.000236  -0.003378  -0.000161  -0.000161   0.001266  -0.000256
     6  H    0.000025  -0.000103   0.000000  -0.000004  -0.000017  -0.000008
     7  H   -0.000053  -0.000103  -0.000004   0.000000  -0.000017  -0.000026
     8  C   -0.000103   0.025326   0.000182   0.000182  -0.013426   0.001391
     9  H   -0.000004   0.000182  -0.000633   0.000033  -0.000004  -0.000012
    10  H    0.000000   0.000182   0.000033  -0.000633  -0.000004   0.000037
    11  C   -0.000017  -0.013426  -0.000004  -0.000004   0.086365  -0.003071
    12  H   -0.000026   0.001391  -0.000012   0.000037  -0.003071  -0.002163
    13  H   -0.000008   0.001391   0.000037  -0.000012  -0.003071   0.000620
    14  C    0.000004  -0.002109  -0.000068  -0.000068   0.018157  -0.000027
    15  H    0.000000   0.000909   0.000035   0.000009  -0.005289   0.000067
    16  H   -0.000001   0.000909   0.000009   0.000035  -0.005289   0.000201
    17  C   -0.000002   0.001900   0.000016   0.000016  -0.027001   0.001779
    18  H    0.000000   0.000086   0.000000   0.000001  -0.001864   0.000168
    19  H    0.000000   0.000086   0.000001   0.000000  -0.001864   0.000126
              13         14         15         16         17         18
     1  C    0.000016   0.000002   0.000001   0.000001   0.000001   0.000000
     2  H    0.000000   0.000000   0.000000   0.000000   0.000000   0.000000
     3  H    0.000000   0.000000   0.000000   0.000000   0.000000   0.000000
     4  H   -0.000001   0.000000   0.000000   0.000000   0.000000   0.000000
     5  C   -0.000256   0.000026  -0.000034  -0.000034  -0.000058  -0.000002
     6  H   -0.000026   0.000004  -0.000001   0.000000  -0.000002   0.000000
     7  H   -0.000008   0.000004   0.000000  -0.000001  -0.000002   0.000000
     8  C    0.001391  -0.002109   0.000909   0.000909   0.001900   0.000086
     9  H    0.000037  -0.000068   0.000035   0.000009   0.000016   0.000000
    10  H   -0.000012  -0.000068   0.000009   0.000035   0.000016   0.000001
    11  C   -0.003071   0.018157  -0.005289  -0.005289  -0.027001  -0.001864
    12  H    0.000620  -0.000027   0.000067   0.000201   0.001779   0.000168
    13  H   -0.002163  -0.000027   0.000201   0.000067   0.001779   0.000126
    14  C   -0.000027  -0.045288   0.004027   0.004027  -0.031103   0.000409
    15  H    0.000201   0.004027   0.007136   0.001127  -0.003178   0.000058
    16  H    0.000067   0.004027   0.001127   0.007136  -0.003178   0.000944
    17  C    0.001779  -0.031103  -0.003178  -0.003178   1.123913  -0.011025
    18  H    0.000126   0.000409   0.000058   0.000944  -0.011025  -0.025596
    19  H    0.000168   0.000409   0.000944   0.000058  -0.011025   0.006057
              19
     1  C    0.000000
     2  H    0.000000
     3  H    0.000000
     4  H    0.000000
     5  C   -0.000002
     6  H    0.000000
     7  H    0.000000
     8  C    0.000086
     9  H    0.000001
    10  H    0.000000
    11  C   -0.001864
    12  H    0.000126
    13  H    0.000168
    14  C    0.000409
    15  H    0.000944
    16  H    0.000058
    17  C   -0.011025
    18  H    0.006057
    19  H   -0.025596
 Mulliken charges and spin densities:
               1          2
     1  C   -0.441716   0.001372
     2  H    0.142031  -0.000059
     3  H    0.142031  -0.000059
     4  H    0.142661   0.000465
     5  C   -0.247436   0.001924
     6  H    0.131130  -0.000061
     7  H    0.131130  -0.000061
     8  C   -0.244264   0.013116
     9  H    0.129043  -0.000522
    10  H    0.129043  -0.000522
    11  C   -0.251684   0.044776
    12  H    0.130642  -0.001161
    13  H    0.130642  -0.001161
    14  C   -0.278598  -0.051623
    15  H    0.137496   0.006010
    16  H    0.137496   0.006010
    17  C   -0.283174   1.042831
    18  H    0.131764  -0.030639
    19  H    0.131764  -0.030639
 Sum of Mulliken charges =   0.00000   1.00000
 Mulliken charges and spin densities with hydrogens summed into heavy atoms:
               1          2
     1  C   -0.014993   0.001720
     5  C    0.014824   0.001801
     8  C    0.013822   0.012073
    11  C    0.009599   0.042454
    14  C   -0.003606  -0.039602
    17  C   -0.019646   0.981554
 Electronic spatial extent (au):  <R**2>=           1084.7506
 Charge=              0.0000 electrons
 Dipole moment (field-independent basis, Debye):
    X=              0.6597    Y=              0.5564    Z=              0.0000  Tot=              0.8630
 Quadrupole moment (field-independent basis, Debye-Ang):
   XX=            -42.8276   YY=            -43.6682   ZZ=            -39.8475
   XY=             -2.5877   XZ=              0.0000   YZ=              0.0000
 Traceless Quadrupole moment (field-independent basis, Debye-Ang):
   XX=             -0.7132   YY=             -1.5537   ZZ=              2.2669
   XY=             -2.5877   XZ=              0.0000   YZ=              0.0000
 Octapole moment (field-independent basis, Debye-Ang**2):
  XXX=              7.1842  YYY=             10.1773  ZZZ=              0.0000  XYY=             10.0586
  XXY=              8.6307  XXZ=              0.0000  XZZ=              0.0942  YZZ=              0.1497
  YYZ=              0.0000  XYZ=              0.0000
 Hexadecapole moment (field-independent basis, Debye-Ang**3):
 XXXX=           -421.9277 YYYY=          -1074.1110 ZZZZ=            -82.9350 XXXY=           -262.4530
 XXXZ=              0.0000 YYYX=           -285.8971 YYYZ=              0.0000 ZZZX=              0.0000
 ZZZY=              0.0000 XXYY=           -264.3883 XXZZ=            -81.3417 YYZZ=           -179.1742
 XXYZ=              0.0000 YYXZ=              0.0000 ZZXY=            -83.7103
 N-N= 2.343661698455D+02 E-N=-1.014205606388D+03  KE= 2.339635600424D+02
 Symmetry A'   KE= 2.221667109459D+02
 Symmetry A"   KE= 1.179684909653D+01
                          Isotropic Fermi Contact Couplings
        Atom                 a.u.       MegaHertz       Gauss      10(-4) cm-1
     1  C(13)              0.00143       1.61190       0.57516       0.53767
     2  H(1)              -0.00002      -0.08275      -0.02953      -0.02760
     3  H(1)              -0.00002      -0.08275      -0.02953      -0.02760
     4  H(1)               0.00018       0.79422       0.28340       0.26492
     5  C(13)              0.00212       2.37971       0.84914       0.79379
     6  H(1)               0.00001       0.03885       0.01386       0.01296
     7  H(1)               0.00001       0.03885       0.01386       0.01296
     8  C(13)              0.00590       6.63080       2.36604       2.21180
     9  H(1)              -0.00018      -0.80825      -0.28840      -0.26960
    10  H(1)              -0.00018      -0.80825      -0.28840      -0.26960
    11  C(13)              0.05264      59.18301      21.11797      19.74133
    12  H(1)              -0.00063      -2.83487      -1.01155      -0.94561
    13  H(1)              -0.00063      -2.83487      -1.01155      -0.94561
    14  C(13)             -0.01222     -13.73522      -4.90107      -4.58157
    15  H(1)               0.00382      17.05998       6.08743       5.69060
    16  H(1)               0.00382      17.05998       6.08743       5.69060
    17  C(13)              0.30863     346.96213     123.80471     115.73411
    18  H(1)              -0.00444     -19.83313      -7.07695      -6.61562
    19  H(1)              -0.00444     -19.83313      -7.07695      -6.61562
 --------------------------------------------------------
       Center         ----  Spin Dipole Couplings  ----
                      3XX-RR        3YY-RR        3ZZ-RR
 --------------------------------------------------------
     1   Atom       -0.001227      0.002804     -0.001578
     2   Atom       -0.000425      0.000938     -0.000513
     3   Atom       -0.000425      0.000938     -0.000513
     4   Atom        0.000091      0.000461     -0.000552
     5   Atom        0.001875      0.001186     -0.003061
     6   Atom        0.000652      0.000365     -0.001017
     7   Atom        0.000652      0.000365     -0.001017
     8   Atom       -0.010816      0.022176     -0.011360
     9   Atom       -0.001981      0.003516     -0.001535
    10   Atom       -0.001981      0.003516     -0.001535
    11   Atom        0.031972      0.005070     -0.037043
    12   Atom        0.004177     -0.001296     -0.002882
    13   Atom        0.004177     -0.001296     -0.002882
    14   Atom       -0.005582      0.030970     -0.025388
    15   Atom       -0.008369      0.014044     -0.005675
    16   Atom       -0.008369      0.014044     -0.005675
    17   Atom        0.795671     -0.318027     -0.477645
    18   Atom        0.005785     -0.034344      0.028559
    19   Atom        0.005785     -0.034344      0.028559
 --------------------------------------------------------
                        XY            XZ            YZ
 --------------------------------------------------------
     1   Atom        0.001165      0.000000      0.000000
     2   Atom        0.000472     -0.000004      0.000387
     3   Atom        0.000472      0.000004     -0.000387
     4   Atom        0.000627      0.000000      0.000000
     5   Atom        0.004301      0.000000      0.000000
     6   Atom        0.001560     -0.000829     -0.000409
     7   Atom        0.001560      0.000829      0.000409
     8   Atom        0.003583      0.000000      0.000000
     9   Atom        0.000571      0.000711     -0.002056
    10   Atom        0.000571     -0.000711      0.002056
    11   Atom        0.053645      0.000000      0.000000
    12   Atom        0.006025      0.008429      0.002044
    13   Atom        0.006025     -0.008429     -0.002044
    14   Atom        0.024957      0.000000      0.000000
    15   Atom       -0.003602      0.002302     -0.011673
    16   Atom       -0.003602     -0.002302      0.011673
    17   Atom        0.456765      0.000000      0.000000
    18   Atom       -0.003222      0.040652     -0.042147
    19   Atom       -0.003222     -0.040652      0.042147
 --------------------------------------------------------


 ---------------------------------------------------------------------------------
              Anisotropic Spin Dipole Couplings in Principal Axis System
 ---------------------------------------------------------------------------------

       Atom             a.u.   MegaHertz   Gauss  10(-4) cm-1        Axes

              Baa    -0.0016    -0.212    -0.076    -0.071  0.0000  0.0000  1.0000
     1 C(13)  Bbb    -0.0015    -0.207    -0.074    -0.069  0.9659 -0.2590  0.0000
              Bcc     0.0031     0.418     0.149     0.140  0.2590  0.9659  0.0000
 
              Baa    -0.0007    -0.373    -0.133    -0.125  0.5998 -0.3437  0.7226
     2 H(1)   Bbb    -0.0005    -0.249    -0.089    -0.083  0.7505 -0.0716 -0.6570
              Bcc     0.0012     0.622     0.222     0.208  0.2775  0.9364  0.2150
 
              Baa    -0.0007    -0.373    -0.133    -0.125 -0.5998  0.3437  0.7226
     3 H(1)   Bbb    -0.0005    -0.249    -0.089    -0.083  0.7505 -0.0716  0.6570
              Bcc     0.0012     0.622     0.222     0.208  0.2775  0.9364 -0.2150
 
              Baa    -0.0006    -0.294    -0.105    -0.098  0.0000  0.0000  1.0000
     4 H(1)   Bbb    -0.0004    -0.202    -0.072    -0.067  0.8010 -0.5986  0.0000
              Bcc     0.0009     0.496     0.177     0.165  0.5986  0.8010  0.0000
 
              Baa    -0.0031    -0.411    -0.147    -0.137  0.0000  0.0000  1.0000
     5 C(13)  Bbb    -0.0028    -0.374    -0.133    -0.125 -0.6783  0.7348  0.0000
              Bcc     0.0058     0.784     0.280     0.262  0.7348  0.6783  0.0000
 
              Baa    -0.0014    -0.759    -0.271    -0.253  0.5301 -0.2795  0.8005
     6 H(1)   Bbb    -0.0009    -0.475    -0.170    -0.158 -0.4370  0.7190  0.5405
              Bcc     0.0023     1.234     0.440     0.412  0.7266  0.6363 -0.2590
 
              Baa    -0.0014    -0.759    -0.271    -0.253 -0.5301  0.2795  0.8005
     7 H(1)   Bbb    -0.0009    -0.475    -0.170    -0.158 -0.4370  0.7190 -0.5405
              Bcc     0.0023     1.234     0.440     0.412  0.7266  0.6363  0.2590
 
              Baa    -0.0114    -1.524    -0.544    -0.508  0.0000  0.0000  1.0000
     8 C(13)  Bbb    -0.0112    -1.503    -0.536    -0.501  0.9943 -0.1067  0.0000
              Bcc     0.0226     3.027     1.080     1.010  0.1067  0.9943  0.0000
 
              Baa    -0.0030    -1.601    -0.571    -0.534 -0.6493  0.2800  0.7072
     9 H(1)   Bbb    -0.0013    -0.672    -0.240    -0.224  0.7590  0.1787  0.6261
              Bcc     0.0043     2.274     0.811     0.758  0.0489  0.9432 -0.3285
 
              Baa    -0.0030    -1.601    -0.571    -0.534  0.6493 -0.2800  0.7072
    10 H(1)   Bbb    -0.0013    -0.672    -0.240    -0.224  0.7590  0.1787 -0.6261
              Bcc     0.0043     2.274     0.811     0.758  0.0489  0.9432  0.3285
 
              Baa    -0.0370    -4.971    -1.774    -1.658  0.0000  0.0000  1.0000
    11 C(13)  Bbb    -0.0368    -4.936    -1.761    -1.647 -0.6151  0.7884  0.0000
              Bcc     0.0738     9.907     3.535     3.305  0.7884  0.6151  0.0000
 
              Baa    -0.0090    -4.783    -1.707    -1.595 -0.6055  0.2769  0.7461
    12 H(1)   Bbb    -0.0036    -1.910    -0.681    -0.637 -0.1726  0.8695 -0.4627
              Bcc     0.0125     6.692     2.388     2.232  0.7769  0.4090  0.4787
 
              Baa    -0.0090    -4.783    -1.707    -1.595  0.6055 -0.2769  0.7461
    13 H(1)   Bbb    -0.0036    -1.910    -0.681    -0.637 -0.1726  0.8695  0.4627
              Bcc     0.0125     6.692     2.388     2.232  0.7769  0.4090 -0.4787
 
              Baa    -0.0254    -3.407    -1.216    -1.136  0.0000  0.0000  1.0000
    14 C(13)  Bbb    -0.0182    -2.448    -0.873    -0.816  0.8919 -0.4523  0.0000
              Bcc     0.0436     5.854     2.089     1.953  0.4523  0.8919  0.0000
 
              Baa    -0.0112    -5.996    -2.140    -2.000 -0.2424  0.3780  0.8935
    15 H(1)   Bbb    -0.0089    -4.726    -1.686    -1.576  0.9589  0.2331  0.1615
              Bcc     0.0201    10.722     3.826     3.576 -0.1473  0.8960 -0.4190
 
              Baa    -0.0112    -5.996    -2.140    -2.000  0.2424 -0.3780  0.8935
    16 H(1)   Bbb    -0.0089    -4.726    -1.686    -1.576  0.9589  0.2331 -0.1615
              Bcc     0.0201    10.722     3.826     3.576 -0.1473  0.8960  0.4190
 
              Baa    -0.4814   -64.599   -23.050   -21.548 -0.3368  0.9416  0.0000
    17 C(13)  Bbb    -0.4776   -64.095   -22.871   -21.380  0.0000  0.0000  1.0000
              Bcc     0.9590   128.694    45.921    42.928  0.9416  0.3368  0.0000
 
              Baa    -0.0599   -31.985   -11.413   -10.669 -0.2782  0.8113  0.5141
    18 H(1)   Bbb    -0.0120    -6.381    -2.277    -2.128  0.8165  0.4817 -0.3182
              Bcc     0.0719    38.366    13.690    12.797  0.5058 -0.3313  0.7965
 
              Baa    -0.0599   -31.985   -11.413   -10.669 -0.2782  0.8113 -0.5141
    19 H(1)   Bbb    -0.0120    -6.381    -2.277    -2.128  0.8165  0.4817  0.3182
              Bcc     0.0719    38.366    13.690    12.797 -0.5058  0.3313  0.7965
 

 ---------------------------------------------------------------------------------

 No NMR shielding tensors so no spin-rotation constants.
 Leave Link  601 at Sat Nov  7 01:59:11 2015, MaxMem=   805306368 cpu:         1.0
 (Enter /home/hetanjin/apps/g09D01/g09/l701.exe)
 Compute integral first derivatives.
 ... and contract with generalized density number  0.
 Leave Link  701 at Sat Nov  7 01:59:11 2015, MaxMem=   805306368 cpu:         1.0
 (Enter /home/hetanjin/apps/g09D01/g09/l702.exe)
 L702 exits ... SP integral derivatives will be done elsewhere.
 Leave Link  702 at Sat Nov  7 01:59:11 2015, MaxMem=   805306368 cpu:         0.1
 (Enter /home/hetanjin/apps/g09D01/g09/l703.exe)
 Compute integral first derivatives, UseDBF=F ICtDFT=           0.
 Integral derivatives from FoFJK, PRISM(SPDF).
 Calling FoFJK, ICntrl=      2127 FMM=F ISym2X=1 I1Cent= 0 IOpClX= 1 NMat=1 NMatS=1 NMatT=0.
 FoFJK:  IHMeth= 1 ICntrl=    2127 DoSepK=F KAlg= 0 I1Cent=   0 FoldK=F
 IRaf=         0 NMat=   1 IRICut=       1 DoRegI=T DoRafI=F ISym2E= 1.
 FoFCou: FMM=F IPFlag=           0 FMFlag=      100000 FMFlg1=         800
         NFxFlg=           0 DoJE=F BraDBF=F KetDBF=F FulRan=T
         wScrn=  0.000000 ICntrl=    2127 IOpCl=  1 I1Cent=           0 NGrid=           0
         NMat0=    1 NMatS0=      1 NMatT0=    0 NMatD0=    1 NMtDS0=    0 NMtDT0=    0
 Petite list used in FoFCou.
 Leave Link  703 at Sat Nov  7 01:59:16 2015, MaxMem=   805306368 cpu:        16.0
 (Enter /home/hetanjin/apps/g09D01/g09/l716.exe)
 Dipole        = 2.59536199D-01 2.18909618D-01 2.22044605D-16
 ***** Axes restored to original set *****
 -------------------------------------------------------------------
 Center     Atomic                   Forces (Hartrees/Bohr)
 Number     Number              X              Y              Z
 -------------------------------------------------------------------
      1        6           0.000401915    0.000093584    0.000000000
      2        1          -0.000029044   -0.000010747    0.000020442
      3        1          -0.000029044   -0.000010747   -0.000020442
      4        1           0.000029826   -0.000171594    0.000000000
      5        6          -0.000617864   -0.000804638    0.000000000
      6        1           0.000007373    0.000033661   -0.000023688
      7        1           0.000007373    0.000033661    0.000023688
      8        6           0.001999470    0.001297517    0.000000000
      9        1          -0.000054109   -0.000115892   -0.000114127
     10        1          -0.000054109   -0.000115892    0.000114127
     11        6          -0.006596651   -0.002377057    0.000000000
     12        1           0.000088294    0.000262266    0.000308362
     13        1           0.000088294    0.000262266   -0.000308362
     14        6           0.019735159   -0.011796375    0.000000000
     15        1          -0.000633041    0.000810176    0.000266839
     16        1          -0.000633041    0.000810176   -0.000266839
     17        6          -0.039364732    0.024053515    0.000000000
     18        1           0.012826966   -0.006126940   -0.004021257
     19        1           0.012826966   -0.006126940    0.004021257
 -------------------------------------------------------------------
 Cartesian Forces:  Max     0.039364732 RMS     0.007436290
 Leave Link  716 at Sat Nov  7 01:59:16 2015, MaxMem=   805306368 cpu:         0.1
 (Enter /home/hetanjin/apps/g09D01/g09/l103.exe)

 GradGradGradGradGradGradGradGradGradGradGradGradGradGradGradGradGradGrad
 Berny optimization.
 FormGI is forming the generalized inverse of G from B-inverse, IUseBI=4.
 Internal  Forces:  Max     0.013668265 RMS     0.003325238
 Search for a local minimum.
 Step number   1 out of a maximum of  103
 All quantities printed in internal units (Hartrees-Bohrs-Radians)
 RMS Force = .33252D-02 SwitMx=.10000D-02 MixMth= 1
 Mixed Optimization -- RFO/linear search
 Second derivative matrix not updated -- first step.
 ITU=  0
     Eigenvalues ---    0.00315   0.00315   0.00318   0.00341   0.00341
     Eigenvalues ---    0.03382   0.03382   0.03425   0.03652   0.03892
     Eigenvalues ---    0.04763   0.04763   0.04780   0.05320   0.05434
     Eigenvalues ---    0.05477   0.08440   0.08496   0.08496   0.09390
     Eigenvalues ---    0.12286   0.12327   0.12327   0.12889   0.16000
     Eigenvalues ---    0.16000   0.16000   0.16000   0.16000   0.21899
     Eigenvalues ---    0.21905   0.21905   0.21929   0.29047   0.29047
     Eigenvalues ---    0.29069   0.29228   0.29228   0.33635   0.33635
     Eigenvalues ---    0.33635   0.33635   0.33749   0.33749   0.33749
     Eigenvalues ---    0.33749   0.34007   0.34007   0.34007   0.34007
     Eigenvalues ---    0.34120
 RFO step:  Lambda=-1.35792791D-02 EMin= 3.14701035D-03
 Linear search not attempted -- first point.
 Iteration  1 RMS(Cart)=  0.04801935 RMS(Int)=  0.00852475
 Iteration  2 RMS(Cart)=  0.00666407 RMS(Int)=  0.00560748
 Iteration  3 RMS(Cart)=  0.00010557 RMS(Int)=  0.00560697
 Iteration  4 RMS(Cart)=  0.00000241 RMS(Int)=  0.00560697
 Iteration  5 RMS(Cart)=  0.00000007 RMS(Int)=  0.00560697
 ITry= 1 IFail=0 DXMaxC= 2.13D-01 DCOld= 1.00D+10 DXMaxT= 3.00D-01 DXLimC= 3.00D+00 Rises=F
 ClnCor:  largest displacement from symmetrization is 6.52D-10 for atom    13.
 Variable       Old X    -DE/DX   Delta X   Delta X   Delta X     New X
                                 (Linear)    (Quad)   (Total)
    R1        2.07318  -0.00003   0.00000  -0.00010  -0.00010   2.07309
    R2        2.07318  -0.00003   0.00000  -0.00010  -0.00010   2.07309
    R3        2.07128  -0.00009   0.00000  -0.00026  -0.00026   2.07102
    R4        2.89530  -0.00010   0.00000  -0.00032  -0.00032   2.89498
    R5        2.07756  -0.00003   0.00000  -0.00010  -0.00010   2.07746
    R6        2.07756  -0.00003   0.00000  -0.00010  -0.00010   2.07746
    R7        2.89905  -0.00012   0.00000  -0.00040  -0.00040   2.89866
    R8        2.07951  -0.00016   0.00000  -0.00045  -0.00045   2.07906
    R9        2.07951  -0.00016   0.00000  -0.00045  -0.00045   2.07906
   R10        2.89859   0.00022   0.00000   0.00072   0.00072   2.89931
   R11        2.07951  -0.00038   0.00000  -0.00108  -0.00108   2.07843
   R12        2.07951  -0.00038   0.00000  -0.00108  -0.00108   2.07843
   R13        2.89905   0.00373   0.00000   0.01226   0.01226   2.91132
   R14        2.07756   0.00017   0.00000   0.00047   0.00047   2.07803
   R15        2.07756   0.00017   0.00000   0.00047   0.00047   2.07803
   R16        2.89530  -0.01180   0.00000  -0.03858  -0.03858   2.85673
   R17        2.07318  -0.00055   0.00000  -0.00156  -0.00156   2.07163
   R18        2.07318  -0.00055   0.00000  -0.00156  -0.00156   2.07163
    A1        1.87582   0.00000   0.00000   0.00032   0.00032   1.87614
    A2        1.87917   0.00007   0.00000   0.00027   0.00027   1.87945
    A3        1.94050   0.00004   0.00000   0.00034   0.00034   1.94083
    A4        1.87917   0.00007   0.00000   0.00027   0.00027   1.87945
    A5        1.94050   0.00004   0.00000   0.00034   0.00034   1.94083
    A6        1.94554  -0.00023   0.00000  -0.00148  -0.00148   1.94406
    A7        1.91025   0.00015   0.00000   0.00044   0.00044   1.91069
    A8        1.91025   0.00015   0.00000   0.00044   0.00044   1.91069
    A9        1.97691  -0.00054   0.00000  -0.00251  -0.00251   1.97440
   A10        1.84998  -0.00008   0.00000   0.00033   0.00033   1.85031
   A11        1.90607   0.00018   0.00000   0.00074   0.00074   1.90681
   A12        1.90607   0.00018   0.00000   0.00074   0.00074   1.90681
   A13        1.90580   0.00037   0.00000   0.00160   0.00160   1.90740
   A14        1.90580   0.00037   0.00000   0.00160   0.00160   1.90740
   A15        1.98329  -0.00109   0.00000  -0.00507  -0.00507   1.97822
   A16        1.84895  -0.00015   0.00000   0.00073   0.00072   1.84968
   A17        1.90759   0.00028   0.00000   0.00077   0.00077   1.90837
   A18        1.90759   0.00028   0.00000   0.00077   0.00077   1.90837
   A19        1.90759   0.00063   0.00000   0.00167   0.00168   1.90927
   A20        1.90759   0.00063   0.00000   0.00167   0.00168   1.90927
   A21        1.98329  -0.00243   0.00000  -0.01124  -0.01124   1.97205
   A22        1.84895  -0.00037   0.00000   0.00119   0.00117   1.85012
   A23        1.90580   0.00084   0.00000   0.00378   0.00377   1.90957
   A24        1.90580   0.00084   0.00000   0.00378   0.00377   1.90957
   A25        1.90607   0.00068   0.00000  -0.00149  -0.00144   1.90463
   A26        1.90607   0.00068   0.00000  -0.00149  -0.00144   1.90463
   A27        1.97691  -0.00506   0.00000  -0.02365  -0.02366   1.95325
   A28        1.84998  -0.00041   0.00000   0.00510   0.00500   1.85498
   A29        1.91025   0.00220   0.00000   0.01169   0.01157   1.92182
   A30        1.91025   0.00220   0.00000   0.01169   0.01157   1.92182
   A31        1.94050   0.01367   0.00000   0.14465   0.11730   2.05780
   A32        1.94050   0.01367   0.00000   0.14465   0.11730   2.05780
   A33        1.87582  -0.00075   0.00000   0.12043   0.08586   1.96168
    D1       -3.10715  -0.00001   0.00000  -0.00002  -0.00002  -3.10717
    D2       -1.08672   0.00006   0.00000   0.00087   0.00087  -1.08585
    D3        1.04465   0.00003   0.00000   0.00043   0.00043   1.04508
    D4        1.08672  -0.00006   0.00000  -0.00087  -0.00087   1.08585
    D5        3.10715   0.00001   0.00000   0.00002   0.00002   3.10717
    D6       -1.04465  -0.00003   0.00000  -0.00043  -0.00043  -1.04508
    D7       -1.01021  -0.00003   0.00000  -0.00045  -0.00045  -1.01066
    D8        1.01021   0.00003   0.00000   0.00045   0.00045   1.01066
    D9        3.14159   0.00000   0.00000   0.00000   0.00000   3.14159
   D10        1.00712   0.00011   0.00000   0.00131   0.00131   1.00844
   D11       -1.00712  -0.00011   0.00000  -0.00131  -0.00131  -1.00844
   D12        3.14159   0.00000   0.00000   0.00000   0.00000   3.14159
   D13       -1.12659   0.00016   0.00000   0.00192   0.00192  -1.12467
   D14       -3.14083  -0.00006   0.00000  -0.00071  -0.00071  -3.14154
   D15        1.00788   0.00005   0.00000   0.00061   0.00061   1.00849
   D16        3.14083   0.00006   0.00000   0.00071   0.00071   3.14154
   D17        1.12659  -0.00016   0.00000  -0.00192  -0.00192   1.12467
   D18       -1.00788  -0.00005   0.00000  -0.00061  -0.00061  -1.00849
   D19        1.00811   0.00013   0.00000   0.00164   0.00164   1.00975
   D20       -1.00811  -0.00013   0.00000  -0.00164  -0.00164  -1.00975
   D21        3.14159   0.00000   0.00000   0.00000   0.00000   3.14159
   D22        3.14159   0.00006   0.00000   0.00078   0.00077  -3.14082
   D23        1.12537  -0.00019   0.00000  -0.00250  -0.00250   1.12287
   D24       -1.00811  -0.00007   0.00000  -0.00086  -0.00086  -1.00897
   D25       -1.12537   0.00019   0.00000   0.00250   0.00250  -1.12287
   D26        3.14159  -0.00006   0.00000  -0.00078  -0.00077   3.14082
   D27        1.00811   0.00007   0.00000   0.00086   0.00086   1.00897
   D28        1.00788   0.00013   0.00000   0.00222   0.00219   1.01007
   D29       -1.00788  -0.00013   0.00000  -0.00222  -0.00219  -1.01007
   D30        3.14159   0.00000   0.00000   0.00000   0.00000   3.14159
   D31       -3.14083  -0.00011   0.00000  -0.00057  -0.00061  -3.14144
   D32        1.12659  -0.00037   0.00000  -0.00501  -0.00498   1.12161
   D33       -1.00712  -0.00024   0.00000  -0.00279  -0.00280  -1.00992
   D34       -1.12659   0.00037   0.00000   0.00501   0.00498  -1.12161
   D35        3.14083   0.00011   0.00000   0.00057   0.00061   3.14144
   D36        1.00712   0.00024   0.00000   0.00279   0.00280   1.00992
   D37        1.04465   0.00865   0.00000   0.17258   0.17881   1.22346
   D38       -1.04465  -0.00865   0.00000  -0.17258  -0.17881  -1.22346
   D39       -3.10715   0.00766   0.00000   0.16294   0.16909  -2.93807
   D40        1.08672  -0.00964   0.00000  -0.18221  -0.18853   0.89819
   D41       -1.08672   0.00964   0.00000   0.18221   0.18853  -0.89819
   D42        3.10715  -0.00766   0.00000  -0.16294  -0.16909   2.93807
         Item               Value     Threshold  Converged?
 Maximum Force            0.013668     0.000015     NO 
 RMS     Force            0.003325     0.000010     NO 
 Maximum Displacement     0.212669     0.000060     NO 
 RMS     Displacement     0.045031     0.000040     NO 
 Predicted change in Energy=-9.703663D-03
 Lowest energy point so far.  Saving SCF results.
 GradGradGradGradGradGradGradGradGradGradGradGradGradGradGradGradGradGrad

 Leave Link  103 at Sat Nov  7 01:59:17 2015, MaxMem=   805306368 cpu:         4.0
 (Enter /home/hetanjin/apps/g09D01/g09/l202.exe)
                          Input orientation:                          
 ---------------------------------------------------------------------
 Center     Atomic      Atomic             Coordinates (Angstroms)
 Number     Number       Type             X           Y           Z
 ---------------------------------------------------------------------
      1          6           0       -1.406098    2.919901    0.000000
      2          1           0       -0.889211    3.311909   -0.884665
      3          1           0       -0.889211    3.311909    0.884665
      4          1           0       -2.422859    3.328899    0.000000
      5          6           0       -1.420172    1.388008    0.000000
[...]
 11,0.1485856,0.,0.0128115,0.1479741,0.,0.,0.,0.1776626,0.1391858,-0.05
 71993,-0.025339,-0.0004148,-0.0566037,-0.0394876,-0.0086961,-0.0718361
 ,-0.0748419,0.1391858,-0.0571993,0.025339,-0.0004148,-0.0566037,0.0394
 876,0.0086961,0.0718361,-0.0748419\Polar=58.9067697,-8.329103,76.13830
 19,0.,0.,57.9030739\PG=CS [SG(C6H1),X(H12)]\NImag=0\\0.57888315,-0.006
 20900,0.47667860,0.,0.,0.57178835,-0.10987202,-0.04131688,0.10054947,0
 .11445960,-0.04108169,-0.07752604,0.06986068,0.04631434,0.08569585,0.1
 0047887,0.07021402,-0.22134994,-0.11189628,-0.07778949,0.23774356,-0.1
 0987202,-0.04131688,-0.10054947,0.00871277,0.00663198,0.01376516,0.114
 45960,-0.04108169,-0.07752604,-0.06986068,0.00663198,0.00357987,0.0088
 3132,0.04631434,0.08569585,-0.10047887,-0.07021402,-0.22134994,-0.0137
 6516,-0.00883132,-0.02128754,0.11189628,0.07778949,0.23774356,-0.27474
 000,0.09254411,0.,-0.01390605,0.00515668,-0.00070027,-0.01390605,0.005
 15668,0.00070027,0.29657577,0.09191219,-0.08618987,0.,-0.01087447,0.00
 424689,-0.00126892,-0.01087447,0.00424689,0.00126892,-0.10152526,0.094
 36898,0.,0.,-0.04995611,0.02580809,-0.01141756,0.00089326,-0.02580809,
 0.01141756,0.00089326,0.,0.,0.04812599,-0.08122081,-0.00624033,0.,-0.0
 0124398,-0.01680656,-0.00073380,-0.00124398,-0.01680656,0.00073380,0.0
 0348308,0.03312844,0.,0.50960807,-0.00709434,-0.19375969,0.,-0.0007418
 7,-0.01230608,-0.00010578,-0.00074187,-0.01230608,0.00010578,-0.002070
 47,-0.01200439,0.,0.03775194,0.48353587,0.,0.,-0.08160615,0.00060515,0
 .02933326,0.00100098,-0.00060515,-0.02933326,0.00100098,0.,0.,-0.00135
 675,0.,0.,0.59333028,-0.00033505,-0.00030811,0.00022276,0.00094381,0.0
 0014469,-0.00005609,-0.00018494,-0.00006605,0.00018453,0.00048646,-0.0
 0026230,-0.00039474,-0.11278750,-0.04009097,0.10003824,0.12372510,-0.0
 1728200,-0.01281919,0.02887459,-0.00019272,-0.00709604,-0.00041730,-0.
 00016964,0.00155410,-0.00049371,0.00054055,0.00136056,-0.00001859,-0.0
 4000403,-0.07292531,0.06220137,0.04152032,0.08275952,-0.00084124,-0.00
 043176,0.00091786,-0.00041499,-0.00039789,0.00166892,-0.00005225,0.000
 44011,0.00086392,-0.00031990,0.00051894,0.00005006,0.10031746,0.062471
 33,-0.21510628,-0.11200330,-0.06975497,0.23065253,-0.00033505,-0.00030
 811,-0.00022276,-0.00018494,-0.00006605,-0.00018453,0.00094381,0.00014
 469,0.00005609,0.00048646,-0.00026230,0.00039474,-0.11278750,-0.040090
 97,-0.10003824,0.00908656,0.00592951,0.01351296,0.12372510,-0.01728200
 ,-0.01281919,-0.02887459,-0.00016964,0.00155410,0.00049371,-0.00019272
 ,-0.00709604,0.00041730,0.00054055,0.00136056,0.00001859,-0.04000403,-
 0.07292531,-0.06220137,0.00592951,0.00331090,0.00837116,0.04152032,0.0
 8275952,0.00084124,0.00043176,0.00091786,0.00005225,-0.00044011,0.0008
 6392,0.00041499,0.00039789,0.00166892,0.00031990,-0.00051894,0.0000500
 6,-0.10031746,-0.06247133,-0.21510628,-0.01351296,-0.00837116,-0.02232
 388,0.11200330,0.06975497,0.23065253,0.00156164,0.00515892,0.,0.000668
 12,-0.00164292,0.00010291,0.00066812,-0.00164292,-0.00010291,0.0009989
 0,-0.00310491,0.,-0.17188060,0.03660932,0.,-0.01801894,0.00724944,-0.0
 0009291,-0.01801894,0.00724944,0.00009291,0.51220149,0.03429822,-0.018
 29848,0.,0.00037349,0.00168739,-0.00029670,0.00037349,0.00168739,0.000
 29670,0.00022142,-0.00691562,0.,0.03481368,-0.09318546,0.,-0.00857792,
 0.00344452,-0.00029313,-0.00857792,0.00344452,0.00029313,0.03433672,0.
 47760723,0.,0.,-0.00009035,-0.00095425,0.00094320,0.00003209,0.0009542
 5,-0.00094320,0.00003209,0.,0.,0.00023171,0.,0.,-0.08172805,0.02680314
 ,-0.01175864,0.00002459,-0.02680314,0.01175864,0.00002459,0.,0.,0.5893
 2921,0.00106361,-0.00158191,-0.00029194,0.00002356,0.00015755,0.000069
 25,0.00041096,0.00102202,0.00053508,0.00021019,-0.00016615,0.00046653,
 -0.01791466,-0.00874823,-0.02675017,0.00118838,-0.00069630,0.00035557,
 -0.00560030,0.00289274,0.00022757,-0.11126843,-0.03942940,-0.09874340,
 0.12276759,0.00025967,0.00119849,0.00104173,0.00002058,-0.00003578,0.0
 0004975,-0.00012889,-0.00003434,-0.00041867,-0.00018566,0.00015044,-0.
 00010701,0.00728960,0.00334205,0.01169792,-0.00068187,0.00021682,-0.00
 033877,0.00298336,-0.00086601,0.00001702,-0.03944516,-0.07273172,-0.06
 160458,0.04131211,0.08238204,0.00022126,-0.00015930,0.00008161,-0.0000
 4686,-0.00006217,-0.00005088,-0.00014672,0.00068440,0.00024059,0.00015
 326,0.00026825,0.00026249,0.00019912,0.00002435,-0.00004829,-0.0003851
 9,0.00033848,0.00095412,0.00024323,-0.00002112,0.00174379,-0.09879798,
 -0.06167801,-0.21326824,0.11106342,0.06926582,0.22915970,0.00106361,-0
 .00158191,0.00029194,0.00041096,0.00102202,-0.00053508,0.00002356,0.00
 015755,-0.00006925,0.00021019,-0.00016615,-0.00046653,-0.01791466,-0.0
 0874823,0.02675017,-0.00560030,0.00289274,-0.00022757,0.00118838,-0.00
 069630,-0.00035557,-0.11126843,-0.03942940,0.09874340,0.00898254,0.005
 80466,-0.01351935,0.12276759,0.00025967,0.00119849,-0.00104173,-0.0001
 2889,-0.00003434,0.00041867,0.00002058,-0.00003578,-0.00004975,-0.0001
 8566,0.00015044,0.00010701,0.00728960,0.00334205,-0.01169792,0.0029833
 6,-0.00086601,-0.00001702,-0.00068187,0.00021682,0.00033877,-0.0394451
 6,-0.07273172,0.06160458,0.00580466,0.00326997,-0.00839680,0.04131211,
 0.08238204,-0.00022126,0.00015930,0.00008161,0.00014672,-0.00068440,0.
 00024059,0.00004686,0.00006217,-0.00005088,-0.00015326,-0.00026825,0.0
 0026249,-0.00019912,-0.00002434,-0.00004829,-0.00024323,0.00002112,0.0
 0174379,0.00038519,-0.00033848,0.00095412,0.09879798,0.06167801,-0.213
 26824,0.01351935,0.00839680,-0.02227979,-0.11106342,-0.06926582,0.2291
 5970,-0.00649256,0.00145552,0.,0.00010510,-0.00000895,-0.00031682,0.00
 010511,-0.00000895,0.00031682,0.00004790,0.00228618,0.,0.00193809,0.03
 309180,0.,0.00076673,0.00032494,-0.00015316,0.00076673,0.00032494,0.00
 015316,-0.07939791,-0.00981030,0.,-0.00133080,-0.01679047,0.00017075,-
 0.00133080,-0.01679047,-0.00017075,0.48697199,0.00086314,0.00005412,0.
 ,0.00012447,-0.00008789,-0.00002267,0.00012447,-0.00008789,0.00002267,
 -0.00040946,0.00006595,0.,0.00583251,-0.01749914,0.,-0.00183406,0.0012
 1412,0.00034382,-0.00183406,0.00121412,-0.00034382,-0.00975459,-0.1825
 1854,0.,-0.00084035,-0.01322926,0.00001758,-0.00084035,-0.01322926,-0.
 00001758,0.04948291,0.46558953,0.,0.,-0.00062913,-0.00010818,-0.000228
 12,0.00028984,0.00010818,0.00022812,0.00028984,0.,0.,0.00059267,0.,0.,
 -0.00067171,0.00053135,-0.00106738,-0.00003841,-0.00053135,0.00106738,
 -0.00003841,0.,0.,-0.08206445,-0.00121434,-0.02916582,0.00002323,0.001
 21434,0.02916583,0.00002323,0.,0.,0.59413215,0.00011951,0.00005308,0.0
 0015964,-0.00002382,-0.00003253,-0.00000016,-0.00009999,0.00009259,-0.
 00002718,0.00001044,-0.00003798,0.00000184,0.00056307,0.00037105,0.000
 68569,0.00003893,0.00001198,0.00007371,0.00042048,-0.00006126,-0.00008
 677,-0.00115669,-0.00064804,-0.00116030,0.00049969,-0.00011020,0.00005
 027,-0.00011801,-0.00002503,-0.00015059,-0.11007940,-0.04134443,-0.099
 79498,0.12162380,0.00006834,-0.00006032,0.00027275,-0.00003994,-0.0000
 0217,-0.00001905,0.00006815,0.00030139,0.00018626,0.00009669,0.0000046
 4,0.00008772,-0.00164618,0.00142681,-0.00091613,0.00014130,-0.00003552
 ,0.00005032,0.00102610,-0.00006045,0.00069381,-0.01656872,-0.01279010,
 -0.02884170,-0.00006011,-0.00687231,0.00021799,-0.00004035,0.00150463,
 0.00049407,-0.04103972,-0.07430464,-0.06449851,0.04238266,0.08393167,0
 .00035718,0.00000074,0.00032796,-0.00001022,0.00002038,-0.00001878,-0.
 00003030,0.00020103,-0.00001519,0.00002081,-0.00010678,-0.00001973,-0.
 00020955,0.00024207,-0.00004566,-0.00008423,-0.00004173,-0.00002008,0.
 00058487,-0.00038421,0.00033695,0.00035258,0.00026712,0.00020558,0.000
 08378,0.00025158,0.00171214,0.00014644,-0.00049977,0.00093109,-0.09960
 294,-0.06439255,-0.21694677,0.11113786,0.07182623,0.23203473,0.0001195
 1,0.00005308,-0.00015964,-0.00009999,0.00009259,0.00002718,-0.00002382
 ,-0.00003253,0.00000016,0.00001044,-0.00003798,-0.00000184,0.00056307,
 0.00037105,-0.00068569,0.00042048,-0.00006126,0.00008677,0.00003893,0.
 00001198,-0.00007371,-0.00115669,-0.00064804,0.00116030,-0.00011801,-0
 .00002503,0.00015059,0.00049969,-0.00011020,-0.00005027,-0.11007940,-0
 .04134443,0.09979498,0.00907667,0.00576175,-0.01346363,0.12162380,0.00
 006834,-0.00006032,-0.00027275,0.00006815,0.00030139,-0.00018626,-0.00
 003994,-0.00000217,0.00001905,0.00009669,0.00000464,-0.00008772,-0.001
 64618,0.00142681,0.00091613,0.00102610,-0.00006045,-0.00069381,0.00014
 130,-0.00003552,-0.00005032,-0.01656872,-0.01279010,0.02884170,-0.0000
 4035,0.00150463,-0.00049407,-0.00006011,-0.00687231,-0.00021799,-0.041
 03972,-0.07430464,0.06449851,0.00576175,0.00326450,-0.00856028,0.04238
 266,0.08393167,-0.00035718,-0.00000074,0.00032796,0.00003030,-0.000201
 03,-0.00001519,0.00001022,-0.00002038,-0.00001878,-0.00002081,0.000106
 78,-0.00001973,0.00020955,-0.00024207,-0.00004566,-0.00058487,0.000384
 21,0.00033695,0.00008423,0.00004173,-0.00002008,-0.00035258,-0.0002671
 2,0.00020558,-0.00014644,0.00049977,0.00093109,-0.00008378,-0.00025158
 ,0.00171214,0.09960294,0.06439255,-0.21694677,0.01346363,0.00856028,-0
 .02212341,-0.11113786,-0.07182623,0.23203473,0.00037211,-0.00052488,0.
 ,-0.00000518,0.00004901,0.00001302,-0.00000518,0.00004901,-0.00001302,
 0.00009237,-0.00018720,0.,0.00040123,-0.00107534,0.,-0.00002019,0.0000
 9294,-0.00009439,-0.00002019,0.00009294,0.00009439,-0.00195807,0.00431
 271,0.,0.00066729,-0.00155581,-0.00004776,0.00066729,-0.00155580,0.000
 04776,-0.14435621,0.03325495,0.,-0.01771565,0.00752098,0.00030290,-0.0
 1771565,0.00752099,-0.00030290,0.42851638,0.00234591,0.00008351,0.,-0.
 00006558,0.00003168,0.00009028,-0.00006558,0.00003168,-0.00009028,0.00
 001853,-0.00086506,0.,-0.00297673,-0.00635974,0.,0.00007546,0.00011007
 ,-0.00034444,0.00007546,0.00011007,0.00034444,0.03465121,-0.01669588,0
 .,0.00040408,0.00138470,0.00024535,0.00040409,0.00138470,-0.00024535,0
 .01228656,-0.07569183,0.,-0.00721582,0.00306763,0.00066674,-0.00721582
 ,0.00306763,-0.00066674,0.06303624,0.48877740,0.,0.,0.00059906,-0.0000
 0753,-0.00007816,-0.00003193,0.00000753,0.00007816,-0.00003193,0.,0.,-
 0.00000962,0.,0.,-0.00083729,-0.00024682,-0.00005739,0.00031186,0.0002
 4682,0.00005739,0.00031186,0.,0.,-0.00008089,0.00072853,-0.00088114,-0
 .00002633,-0.00072853,0.00088114,-0.00002633,0.,0.,-0.07638181,-0.0251
 5626,0.01144585,0.00062961,0.02515626,-0.01144585,0.00062961,0.,0.,0.5
 8896797,0.00008292,0.00003413,0.00008111,-0.00000163,0.00000490,0.0000
 0149,-0.00000261,0.00007136,0.00001324,-0.00000784,-0.00001555,-0.0000
 0118,-0.00008811,0.00001263,0.00028751,-0.00003685,-0.00002368,-0.0000
 2193,0.00030433,-0.00008786,0.00018511,0.00102457,-0.00179120,-0.00056
 127,0.00041489,0.00104813,0.00059178,0.00003150,0.00013058,0.00009826,
 -0.02001787,-0.00773226,-0.02727708,-0.00557072,0.00304036,0.00040611,
 0.00138602,-0.00077073,0.00031354,-0.10524030,-0.04441888,-0.09668516,
 0.11765716,-0.00011821,-0.00000915,-0.00002663,0.00000533,-0.00000337,
 -0.00000040,0.00000340,-0.00002913,-0.00000829,-0.00000800,0.00004448,
 -0.00000508,0.00020016,0.00018917,0.00006170,-0.00003100,-0.00000059,0
 .00001567,-0.00008250,-0.00010940,-0.00011488,0.00009308,0.00106576,0.
 00107486,-0.00005928,-0.00003274,-0.00037960,0.00000994,-0.00002807,0.
 00002060,0.00725251,0.00418262,0.01063941,0.00276119,-0.00085612,-0.00
 006265,-0.00064957,0.00022211,-0.00030763,-0.04512241,-0.07463360,-0.0
 6498859,0.04230635,0.08576489,-0.00006582,0.00000890,-0.00002557,-0.00
 000288,0.00000240,-0.00000705,-0.00000836,0.00002331,0.00002378,0.0000
 0234,0.00002669,0.00000380,0.00012094,0.00031246,0.00033313,0.00002049
 ,-0.00001078,-0.00002433,0.00018769,-0.00011775,-0.00000399,0.00031257
 ,-0.00031720,-0.00006237,-0.00011194,0.00070437,0.00032250,-0.00008122
 ,-0.00005115,-0.00002903,-0.00016608,-0.00070530,-0.00055360,0.0000229
 0,0.00000493,0.00159144,-0.00028717,0.00036202,0.00096045,-0.09654399,
 -0.06284043,-0.21563356,0.10874857,0.07373197,0.23069157,0.00008292,0.
 00003413,-0.00008111,-0.00000261,0.00007136,-0.00001324,-0.00000163,0.
 00000490,-0.00000149,-0.00000784,-0.00001555,0.00000118,-0.00008811,0.
 00001263,-0.00028751,0.00030433,-0.00008786,-0.00018511,-0.00003685,-0
 .00002368,0.00002193,0.00102457,-0.00179120,0.00056127,0.00003150,0.00
 013058,-0.00009826,0.00041489,0.00104813,-0.00059178,-0.02001787,-0.00
 773225,0.02727708,0.00138602,-0.00077073,-0.00031354,-0.00557072,0.003
 04036,-0.00040611,-0.10524030,-0.04441888,0.09668516,0.00869822,0.0064
 5623,-0.01291533,0.11765716,-0.00011821,-0.00000915,0.00002663,0.00000
 340,-0.00002913,0.00000829,0.00000533,-0.00000337,0.00000040,-0.000008
 00,0.00004448,0.00000508,0.00020016,0.00018917,-0.00006170,-0.00008250
 ,-0.00010940,0.00011488,-0.00003100,-0.00000059,-0.00001567,0.00009308
 ,0.00106576,-0.00107486,0.00000994,-0.00002807,-0.00002060,-0.00005928
 ,-0.00003274,0.00037960,0.00725252,0.00418262,-0.01063941,-0.00064957,
 0.00022211,0.00030763,0.00276119,-0.00085612,0.00006265,-0.04512241,-0
 .07463360,0.06498859,0.00645623,0.00355446,-0.00873990,0.04230635,0.08
 576489,0.00006582,-0.00000890,-0.00002557,0.00000836,-0.00002331,0.000
 02378,0.00000288,-0.00000240,-0.00000705,-0.00000234,-0.00002669,0.000
 00380,-0.00012094,-0.00031246,0.00033313,-0.00018769,0.00011775,-0.000
 00399,-0.00002049,0.00001078,-0.00002433,-0.00031257,0.00031720,-0.000
 06237,0.00008122,0.00005115,-0.00002903,0.00011194,-0.00070437,0.00032
 250,0.00016607,0.00070530,-0.00055360,0.00028717,-0.00036202,0.0009604
 5,-0.00002290,-0.00000493,0.00159144,0.09654399,0.06284043,-0.21563356
 ,0.01291533,0.00873990,-0.02087222,-0.10874857,-0.07373197,0.23069157,
 -0.00062530,0.00001884,0.,0.00003333,0.00000330,-0.00003504,0.00003333
 ,0.00000330,0.00003504,-0.00006764,0.00027447,0.,0.00086963,0.00135927
 ,0.,0.00001988,-0.00005578,0.00005535,0.00001988,-0.00005578,-0.000055
 35,-0.00454980,0.00151804,0.,0.00005257,0.00018053,0.00027874,0.000052
 57,0.00018053,-0.00027874,0.00292959,0.02580045,0.,0.00121618,-0.00015
 781,0.00056151,0.00121618,-0.00015781,-0.00056151,-0.04304871,-0.00704
 570,0.,0.00097398,-0.01223131,0.00105178,0.00097398,-0.01223131,-0.001
 05178,0.06374484,0.00001392,-0.00014941,0.,0.00001121,0.00002137,-0.00
 000153,0.00001121,0.00002137,0.00000153,-0.00001218,0.00002120,0.,-0.0
 0017499,0.00006665,0.,0.00003598,-0.00003846,-0.00001410,0.00003598,-0
 .00003846,0.00001410,0.00152840,-0.00104873,0.,0.00002013,0.00013358,0
 .00003370,0.00002013,0.00013358,-0.00003370,0.01438946,-0.02503869,0.,
 -0.00208534,0.00128480,-0.00010803,-0.00208534,0.00128480,0.00010803,-
 0.01154829,-0.23263800,0.,0.00113869,-0.01545950,-0.00205193,0.0011386
 9,-0.01545950,0.00205193,0.03493127,0.54657911,0.,0.,-0.00001419,0.000
 00967,-0.00000197,0.00000178,-0.00000967,0.00000197,0.00000178,0.,0.,-
 0.00000657,0.,0.,0.00068035,-0.00009476,0.00005055,-0.00001918,0.00009
 476,-0.00005055,-0.00001918,0.,0.,0.00034072,0.00015572,0.00046714,0.0
 0030526,-0.00015572,-0.00046714,0.00030526,0.,0.,-0.00058805,0.0002032
 8,0.00105554,0.00039628,-0.00020328,-0.00105554,0.00039628,0.,0.,-0.09
 077221,0.00070095,-0.02971765,0.00084737,-0.00070095,0.02971765,0.0008
 4737,0.,0.,0.63067551,0.00007191,0.00001809,0.00000028,-0.00000850,-0.
 00000498,0.00000740,-0.00000851,-0.00000474,-0.00000605,0.00001161,-0.
 00003550,0.00000105,-0.00012817,-0.00008869,0.00001901,-0.00000110,0.0
 0000618,0.00000053,0.00000420,0.00000467,-0.00000439,0.00026353,0.0002
 2783,-0.00016397,-0.00006641,-0.00005072,-0.00004376,-0.00001414,-0.00
 005543,0.00003654,-0.00026421,-0.00090833,-0.00038863,-0.00023877,0.00
 010526,-0.00024627,0.00004825,0.00011196,-0.00000664,0.00230447,0.0000
 6272,0.00235886,0.00031043,-0.00116274,-0.00118558,0.00008192,0.000376
 81,-0.00090108,-0.01192225,-0.01868448,-0.02723538,0.00647264,0.000088
 87,0.00000681,-0.00000325,-0.00001185,-0.00000317,0.00000395,-0.000011
 11,0.00000544,0.00000190,0.00001639,-0.00004759,-0.00000146,-0.0001002
 4,-0.00012368,0.00009942,0.00001246,0.00000013,-0.00001498,0.00006561,
 -0.00001976,0.00002537,0.00060174,-0.00014811,0.00013677,0.00003745,0.
 00025316,0.00012960,-0.00003863,-0.00000562,0.00001383,-0.00132938,-0.
 00025565,-0.00042533,0.00068799,0.00000234,0.00037851,0.00008790,-0.00
 002888,0.00000600,-0.00461882,-0.00826568,-0.02594745,0.00069645,-0.00
 549378,0.00012182,-0.00009966,0.00163197,0.00046444,-0.01616725,-0.129
 83786,-0.12402578,0.01882393,0.13220280,0.00001196,0.00000192,0.000002
 33,-0.00000321,-0.00000027,0.00000113,0.00000046,0.00000413,0.00000146
 ,0.00000510,-0.00000724,-0.00000056,-0.00002761,-0.00000630,-0.0000392
 2,0.00000171,-0.00000163,-0.00000050,0.00000834,-0.00000520,0.00001203
 ,0.00003807,0.00006158,0.00009940,-0.00002361,0.00006734,-0.00002573,0
 .00000418,-0.00000559,-0.00000824,0.00008688,0.00009402,0.00003088,0.0
 0020122,-0.00021121,0.00003028,-0.00008902,0.00004715,0.00003310,-0.00
 090471,0.00345528,0.00400775,0.00032681,0.00066647,0.00141480,0.000123
 20,-0.00066082,0.00102287,-0.02163230,-0.12503474,-0.27168929,0.024815
 30,0.13528588,0.28056173,0.00007191,0.00001809,-0.00000028,-0.00000851
 ,-0.00000474,0.00000605,-0.00000850,-0.00000498,-0.00000740,0.00001161
 ,-0.00003550,-0.00000105,-0.00012817,-0.00008869,-0.00001901,0.0000042
 0,0.00000467,0.00000439,-0.00000110,0.00000618,-0.00000053,0.00026353,
 0.00022783,0.00016397,-0.00001414,-0.00005543,-0.00003654,-0.00006641,
 -0.00005072,0.00004376,-0.00026421,-0.00090833,0.00038863,0.00004825,0
 .00011196,0.00000664,-0.00023877,0.00010526,0.00024627,0.00230447,0.00
 006271,-0.00235886,0.00008192,0.00037681,0.00090108,0.00031043,-0.0011
 6274,0.00118558,-0.01192225,-0.01868448,0.02723538,0.00308310,0.001258
 15,-0.00294279,0.00647264,0.00008887,0.00000681,0.00000325,-0.00001111
 ,0.00000544,-0.00000190,-0.00001185,-0.00000317,-0.00000395,0.00001639
 ,-0.00004759,0.00000146,-0.00010024,-0.00012368,-0.00009942,0.00006561
 ,-0.00001976,-0.00002537,0.00001246,0.00000013,0.00001498,0.00060174,-
 0.00014811,-0.00013677,-0.00003863,-0.00000562,-0.00001383,0.00003745,
 0.00025316,-0.00012960,-0.00132938,-0.00025565,0.00042533,0.00008790,-
 0.00002888,-0.00000600,0.00068799,0.00000234,-0.00037851,-0.00461882,-
 0.00826568,0.02594745,-0.00009966,0.00163197,-0.00046444,0.00069645,-0
 .00549378,-0.00012182,-0.01616725,-0.12983786,0.12402578,0.00125815,0.
 01012713,-0.01375075,0.01882393,0.13220280,-0.00001196,-0.00000192,0.0
 0000233,-0.00000046,-0.00000413,0.00000146,0.00000321,0.00000027,0.000
 00113,-0.00000510,0.00000724,-0.00000056,0.00002761,0.00000630,-0.0000
 3922,-0.00000834,0.00000520,0.00001203,-0.00000171,0.00000163,-0.00000
 050,-0.00003807,-0.00006158,0.00009940,-0.00000418,0.00000559,-0.00000
 824,0.00002361,-0.00006734,-0.00002573,-0.00008688,-0.00009402,0.00003
 088,0.00008902,-0.00004715,0.00003310,-0.00020122,0.00021121,0.0000302
 8,0.00090470,-0.00345528,0.00400775,-0.00012320,0.00066082,0.00102287,
 -0.00032681,-0.00066647,0.00141480,0.02163230,0.12503474,-0.27168929,0
 .00294279,0.01375075,-0.01545425,-0.02481530,-0.13528588,0.28056173\\0
 .00000149,0.00000039,0.,0.00000159,0.00000034,-0.00000010,0.00000159,0
 .00000034,0.00000010,0.00000169,0.00000121,0.,0.00000061,0.00000038,0.
 ,0.00000032,0.00000101,-0.00000003,0.00000032,0.00000101,0.00000003,0.
 00000022,0.00000092,0.,0.00000051,-0.00000042,0.00000003,0.00000051,-0
 .00000042,-0.00000003,-0.00000079,-0.00000050,0.,-0.00000050,0.0000003
 1,0.,-0.00000050,0.00000031,0.,-0.00000031,-0.00000144,0.,-0.00000074,
 -0.00000093,-0.00000006,-0.00000074,-0.00000093,0.00000006,-0.00000135
 ,0.00000040,0.,-0.00000195,-0.00000098,0.00000018,-0.00000195,-0.00000
 098,-0.00000018\\\@


 CHEMISTRY BEGAN BY SAYING IT WOULD CHANGE THE BASER
 METALS INTO GOLD.  BY NOT DOING THAT IT HAS DONE MUCH
 GREATER THINGS.  --  RALPH WALDO EMERSON
 Job cpu time:       0 days  0 hours 14 minutes 36.3 seconds.
 File lengths (MBytes):  RWF=     48 Int=      0 D2E=      0 Chk=      3 Scr=      1
 Normal termination of Gaussian 09 at Sat Nov  7 02:06:11 2015.
