 Entering Gaussian System, Link 0=/home/hetanjin/apps/g09D01/g09/g09
 Input=C6H14_3_r008_C17_2_opt_B3L.gjf
 Output=C6H14_3_r008_C17_2_opt_B3L.log
 Initial command:
 /home/hetanjin/apps/g09D01/g09/l1.exe "/state/partition1/Gau-19092.inp" -scrdir="/state/partition1/"
 Entering Link 1 = /home/hetanjin/apps/g09D01/g09/l1.exe PID=     19093.
  
 Copyright (c) 1988,1990,1992,1993,1995,1998,2003,2009,2013,
            Gaussian, Inc.  All Rights Reserved.
  
 This is part of the Gaussian(R) 09 program.  It is based on
 the Gaussian(R) 03 system (copyright 2003, Gaussian, Inc.),
 the Gaussian(R) 98 system (copyright 1998, Gaussian, Inc.),
 the Gaussian(R) 94 system (copyright 1995, Gaussian, Inc.),
 the Gaussian 92(TM) system (copyright 1992, Gaussian, Inc.),
 the Gaussian 90(TM) system (copyright 1990, Gaussian, Inc.),
 the Gaussian 88(TM) system (copyright 1988, Gaussian, Inc.),
 the Gaussian 86(TM) system (copyright 1986, Carnegie Mellon
 University), and the Gaussian 82(TM) system (copyright 1983,
 Carnegie Mellon University). Gaussian is a federally registered
 trademark of Gaussian, Inc.
  
 This software contains proprietary and confidential information,
 including trade secrets, belonging to Gaussian, Inc.
  
 This software is provided under written license and may be
 used, copied, transmitted, or stored only in accord with that
 written license.
  
 The following legend is applicable only to US Government
 contracts under FAR:
  
                    RESTRICTED RIGHTS LEGEND
  
 Use, reproduction and disclosure by the US Government is
 subject to restrictions as set forth in subparagraphs (a)
 and (c) of the Commercial Computer Software - Restricted
 Rights clause in FAR 52.227-19.
  
 Gaussian, Inc.
 340 Quinnipiac St., Bldg. 40, Wallingford CT 06492
  
  
 ---------------------------------------------------------------
 Warning -- This program may not be used in any manner that
 competes with the business of Gaussian, Inc. or will provide
 assistance to any competitor of Gaussian, Inc.  The licensee
 of this program is prohibited from giving any competitor of
 Gaussian, Inc. access to this program.  By using this program,
 the user acknowledges that Gaussian, Inc. is engaged in the
 business of creating and licensing software in the field of
 computational chemistry and represents and warrants to the
 licensee that it is not a competitor of Gaussian, Inc. and that
 it will not use this program in any manner prohibited above.
 ---------------------------------------------------------------
  

 Cite this work as:
 Gaussian 09, Revision D.01,
 M. J. Frisch, G. W. Trucks, H. B. Schlegel, G. E. Scuseria, 
 M. A. Robb, J. R. Cheeseman, G. Scalmani, V. Barone, B. Mennucci, 
 G. A. Petersson, H. Nakatsuji, M. Caricato, X. Li, H. P. Hratchian, 
 A. F. Izmaylov, J. Bloino, G. Zheng, J. L. Sonnenberg, M. Hada, 
 M. Ehara, K. Toyota, R. Fukuda, J. Hasegawa, M. Ishida, T. Nakajima, 
 Y. Honda, O. Kitao, H. Nakai, T. Vreven, J. A. Montgomery, Jr., 
 J. E. Peralta, F. Ogliaro, M. Bearpark, J. J. Heyd, E. Brothers, 
 K. N. Kudin, V. N. Staroverov, T. Keith, R. Kobayashi, J. Normand, 
 K. Raghavachari, A. Rendell, J. C. Burant, S. S. Iyengar, J. Tomasi, 
 M. Cossi, N. Rega, J. M. Millam, M. Klene, J. E. Knox, J. B. Cross, 
 V. Bakken, C. Adamo, J. Jaramillo, R. Gomperts, R. E. Stratmann, 
 O. Yazyev, A. J. Austin, R. Cammi, C. Pomelli, J. W. Ochterski, 
 R. L. Martin, K. Morokuma, V. G. Zakrzewski, G. A. Voth, 
 P. Salvador, J. J. Dannenberg, S. Dapprich, A. D. Daniels, 
 O. Farkas, J. B. Foresman, J. V. Ortiz, J. Cioslowski, 
 and D. J. Fox, Gaussian, Inc., Wallingford CT, 2013.
 
 ******************************************
 Gaussian 09:  ES64L-G09RevD.01 24-Apr-2013
                 7-Nov-2015 
 ******************************************
 %mem=6GB
 %nprocshared=4
 Will use up to    4 processors via shared memory.
 ----------------------------------------------
 #p B3LYP/6-31G(d) opt=tight int=ultrafine freq
 ----------------------------------------------
 1/7=10,14=-1,18=20,19=15,26=4,38=1/1,3;
 2/9=110,12=2,17=6,18=5,40=1/2;
 3/5=1,6=6,7=1,11=2,16=1,25=1,30=1,71=1,74=-5,75=-5/1,2,3;
 4//1;
 5/5=2,38=5/2;
 6/7=2,8=2,9=2,10=2,28=1/1;
 7//1,2,3,16;
 1/7=10,14=-1,18=20,19=15,26=4/3(2);
 2/9=110/2;
 99//99;
 2/9=110/2;
 3/5=1,6=6,7=1,11=2,16=1,25=1,30=1,71=1,74=-5,75=-5/1,2,3;
 4/5=5,16=3,69=1/1;
 5/5=2,38=5/2;
 7//1,2,3,16;
 1/7=10,14=-1,18=20,19=15,26=4/3(-5);
 2/9=110/2;
 6/7=2,8=2,9=2,10=2,19=2,28=1/1;
 99/9=1/99;
 Leave Link    1 at Sat Nov  7 02:05:17 2015, MaxMem=   805306368 cpu:         0.2
 (Enter /home/hetanjin/apps/g09D01/g09/l101.exe)
 ---------------------------------------------
 using B3LYP/6-31G(d) to do opt and freq calc.
 ---------------------------------------------
 Symbolic Z-matrix:
 Charge =  0 Multiplicity = 2
 C                    -2.58543  -0.17306  -0.29185 
 H                    -2.56946  -0.21059  -1.38848 
 H                    -2.79867   0.86056   0.00159 
 H                    -3.42636  -0.7886    0.04788 
 C                    -1.2643   -0.68112   0.2975 
 H                    -1.30509  -0.61825   1.39536 
 H                    -1.16192  -1.74928   0.0599 
 C                     0.        0.05117  -0.19883 
 H                     0.        0.00139  -1.30033 
 C                     1.2643   -0.68112   0.29751 
 H                     1.16193  -1.74928   0.05992 
 H                     1.30509  -0.61823   1.39536 
 C                     2.58543  -0.17306  -0.29185 
 H                     2.79867   0.86057   0.00157 
 H                     3.42636  -0.78859   0.04789 
 H                     2.56946  -0.21061  -1.38848 
 C                    0.         1.53336   0.20729 
 H                    -0.00001   1.63604   1.30101 
 H                     0.88093   2.05894  -0.17589 
 
 NAtoms=     19 NQM=       19 NQMF=       0 NMMI=      0 NMMIF=      0
                NMic=       0 NMicF=      0.
                    Isotopes and Nuclear Properties:
 (Nuclear quadrupole moments (NQMom) in fm**2, nuclear magnetic moments (NMagM)
  in nuclear magnetons)

  Atom         1           2           3           4           5           6           7           8           9          10
 IAtWgt=          12           1           1           1          12           1           1          12           1          12
 AtmWgt=  12.0000000   1.0078250   1.0078250   1.0078250  12.0000000   1.0078250   1.0078250  12.0000000   1.0078250  12.0000000
 NucSpn=           0           1           1           1           0           1           1           0           1           0
 AtZEff=   0.0000000   0.0000000   0.0000000   0.0000000   0.0000000   0.0000000   0.0000000   0.0000000   0.0000000   0.0000000
 NQMom=    0.0000000   0.0000000   0.0000000   0.0000000   0.0000000   0.0000000   0.0000000   0.0000000   0.0000000   0.0000000
 NMagM=    0.0000000   2.7928460   2.7928460   2.7928460   0.0000000   2.7928460   2.7928460   0.0000000   2.7928460   0.0000000
 AtZNuc=   6.0000000   1.0000000   1.0000000   1.0000000   6.0000000   1.0000000   1.0000000   6.0000000   1.0000000   6.0000000

  Atom        11          12          13          14          15          16          17          18          19
 IAtWgt=           1           1          12           1           1           1          12           1           1
 AtmWgt=   1.0078250   1.0078250  12.0000000   1.0078250   1.0078250   1.0078250  12.0000000   1.0078250   1.0078250
 NucSpn=           1           1           0           1           1           1           0           1           1
 AtZEff=   0.0000000   0.0000000   0.0000000   0.0000000   0.0000000   0.0000000   0.0000000   0.0000000   0.0000000
 NQMom=    0.0000000   0.0000000   0.0000000   0.0000000   0.0000000   0.0000000   0.0000000   0.0000000   0.0000000
 NMagM=    2.7928460   2.7928460   0.0000000   2.7928460   2.7928460   2.7928460   0.0000000   2.7928460   2.7928460
 AtZNuc=   1.0000000   1.0000000   6.0000000   1.0000000   1.0000000   1.0000000   6.0000000   1.0000000   1.0000000
 Leave Link  101 at Sat Nov  7 02:05:17 2015, MaxMem=   805306368 cpu:         0.8
 (Enter /home/hetanjin/apps/g09D01/g09/l103.exe)

 GradGradGradGradGradGradGradGradGradGradGradGradGradGradGradGradGradGrad
 Berny optimization.
 Initialization pass.
                           ----------------------------
                           !    Initial Parameters    !
                           ! (Angstroms and Degrees)  !
 --------------------------                            --------------------------
 ! Name  Definition              Value          Derivative Info.                !
 --------------------------------------------------------------------------------
 ! R1    R(1,2)                  1.0974         estimate D2E/DX2                !
 ! R2    R(1,3)                  1.0954         estimate D2E/DX2                !
 ! R3    R(1,4)                  1.0961         estimate D2E/DX2                !
 ! R4    R(1,5)                  1.5332         estimate D2E/DX2                !
 ! R5    R(5,6)                  1.1004         estimate D2E/DX2                !
 ! R6    R(5,7)                  1.099          estimate D2E/DX2                !
 ! R7    R(5,8)                  1.5431         estimate D2E/DX2                !
 ! R8    R(8,9)                  1.1026         estimate D2E/DX2                !
 ! R9    R(8,10)                 1.5431         estimate D2E/DX2                !
 ! R10   R(8,17)                 1.5368         estimate D2E/DX2                !
 ! R11   R(10,11)                1.099          estimate D2E/DX2                !
 ! R12   R(10,12)                1.1004         estimate D2E/DX2                !
 ! R13   R(10,13)                1.5332         estimate D2E/DX2                !
 ! R14   R(13,14)                1.0954         estimate D2E/DX2                !
 ! R15   R(13,15)                1.0961         estimate D2E/DX2                !
 ! R16   R(13,16)                1.0974         estimate D2E/DX2                !
 ! R17   R(17,18)                1.0985         estimate D2E/DX2                !
 ! R18   R(17,19)                1.095          estimate D2E/DX2                !
 ! A1    A(2,1,3)              107.6254         estimate D2E/DX2                !
 ! A2    A(2,1,4)              107.559          estimate D2E/DX2                !
 ! A3    A(2,1,5)              111.115          estimate D2E/DX2                !
 ! A4    A(3,1,4)              107.3082         estimate D2E/DX2                !
 ! A5    A(3,1,5)              112.1749         estimate D2E/DX2                !
 ! A6    A(4,1,5)              110.8451         estimate D2E/DX2                !
 ! A7    A(1,5,6)              109.4277         estimate D2E/DX2                !
 ! A8    A(1,5,7)              108.6152         estimate D2E/DX2                !
 ! A9    A(1,5,8)              115.1572         estimate D2E/DX2                !
 ! A10   A(6,5,7)              105.9422         estimate D2E/DX2                !
 ! A11   A(6,5,8)              108.915          estimate D2E/DX2                !
 ! A12   A(7,5,8)              108.3832         estimate D2E/DX2                !
 ! A13   A(5,8,9)              107.4517         estimate D2E/DX2                !
 ! A14   A(5,8,10)             110.0384         estimate D2E/DX2                !
 ! A15   A(5,8,17)             111.882          estimate D2E/DX2                !
 ! A16   A(9,8,10)             107.4518         estimate D2E/DX2                !
 ! A17   A(9,8,17)             107.9103         estimate D2E/DX2                !
 ! A18   A(10,8,17)            111.882          estimate D2E/DX2                !
 ! A19   A(8,10,11)            108.3833         estimate D2E/DX2                !
 ! A20   A(8,10,12)            108.915          estimate D2E/DX2                !
 ! A21   A(8,10,13)            115.1571         estimate D2E/DX2                !
 ! A22   A(11,10,12)           105.9423         estimate D2E/DX2                !
 ! A23   A(11,10,13)           108.6152         estimate D2E/DX2                !
 ! A24   A(12,10,13)           109.4277         estimate D2E/DX2                !
 ! A25   A(10,13,14)           112.1749         estimate D2E/DX2                !
 ! A26   A(10,13,15)           110.8451         estimate D2E/DX2                !
 ! A27   A(10,13,16)           111.1149         estimate D2E/DX2                !
 ! A28   A(14,13,15)           107.3082         estimate D2E/DX2                !
 ! A29   A(14,13,16)           107.6254         estimate D2E/DX2                !
 ! A30   A(15,13,16)           107.559          estimate D2E/DX2                !
 ! A31   A(8,17,18)            110.6857         estimate D2E/DX2                !
 ! A32   A(8,17,19)            111.7423         estimate D2E/DX2                !
 ! A33   A(18,17,19)           107.67           estimate D2E/DX2                !
 ! D1    D(2,1,5,6)            179.2076         estimate D2E/DX2                !
 ! D2    D(2,1,5,7)            -65.5701         estimate D2E/DX2                !
 ! D3    D(2,1,5,8)             56.1554         estimate D2E/DX2                !
 ! D4    D(3,1,5,6)             58.6833         estimate D2E/DX2                !
 ! D5    D(3,1,5,7)            173.9055         estimate D2E/DX2                !
 ! D6    D(3,1,5,8)            -64.369          estimate D2E/DX2                !
 ! D7    D(4,1,5,6)            -61.2484         estimate D2E/DX2                !
 ! D8    D(4,1,5,7)             53.9738         estimate D2E/DX2                !
 ! D9    D(4,1,5,8)            175.6993         estimate D2E/DX2                !
 ! D10   D(1,5,8,9)            -54.8991         estimate D2E/DX2                !
 ! D11   D(1,5,8,10)          -171.5975         estimate D2E/DX2                !
 ! D12   D(1,5,8,17)            63.3728         estimate D2E/DX2                !
 ! D13   D(6,5,8,9)           -178.2239         estimate D2E/DX2                !
 ! D14   D(6,5,8,10)            65.0777         estimate D2E/DX2                !
 ! D15   D(6,5,8,17)           -59.952          estimate D2E/DX2                !
 ! D16   D(7,5,8,9)             66.9516         estimate D2E/DX2                !
 ! D17   D(7,5,8,10)           -49.7467         estimate D2E/DX2                !
 ! D18   D(7,5,8,17)          -174.7765         estimate D2E/DX2                !
 ! D19   D(5,8,10,11)           49.746          estimate D2E/DX2                !
 ! D20   D(5,8,10,12)          -65.0785         estimate D2E/DX2                !
 ! D21   D(5,8,10,13)          171.5967         estimate D2E/DX2                !
 ! D22   D(9,8,10,11)          -66.9523         estimate D2E/DX2                !
 ! D23   D(9,8,10,12)          178.2232         estimate D2E/DX2                !
 ! D24   D(9,8,10,13)           54.8984         estimate D2E/DX2                !
 ! D25   D(17,8,10,11)         174.7757         estimate D2E/DX2                !
 ! D26   D(17,8,10,12)          59.9512         estimate D2E/DX2                !
 ! D27   D(17,8,10,13)         -63.3736         estimate D2E/DX2                !
 ! D28   D(5,8,17,18)           62.0011         estimate D2E/DX2                !
 ! D29   D(5,8,17,19)         -178.0067         estimate D2E/DX2                !
 ! D30   D(9,8,17,18)          179.9997         estimate D2E/DX2                !
 ! D31   D(9,8,17,19)          -60.0081         estimate D2E/DX2                !
 ! D32   D(10,8,17,18)         -62.0016         estimate D2E/DX2                !
 ! D33   D(10,8,17,19)          57.9905         estimate D2E/DX2                !
 ! D34   D(8,10,13,14)          64.3686         estimate D2E/DX2                !
 ! D35   D(8,10,13,15)        -175.6996         estimate D2E/DX2                !
 ! D36   D(8,10,13,16)         -56.1557         estimate D2E/DX2                !
 ! D37   D(11,10,13,14)       -173.9059         estimate D2E/DX2                !
 ! D38   D(11,10,13,15)        -53.9741         estimate D2E/DX2                !
 ! D39   D(11,10,13,16)         65.5698         estimate D2E/DX2                !
 ! D40   D(12,10,13,14)        -58.6837         estimate D2E/DX2                !
 ! D41   D(12,10,13,15)         61.2481         estimate D2E/DX2                !
 ! D42   D(12,10,13,16)       -179.208          estimate D2E/DX2                !
 --------------------------------------------------------------------------------
 Trust Radius=3.00D-01 FncErr=1.00D-07 GrdErr=1.00D-06
 Number of steps in this run=    103 maximum allowed number of steps=    114.
 GradGradGradGradGradGradGradGradGradGradGradGradGradGradGradGradGradGrad

 Leave Link  103 at Sat Nov  7 02:05:17 2015, MaxMem=   805306368 cpu:         0.0
 (Enter /home/hetanjin/apps/g09D01/g09/l202.exe)
                          Input orientation:                          
 ---------------------------------------------------------------------
 Center     Atomic      Atomic             Coordinates (Angstroms)
 Number     Number       Type             X           Y           Z
 ---------------------------------------------------------------------
      1          6           0       -2.585432   -0.173063   -0.291849
      2          1           0       -2.569458   -0.210592   -1.388477
      3          1           0       -2.798673    0.860561    0.001587
      4          1           0       -3.426358   -0.788597    0.047878
      5          6           0       -1.264298   -0.681121    0.297502
      6          1           0       -1.305088   -0.618252    1.395357
      7          1           0       -1.161923   -1.749281    0.059899
      8          6           0        0.000001    0.051166   -0.198829
      9          1           0        0.000003    0.001388   -1.300329
     10          6           0        1.264300   -0.681115    0.297508
     11          1           0        1.161927   -1.749278    0.059916
     12          1           0        1.305092   -0.618234    1.395362
     13          6           0        2.585433   -0.173062   -0.291851
     14          1           0        2.798671    0.860567    0.001568
     15          1           0        3.426361   -0.788588    0.047886
     16          1           0        2.569459   -0.210609   -1.388479
     17          6           0       -0.000004    1.533363    0.207287
     18          1           0       -0.000012    1.636037    1.301012
     19          1           0        0.880926    2.058939   -0.175885
 ---------------------------------------------------------------------
                    Distance matrix (angstroms):
                    1          2          3          4          5
     1  C    0.000000
     2  H    1.097386   0.000000
     3  H    1.095425   1.769798   0.000000
     4  H    1.096108   1.769600   1.765178   0.000000
     5  C    1.533249   2.183430   2.195144   2.179075   0.000000
     6  H    2.164287   3.084566   2.521959   2.518830   1.100410
     7  H    2.152805   2.538998   3.081173   2.459822   1.099046
     8  C    2.596805   2.843572   2.920251   3.536383   1.543062
     9  H    2.780636   2.579697   3.204021   3.765858   2.148800
    10  C    3.927581   4.214456   4.355696   4.698525   2.528598
    11  H    4.080550   4.288197   4.743523   4.687794   2.661574
    12  H    4.263923   4.788326   4.579337   4.922536   2.794820
    13  C    5.170865   5.270379   5.490271   6.052762   3.927581
    14  H    5.490269   5.647691   5.597344   6.439944   4.355697
    15  H    6.052763   6.192501   6.439944   6.852719   4.698525
    16  H    5.270380   5.138917   5.647701   6.192497   4.214452
    17  C    3.137748   3.491409   2.885745   4.142078   2.551572
    18  H    3.534748   4.152763   3.181567   4.380530   2.823946
    19  H    4.124429   4.304219   3.873894   5.168290   3.511981
                    6          7          8          9         10
     6  H    0.000000
     7  H    1.755896   0.000000
     8  C    2.166289   2.158383   0.000000
     9  H    3.058421   2.503025   1.102624   0.000000
    10  C    2.794813   2.661577   1.543061   2.148800   0.000000
    11  H    3.024696   2.323850   2.158384   2.503031   1.099046
    12  H    2.610180   3.024713   2.166288   3.058421   1.100410
    13  C    4.263921   4.080548   2.596804   2.780631   1.533250
    14  H    4.579344   4.743523   2.920247   3.204008   2.195144
    15  H    4.922530   4.687795   3.536382   3.765856   2.179075
    16  H    4.788322   4.288184   2.843573   2.579693   2.183430
    17  C    2.782841   3.485331   1.536827   2.149384   2.551572
    18  H    2.606519   3.788242   2.182049   3.072304   2.823951
    19  H    3.796684   4.327975   2.192649   2.504779   2.806951
                   11         12         13         14         15
    11  H    0.000000
    12  H    1.755897   0.000000
    13  C    2.152804   2.164287   0.000000
    14  H    3.081173   2.521962   1.095424   0.000000
    15  H    2.459823   2.518828   1.096108   1.765178   0.000000
    16  H    2.538995   3.084567   1.097387   1.769799   1.769600
    17  C    3.485331   2.782834   3.137755   2.885751   4.142082
    18  H    3.788242   2.606518   3.534767   3.181593   4.380544
    19  H    3.825844   3.133048   2.810804   2.268332   3.825928
                   16         17         18         19
    16  H    0.000000
    17  C    3.491425   0.000000
    18  H    4.152788   1.098534   0.000000
    19  H    3.077723   1.095029   1.770910   0.000000
 Stoichiometry    C6H13(2)
 Framework group  C1[X(C6H13)]
 Deg. of freedom    51
 Full point group                 C1      NOp   1
 Largest Abelian subgroup         C1      NOp   1
 Largest concise Abelian subgroup C1      NOp   1
                         Standard orientation:                         
 ---------------------------------------------------------------------
 Center     Atomic      Atomic             Coordinates (Angstroms)
 Number     Number       Type             X           Y           Z
 ---------------------------------------------------------------------
      1          6           0        2.604785   -0.096418    0.296648
      2          1           0        2.588227   -0.152065    1.392497
      3          1           0        2.802643    0.944964    0.020367
      4          1           0        3.455302   -0.693528   -0.051969
      5          6           0        1.292125   -0.614738   -0.302618
      6          1           0        1.333113   -0.533362   -1.399250
      7          1           0        1.205702   -1.688059   -0.082582
      8          6           0        0.016349    0.090133    0.203933
      9          1           0        0.015943    0.022402    1.304475
     10          6           0       -1.236181   -0.653012   -0.305910
     11          1           0       -1.117879   -1.723235   -0.085619
     12          1           0       -1.276766   -0.572859   -1.402646
     13          6           0       -2.565483   -0.174697    0.289930
     14          1           0       -2.794055    0.860234    0.013113
     15          1           0       -3.396626   -0.797260   -0.060882
     16          1           0       -2.550096   -0.229878    1.385821
     17          6           0       -0.005685    1.578586   -0.177981
     18          1           0       -0.006082    1.699073   -1.269888
     19          1           0       -0.894883    2.084447    0.212557
 ---------------------------------------------------------------------
 Rotational constants (GHZ):      6.9084833      1.8383424      1.6032083
 Leave Link  202 at Sat Nov  7 02:05:18 2015, MaxMem=   805306368 cpu:         0.1
 (Enter /home/hetanjin/apps/g09D01/g09/l301.exe)
 Standard basis: 6-31G(d) (6D, 7F)
 Ernie: Thresh=  0.10000D-02 Tol=  0.10000D-05 Strict=F.
 There are   116 symmetry adapted cartesian basis functions of A   symmetry.
 There are   116 symmetry adapted basis functions of A   symmetry.
   116 basis functions,   220 primitive gaussians,   116 cartesian basis functions
    25 alpha electrons       24 beta electrons
       nuclear repulsion energy       244.7335121444 Hartrees.
 IExCor=  402 DFT=T Ex+Corr=B3LYP ExCW=0 ScaHFX=  0.200000
 ScaDFX=  0.800000  0.720000  1.000000  0.810000 ScalE2=  1.000000  1.000000
 IRadAn=      5 IRanWt=     -1 IRanGd=            0 ICorTp=0 IEmpDi=  4
 NAtoms=   19 NActive=   19 NUniq=   19 SFac= 1.00D+00 NAtFMM=   60 NAOKFM=F Big=F
 Integral buffers will be    131072 words long.
 Raffenetti 2 integral format.
 Two-electron integral symmetry is turned on.
 Leave Link  301 at Sat Nov  7 02:05:18 2015, MaxMem=   805306368 cpu:         0.2
 (Enter /home/hetanjin/apps/g09D01/g09/l302.exe)
 NPDir=0 NMtPBC=     1 NCelOv=     1 NCel=       1 NClECP=     1 NCelD=      1
         NCelK=      1 NCelE2=     1 NClLst=     1 CellRange=     0.0.
 One-electron integrals computed using PRISM.
 NBasis=   116 RedAO= T EigKep=  3.70D-03  NBF=   116
 NBsUse=   116 1.00D-06 EigRej= -1.00D+00 NBFU=   116
 Precomputing XC quadrature grid using
 IXCGrd= 4 IRadAn=           5 IRanWt=          -1 IRanGd=           0 AccXCQ= 0.00D+00.
 Generated NRdTot=       0 NPtTot=           0 NUsed=           0 NTot=          32
 NSgBfM=   116   116   116   116   116 MxSgAt=    19 MxSgA2=    19.
 Leave Link  302 at Sat Nov  7 02:05:18 2015, MaxMem=   805306368 cpu:         1.6
 (Enter /home/hetanjin/apps/g09D01/g09/l303.exe)
 DipDrv:  MaxL=1.
 Leave Link  303 at Sat Nov  7 02:05:18 2015, MaxMem=   805306368 cpu:         0.1
 (Enter /home/hetanjin/apps/g09D01/g09/l401.exe)
 ExpMin= 1.61D-01 ExpMax= 3.05D+03 ExpMxC= 4.57D+02 IAcc=3 IRadAn=         5 AccDes= 0.00D+00
 Harris functional with IExCor=  402 and IRadAn=       5 diagonalized for initial guess.
 HarFok:  IExCor=  402 AccDes= 0.00D+00 IRadAn=         5 IDoV= 1 UseB2=F ITyADJ=14
 ICtDFT=  3500011 ScaDFX=  1.000000  1.000000  1.000000  1.000000
 FoFCou: FMM=F IPFlag=           0 FMFlag=      100000 FMFlg1=           0
         NFxFlg=           0 DoJE=T BraDBF=F KetDBF=T FulRan=T
         wScrn=  0.000000 ICntrl=     500 IOpCl=  0 I1Cent=   200000004 NGrid=           0
         NMat0=    1 NMatS0=      1 NMatT0=    0 NMatD0=    1 NMtDS0=    0 NMtDT0=    0
 Petite list used in FoFCou.
 Harris En= -236.439727624541    
 JPrj=0 DoOrth=F DoCkMO=F.
 Initial guess <Sx>= 0.0000 <Sy>= 0.0000 <Sz>= 0.5000 <S**2>= 0.7500 S= 0.5000
 Leave Link  401 at Sat Nov  7 02:05:21 2015, MaxMem=   805306368 cpu:         9.1
 (Enter /home/hetanjin/apps/g09D01/g09/l502.exe)
 UHF open shell SCF:
 Using DIIS extrapolation, IDIIS=  1040.
 Integral symmetry usage will be decided dynamically.
 Keep R1 and R2 ints in memory in canonical form, NReq=47059932.
 IVT=       60514 IEndB=       60514 NGot=   805306368 MDV=   759189273
 LenX=   759189273 LenY=   759175376
 Requested convergence on RMS density matrix=1.00D-08 within 128 cycles.
 Requested convergence on MAX density matrix=1.00D-06.
 Requested convergence on             energy=1.00D-06.
 No special actions if energy rises.
 FoFCou: FMM=F IPFlag=           0 FMFlag=           0 FMFlg1=           0
         NFxFlg=           0 DoJE=F BraDBF=F KetDBF=F FulRan=T
         wScrn=  0.000000 ICntrl=     600 IOpCl=  0 I1Cent=           0 NGrid=           0
         NMat0=    1 NMatS0=   6786 NMatT0=    0 NMatD0=    1 NMtDS0=    0 NMtDT0=    0
 Symmetry not used in FoFCou.
 Integral accuracy reduced to 1.0D-05 until final iterations.

 Cycle   1  Pass 0  IDiag  1:
 E= -236.155337210525    
 DIIS: error= 4.07D-02 at cycle   1 NSaved=   1.
 NSaved= 1 IEnMin= 1 EnMin= -236.155337210525     IErMin= 1 ErrMin= 4.07D-02
 ErrMax= 4.07D-02  0.00D+00 EMaxC= 1.00D-01 BMatC= 8.64D-01 BMatP= 8.64D-01
 IDIUse=3 WtCom= 5.93D-01 WtEn= 4.07D-01
 Coeff-Com:  0.100D+01
 Coeff-En:   0.100D+01
 Coeff:      0.100D+01
 Gap=     0.279 Goal=   None    Shift=    0.000
 Gap=     0.253 Goal=   None    Shift=    0.000
 GapD=    0.253 DampG=1.000 DampE=0.500 DampFc=0.5000 IDamp=-1.
 Damping current iteration by 5.00D-01
 RMSDP=9.37D-03 MaxDP=1.37D-01              OVMax= 1.75D-01

 Cycle   2  Pass 0  IDiag  1:
 E= -236.265895060771     Delta-E=       -0.110557850246 Rises=F Damp=T
 DIIS: error= 7.84D-03 at cycle   2 NSaved=   2.
 NSaved= 2 IEnMin= 2 EnMin= -236.265895060771     IErMin= 2 ErrMin= 7.84D-03
 ErrMax= 7.84D-03  0.00D+00 EMaxC= 1.00D-01 BMatC= 3.73D-02 BMatP= 8.64D-01
 IDIUse=3 WtCom= 9.22D-01 WtEn= 7.84D-02
 Coeff-Com:  0.662D-01 0.934D+00
 Coeff-En:   0.106D+00 0.894D+00
 Coeff:      0.693D-01 0.931D+00
 Gap=     0.323 Goal=   None    Shift=    0.000
 Gap=     0.258 Goal=   None    Shift=    0.000
 RMSDP=1.47D-03 MaxDP=2.20D-02 DE=-1.11D-01 OVMax= 9.75D-02

 Cycle   3  Pass 0  IDiag  1:
 E= -236.399940799394     Delta-E=       -0.134045738623 Rises=F Damp=F
 DIIS: error= 2.15D-03 at cycle   3 NSaved=   3.
 NSaved= 3 IEnMin= 3 EnMin= -236.399940799394     IErMin= 3 ErrMin= 2.15D-03
 ErrMax= 2.15D-03  0.00D+00 EMaxC= 1.00D-01 BMatC= 4.12D-03 BMatP= 3.73D-02
 IDIUse=3 WtCom= 9.79D-01 WtEn= 2.15D-02
 Coeff-Com: -0.644D-02 0.183D+00 0.823D+00
 Coeff-En:   0.000D+00 0.000D+00 0.100D+01
 Coeff:     -0.630D-02 0.179D+00 0.827D+00
 Gap=     0.318 Goal=   None    Shift=    0.000
 Gap=     0.241 Goal=   None    Shift=    0.000
 RMSDP=4.82D-04 MaxDP=1.09D-02 DE=-1.34D-01 OVMax= 1.16D-02

 Cycle   4  Pass 0  IDiag  1:
 E= -236.400570228703     Delta-E=       -0.000629429309 Rises=F Damp=F
 DIIS: error= 1.54D-03 at cycle   4 NSaved=   4.
 NSaved= 4 IEnMin= 4 EnMin= -236.400570228703     IErMin= 4 ErrMin= 1.54D-03
 ErrMax= 1.54D-03  0.00D+00 EMaxC= 1.00D-01 BMatC= 1.82D-03 BMatP= 4.12D-03
 IDIUse=3 WtCom= 9.85D-01 WtEn= 1.54D-02
 Coeff-Com: -0.584D-02 0.357D-01 0.412D+00 0.558D+00
 Coeff-En:   0.000D+00 0.000D+00 0.265D+00 0.735D+00
 Coeff:     -0.575D-02 0.352D-01 0.410D+00 0.561D+00
 Gap=     0.315 Goal=   None    Shift=    0.000
 Gap=     0.246 Goal=   None    Shift=    0.000
 RMSDP=1.97D-04 MaxDP=4.72D-03 DE=-6.29D-04 OVMax= 6.63D-03

 Cycle   5  Pass 0  IDiag  1:
 E= -236.401007469495     Delta-E=       -0.000437240792 Rises=F Damp=F
 DIIS: error= 3.42D-04 at cycle   5 NSaved=   5.
 NSaved= 5 IEnMin= 5 EnMin= -236.401007469495     IErMin= 5 ErrMin= 3.42D-04
 ErrMax= 3.42D-04  0.00D+00 EMaxC= 1.00D-01 BMatC= 8.84D-05 BMatP= 1.82D-03
 IDIUse=3 WtCom= 9.97D-01 WtEn= 3.42D-03
 Coeff-Com: -0.141D-02-0.287D-02 0.902D-01 0.228D+00 0.686D+00
 Coeff-En:   0.000D+00 0.000D+00 0.000D+00 0.000D+00 0.100D+01
 Coeff:     -0.140D-02-0.286D-02 0.899D-01 0.227D+00 0.687D+00
 Gap=     0.316 Goal=   None    Shift=    0.000
 Gap=     0.246 Goal=   None    Shift=    0.000
 RMSDP=4.69D-05 MaxDP=9.86D-04 DE=-4.37D-04 OVMax= 1.01D-03

 Cycle   6  Pass 0  IDiag  1:
 E= -236.401030222401     Delta-E=       -0.000022752906 Rises=F Damp=F
 DIIS: error= 6.37D-05 at cycle   6 NSaved=   6.
 NSaved= 6 IEnMin= 6 EnMin= -236.401030222401     IErMin= 6 ErrMin= 6.37D-05
 ErrMax= 6.37D-05  0.00D+00 EMaxC= 1.00D-01 BMatC= 2.73D-06 BMatP= 8.84D-05
 IDIUse=1 WtCom= 1.00D+00 WtEn= 0.00D+00
 Coeff-Com:  0.710D-04-0.232D-02-0.110D-01 0.687D-03 0.913D-01 0.921D+00
 Coeff:      0.710D-04-0.232D-02-0.110D-01 0.687D-03 0.913D-01 0.921D+00
 Gap=     0.316 Goal=   None    Shift=    0.000
 Gap=     0.246 Goal=   None    Shift=    0.000
 RMSDP=1.40D-05 MaxDP=4.90D-04 DE=-2.28D-05 OVMax= 4.54D-04

 Cycle   7  Pass 0  IDiag  1:
 E= -236.401031360678     Delta-E=       -0.000001138277 Rises=F Damp=F
 DIIS: error= 3.47D-05 at cycle   7 NSaved=   7.
 NSaved= 7 IEnMin= 7 EnMin= -236.401031360678     IErMin= 7 ErrMin= 3.47D-05
 ErrMax= 3.47D-05  0.00D+00 EMaxC= 1.00D-01 BMatC= 1.09D-06 BMatP= 2.73D-06
 IDIUse=1 WtCom= 1.00D+00 WtEn= 0.00D+00
 Coeff-Com:  0.237D-03-0.450D-03-0.199D-01-0.380D-01-0.803D-01 0.403D+00
 Coeff-Com:  0.736D+00
 Coeff:      0.237D-03-0.450D-03-0.199D-01-0.380D-01-0.803D-01 0.403D+00
 Coeff:      0.736D+00
 Gap=     0.316 Goal=   None    Shift=    0.000
 Gap=     0.246 Goal=   None    Shift=    0.000
 RMSDP=6.35D-06 MaxDP=1.83D-04 DE=-1.14D-06 OVMax= 1.89D-04

 Initial convergence to 1.0D-05 achieved.  Increase integral accuracy.
 Cycle   8  Pass 1  IDiag  1:
 E= -236.401022877834     Delta-E=        0.000008482843 Rises=F Damp=F
 DIIS: error= 1.01D-05 at cycle   1 NSaved=   1.
 NSaved= 1 IEnMin= 1 EnMin= -236.401022877834     IErMin= 1 ErrMin= 1.01D-05
 ErrMax= 1.01D-05  0.00D+00 EMaxC= 1.00D-01 BMatC= 1.05D-07 BMatP= 1.05D-07
 IDIUse=1 WtCom= 1.00D+00 WtEn= 0.00D+00
 Coeff-Com:  0.100D+01
 Coeff:      0.100D+01
 Gap=     0.316 Goal=   None    Shift=    0.000
 Gap=     0.246 Goal=   None    Shift=    0.000
 RMSDP=6.35D-06 MaxDP=1.83D-04 DE= 8.48D-06 OVMax= 6.70D-05

 Cycle   9  Pass 1  IDiag  1:
 E= -236.401022885233     Delta-E=       -0.000000007398 Rises=F Damp=F
 DIIS: error= 1.10D-05 at cycle   2 NSaved=   2.
 NSaved= 2 IEnMin= 2 EnMin= -236.401022885233     IErMin= 1 ErrMin= 1.01D-05
 ErrMax= 1.10D-05  0.00D+00 EMaxC= 1.00D-01 BMatC= 1.16D-07 BMatP= 1.05D-07
 IDIUse=1 WtCom= 1.00D+00 WtEn= 0.00D+00
 Coeff-Com:  0.514D+00 0.486D+00
 Coeff:      0.514D+00 0.486D+00
 Gap=     0.316 Goal=   None    Shift=    0.000
 Gap=     0.246 Goal=   None    Shift=    0.000
 RMSDP=1.54D-06 MaxDP=2.94D-05 DE=-7.40D-09 OVMax= 3.40D-05

 Cycle  10  Pass 1  IDiag  1:
 E= -236.401022914729     Delta-E=       -0.000000029497 Rises=F Damp=F
 DIIS: error= 1.78D-06 at cycle   3 NSaved=   3.
 NSaved= 3 IEnMin= 3 EnMin= -236.401022914729     IErMin= 3 ErrMin= 1.78D-06
 ErrMax= 1.78D-06  0.00D+00 EMaxC= 1.00D-01 BMatC= 3.14D-09 BMatP= 1.05D-07
 IDIUse=1 WtCom= 1.00D+00 WtEn= 0.00D+00
 Coeff-Com: -0.341D-01 0.609D-01 0.973D+00
 Coeff:     -0.341D-01 0.609D-01 0.973D+00
 Gap=     0.316 Goal=   None    Shift=    0.000
 Gap=     0.246 Goal=   None    Shift=    0.000
 RMSDP=4.63D-07 MaxDP=1.03D-05 DE=-2.95D-08 OVMax= 1.20D-05

 Cycle  11  Pass 1  IDiag  1:
 E= -236.401022916115     Delta-E=       -0.000000001385 Rises=F Damp=F
 DIIS: error= 1.06D-06 at cycle   4 NSaved=   4.
 NSaved= 4 IEnMin= 4 EnMin= -236.401022916115     IErMin= 4 ErrMin= 1.06D-06
 ErrMax= 1.06D-06  0.00D+00 EMaxC= 1.00D-01 BMatC= 8.67D-10 BMatP= 3.14D-09
 IDIUse=1 WtCom= 1.00D+00 WtEn= 0.00D+00
 Coeff-Com: -0.121D+00-0.811D-01 0.364D+00 0.839D+00
 Coeff:     -0.121D+00-0.811D-01 0.364D+00 0.839D+00
 Gap=     0.316 Goal=   None    Shift=    0.000
 Gap=     0.246 Goal=   None    Shift=    0.000
 RMSDP=2.43D-07 MaxDP=7.85D-06 DE=-1.39D-09 OVMax= 7.24D-06

 Cycle  12  Pass 1  IDiag  1:
 E= -236.401022916455     Delta-E=       -0.000000000341 Rises=F Damp=F
 DIIS: error= 3.94D-07 at cycle   5 NSaved=   5.
 NSaved= 5 IEnMin= 5 EnMin= -236.401022916455     IErMin= 5 ErrMin= 3.94D-07
 ErrMax= 3.94D-07  0.00D+00 EMaxC= 1.00D-01 BMatC= 1.18D-10 BMatP= 8.67D-10
 IDIUse=1 WtCom= 1.00D+00 WtEn= 0.00D+00
 Coeff-Com: -0.545D-01-0.438D-01 0.859D-01 0.384D+00 0.628D+00
 Coeff:     -0.545D-01-0.438D-01 0.859D-01 0.384D+00 0.628D+00
 Gap=     0.316 Goal=   None    Shift=    0.000
 Gap=     0.246 Goal=   None    Shift=    0.000
 RMSDP=5.72D-08 MaxDP=2.08D-06 DE=-3.41D-10 OVMax= 1.99D-06

 Cycle  13  Pass 1  IDiag  1:
 E= -236.401022916487     Delta-E=       -0.000000000032 Rises=F Damp=F
 DIIS: error= 9.15D-08 at cycle   6 NSaved=   6.
 NSaved= 6 IEnMin= 6 EnMin= -236.401022916487     IErMin= 6 ErrMin= 9.15D-08
 ErrMax= 9.15D-08  0.00D+00 EMaxC= 1.00D-01 BMatC= 4.76D-12 BMatP= 1.18D-10
 IDIUse=1 WtCom= 1.00D+00 WtEn= 0.00D+00
 Coeff-Com: -0.290D-03-0.217D-02-0.178D-01 0.462D-02 0.166D+00 0.850D+00
 Coeff:     -0.290D-03-0.217D-02-0.178D-01 0.462D-02 0.166D+00 0.850D+00
 Gap=     0.316 Goal=   None    Shift=    0.000
 Gap=     0.246 Goal=   None    Shift=    0.000
 RMSDP=1.39D-08 MaxDP=4.80D-07 DE=-3.19D-11 OVMax= 4.65D-07

 Cycle  14  Pass 1  IDiag  1:
 E= -236.401022916490     Delta-E=       -0.000000000003 Rises=F Damp=F
 DIIS: error= 3.17D-08 at cycle   7 NSaved=   7.
 NSaved= 7 IEnMin= 7 EnMin= -236.401022916490     IErMin= 7 ErrMin= 3.17D-08
 ErrMax= 3.17D-08  0.00D+00 EMaxC= 1.00D-01 BMatC= 4.80D-13 BMatP= 4.76D-12
 IDIUse=1 WtCom= 1.00D+00 WtEn= 0.00D+00
 Coeff-Com:  0.245D-02 0.127D-02-0.105D-01-0.168D-01 0.312D-01 0.317D+00
 Coeff-Com:  0.676D+00
 Coeff:      0.245D-02 0.127D-02-0.105D-01-0.168D-01 0.312D-01 0.317D+00
 Coeff:      0.676D+00
 Gap=     0.316 Goal=   None    Shift=    0.000
 Gap=     0.246 Goal=   None    Shift=    0.000
 RMSDP=4.73D-09 MaxDP=9.48D-08 DE=-2.61D-12 OVMax= 1.07D-07

 SCF Done:  E(UB3LYP) =  -236.401022916     A.U. after   14 cycles
            NFock= 14  Conv=0.47D-08     -V/T= 2.0104
 <Sx>= 0.0000 <Sy>= 0.0000 <Sz>= 0.5000 <S**2>= 0.7527 S= 0.5014
 <L.S>= 0.000000000000E+00
 KE= 2.339604629261D+02 PE=-1.034996822184D+03 EE= 3.199018241966D+02
 Annihilation of the first spin contaminant:
 S**2 before annihilation     0.7527,   after     0.7500
 Leave Link  502 at Sat Nov  7 02:06:04 2015, MaxMem=   805306368 cpu:       159.7
 (Enter /home/hetanjin/apps/g09D01/g09/l601.exe)
 Copying SCF densities to generalized density rwf, IOpCl= 1 IROHF=0.

 **********************************************************************

            Population analysis using the SCF density.

 **********************************************************************

 Orbital symmetries:
 Alpha Orbitals:
       Occupied  (A) (A) (A) (A) (A) (A) (A) (A) (A) (A) (A) (A)
                 (A) (A) (A) (A) (A) (A) (A) (A) (A) (A) (A) (A)
                 (A)
       Virtual   (A) (A) (A) (A) (A) (A) (A) (A) (A) (A) (A) (A)
                 (A) (A) (A) (A) (A) (A) (A) (A) (A) (A) (A) (A)
                 (A) (A) (A) (A) (A) (A) (A) (A) (A) (A) (A) (A)
                 (A) (A) (A) (A) (A) (A) (A) (A) (A) (A) (A) (A)
                 (A) (A) (A) (A) (A) (A) (A) (A) (A) (A) (A) (A)
                 (A) (A) (A) (A) (A) (A) (A) (A) (A) (A) (A) (A)
                 (A) (A) (A) (A) (A) (A) (A) (A) (A) (A) (A) (A)
                 (A) (A) (A) (A) (A) (A) (A)
 Beta  Orbitals:
       Occupied  (A) (A) (A) (A) (A) (A) (A) (A) (A) (A) (A) (A)
                 (A) (A) (A) (A) (A) (A) (A) (A) (A) (A) (A) (A)
       Virtual   (A) (A) (A) (A) (A) (A) (A) (A) (A) (A) (A) (A)
                 (A) (A) (A) (A) (A) (A) (A) (A) (A) (A) (A) (A)
                 (A) (A) (A) (A) (A) (A) (A) (A) (A) (A) (A) (A)
                 (A) (A) (A) (A) (A) (A) (A) (A) (A) (A) (A) (A)
                 (A) (A) (A) (A) (A) (A) (A) (A) (A) (A) (A) (A)
                 (A) (A) (A) (A) (A) (A) (A) (A) (A) (A) (A) (A)
                 (A) (A) (A) (A) (A) (A) (A) (A) (A) (A) (A) (A)
                 (A) (A) (A) (A) (A) (A) (A) (A)
 The electronic state is 2-A.
 Alpha  occ. eigenvalues --  -10.19313 -10.18751 -10.18402 -10.17628 -10.17432
 Alpha  occ. eigenvalues --  -10.16828  -0.81165  -0.74667  -0.70194  -0.64461
 Alpha  occ. eigenvalues --   -0.59651  -0.55149  -0.46283  -0.44342  -0.42900
 Alpha  occ. eigenvalues --   -0.41424  -0.39305  -0.38638  -0.36381  -0.35050
 Alpha  occ. eigenvalues --   -0.33507  -0.32829  -0.31873  -0.30987  -0.22724
 Alpha virt. eigenvalues --    0.08889   0.11862   0.11939   0.13037   0.15217
 Alpha virt. eigenvalues --    0.15827   0.16865   0.17372   0.17828   0.18309
 Alpha virt. eigenvalues --    0.19669   0.20516   0.22423   0.23638   0.25165
 Alpha virt. eigenvalues --    0.25395   0.27958   0.29060   0.49038   0.51191
 Alpha virt. eigenvalues --    0.51381   0.52785   0.53210   0.57240   0.58925
 Alpha virt. eigenvalues --    0.61944   0.63356   0.64513   0.65324   0.69227
 Alpha virt. eigenvalues --    0.69684   0.77949   0.79362   0.80637   0.85098
 Alpha virt. eigenvalues --    0.87151   0.88448   0.89996   0.90216   0.91220
 Alpha virt. eigenvalues --    0.91645   0.93070   0.94515   0.95674   0.96237
 Alpha virt. eigenvalues --    0.97307   0.99197   1.00514   1.00854   1.07433
 Alpha virt. eigenvalues --    1.21742   1.33782   1.39968   1.42597   1.47928
 Alpha virt. eigenvalues --    1.54998   1.57359   1.67145   1.72873   1.73902
 Alpha virt. eigenvalues --    1.83025   1.85208   1.89801   1.94464   1.94838
 Alpha virt. eigenvalues --    1.97016   1.98315   1.99454   2.01319   2.02084
 Alpha virt. eigenvalues --    2.11126   2.17362   2.20813   2.27292   2.30417
 Alpha virt. eigenvalues --    2.31140   2.34196   2.35125   2.42503   2.49305
 Alpha virt. eigenvalues --    2.52048   2.59013   2.67996   2.76672   2.79094
 Alpha virt. eigenvalues --    4.09141   4.20344   4.21665   4.39323   4.41823
 Alpha virt. eigenvalues --    4.58969
  Beta  occ. eigenvalues --  -10.18780 -10.18280 -10.17873 -10.17613 -10.17431
  Beta  occ. eigenvalues --  -10.16821  -0.80669  -0.74593  -0.69104  -0.62986
  Beta  occ. eigenvalues --   -0.59548  -0.54614  -0.45924  -0.43802  -0.42852
  Beta  occ. eigenvalues --   -0.40980  -0.39251  -0.38241  -0.35947  -0.34942
  Beta  occ. eigenvalues --   -0.33345  -0.32109  -0.31546  -0.30747
  Beta virt. eigenvalues --   -0.06158   0.09103   0.12062   0.12175   0.13311
  Beta virt. eigenvalues --    0.15373   0.16152   0.17188   0.17458   0.17963
  Beta virt. eigenvalues --    0.18694   0.19723   0.20760   0.22546   0.24041
  Beta virt. eigenvalues --    0.25655   0.26250   0.28118   0.29561   0.49109
  Beta virt. eigenvalues --    0.51517   0.52447   0.53037   0.54901   0.58162
  Beta virt. eigenvalues --    0.59321   0.62639   0.63944   0.65935   0.66854
  Beta virt. eigenvalues --    0.69571   0.70082   0.78426   0.79734   0.80822
  Beta virt. eigenvalues --    0.85372   0.87365   0.88668   0.90168   0.90396
  Beta virt. eigenvalues --    0.91571   0.92138   0.93367   0.94799   0.96033
  Beta virt. eigenvalues --    0.96824   0.97669   0.99535   1.00902   1.01305
  Beta virt. eigenvalues --    1.07684   1.22930   1.34042   1.40398   1.43510
  Beta virt. eigenvalues --    1.48634   1.55355   1.57561   1.67574   1.74159
  Beta virt. eigenvalues --    1.75703   1.83272   1.86978   1.89997   1.95313
  Beta virt. eigenvalues --    1.95924   1.98470   1.99959   2.00430   2.02166
  Beta virt. eigenvalues --    2.02769   2.12935   2.18816   2.21918   2.27694
  Beta virt. eigenvalues --    2.30938   2.31577   2.34320   2.35801   2.42784
  Beta virt. eigenvalues --    2.50275   2.52433   2.59267   2.68712   2.77245
  Beta virt. eigenvalues --    2.79265   4.10333   4.20813   4.23252   4.39811
  Beta virt. eigenvalues --    4.41935   4.59120
          Condensed to atoms (all electrons):
               1          2          3          4          5          6
     1  C    5.069688   0.376791   0.377470   0.370594   0.370689  -0.038919
     2  H    0.376791   0.580144  -0.031354  -0.031681  -0.035817   0.005312
     3  H    0.377470  -0.031354   0.563656  -0.031438  -0.032162  -0.004595
     4  H    0.370594  -0.031681  -0.031438   0.582825  -0.027848  -0.002336
     5  C    0.370689  -0.035817  -0.032162  -0.027848   4.990640   0.369200
     6  H   -0.038919   0.005312  -0.004595  -0.002336   0.369200   0.618221
     7  H   -0.039669  -0.003737   0.005077  -0.003673   0.370970  -0.038899
     8  C   -0.039270  -0.005020  -0.005303   0.004050   0.386895  -0.038400
     9  H   -0.004650   0.005618  -0.000215  -0.000027  -0.047733   0.006491
    10  C    0.003978   0.000052   0.000090  -0.000112  -0.041910  -0.004463
    11  H    0.000071   0.000003  -0.000002  -0.000011  -0.005304  -0.000311
    12  H   -0.000032   0.000007   0.000003   0.000004  -0.004362   0.004790
    13  C   -0.000133  -0.000001   0.000001   0.000001   0.004055  -0.000030
    14  H    0.000001   0.000000  -0.000001   0.000000   0.000034   0.000003
    15  H    0.000001   0.000000   0.000000   0.000000  -0.000117   0.000004
    16  H   -0.000001  -0.000001   0.000000   0.000000   0.000061   0.000007
    17  C   -0.001865  -0.000279   0.007466   0.000081  -0.049334  -0.007843
    18  H   -0.000295   0.000071   0.000092  -0.000022  -0.006822   0.005690
    19  H    0.000049  -0.000022  -0.000157   0.000002   0.005013  -0.000027
               7          8          9         10         11         12
     1  C   -0.039669  -0.039270  -0.004650   0.003978   0.000071  -0.000032
     2  H   -0.003737  -0.005020   0.005618   0.000052   0.000003   0.000007
     3  H    0.005077  -0.005303  -0.000215   0.000090  -0.000002   0.000003
     4  H   -0.003673   0.004050  -0.000027  -0.000112  -0.000011   0.000004
     5  C    0.370970   0.386895  -0.047733  -0.041910  -0.005304  -0.004362
     6  H   -0.038899  -0.038400   0.006491  -0.004463  -0.000311   0.004790
     7  H    0.619223  -0.038648  -0.003451  -0.005028   0.006898  -0.000338
     8  C   -0.038648   4.896903   0.370106   0.377742  -0.036151  -0.038028
     9  H   -0.003451   0.370106   0.642452  -0.046951  -0.003499   0.006593
    10  C   -0.005028   0.377742  -0.046951   5.015125   0.368915   0.367777
    11  H    0.006898  -0.036151  -0.003499   0.368915   0.606762  -0.037767
    12  H   -0.000338  -0.038028   0.006593   0.367777  -0.037767   0.613165
    13  C    0.000075  -0.038786  -0.005071   0.367060  -0.039350  -0.039618
    14  H    0.000000  -0.004951  -0.000158  -0.032886   0.005175  -0.004597
    15  H   -0.000008   0.003904  -0.000007  -0.027146  -0.003544  -0.002188
    16  H    0.000000  -0.004603   0.005693  -0.036089  -0.003784   0.005308
    17  C    0.005465   0.381270  -0.048651  -0.049786   0.005801  -0.007430
    18  H   -0.000039  -0.044816   0.006131  -0.003047  -0.000105   0.005813
    19  H   -0.000203  -0.037864  -0.004445  -0.002701  -0.000105  -0.000143
              13         14         15         16         17         18
     1  C   -0.000133   0.000001   0.000001  -0.000001  -0.001865  -0.000295
     2  H   -0.000001   0.000000   0.000000  -0.000001  -0.000279   0.000071
     3  H    0.000001  -0.000001   0.000000   0.000000   0.007466   0.000092
     4  H    0.000001   0.000000   0.000000   0.000000   0.000081  -0.000022
     5  C    0.004055   0.000034  -0.000117   0.000061  -0.049334  -0.006822
     6  H   -0.000030   0.000003   0.000004   0.000007  -0.007843   0.005690
     7  H    0.000075   0.000000  -0.000008   0.000000   0.005465  -0.000039
     8  C   -0.038786  -0.004951   0.003904  -0.004603   0.381270  -0.044816
     9  H   -0.005071  -0.000158  -0.000007   0.005693  -0.048651   0.006131
    10  C    0.367060  -0.032886  -0.027146  -0.036089  -0.049786  -0.003047
    11  H   -0.039350   0.005175  -0.003544  -0.003784   0.005801  -0.000105
    12  H   -0.039618  -0.004597  -0.002188   0.005308  -0.007430   0.005813
    13  C    5.079642   0.375425   0.370823   0.377061  -0.005720  -0.000345
    14  H    0.375425   0.574025  -0.030621  -0.032863   0.003531   0.000255
    15  H    0.370823  -0.030621   0.575962  -0.030983   0.000221  -0.000018
    16  H    0.377061  -0.032863  -0.030983   0.576927  -0.000494   0.000073
    17  C   -0.005720   0.003531   0.000221  -0.000494   5.347470   0.353871
    18  H   -0.000345   0.000255  -0.000018   0.000073   0.353871   0.601708
    19  H    0.002085   0.002805  -0.000064   0.000378   0.354946  -0.045986
              19
     1  C    0.000049
     2  H   -0.000022
     3  H   -0.000157
     4  H    0.000002
     5  C    0.005013
     6  H   -0.000027
     7  H   -0.000203
     8  C   -0.037864
     9  H   -0.004445
    10  C   -0.002701
    11  H   -0.000105
    12  H   -0.000143
    13  C    0.002085
    14  H    0.002805
    15  H   -0.000064
    16  H    0.000378
    17  C    0.354946
    18  H   -0.045986
    19  H    0.592040
          Atomic-Atomic Spin Densities.
               1          2          3          4          5          6
     1  C    0.008952  -0.000197  -0.000343  -0.000601  -0.002219  -0.000055
     2  H   -0.000197   0.000036   0.000298   0.000081  -0.000253  -0.000016
     3  H   -0.000343   0.000298  -0.002574   0.000117  -0.000118   0.000019
     4  H   -0.000601   0.000081   0.000117   0.000570  -0.000074  -0.000036
     5  C   -0.002219  -0.000253  -0.000118  -0.000074   0.010927   0.000096
     6  H   -0.000055  -0.000016   0.000019  -0.000036   0.000096  -0.000904
     7  H    0.000446   0.000041  -0.000045   0.000018   0.000259   0.000239
     8  C   -0.000081  -0.000053  -0.000557  -0.000074   0.004837   0.000509
     9  H   -0.000457  -0.000089  -0.000091  -0.000023   0.002266   0.000006
    10  C    0.000489   0.000022   0.000066   0.000016  -0.005994  -0.000357
    11  H   -0.000113  -0.000005  -0.000006  -0.000004   0.001230   0.000090
    12  H   -0.000013   0.000000  -0.000002  -0.000001   0.000167  -0.000003
    13  C   -0.000004   0.000000   0.000000   0.000000   0.000059   0.000003
    14  H   -0.000001   0.000000   0.000000   0.000000   0.000028   0.000001
    15  H    0.000000   0.000000   0.000000   0.000000   0.000000   0.000000
    16  H   -0.000001   0.000000   0.000000   0.000000   0.000011   0.000000
    17  C   -0.000458   0.000220   0.002847   0.000119  -0.006687  -0.000151
    18  H    0.000017  -0.000005  -0.000170  -0.000006   0.001097   0.000004
    19  H   -0.000024  -0.000003  -0.000023  -0.000001   0.000112   0.000014
               7          8          9         10         11         12
     1  C    0.000446  -0.000081  -0.000457   0.000489  -0.000113  -0.000013
     2  H    0.000041  -0.000053  -0.000089   0.000022  -0.000005   0.000000
     3  H   -0.000045  -0.000557  -0.000091   0.000066  -0.000006  -0.000002
     4  H    0.000018  -0.000074  -0.000023   0.000016  -0.000004  -0.000001
     5  C    0.000259   0.004837   0.002266  -0.005994   0.001230   0.000167
     6  H    0.000239   0.000509   0.000006  -0.000357   0.000090  -0.000003
     7  H   -0.002828   0.000426  -0.000011   0.000430  -0.000437   0.000000
     8  C    0.000426  -0.041735   0.003910   0.015474  -0.002028   0.000332
     9  H   -0.000011   0.003910   0.007761  -0.006353   0.001144   0.000062
    10  C    0.000430   0.015474  -0.006353   0.091242  -0.014778  -0.002652
    11  H   -0.000437  -0.002028   0.001144  -0.014778   0.022328   0.001191
    12  H    0.000000   0.000332   0.000062  -0.002652   0.001191  -0.002324
    13  C   -0.000006   0.000705   0.000155  -0.000464   0.000588   0.000092
    14  H   -0.000001  -0.000495   0.000149  -0.001849   0.000414   0.000223
    15  H    0.000001  -0.000106   0.000005   0.000249  -0.000020   0.000006
    16  H   -0.000001  -0.000012   0.000131  -0.000739   0.000329   0.000003
    17  C    0.000109  -0.030108  -0.003666  -0.028138   0.002236   0.001435
    18  H   -0.000027   0.001445   0.000109  -0.002175   0.000126   0.000130
    19  H    0.000005   0.000888   0.000964  -0.002027   0.000114   0.000088
              13         14         15         16         17         18
     1  C   -0.000004  -0.000001   0.000000  -0.000001  -0.000458   0.000017
     2  H    0.000000   0.000000   0.000000   0.000000   0.000220  -0.000005
     3  H    0.000000   0.000000   0.000000   0.000000   0.002847  -0.000170
     4  H    0.000000   0.000000   0.000000   0.000000   0.000119  -0.000006
     5  C    0.000059   0.000028   0.000000   0.000011  -0.006687   0.001097
     6  H    0.000003   0.000001   0.000000   0.000000  -0.000151   0.000004
     7  H   -0.000006  -0.000001   0.000001  -0.000001   0.000109  -0.000027
     8  C    0.000705  -0.000495  -0.000106  -0.000012  -0.030108   0.001445
     9  H    0.000155   0.000149   0.000005   0.000131  -0.003666   0.000109
    10  C   -0.000464  -0.001849   0.000249  -0.000739  -0.028138  -0.002175
    11  H    0.000588   0.000414  -0.000020   0.000329   0.002236   0.000126
    12  H    0.000092   0.000223   0.000006   0.000003   0.001435   0.000130
    13  C    0.005937  -0.003675   0.000617  -0.000549  -0.002511  -0.000118
    14  H   -0.003675   0.002033  -0.000205   0.000502   0.003566   0.000212
    15  H    0.000617  -0.000205  -0.001117   0.000020   0.000018   0.000002
    16  H   -0.000549   0.000502   0.000020   0.000462   0.000278   0.000007
    17  C   -0.002511   0.003566   0.000018   0.000278   1.121497  -0.011757
    18  H   -0.000118   0.000212   0.000002   0.000007  -0.011757  -0.025006
    19  H   -0.000405   0.001264  -0.000007   0.000054  -0.010887   0.005939
              19
     1  C   -0.000024
     2  H   -0.000003
     3  H   -0.000023
     4  H   -0.000001
     5  C    0.000112
     6  H    0.000014
     7  H    0.000005
     8  C    0.000888
     9  H    0.000964
    10  C   -0.002027
    11  H    0.000114
    12  H    0.000088
    13  C   -0.000405
    14  H    0.001264
    15  H   -0.000007
    16  H    0.000054
    17  C   -0.010887
    18  H    0.005939
    19  H   -0.028007
 Mulliken charges and spin densities:
               1          2
     1  C   -0.444500   0.005336
     2  H    0.139912   0.000078
     3  H    0.151370  -0.000580
     4  H    0.139592   0.000102
     5  C   -0.246149   0.005746
     6  H    0.126104  -0.000541
     7  H    0.125983  -0.001380
     8  C   -0.089029  -0.046723
     9  H    0.121775   0.005972
    10  C   -0.250620   0.042463
    11  H    0.136307   0.012398
    12  H    0.131046  -0.001267
    13  C   -0.447175   0.000422
    14  H    0.144822   0.002166
    15  H    0.143782  -0.000537
    16  H    0.143311   0.000497
    17  C   -0.288718   1.037962
    18  H    0.127791  -0.030173
    19  H    0.134398  -0.031940
 Sum of Mulliken charges =   0.00000   1.00000
 Mulliken charges and spin densities with hydrogens summed into heavy atoms:
               1          2
     1  C   -0.013626   0.004936
     5  C    0.005937   0.003824
     8  C    0.032746  -0.040751
    10  C    0.016732   0.053594
    13  C   -0.015260   0.002548
    17  C   -0.026529   0.975849
 Electronic spatial extent (au):  <R**2>=            837.8124
 Charge=              0.0000 electrons
 Dipole moment (field-independent basis, Debye):
    X=             -0.5128    Y=             -0.5131    Z=             -0.1529  Tot=              0.7413
 Quadrupole moment (field-independent basis, Debye-Ang):
   XX=            -41.1474   YY=            -41.8111   ZZ=            -40.3349
   XY=             -0.7975   XZ=             -0.0765   YZ=             -0.5174
 Traceless Quadrupole moment (field-independent basis, Debye-Ang):
   XX=             -0.0496   YY=             -0.7133   ZZ=              0.7629
   XY=             -0.7975   XZ=             -0.0765   YZ=             -0.5174
 Octapole moment (field-independent basis, Debye-Ang**2):
  XXX=             -1.0465  YYY=             -4.7574  ZZZ=              0.1002  XYY=             -2.4559
  XXY=             -1.3409  XXZ=             -1.2047  XZZ=             -0.2325  YZZ=             -0.1252
  YYZ=             -0.3726  XYZ=             -0.2214
 Hexadecapole moment (field-independent basis, Debye-Ang**3):
 XXXX=           -836.6968 YYYY=           -232.1596 ZZZZ=           -102.6130 XXXY=             -0.3603
 XXXZ=             -0.3135 YYYX=             -4.5270 YYYZ=             -1.4102 ZZZX=              0.0178
 ZZZY=             -1.5231 XXYY=           -172.7470 XXZZ=           -157.3011 YYZZ=            -56.6219
 XXYZ=              0.6943 YYXZ=             -0.3127 ZZXY=             -0.2051
 N-N= 2.447335121444D+02 E-N=-1.034996828118D+03  KE= 2.339604629261D+02
                          Isotropic Fermi Contact Couplings
        Atom                 a.u.       MegaHertz       Gauss      10(-4) cm-1
     1  C(13)              0.00038       0.43030       0.15354       0.14353
     2  H(1)               0.00003       0.11578       0.04131       0.03862
     3  H(1)               0.00071       3.19110       1.13866       1.06443
     4  H(1)               0.00001       0.02735       0.00976       0.00912
     5  C(13)              0.00540       6.06727       2.16495       2.02382
     6  H(1)              -0.00024      -1.09378      -0.39029      -0.36485
     7  H(1)              -0.00048      -2.15118      -0.76759      -0.71756
     8  C(13)             -0.01193     -13.40642      -4.78374      -4.47190
     9  H(1)               0.00367      16.40480       5.85364       5.47205
    10  C(13)              0.04924      55.35110      19.75065      18.46314
    11  H(1)               0.00401      17.94149       6.40197       5.98464
    12  H(1)              -0.00062      -2.77941      -0.99176      -0.92711
    13  C(13)              0.00095       1.06719       0.38080       0.35598
    14  H(1)              -0.00009      -0.38065      -0.13583      -0.12697
    15  H(1)              -0.00008      -0.35168      -0.12549      -0.11731
    16  H(1)               0.00008       0.37653       0.13435       0.12560
    17  C(13)              0.30473     342.57506     122.23930     114.27074
    18  H(1)              -0.00428     -19.11229      -6.81974      -6.37517
    19  H(1)              -0.00463     -20.69270      -7.38367      -6.90234
 --------------------------------------------------------
       Center         ----  Spin Dipole Couplings  ----
                      3XX-RR        3YY-RR        3ZZ-RR
 --------------------------------------------------------
     1   Atom        0.000950      0.007009     -0.007959
     2   Atom        0.001346     -0.000050     -0.001296
     3   Atom        0.011536     -0.003131     -0.008405
     4   Atom        0.002178      0.000349     -0.002527
     5   Atom       -0.001432      0.010344     -0.008912
     6   Atom       -0.002308      0.004057     -0.001748
     7   Atom       -0.001612      0.005394     -0.003783
     8   Atom       -0.013489      0.036244     -0.022755
     9   Atom       -0.009706      0.006985      0.002721
    10   Atom        0.019573      0.011320     -0.030893
    11   Atom       -0.002971      0.008559     -0.005588
    12   Atom       -0.004583      0.001577      0.003006
    13   Atom        0.004053      0.000841     -0.004894
    14   Atom        0.009257     -0.003377     -0.005880
    15   Atom        0.002585     -0.000099     -0.002486
    16   Atom        0.001834     -0.000930     -0.000904
    17   Atom        0.463529     -0.181607     -0.281922
    18   Atom       -0.024109     -0.046505      0.070614
    19   Atom        0.047645     -0.016251     -0.031394
 --------------------------------------------------------
                        XY            XZ            YZ
 --------------------------------------------------------
     1   Atom       -0.005104      0.000707     -0.002838
     2   Atom       -0.004234      0.003291     -0.002776
     3   Atom       -0.006971      0.000382     -0.000795
     4   Atom       -0.003233     -0.000249      0.000136
     5   Atom       -0.011842     -0.004265      0.004864
     6   Atom       -0.004963     -0.003328      0.006109
     7   Atom       -0.002818      0.000037      0.000029
     8   Atom        0.020305      0.002704      0.000551
     9   Atom        0.002752     -0.000662     -0.015128
    10   Atom        0.050961      0.015764      0.014035
    11   Atom        0.001815      0.000991     -0.001512
    12   Atom        0.006057      0.006008      0.005922
    13   Atom        0.004366     -0.001173     -0.002300
    14   Atom        0.003371     -0.001492     -0.000465
    15   Atom        0.002457     -0.000218     -0.000025
    16   Atom        0.002951     -0.003374     -0.001600
    17   Atom        0.530010      0.428174      0.242008
    18   Atom        0.020498      0.005115     -0.010042
    19   Atom       -0.029927     -0.023212      0.035486
 --------------------------------------------------------


 ---------------------------------------------------------------------------------
              Anisotropic Spin Dipole Couplings in Principal Axis System
 ---------------------------------------------------------------------------------

       Atom             a.u.   MegaHertz   Gauss  10(-4) cm-1        Axes

              Baa    -0.0085    -1.139    -0.406    -0.380  0.0288  0.1892  0.9815
     1 C(13)  Bbb    -0.0019    -0.250    -0.089    -0.083  0.8765  0.4672 -0.1158
              Bcc     0.0103     1.389     0.496     0.463 -0.4805  0.8637 -0.1524
 
              Baa    -0.0036    -1.944    -0.694    -0.649  0.6710  0.7384 -0.0675
     2 H(1)   Bbb    -0.0035    -1.864    -0.665    -0.622 -0.2969  0.3510  0.8881
              Bcc     0.0071     3.808     1.359     1.270  0.6794 -0.5759  0.4547
 
              Baa    -0.0086    -4.566    -1.629    -1.523  0.0559  0.2145  0.9751
     3 H(1)   Bbb    -0.0058    -3.084    -1.101    -1.029  0.3685  0.9033 -0.2199
              Bcc     0.0143     7.651     2.730     2.552  0.9280 -0.3716  0.0286
 
              Baa    -0.0025    -1.356    -0.484    -0.452  0.0871  0.0504  0.9949
     4 H(1)   Bbb    -0.0021    -1.117    -0.398    -0.372  0.5976  0.7964 -0.0927
              Bcc     0.0046     2.473     0.882     0.825  0.7971 -0.6026 -0.0392
 
              Baa    -0.0109    -1.459    -0.521    -0.487  0.4788  0.0665  0.8754
     5 C(13)  Bbb    -0.0083    -1.108    -0.396    -0.370  0.7068  0.5622 -0.4294
              Bcc     0.0191     2.568     0.916     0.857 -0.5207  0.8243  0.2222
 
              Baa    -0.0056    -3.012    -1.075    -1.005  0.2225 -0.4354  0.8723
     6 H(1)   Bbb    -0.0050    -2.679    -0.956    -0.894  0.8807  0.4735  0.0117
              Bcc     0.0107     5.692     2.031     1.899 -0.4182  0.7656  0.4888
 
              Baa    -0.0038    -2.019    -0.721    -0.674 -0.0351 -0.0140  0.9993
     7 H(1)   Bbb    -0.0026    -1.389    -0.496    -0.463  0.9425  0.3320  0.0377
              Bcc     0.0064     3.408     1.216     1.137 -0.3323  0.9432  0.0015
 
              Baa    -0.0243    -3.265    -1.165    -1.089 -0.5220  0.1674  0.8364
     8 C(13)  Bbb    -0.0192    -2.574    -0.918    -0.858  0.7838 -0.2926  0.5477
              Bcc     0.0435     5.839     2.083     1.948  0.3364  0.9415  0.0216
 
              Baa    -0.0115    -6.134    -2.189    -2.046  0.6336 -0.5444 -0.5497
     9 H(1)   Bbb    -0.0088    -4.720    -1.684    -1.574  0.7692  0.3666  0.5235
              Bcc     0.0203    10.853     3.873     3.620  0.0835  0.7545 -0.6510
 
              Baa    -0.0359    -4.816    -1.719    -1.607  0.6608 -0.5672 -0.4915
    10 C(13)  Bbb    -0.0351    -4.704    -1.679    -1.569  0.2109 -0.4881  0.8469
              Bcc     0.0709     9.521     3.397     3.176  0.7203  0.6634  0.2029
 
              Baa    -0.0062    -3.309    -1.181    -1.104 -0.3607  0.1388  0.9223
    11 H(1)   Bbb    -0.0028    -1.473    -0.526    -0.491  0.9218 -0.0977  0.3752
              Bcc     0.0090     4.782     1.706     1.595  0.1422  0.9855 -0.0927
 
              Baa    -0.0089    -4.734    -1.689    -1.579  0.8915 -0.3640 -0.2695
    12 H(1)   Bbb    -0.0036    -1.937    -0.691    -0.646  0.0771  0.7083 -0.7017
              Bcc     0.0125     6.671     2.380     2.225  0.4463  0.6049  0.6595
 
              Baa    -0.0057    -0.767    -0.274    -0.256 -0.0485  0.3590  0.9321
    13 C(13)  Bbb    -0.0018    -0.242    -0.086    -0.081 -0.6072  0.7303 -0.3129
              Bcc     0.0075     1.009     0.360     0.337  0.7931  0.5811 -0.1826
 
              Baa    -0.0060    -3.220    -1.149    -1.074  0.0815  0.0704  0.9942
    14 H(1)   Bbb    -0.0042    -2.249    -0.803    -0.750 -0.2475  0.9677 -0.0482
              Bcc     0.0103     5.470     1.952     1.824  0.9655  0.2421 -0.0963
 
              Baa    -0.0025    -1.334    -0.476    -0.445  0.0745 -0.0657  0.9951
    15 H(1)   Bbb    -0.0015    -0.826    -0.295    -0.276 -0.5050  0.8579  0.0944
              Bcc     0.0040     2.161     0.771     0.721  0.8599  0.5096 -0.0307
 
              Baa    -0.0033    -1.759    -0.628    -0.587  0.6463 -0.3459  0.6802
    16 H(1)   Bbb    -0.0025    -1.322    -0.472    -0.441 -0.1355  0.8251  0.5484
              Bcc     0.0058     3.081     1.099     1.028  0.7510  0.4466 -0.4864
 
              Baa    -0.4799   -64.403   -22.981   -21.483 -0.3336  0.8757 -0.3490
    17 C(13)  Bbb    -0.4768   -63.978   -22.829   -21.341 -0.4822  0.1596  0.8614
              Bcc     0.9567   128.381    45.810    42.823  0.8101  0.4556  0.3690
 
              Baa    -0.0596   -31.819   -11.354   -10.614 -0.5072  0.8575  0.0860
    18 H(1)   Bbb    -0.0120    -6.379    -2.276    -2.128  0.8611  0.5084  0.0085
              Bcc     0.0716    38.198    13.630    12.741  0.0365 -0.0784  0.9963
 
              Baa    -0.0601   -32.074   -11.445   -10.699 -0.0089 -0.6326  0.7744
    19 H(1)   Bbb    -0.0117    -6.240    -2.227    -2.081  0.5378  0.6499  0.5370
              Bcc     0.0718    38.314    13.671    12.780  0.8430 -0.4213 -0.3345
 

 ---------------------------------------------------------------------------------

 No NMR shielding tensors so no spin-rotation constants.
 Leave Link  601 at Sat Nov  7 02:06:04 2015, MaxMem=   805306368 cpu:         1.0
 (Enter /home/hetanjin/apps/g09D01/g09/l701.exe)
 Compute integral first derivatives.
 ... and contract with generalized density number  0.
 Leave Link  701 at Sat Nov  7 02:06:04 2015, MaxMem=   805306368 cpu:         0.6
 (Enter /home/hetanjin/apps/g09D01/g09/l702.exe)
 L702 exits ... SP integral derivatives will be done elsewhere.
 Leave Link  702 at Sat Nov  7 02:06:04 2015, MaxMem=   805306368 cpu:         0.1
 (Enter /home/hetanjin/apps/g09D01/g09/l703.exe)
 Compute integral first derivatives, UseDBF=F ICtDFT=           0.
 Integral derivatives from FoFJK, PRISM(SPDF).
 Calling FoFJK, ICntrl=      2127 FMM=F ISym2X=0 I1Cent= 0 IOpClX= 1 NMat=1 NMatS=1 NMatT=0.
 FoFJK:  IHMeth= 1 ICntrl=    2127 DoSepK=F KAlg= 0 I1Cent=   0 FoldK=F
 IRaf=         0 NMat=   1 IRICut=       1 DoRegI=T DoRafI=F ISym2E= 0.
 FoFCou: FMM=F IPFlag=           0 FMFlag=      100000 FMFlg1=         800
         NFxFlg=           0 DoJE=F BraDBF=F KetDBF=F FulRan=T
         wScrn=  0.000000 ICntrl=    2127 IOpCl=  1 I1Cent=           0 NGrid=           0
         NMat0=    1 NMatS0=      1 NMatT0=    0 NMatD0=    1 NMtDS0=    0 NMtDT0=    0
 Symmetry not used in FoFCou.
 Leave Link  703 at Sat Nov  7 02:06:12 2015, MaxMem=   805306368 cpu:        30.7
 (Enter /home/hetanjin/apps/g09D01/g09/l716.exe)
 Dipole        =-2.01738729D-01-2.01852725D-01-6.01363592D-02
 ***** Axes restored to original set *****
 -------------------------------------------------------------------
 Center     Atomic                   Forces (Hartrees/Bohr)
 Number     Number              X              Y              Z
 -------------------------------------------------------------------
      1        6           0.000242709    0.000474955   -0.000175904
      2        1           0.000054953    0.000089800    0.000137453
      3        1           0.001483094    0.000774483   -0.000125311
      4        1           0.000086105   -0.000358331    0.000025684
      5        6          -0.000622868   -0.001177564    0.000409220
      6        1           0.000138003    0.000091001   -0.000014229
      7        1           0.000069691   -0.000137809    0.000191294
      8        6          -0.016794538    0.012556488   -0.006245088
      9        1           0.000697213   -0.000767742   -0.000085924
     10        6           0.005404467    0.001610590    0.003257362
     11        1          -0.001346211    0.000333689   -0.000563726
     12        1          -0.000006845   -0.000209841   -0.000325685
     13        6           0.000509951    0.000051721   -0.000302230
     14        1          -0.000027814   -0.000118886    0.000027092
     15        1          -0.000195607   -0.000118196    0.000011870
     16        1          -0.000033616    0.000009417    0.000121506
     17        6           0.033247929   -0.028682848    0.012789130
     18        1          -0.013122147    0.006615218   -0.001111213
     19        1          -0.009784471    0.008963852   -0.008021301
 -------------------------------------------------------------------
 Cartesian Forces:  Max     0.033247929 RMS     0.007350477
 Leave Link  716 at Sat Nov  7 02:06:12 2015, MaxMem=   805306368 cpu:         0.1
 (Enter /home/hetanjin/apps/g09D01/g09/l103.exe)

 GradGradGradGradGradGradGradGradGradGradGradGradGradGradGradGradGradGrad
 Berny optimization.
 FormGI is forming the generalized inverse of G from B-inverse, IUseBI=4.
 Internal  Forces:  Max     0.014687164 RMS     0.003403380
 Search for a local minimum.
 Step number   1 out of a maximum of  103
 All quantities printed in internal units (Hartrees-Bohrs-Radians)
 RMS Force = .34034D-02 SwitMx=.10000D-02 MixMth= 1
 Mixed Optimization -- RFO/linear search
 Second derivative matrix not updated -- first step.
 ITU=  0
     Eigenvalues ---    0.00230   0.00230   0.00279   0.00326   0.00326
     Eigenvalues ---    0.03219   0.03219   0.03581   0.03678   0.04711
     Eigenvalues ---    0.04711   0.04872   0.05357   0.05357   0.05469
     Eigenvalues ---    0.05496   0.05496   0.08726   0.08726   0.12495
     Eigenvalues ---    0.12495   0.16000   0.16000   0.16000   0.16000
     Eigenvalues ---    0.16000   0.16000   0.16000   0.16000   0.16723
     Eigenvalues ---    0.18330   0.21941   0.21941   0.28249   0.28249
     Eigenvalues ---    0.28802   0.29125   0.29125   0.33394   0.33637
     Eigenvalues ---    0.33637   0.33788   0.33788   0.33845   0.33973
     Eigenvalues ---    0.33973   0.34116   0.34116   0.34193   0.34193
     Eigenvalues ---    0.34238
 RFO step:  Lambda=-1.43501046D-02 EMin= 2.30000000D-03
 Linear search not attempted -- first point.
 Iteration  1 RMS(Cart)=  0.05805350 RMS(Int)=  0.00946145
 Iteration  2 RMS(Cart)=  0.00803582 RMS(Int)=  0.00587087
 Iteration  3 RMS(Cart)=  0.00012696 RMS(Int)=  0.00587011
 Iteration  4 RMS(Cart)=  0.00000268 RMS(Int)=  0.00587011
 Iteration  5 RMS(Cart)=  0.00000008 RMS(Int)=  0.00587011
 ITry= 1 IFail=0 DXMaxC= 2.89D-01 DCOld= 1.00D+10 DXMaxT= 3.00D-01 DXLimC= 3.00D+00 Rises=F
 Variable       Old X    -DE/DX   Delta X   Delta X   Delta X     New X
                                 (Linear)    (Quad)   (Total)
    R1        2.07376  -0.00014   0.00000  -0.00040  -0.00040   2.07336
    R2        2.07005   0.00041   0.00000   0.00115   0.00115   2.07120
    R3        2.07134   0.00014   0.00000   0.00040   0.00040   2.07175
    R4        2.89742  -0.00123   0.00000  -0.00403  -0.00403   2.89339
    R5        2.07947  -0.00001   0.00000  -0.00004  -0.00004   2.07943
    R6        2.07690   0.00010   0.00000   0.00028   0.00028   2.07718
    R7        2.91596  -0.00093   0.00000  -0.00313  -0.00313   2.91284
    R8        2.08366   0.00012   0.00000   0.00035   0.00035   2.08400
    R9        2.91596   0.00350   0.00000   0.01180   0.01180   2.92776
   R10        2.90418  -0.01167   0.00000  -0.03860  -0.03860   2.86558
   R11        2.07690  -0.00008   0.00000  -0.00022  -0.00022   2.07668
   R12        2.07947  -0.00034   0.00000  -0.00096  -0.00096   2.07851
   R13        2.89742   0.00022   0.00000   0.00070   0.00070   2.89813
   R14        2.07005  -0.00011   0.00000  -0.00031  -0.00031   2.06974
   R15        2.07134  -0.00008   0.00000  -0.00023  -0.00023   2.07112
   R16        2.07376  -0.00012   0.00000  -0.00034  -0.00034   2.07342
   R17        2.07593  -0.00049   0.00000  -0.00138  -0.00138   2.07455
   R18        2.06930  -0.00076   0.00000  -0.00214  -0.00214   2.06717
    A1        1.87842   0.00035   0.00000  -0.00133  -0.00137   1.87705
    A2        1.87726   0.00008   0.00000   0.00197   0.00197   1.87923
    A3        1.93932   0.00019   0.00000   0.00005   0.00003   1.93935
    A4        1.87288   0.00113   0.00000   0.00837   0.00838   1.88126
    A5        1.95782  -0.00173   0.00000  -0.01074  -0.01075   1.94707
    A6        1.93461   0.00009   0.00000   0.00234   0.00234   1.93695
    A7        1.90987   0.00114   0.00000   0.00030   0.00018   1.91005
    A8        1.89569   0.00154   0.00000   0.01068   0.01074   1.90643
    A9        2.00987  -0.00422   0.00000  -0.01933  -0.01936   1.99051
   A10        1.84904  -0.00066   0.00000   0.00163   0.00162   1.85066
   A11        1.90093   0.00096   0.00000  -0.00143  -0.00154   1.89939
   A12        1.89164   0.00149   0.00000   0.00990   0.00997   1.90161
   A13        1.87539  -0.00033   0.00000   0.00480   0.00479   1.88018
   A14        1.92053   0.00235   0.00000   0.00863   0.00854   1.92907
   A15        1.95271  -0.00075   0.00000  -0.00663  -0.00663   1.94608
   A16        1.87539  -0.00028   0.00000   0.00037   0.00036   1.87575
   A17        1.88339   0.00127   0.00000   0.00991   0.00992   1.89331
   A18        1.95271  -0.00219   0.00000  -0.01592  -0.01591   1.93680
   A19        1.89165  -0.00163   0.00000  -0.01482  -0.01481   1.87684
   A20        1.90093   0.00002   0.00000   0.00324   0.00321   1.90413
   A21        2.00987   0.00119   0.00000   0.00511   0.00510   2.01497
   A22        1.84904   0.00030   0.00000   0.00122   0.00122   1.85026
   A23        1.89569   0.00044   0.00000   0.00232   0.00233   1.89802
   A24        1.90987  -0.00039   0.00000   0.00247   0.00243   1.91231
   A25        1.95782   0.00002   0.00000   0.00025   0.00025   1.95807
   A26        1.93461  -0.00028   0.00000  -0.00179  -0.00179   1.93282
   A27        1.93932   0.00001   0.00000   0.00008   0.00008   1.93940
   A28        1.87288   0.00013   0.00000   0.00072   0.00072   1.87360
   A29        1.87842   0.00003   0.00000   0.00053   0.00053   1.87895
   A30        1.87726   0.00010   0.00000   0.00029   0.00029   1.87755
   A31        1.93183   0.01340   0.00000   0.14492   0.11601   2.04784
   A32        1.95027   0.01469   0.00000   0.15109   0.12239   2.07267
   A33        1.87920  -0.00091   0.00000   0.12180   0.08574   1.96493
    D1        3.12776  -0.00066   0.00000  -0.00294  -0.00293   3.12484
    D2       -1.14441   0.00002   0.00000   0.00502   0.00505  -1.13937
    D3        0.98010   0.00024   0.00000   0.01275   0.01273   0.99282
    D4        1.02422  -0.00004   0.00000   0.00613   0.00613   1.03035
    D5        3.03522   0.00063   0.00000   0.01410   0.01410   3.04933
    D6       -1.12345   0.00085   0.00000   0.02182   0.02178  -1.10167
    D7       -1.06899  -0.00038   0.00000   0.00111   0.00112  -1.06787
    D8        0.94202   0.00029   0.00000   0.00907   0.00909   0.95111
    D9        3.06653   0.00052   0.00000   0.01680   0.01677   3.08330
   D10       -0.95817  -0.00056   0.00000  -0.01868  -0.01863  -0.97680
   D11       -2.99494  -0.00130   0.00000  -0.02646  -0.02646  -3.02140
   D12        1.10606   0.00034   0.00000  -0.00738  -0.00734   1.09872
   D13       -3.11059   0.00021   0.00000  -0.00405  -0.00406  -3.11465
   D14        1.13582  -0.00053   0.00000  -0.01184  -0.01189   1.12393
   D15       -1.04636   0.00111   0.00000   0.00724   0.00723  -1.03913
   D16        1.16853  -0.00031   0.00000  -0.01049  -0.01049   1.15804
   D17       -0.86824  -0.00105   0.00000  -0.01828  -0.01832  -0.88656
   D18       -3.05042   0.00060   0.00000   0.00080   0.00080  -3.04962
   D19        0.86823   0.00027   0.00000   0.00669   0.00670   0.87494
   D20       -1.13583   0.00077   0.00000   0.01143   0.01144  -1.12439
   D21        2.99493   0.00041   0.00000   0.00195   0.00196   2.99688
   D22       -1.16854  -0.00044   0.00000  -0.00386  -0.00386  -1.17239
   D23        3.11058   0.00007   0.00000   0.00087   0.00088   3.11146
   D24        0.95816  -0.00029   0.00000  -0.00860  -0.00860   0.94955
   D25        3.05041  -0.00055   0.00000  -0.00706  -0.00708   3.04333
   D26        1.04635  -0.00005   0.00000  -0.00233  -0.00234   1.04400
   D27       -1.10608  -0.00041   0.00000  -0.01181  -0.01183  -1.11791
   D28        1.08212  -0.00843   0.00000  -0.17405  -0.18039   0.90174
   D29       -3.10680   0.00929   0.00000   0.17911   0.18555  -2.92125
   D30        3.14159  -0.00848   0.00000  -0.16581  -0.17217   2.96941
   D31       -1.04734   0.00924   0.00000   0.18736   0.19376  -0.85358
   D32       -1.08213  -0.00930   0.00000  -0.16837  -0.17483  -1.25696
   D33        1.01213   0.00842   0.00000   0.18479   0.19111   1.20324
   D34        1.12344   0.00058   0.00000   0.01018   0.01019   1.13363
   D35       -3.06654   0.00057   0.00000   0.01003   0.01004  -3.05650
   D36       -0.98010   0.00052   0.00000   0.00927   0.00928  -0.97083
   D37       -3.03523  -0.00040   0.00000  -0.00381  -0.00382  -3.03905
   D38       -0.94203  -0.00041   0.00000  -0.00396  -0.00397  -0.94599
   D39        1.14441  -0.00046   0.00000  -0.00472  -0.00473   1.13968
   D40       -1.02422  -0.00001   0.00000   0.00024   0.00024  -1.02398
   D41        1.06898  -0.00002   0.00000   0.00009   0.00009   1.06907
   D42       -3.12777  -0.00007   0.00000  -0.00067  -0.00067  -3.12844
         Item               Value     Threshold  Converged?
 Maximum Force            0.014687     0.000015     NO 
 RMS     Force            0.003403     0.000010     NO 
 Maximum Displacement     0.289179     0.000060     NO 
 RMS     Displacement     0.056695     0.000040     NO 
 Predicted change in Energy=-1.036611D-02
 Lowest energy point so far.  Saving SCF results.
 GradGradGradGradGradGradGradGradGradGradGradGradGradGradGradGradGradGrad

 Leave Link  103 at Sat Nov  7 02:06:13 2015, MaxMem=   805306368 cpu:         1.2
 (Enter /home/hetanjin/apps/g09D01/g09/l202.exe)
                          Input orientation:                          
 ---------------------------------------------------------------------
 Center     Atomic      Atomic             Coordinates (Angstroms)
 Number     Number       Type             X           Y           Z
 ---------------------------------------------------------------------
      1          6           0       -2.561389   -0.149372   -0.280655
      2          1           0       -2.549903   -0.176240   -1.377443
      3          1           0       -2.728243    0.890547    0.022679
      4          1           0       -3.421444   -0.739066    0.057706
      5          6           0       -1.256052   -0.701794    0.298349
      6          1           0       -1.290212   -0.646155    1.396799
      7          1           0       -1.173493   -1.769575    0.050846
      8          6           0        0.008813    0.026340   -0.197505
      9          1           0        0.010411   -0.016079   -1.299494
     10          6           0        1.283848   -0.701142    0.297872
     11          1           0        1.174721   -1.766211    0.050148
     12          1           0        1.325126   -0.647673    1.395696
     13          6           0        2.604656   -0.190844   -0.291243
     14          1           0        2.820828    0.839911    0.009439
     15          1           0        3.444035   -0.811514    0.042527
     16          1           0        2.586075   -0.220653   -1.387887
     17          6           0        0.014794    1.481965    0.227454
     18          1           0       -0.153039    1.697341    1.290758
     19          1           0        0.741394    2.160441   -0.228983
 ---------------------------------------------------------------------
                    Distance matrix (angstroms):
                    1          2          3          4          5
     1  C    0.000000
     2  H    1.097177   0.000000
     3  H    1.096031   1.769232   0.000000
     4  H    1.096322   1.770877   1.771269   0.000000
     5  C    1.531117   2.181407   2.186068   2.179041   0.000000
     6  H    2.162530   3.082866   2.513482   2.518720   1.100389
     7  H    2.158982   2.544254   3.081281   2.472909   1.099195
     8  C    2.577543   2.824946   2.878682   3.523867   1.541406
     9  H    2.769469   2.566503   3.173380   3.760629   2.151102
    10  C    3.927466   4.216616   4.325053   4.711569   2.539900
    11  H    4.084375   4.294049   4.721467   4.709545   2.665192
    12  H    4.261860   4.788361   4.547647   4.932392   2.805277
    13  C    5.166222   5.267782   5.450483   6.061039   3.938751
    14  H    5.480063   5.639216   5.549318   6.439057   4.368212
    15  H    6.050454   6.192510   6.402689   6.865877   4.708322
    16  H    5.265684   5.136181   5.609496   6.200708   4.223367
    17  C    3.091303   3.450074   2.813531   4.095061   2.527623
    18  H    3.417578   4.046549   2.981714   4.258986   2.820880
    19  H    4.030668   4.196627   3.703289   5.081196   3.529910
                    6          7          8          9         10
     6  H    0.000000
     7  H    1.757068   0.000000
[...]
 1,0.06862488,-0.21312717,-0.10486356,0.07197888,0.00059912,0.00081599,
 0.00028375,0.00356294,0.00158495,-0.00212624,0.23283472,-0.10542881,-0
 .11628675,0.04544668,0.00332724,0.00094861,-0.00102014,-0.02554419,-0.
 01480210,0.01240049,0.11424479,0.12243458,0.07249394,0.04546076,-0.081
 11355,0.02677220,0.01776574,-0.01037118,-0.00833483,-0.00435317,0.0027
 7788,-0.07784481,-0.05135564,0.08354206,-0.15921385,0.03733295,-0.0375
 2981,-0.00042969,-0.00016472,-0.00037566,-0.00277776,0.00181743,-0.000
 95712,-0.02154425,0.01224881,-0.01154526,0.44758441,0.03839071,-0.1010
 2775,0.01772404,-0.00258050,0.00051511,-0.00055920,0.02934292,-0.01198
 999,0.01424184,-0.01522380,0.00725528,-0.00813040,-0.02058498,0.556082
 86,-0.03673252,0.01736437,-0.09854878,-0.03038446,0.01447497,-0.012756
 41,0.00829517,-0.00278912,0.00349088,0.01060254,-0.00579353,0.00436478
 ,0.00413186,0.03292540,0.56509895,-0.00038802,-0.00150491,-0.03074978,
 -0.00502626,0.00283516,-0.00236472,0.00118317,-0.00015426,0.00083624,0
 .00107277,-0.00073754,0.00044456,-0.04808126,0.00042852,0.00812850,0.0
 5694150,0.00011996,0.00049250,0.01405914,0.00246665,-0.00021418,0.0014
 7571,-0.00086105,0.00040680,0.00020480,-0.00038632,0.00032734,-0.00058
 905,0.00064864,-0.05217321,-0.01378664,-0.00001708,0.05224439,-0.00027
 394,-0.00061835,-0.01221311,-0.00236299,0.00115794,0.00065806,0.000119
 67,0.00040102,0.00054762,-0.00041002,-0.00029640,0.00055654,0.00762046
 ,-0.01347987,-0.29773008,-0.00833848,0.01285976,0.32596436,-0.00340266
 ,0.02936539,0.00745966,0.00120444,-0.00078081,-0.00001745,-0.00497168,
 0.00230253,-0.00290840,0.00091627,-0.00048447,0.00071374,-0.04844765,0
 .01620735,0.00446016,-0.00042498,0.00119068,0.00031406,0.05912737,0.00
 147057,-0.01179892,-0.00302292,-0.00031156,0.00034634,0.00045446,0.002
 17510,0.00048926,0.00126367,0.00037466,0.00066722,-0.00012728,0.015611
 34,-0.28399589,-0.06182703,-0.00003697,-0.00098685,-0.00108238,-0.0181
 7408,0.31048655,-0.00172100,0.01400430,0.00334032,0.00083498,0.0001711
 1,0.00066949,-0.00264900,0.00150667,-0.00012866,0.00056955,-0.00053205
 ,0.00024373,0.00388450,-0.06181147,-0.06818699,0.00211504,-0.03282419,
 -0.00818440,-0.00401226,0.06678684,0.06857636,-0.02773951,-0.01247451,
 0.00790955,0.00191022,-0.00054104,0.00096136,0.00170200,-0.00048348,0.
 00059586,-0.00316332,0.00200909,-0.00169392,-0.12856502,-0.03987869,0.
 02308730,-0.00296626,-0.00156753,0.00161102,-0.00184684,-0.00017578,0.
 00125554,0.39606511,0.00808836,0.00828829,-0.00577062,0.00006113,0.000
 11073,0.00012912,0.00035194,0.00002543,-0.00052953,0.00376691,-0.00070
 563,0.00142564,-0.02928931,-0.09227506,0.01041338,0.00082279,-0.000447
 97,0.00004261,-0.02632350,-0.01608532,0.01181230,0.01848100,0.46319744
 ,-0.00932627,-0.00792573,0.00495487,-0.00166964,-0.00048456,0.00030218
 ,0.00064083,0.00011157,0.00013230,-0.00369206,0.00121416,-0.00115814,0
 .02636629,0.01340507,-0.09304360,0.02888941,0.01689809,-0.01294410,-0.
 00845289,-0.00518089,0.00255169,-0.01407840,0.02014767,0.58410447,0.00
 177090,0.00030508,0.00132440,-0.00029188,0.00000886,-0.00087113,-0.000
 14978,0.00011192,-0.00000458,0.00035323,-0.00006056,-0.00029898,-0.002
 37972,0.00024635,0.02832806,-0.00452889,-0.00281836,0.00214773,0.00086
 491,0.00023551,-0.00072136,-0.04740040,-0.00278086,0.00058937,0.056170
 58,0.00095289,0.00020657,-0.00034037,-0.00009520,0.00022354,-0.0003045
 7,-0.00009528,0.00006016,-0.00010163,0.00017994,-0.00015148,0.00000554
 ,-0.00116722,-0.00022266,0.01640832,-0.00279348,-0.00104034,0.00129361
 ,0.00067915,0.00036827,0.00001720,-0.00269873,-0.04931312,-0.00530074,
 -0.00001197,0.05861098,-0.00097490,-0.00025321,0.00053178,0.00090809,-
 0.00017700,0.00066690,0.00001969,0.00000418,0.00001165,-0.00000195,0.0
 0006465,0.00046521,0.00107894,0.00028411,-0.01202786,0.00164726,0.0015
 5087,0.00055447,0.00006713,0.00051412,0.00046157,0.00087051,-0.0069564
 2,-0.29210990,-0.00080431,0.00591431,0.32025225,-0.00291916,-0.0024883
 3,0.00223206,-0.00002774,-0.00013191,-0.00005431,-0.00027690,0.0002530
 0,0.00009187,-0.00097380,0.00080493,-0.00053204,-0.03368101,0.01151517
 ,-0.00926101,0.00180981,0.00072250,-0.00086847,0.00106159,0.00210454,-
 0.00058517,-0.11532082,0.01821567,-0.02327923,-0.00370280,0.00205396,-
 0.00144880,0.43917010,-0.00332091,-0.00275603,0.00158914,0.00022834,0.
 00003792,-0.00005870,0.00022676,-0.00001776,0.00009578,-0.00149952,0.0
 0035777,-0.00036848,-0.00975017,0.00907644,-0.00456004,-0.00016763,-0.
 00008653,-0.00001674,-0.00189597,-0.00005575,-0.00018490,0.03828802,-0
 .08781433,0.01745721,0.00126402,0.00002590,0.00073834,0.03159547,0.541
 66661,0.00180860,0.00120713,-0.00163991,0.00000675,0.00007655,0.000443
 67,-0.00022957,0.00002439,-0.00000562,0.00082573,-0.00003873,0.0006892
 4,0.00899791,-0.00511035,0.00448081,0.00122189,-0.00027420,-0.00006843
 ,-0.00030918,-0.00026029,0.00008139,-0.01738880,0.00870295,-0.08715919
 ,-0.02844942,0.01792195,-0.01308138,-0.00603862,0.03393249,0.56787479,
 0.00014374,-0.00010439,-0.00010841,0.00001745,0.00000386,0.00000974,0.
 00016702,-0.00013851,0.00003161,0.00003221,-0.00007117,0.00001271,0.00
 100664,0.00181721,0.00028826,-0.00009219,-0.00009068,0.00005751,-0.000
 80410,-0.00063402,-0.00015812,-0.00193835,0.02613041,0.00769318,0.0009
 3283,-0.00089340,0.00005735,-0.04901834,-0.02430598,-0.00710248,0.0604
 1493,0.00015761,0.00058600,0.00028408,0.00000491,-0.00005345,0.0000126
 9,-0.00037119,0.00016632,-0.00005509,0.00006882,0.00002747,0.00002485,
 -0.00196572,-0.00001846,-0.00017860,0.00003309,0.00008429,0.00009567,0
 .00069360,0.00136609,-0.00006005,-0.00000168,-0.01749950,-0.00567155,-
 0.00030288,0.00052459,0.00048289,-0.02477694,-0.27697781,-0.06835035,0
 .02740182,0.30280811,0.00016797,0.00025821,-0.00005003,-0.00003004,0.0
 0001825,-0.00004107,-0.00004542,0.00000660,-0.00004218,0.00006832,-0.0
 0004863,0.00000683,0.00049663,-0.00032532,0.00000820,-0.00000945,-0.00
 013973,0.00002671,0.00023858,-0.00000374,0.00031072,-0.00125907,0.0118
 1708,0.00253118,0.00076873,-0.00005783,0.00051566,-0.00676686,-0.06815
 003,-0.07255110,0.00738927,0.07406304,0.07303392,-0.00009253,0.0000528
 0,0.00012195,0.00010401,-0.00003496,0.00024281,0.00003805,-0.00000611,
 -0.00001491,-0.00004244,-0.00001795,0.00008906,0.00179441,0.00009352,-
 0.00119013,-0.00043151,0.00006220,0.00069664,-0.00007725,-0.00007811,0
 .00001554,-0.00298913,0.00046531,-0.02745541,-0.00430024,0.00298780,-0
 .00167813,-0.04778593,-0.00064511,-0.00725109,-0.00040603,0.00011546,-
 0.00335747,0.05682299,-0.00003647,-0.00008203,0.00002345,-0.00006375,-
 0.00003579,-0.00006706,0.00001917,-0.00001500,0.00002389,-0.00000373,0
 .00000901,-0.00007286,-0.00086434,0.00003636,-0.00016065,0.00000317,0.
 00034233,-0.00026723,0.00011177,0.00006926,-0.00017748,0.00183749,-0.0
 0119883,0.01780256,0.00296707,-0.00123122,0.00164956,-0.00071760,-0.05
 149241,-0.00662245,-0.00100283,0.00010020,-0.03233082,-0.00022004,0.05
 166600,-0.00021495,0.00000921,0.00050158,0.00026956,-0.00005829,0.0000
 9635,0.00003171,0.00000492,-0.00001331,-0.00011709,0.00000915,-0.00001
 008,0.00093534,-0.00007361,0.00002710,-0.00071006,-0.00017817,0.000747
 60,-0.00009532,0.00005455,-0.00000445,-0.00175359,0.00069904,-0.011779
 51,-0.00188765,0.00134711,0.00055859,-0.00634985,-0.00642110,-0.300985
 10,-0.00028186,-0.00072689,-0.00906041,0.00707510,0.00489291,0.3283783
 9,-0.00056374,-0.00093712,0.00084519,0.00005544,-0.00001453,-0.0000353
 9,0.00003996,-0.00001257,0.00000675,-0.00039710,0.00012290,-0.00018043
 ,-0.00266396,0.00327298,-0.00170403,-0.00012230,0.00004255,0.00021233,
 0.00017572,-0.00013164,-0.00016241,-0.02670070,-0.00669005,0.00894746,
 0.00169851,-0.00091721,0.00095469,-0.16248133,-0.03831274,0.03615606,-
 0.00460967,-0.00172776,0.00224899,-0.00040987,-0.00022388,0.00026400,0
 .50434136,0.00104934,0.00131589,-0.00040456,-0.00003232,-0.00001304,0.
 00004348,-0.00018780,-0.00000138,-0.00008388,0.00054122,-0.00014604,0.
 00019581,0.00259425,-0.00300241,0.00149497,-0.00007644,-0.00005909,-0.
 00000383,0.00015404,0.00062252,0.00021238,0.01401355,0.00813106,-0.007
 74381,-0.00036401,0.00029200,-0.00030041,-0.03647524,-0.09941822,0.015
 79559,-0.02937146,-0.01091429,0.01331049,0.00044846,0.00000367,-0.0002
 6709,-0.03184613,0.56612557,-0.00084127,-0.00030005,0.00089022,0.00012
 205,-0.00006058,-0.00002412,0.00001338,0.00004002,-0.00001560,-0.00037
 584,0.00008492,-0.00013809,-0.00204322,0.00154390,-0.00159668,-0.00012
 599,0.00006932,0.00051630,0.00011004,0.00029997,-0.00007870,-0.0077531
 3,-0.00545199,0.00450175,-0.00135116,-0.00033036,0.00053103,0.03692243
 ,0.01612630,-0.09746621,-0.00862281,-0.00328603,0.00365977,0.03130309,
 0.01336339,-0.01160901,0.03205719,0.01173838,0.55920595,0.00005548,0.0
 0015334,-0.00001061,-0.00000909,0.00000202,0.00000242,-0.00011878,0.00
 005441,-0.00000974,0.00003261,0.00001213,0.00001220,-0.00015916,-0.000
 20995,0.00021155,0.00001647,-0.00001526,0.00000007,0.00015716,0.000350
 82,0.00003458,0.00119348,-0.00032941,-0.00075880,-0.00008551,0.0000797
 6,0.00000567,-0.00387381,-0.02941358,-0.00977350,-0.00517856,-0.002009
 24,0.00262314,0.00124478,0.00083575,-0.00009159,-0.05410984,-0.0343719
 1,-0.01170269,0.05751172,0.00000921,-0.00000515,0.00004966,-0.00000218
 ,-0.00000096,-0.00000717,-0.00003572,0.00004271,-0.00000109,-0.0000343
 2,0.00000779,-0.00000296,-0.00012828,-0.00001197,-0.00004348,-0.000007
 79,-0.00001149,0.00002176,0.00009439,0.00013287,0.00001152,0.00006357,
 0.00001331,-0.00003770,-0.00002738,0.00002615,0.00001313,-0.00205216,-
 0.01084225,-0.00294122,-0.00227623,0.00056036,0.00136778,0.00017305,0.
 00035982,0.00039390,-0.03521167,-0.28296701,-0.07432464,0.04036679,0.3
 0788204,-0.00000614,-0.00008287,-0.00001554,0.00000161,-0.00000500,0.0
 0000189,0.00001227,0.00000015,0.00001910,-0.00000650,0.00001354,-0.000
 00654,-0.00009165,0.00012444,0.00001190,0.00000548,0.00001046,-0.00001
 538,-0.00002949,-0.00005158,-0.00003443,-0.00054923,-0.00049662,0.0000
 3986,0.00002100,-0.00008110,0.00002943,0.00147171,0.01370078,0.0040237
 3,0.00291442,0.00118441,-0.00002191,-0.00082336,0.00023975,0.00059042,
 -0.01205281,-0.07446900,-0.07437842,0.01073144,0.08120394,0.07565688,-
 0.00042307,-0.00051699,0.00039652,0.00002698,0.00000689,-0.00004212,0.
 00004041,0.00003165,0.00000747,-0.00027593,0.00007263,-0.00010235,-0.0
 0096176,0.00152097,-0.00086528,-0.00004489,0.00000863,0.00012253,0.000
 02334,-0.00007732,-0.00006288,-0.00342725,-0.00368237,0.00365283,0.000
 39529,-0.00021056,0.00001214,-0.02152717,0.01685266,-0.01006197,0.0009
 5820,-0.00035853,-0.00062191,0.00107883,0.00032041,0.00040247,-0.20359
 832,0.11219318,-0.06471276,0.00463708,-0.00260101,0.00256614,0.2224777
 7,-0.00012407,-0.00013486,0.00007863,0.00000548,-0.00000467,-0.0000021
 9,-0.00000273,0.00000943,0.00001380,-0.00006517,0.00002526,-0.00002642
 ,-0.00065363,0.00037547,-0.00006156,0.00001299,0.00000575,0.00001301,0
 .00004653,0.00000698,-0.00003848,-0.00227577,-0.00049152,0.00102380,0.
 00012163,-0.00014793,0.00005603,-0.01138803,0.00761958,-0.00515889,0.0
 0045225,0.00072863,-0.00049377,0.00070940,0.00030015,-0.00031883,0.112
 68988,-0.13030496,0.04632537,0.02428065,-0.01630824,0.01137247,-0.1221
 9236,0.13800751,0.00018206,0.00017691,-0.00013819,-0.00000503,0.000009
 87,0.00000922,-0.00001481,-0.00000077,-0.00000718,0.00009757,-0.000025
 81,0.00003310,0.00050462,-0.00033401,0.00067661,-0.00008961,-0.0000687
 2,-0.00000728,-0.00001070,0.00002268,0.00000582,0.00157108,0.00123361,
 -0.00108014,0.00030899,-0.00002456,0.00046690,0.01071750,-0.00849372,0
 .00377984,-0.00069621,-0.00009197,0.00024414,-0.00045224,-0.00056108,0
 .00048023,-0.06515429,0.04633702,-0.07648447,0.00925894,-0.00564282,0.
 00310311,0.06978658,-0.05218547,0.07839752,0.00006026,0.00003181,-0.00
 012414,-0.00005992,0.00001297,-0.00003686,-0.00001288,0.00000464,-0.00
 000175,0.00002857,-0.00000726,0.00000526,-0.00003510,-0.00024030,-0.00
 000886,0.00010823,0.00004675,-0.00027703,0.00002584,0.00000274,0.00003
 697,0.00192588,-0.00004347,0.00159803,-0.00027556,0.00011526,-0.000934
 49,-0.00020501,0.00133842,0.03112596,0.00117980,0.00028706,-0.00082229
 ,-0.00522429,-0.00241369,0.00230453,-0.04914429,0.00048433,-0.00295379
 ,-0.00099506,0.00059557,-0.00435418,0.00039684,-0.00211397,-0.02607504
 ,0.05216257,0.00001408,-0.00001633,-0.00004678,-0.00001223,0.00001582,
 -0.00000220,-0.00000065,0.00000087,-0.00000610,-0.00001036,-0.00000443
 ,0.00000881,0.00012362,-0.00000609,0.00002132,0.00004799,-0.00003376,-
 0.00005173,-0.00001272,-0.00005484,0.00002586,0.00045620,0.00020611,-0
 .00056582,-0.00006157,0.00021447,-0.00019646,0.00032197,-0.00007612,0.
 01365449,0.00072054,0.00024968,0.00017208,-0.00267802,-0.00010248,0.00
 099571,0.00042313,-0.05071741,-0.00569909,-0.00045168,0.00110850,-0.03
 254676,-0.00076176,0.00030870,0.01948742,0.00183969,0.04902197,0.00003
 925,0.00003673,-0.00003340,0.00003670,0.00000025,0.00003521,-0.0000044
 8,-0.00000557,0.00000207,0.00004088,-0.00000177,0.00001059,0.00007983,
 -0.00003777,0.00047365,-0.00025122,-0.00005450,0.00009633,-0.00001795,
 -0.00000049,-0.00004375,-0.00097745,0.00008389,0.00024373,0.00086848,-
 0.00034291,0.00065945,0.00038769,-0.00005145,-0.01225571,0.00008350,0.
 00043101,0.00066869,0.00230448,0.00137586,0.00075437,-0.00259023,-0.00
 546083,-0.30779872,-0.00057809,-0.00002453,-0.00891013,-0.00037145,-0.
 00051293,-0.00956250,0.00074053,0.00467901,0.33554936,-0.00145787,-0.0
 0100658,0.00020914,0.00008068,0.00007868,-0.00014041,0.00011775,-0.000
 79040,-0.00045194,0.00012200,-0.00073651,-0.00002117,-0.00128456,-0.02
 360806,-0.00647557,0.00068305,0.00026145,-0.00032187,-0.00338179,-0.00
 267702,0.00136499,-0.04615089,-0.00799371,0.01065450,0.00000129,0.0022
 9218,0.00095819,0.00043748,0.02051381,0.00659789,-0.00299195,0.0028399
 1,-0.00117649,0.00065531,-0.00085101,0.00037515,-0.00119035,0.00119663
 ,0.00003881,0.00046529,0.00077448,0.00004691,0.00019961,0.00061991,0.0
 0007725,0.00001142,0.00016299,0.00033073,0.11630293,0.00091918,0.00101
 886,-0.00059963,-0.00018285,-0.00008432,-0.00010804,-0.00024612,0.0000
 3983,0.00005156,0.00074433,-0.00008664,0.00020662,-0.00916976,-0.02657
 487,-0.00059616,0.00157329,0.00122116,-0.00123095,-0.00203061,-0.00099
 632,0.00024097,-0.00986756,-0.20345652,-0.04493506,0.00094428,-0.00439
 225,-0.00135930,0.01234663,-0.02879613,-0.00111711,0.00176574,-0.00135
 468,0.00005195,-0.00178878,0.00135876,-0.00109310,-0.00035293,0.001434
 41,-0.00032232,0.00003201,-0.00029737,-0.00028290,-0.00084007,-0.00032
 902,0.00024585,0.00009802,-0.00003029,-0.00004887,0.07596546,0.5452527
 9,-0.00046321,0.00023406,0.00007051,0.00017507,-0.00006014,0.00001398,
 0.00031235,-0.00049001,0.00007458,0.00021030,-0.00024906,0.00009231,-0
 .00238982,0.01073999,0.00499947,0.00006077,0.00157425,0.00074029,0.003
 01509,0.00263035,-0.00017868,0.01001535,-0.03962651,-0.10204710,0.0001
 1619,-0.03465196,-0.01038150,0.00415479,0.00518399,0.00424527,-0.00188
 972,0.00219768,0.00048073,-0.00009147,0.00132153,0.00088069,-0.0002574
 3,-0.00058712,-0.00009872,0.00018576,0.00012591,0.00012681,-0.00015071
 ,0.00010564,0.00013413,-0.00013593,0.00004223,0.00009578,-0.14178462,-
 0.01679401,0.57714268,0.00013233,-0.00015369,-0.00007487,0.00002548,0.
 00004717,0.00006209,-0.00034067,0.00005904,-0.00009816,-0.00003622,0.0
 0014200,0.00002751,0.00102935,0.00047084,-0.00134323,0.00022159,0.0000
 5655,0.00015109,-0.00013341,0.00016790,0.00013253,0.00058842,-0.000687
 07,0.00102810,0.00113137,-0.00040511,-0.00096030,0.00070584,-0.0008850
 4,0.00003974,0.00008062,-0.00011608,-0.00016812,-0.00006677,0.00023188
 ,-0.00029706,-0.00007373,0.00011679,-0.00002710,-0.00022760,-0.0000827
 6,0.00015501,-0.00001282,-0.00001902,-0.00001906,0.00005785,-0.0001206
 0,-0.00012288,-0.02330743,0.00477525,0.05948414,0.01890103,-0.00022119
 ,-0.00007602,0.00015857,0.00015930,0.00000819,0.00011936,-0.00006949,0
 .00006532,-0.00007610,-0.00009896,0.00003629,0.00000060,0.00106313,0.0
 0176243,-0.00127916,-0.00033731,-0.00018471,0.00099019,0.00014726,0.00
 016756,0.00043420,0.00465795,-0.00063710,-0.02750232,0.00002111,-0.005
 46329,-0.00168582,-0.00094895,0.00083478,-0.00083937,0.00006856,-0.000
 02706,0.00046863,0.00034229,-0.00010676,0.00073740,-0.00001282,-0.0001
 3936,0.00010965,0.00014653,0.00007113,0.00000175,0.00010059,0.00007608
 ,-0.00000792,-0.00011482,-0.00001741,0.00005895,0.00499655,-0.07059279
 ,-0.06045806,-0.00605696,0.06639166,-0.00000548,-0.00035756,0.00002015
 ,0.00008988,0.00011543,0.00009872,-0.00029916,0.00017065,-0.00014775,-
 0.00007943,0.00011051,0.00003358,0.00075520,0.00058299,0.00053783,-0.0
 0056535,-0.00053828,0.00039429,-0.00014741,-0.00001137,0.00025139,0.00
 031962,0.00144805,-0.00601764,0.00033228,-0.00208652,0.00065247,-0.000
 11381,0.00009912,0.00000034,0.00012603,-0.00012483,0.00008892,0.000352
 84,-0.00031974,0.00023664,0.00007678,-0.00013144,0.00007730,-0.0000265
 8,0.00002179,-0.00010990,0.00004848,-0.00004705,0.00001846,-0.00008489
 ,0.00004641,0.00007413,0.06348328,-0.06118062,-0.31483263,-0.06609778,
 0.06830181,0.32995556,0.00014064,-0.00022712,-0.00006368,-0.00004101,-
 0.00007041,-0.00006951,-0.00015979,0.00007560,0.00019011,0.00000578,0.
 00010393,-0.00001740,-0.00119007,-0.00098027,0.00043169,0.00006996,0.0
 0012972,-0.00020029,-0.00006628,-0.00019669,-0.00017204,0.00482336,0.0
 0143622,-0.00134728,-0.00020412,-0.00005278,0.00022321,-0.00139102,-0.
 00011086,-0.00017591,0.00010574,0.00002775,0.00025548,0.00008762,0.000
 07063,0.00014116,-0.00024580,-0.00006648,-0.00005723,-0.00055665,0.000
 38246,-0.00001265,0.00003684,-0.00010398,0.00001239,-0.00000516,-0.000
 00062,0.00000168,-0.03931195,-0.07468552,0.06943310,0.00132476,-0.0038
 4276,0.00183551,0.03657714,0.00022910,-0.00016006,0.00021650,-0.000048
 98,-0.00000509,-0.00008667,-0.00014751,0.00018142,-0.00000898,-0.00013
 586,0.00008643,-0.00006812,0.00229794,-0.00380561,-0.00202676,0.000076
 42,0.00011356,0.00017190,-0.00129051,-0.00074904,0.00040527,-0.0098421
 1,-0.01004746,0.01728805,0.00020177,0.00140968,-0.00034357,-0.00095470
 ,-0.00128564,-0.00060260,0.00052829,-0.00035650,0.00001576,0.00001877,
 0.00001895,-0.00000681,-0.00016038,-0.00024192,0.00007380,0.00048683,0
 .00023976,0.00016414,0.00013335,0.00025765,-0.00007650,0.00007626,-0.0
 0006696,-0.00012409,-0.07203877,-0.21333459,0.12876124,0.00245892,0.00
 783104,-0.00609936,0.07811116,0.21991436,-0.00006536,0.00006550,0.0000
 8714,0.00001128,0.00001850,0.00002309,-0.00015288,0.00002331,-0.000106
 61,-0.00002358,0.00001764,-0.00001830,0.00008097,-0.00170978,-0.000279
 80,-0.00014450,-0.00024890,0.00036019,-0.00037740,-0.00045865,0.000347
 58,-0.00274361,-0.00912364,0.00797729,-0.00041665,0.00071450,0.0012433
 1,-0.00067990,-0.00061797,-0.00040643,0.00019602,-0.00023095,0.0001912
 2,0.00011271,-0.00011354,0.00020993,0.00036759,0.00032384,0.00030641,-
 0.00011419,-0.00018377,-0.00011089,-0.00000374,-0.00014317,-0.00006933
 ,-0.00000201,-0.00001842,-0.00005916,0.06623522,0.12887109,-0.16155860
 ,0.00812835,0.02046764,-0.01133186,-0.07040833,-0.13765322,0.16319481\
 \0.00000010,-0.00000011,-0.00000042,0.00000006,0.,-0.00000015,-0.00000
 014,-0.00000023,0.00000001,0.00000007,-0.00000039,-0.00000022,0.000000
 62,0.,-0.00000017,-0.00000004,-0.00000039,-0.00000007,0.00000013,-0.00
 000014,-0.00000037,-0.00000014,0.00000004,-0.00000042,0.00000003,0.000
 00042,-0.00000005,0.00000033,0.00000001,0.00000021,0.00000015,0.000000
 31,-0.00000031,0.00000008,-0.00000016,0.00000006,-0.00000031,0.0000001
 6,0.00000015,-0.00000019,0.00000023,0.00000039,0.,0.00000031,0.0000001
 3,0.00000013,0.00000047,0.00000006,-0.00000048,-0.00000015,0.00000094,
 -0.00000026,-0.00000018,0.00000019,-0.00000013,-0.00000021,0.00000003\
 \\@


 THE ONLY TROUBLE WITH A SURE THING IS THE UNCERTAINTY.
     -- FROM A TEABAG (BELONGING TO W.H.?)
 Job cpu time:       0 days  0 hours 27 minutes 39.2 seconds.
 File lengths (MBytes):  RWF=     64 Int=      0 D2E=      0 Chk=      3 Scr=      1
 Normal termination of Gaussian 09 at Sat Nov  7 02:22:13 2015.
