 Entering Gaussian System, Link 0=/share/apps/g09/g09
 Input=C6H14_1_07_1_opt_B3L.gjf
 Output=C6H14_1_07_1_opt_B3L.log
 Initial command:
 /share/apps/g09/l1.exe /state/partition1/Gau-22901.inp -scrdir=/state/partition1/
 Entering Link 1 = /share/apps/g09/l1.exe PID=     22902.
  
 Copyright (c) 1988,1990,1992,1993,1995,1998,2003,2009, Gaussian, Inc.
                  All Rights Reserved.
  
 This is part of the Gaussian(R) 09 program.  It is based on
 the Gaussian(R) 03 system (copyright 2003, Gaussian, Inc.),
 the Gaussian(R) 98 system (copyright 1998, Gaussian, Inc.),
 the Gaussian(R) 94 system (copyright 1995, Gaussian, Inc.),
 the Gaussian 92(TM) system (copyright 1992, Gaussian, Inc.),
 the Gaussian 90(TM) system (copyright 1990, Gaussian, Inc.),
 the Gaussian 88(TM) system (copyright 1988, Gaussian, Inc.),
 the Gaussian 86(TM) system (copyright 1986, Carnegie Mellon
 University), and the Gaussian 82(TM) system (copyright 1983,
 Carnegie Mellon University). Gaussian is a federally registered
 trademark of Gaussian, Inc.
  
 This software contains proprietary and confidential information,
 including trade secrets, belonging to Gaussian, Inc.
  
 This software is provided under written license and may be
 used, copied, transmitted, or stored only in accord with that
 written license.
  
 The following legend is applicable only to US Government
 contracts under FAR:
  
                    RESTRICTED RIGHTS LEGEND
  
 Use, reproduction and disclosure by the US Government is
 subject to restrictions as set forth in subparagraphs (a)
 and (c) of the Commercial Computer Software - Restricted
 Rights clause in FAR 52.227-19.
  
 Gaussian, Inc.
 340 Quinnipiac St., Bldg. 40, Wallingford CT 06492
  
  
 ---------------------------------------------------------------
 Warning -- This program may not be used in any manner that
 competes with the business of Gaussian, Inc. or will provide
 assistance to any competitor of Gaussian, Inc.  The licensee
 of this program is prohibited from giving any competitor of
 Gaussian, Inc. access to this program.  By using this program,
 the user acknowledges that Gaussian, Inc. is engaged in the
 business of creating and licensing software in the field of
 computational chemistry and represents and warrants to the
 licensee that it is not a competitor of Gaussian, Inc. and that
 it will not use this program in any manner prohibited above.
 ---------------------------------------------------------------
  

 Cite this work as:
 Gaussian 09, Revision A.01,
 M. J. Frisch, G. W. Trucks, H. B. Schlegel, G. E. Scuseria, 
 M. A. Robb, J. R. Cheeseman, G. Scalmani, V. Barone, B. Mennucci, 
 G. A. Petersson, H. Nakatsuji, M. Caricato, X. Li, H. P. Hratchian, 
 A. F. Izmaylov, J. Bloino, G. Zheng, J. L. Sonnenberg, M. Hada, 
 M. Ehara, K. Toyota, R. Fukuda, J. Hasegawa, M. Ishida, T. Nakajima, 
 Y. Honda, O. Kitao, H. Nakai, T. Vreven, J. A. Montgomery, Jr., 
 J. E. Peralta, F. Ogliaro, M. Bearpark, J. J. Heyd, E. Brothers, 
 K. N. Kudin, V. N. Staroverov, R. Kobayashi, J. Normand, 
 K. Raghavachari, A. Rendell, J. C. Burant, S. S. Iyengar, J. Tomasi, 
 M. Cossi, N. Rega, J. M. Millam, M. Klene, J. E. Knox, J. B. Cross, 
 V. Bakken, C. Adamo, J. Jaramillo, R. Gomperts, R. E. Stratmann, 
 O. Yazyev, A. J. Austin, R. Cammi, C. Pomelli, J. W. Ochterski, 
 R. L. Martin, K. Morokuma, V. G. Zakrzewski, G. A. Voth, 
 P. Salvador, J. J. Dannenberg, S. Dapprich, A. D. Daniels, 
 O. Farkas, J. B. Foresman, J. V. Ortiz, J. Cioslowski, 
 and D. J. Fox, Gaussian, Inc., Wallingford CT, 2009.
 
 ******************************************
 Gaussian 09:  EM64L-G09RevA.01  8-May-2009
                18-Sep-2015 
 ******************************************
 %mem=3GB
 %nprocshared=2
 Will use up to    2 processors via shared memory.
 -----------------------------------------
 #p B3LYP/6-31G(d) opt=tight int=ultrafine
 -----------------------------------------
 1/7=10,14=-1,18=20,19=15,26=3,38=1/1,3;
 2/9=110,12=2,17=6,18=5,40=1/2;
 3/5=1,6=6,7=1,11=2,16=1,25=1,30=1,71=1,74=-5,75=-5/1,2,3;
 4//1;
 5/5=2,38=5/2;
 6/7=2,8=2,9=2,10=2,28=1/1;
 7//1,2,3,16;
 1/7=10,14=-1,18=20,19=15/3(2);
 2/9=110/2;
 99//99;
 2/9=110/2;
 3/5=1,6=6,7=1,11=2,16=1,25=1,30=1,71=1,74=-5,75=-5/1,2,3;
 4/5=5,16=3/1;
 5/5=2,38=5/2;
 7//1,2,3,16;
 1/7=10,14=-1,18=20,19=15/3(-5);
 2/9=110/2;
 6/7=2,8=2,9=2,10=2,19=2,28=1/1;
 99/9=1/99;
 Leave Link    1 at Fri Sep 18 13:21:31 2015, MaxMem=  402653184 cpu:       0.1
 (Enter /share/apps/g09/l101.exe)
 ---------------------------------------------
 using B3LYP/6-31G(d) to do opt and freq calc.
 ---------------------------------------------
 Symbolic Z-matrix:
 Charge =  0 Multiplicity = 1
 C                    -2.44584   0.84769   0.28213 
 H                    -2.3009    1.65789  -0.44128 
 H                    -1.91498   1.1316    1.19812 
 H                    -3.51407   0.80354   0.51987 
 C                    -1.94425  -0.48748  -0.26409 
 H                    -2.14341  -1.29071   0.47202 
 H                    -2.52771  -0.75745  -1.16678 
 C                    -0.45078  -0.46441  -0.62082 
 H                    -0.22709   0.42249  -1.24467 
 H                    -0.21253  -1.34218  -1.25224 
 C                     0.45078  -0.4644    0.62082 
 H                     0.21253  -1.34217   1.25225 
 H                     0.22709   0.42249   1.24467 
 C                     1.94425  -0.48748   0.26409 
 H                     2.14341  -1.29072  -0.47202 
 H                     2.5277   -0.75745   1.16678 
 C                     2.44584   0.84768  -0.28213 
 H                     2.30091   1.65789   0.44128 
 H                     3.51407   0.80353  -0.51988 
 H                     1.91497   1.1316   -1.19811 
 
 NAtoms=     20 NQM=     20 NQMF=      0 NMic=      0 NMicF=      0 NTot=     20.
                    Isotopes and Nuclear Properties:
 (Nuclear quadrupole moments (NQMom) in fm**2, nuclear magnetic moments (NMagM)
  in nuclear magnetons)

  Atom         1           2           3           4           5           6           7           8           9          10
 IAtWgt=          12           1           1           1          12           1           1          12           1           1
 AtmWgt=  12.0000000   1.0078250   1.0078250   1.0078250  12.0000000   1.0078250   1.0078250  12.0000000   1.0078250   1.0078250
 NucSpn=           0           1           1           1           0           1           1           0           1           1
 AtZEff=   0.0000000   0.0000000   0.0000000   0.0000000   0.0000000   0.0000000   0.0000000   0.0000000   0.0000000   0.0000000
 NQMom=    0.0000000   0.0000000   0.0000000   0.0000000   0.0000000   0.0000000   0.0000000   0.0000000   0.0000000   0.0000000
 NMagM=    0.0000000   2.7928460   2.7928460   2.7928460   0.0000000   2.7928460   2.7928460   0.0000000   2.7928460   2.7928460

  Atom        11          12          13          14          15          16          17          18          19          20
 IAtWgt=          12           1           1          12           1           1          12           1           1           1
 AtmWgt=  12.0000000   1.0078250   1.0078250  12.0000000   1.0078250   1.0078250  12.0000000   1.0078250   1.0078250   1.0078250
 NucSpn=           0           1           1           0           1           1           0           1           1           1
 AtZEff=   0.0000000   0.0000000   0.0000000   0.0000000   0.0000000   0.0000000   0.0000000   0.0000000   0.0000000   0.0000000
 NQMom=    0.0000000   0.0000000   0.0000000   0.0000000   0.0000000   0.0000000   0.0000000   0.0000000   0.0000000   0.0000000
 NMagM=    0.0000000   2.7928460   2.7928460   0.0000000   2.7928460   2.7928460   0.0000000   2.7928460   2.7928460   2.7928460
 Leave Link  101 at Fri Sep 18 13:21:31 2015, MaxMem=  402653184 cpu:       0.2
 (Enter /share/apps/g09/l103.exe)

 GradGradGradGradGradGradGradGradGradGradGradGradGradGradGradGradGradGrad
 Berny optimization.
 Initialization pass.
                           ----------------------------
                           !    Initial Parameters    !
                           ! (Angstroms and Degrees)  !
 --------------------------                            --------------------------
 ! Name  Definition              Value          Derivative Info.                !
 --------------------------------------------------------------------------------
 ! R1    R(1,2)                  1.0958         estimate D2E/DX2                !
 ! R2    R(1,3)                  1.0961         estimate D2E/DX2                !
 ! R3    R(1,4)                  1.0953         estimate D2E/DX2                !
 ! R4    R(1,5)                  1.5273         estimate D2E/DX2                !
 ! R5    R(5,6)                  1.1076         estimate D2E/DX2                !
 ! R6    R(5,7)                  1.1082         estimate D2E/DX2                !
 ! R7    R(5,8)                  1.5357         estimate D2E/DX2                !
 ! R8    R(8,9)                  1.1072         estimate D2E/DX2                !
 ! R9    R(8,10)                 1.1072         estimate D2E/DX2                !
 ! R10   R(8,11)                 1.5344         estimate D2E/DX2                !
 ! R11   R(11,12)                1.1072         estimate D2E/DX2                !
 ! R12   R(11,13)                1.1072         estimate D2E/DX2                !
 ! R13   R(11,14)                1.5357         estimate D2E/DX2                !
 ! R14   R(14,15)                1.1076         estimate D2E/DX2                !
 ! R15   R(14,16)                1.1082         estimate D2E/DX2                !
 ! R16   R(14,17)                1.5273         estimate D2E/DX2                !
 ! R17   R(17,18)                1.0958         estimate D2E/DX2                !
 ! R18   R(17,19)                1.0953         estimate D2E/DX2                !
 ! R19   R(17,20)                1.0961         estimate D2E/DX2                !
 ! A1    A(2,1,3)              107.2239         estimate D2E/DX2                !
 ! A2    A(2,1,4)              107.5841         estimate D2E/DX2                !
 ! A3    A(2,1,5)              111.5201         estimate D2E/DX2                !
 ! A4    A(3,1,4)              107.5426         estimate D2E/DX2                !
 ! A5    A(3,1,5)              111.4844         estimate D2E/DX2                !
 ! A6    A(4,1,5)              111.2667         estimate D2E/DX2                !
 ! A7    A(1,5,6)              109.7092         estimate D2E/DX2                !
 ! A8    A(1,5,7)              109.3519         estimate D2E/DX2                !
 ! A9    A(1,5,8)              112.9135         estimate D2E/DX2                !
 ! A10   A(6,5,7)              105.6652         estimate D2E/DX2                !
 ! A11   A(6,5,8)              109.8869         estimate D2E/DX2                !
 ! A12   A(7,5,8)              109.054          estimate D2E/DX2                !
 ! A13   A(5,8,9)              109.8412         estimate D2E/DX2                !
 ! A14   A(5,8,10)             109.2584         estimate D2E/DX2                !
 ! A15   A(5,8,11)             112.5471         estimate D2E/DX2                !
 ! A16   A(9,8,10)             105.6781         estimate D2E/DX2                !
 ! A17   A(9,8,11)             109.7091         estimate D2E/DX2                !
 ! A18   A(10,8,11)            109.5746         estimate D2E/DX2                !
 ! A19   A(8,11,12)            109.5747         estimate D2E/DX2                !
 ! A20   A(8,11,13)            109.7091         estimate D2E/DX2                !
 ! A21   A(8,11,14)            112.5471         estimate D2E/DX2                !
 ! A22   A(12,11,13)           105.6781         estimate D2E/DX2                !
 ! A23   A(12,11,14)           109.2584         estimate D2E/DX2                !
 ! A24   A(13,11,14)           109.8412         estimate D2E/DX2                !
 ! A25   A(11,14,15)           109.8869         estimate D2E/DX2                !
 ! A26   A(11,14,16)           109.0541         estimate D2E/DX2                !
 ! A27   A(11,14,17)           112.9135         estimate D2E/DX2                !
 ! A28   A(15,14,16)           105.6652         estimate D2E/DX2                !
 ! A29   A(15,14,17)           109.7092         estimate D2E/DX2                !
 ! A30   A(16,14,17)           109.3518         estimate D2E/DX2                !
 ! A31   A(14,17,18)           111.5201         estimate D2E/DX2                !
 ! A32   A(14,17,19)           111.2667         estimate D2E/DX2                !
 ! A33   A(14,17,20)           111.4843         estimate D2E/DX2                !
 ! A34   A(18,17,19)           107.584          estimate D2E/DX2                !
 ! A35   A(18,17,20)           107.224          estimate D2E/DX2                !
 ! A36   A(19,17,20)           107.5426         estimate D2E/DX2                !
 ! D1    D(2,1,5,6)           -177.6428         estimate D2E/DX2                !
 ! D2    D(2,1,5,7)            -62.1874         estimate D2E/DX2                !
 ! D3    D(2,1,5,8)             59.4207         estimate D2E/DX2                !
 ! D4    D(3,1,5,6)             62.538          estimate D2E/DX2                !
 ! D5    D(3,1,5,7)            177.9935         estimate D2E/DX2                !
 ! D6    D(3,1,5,8)            -60.3985         estimate D2E/DX2                !
 ! D7    D(4,1,5,6)            -57.5139         estimate D2E/DX2                !
 ! D8    D(4,1,5,7)             57.9415         estimate D2E/DX2                !
 ! D9    D(4,1,5,8)            179.5496         estimate D2E/DX2                !
 ! D10   D(1,5,8,9)            -49.3376         estimate D2E/DX2                !
 ! D11   D(1,5,8,10)          -164.8296         estimate D2E/DX2                !
 ! D12   D(1,5,8,11)            73.2108         estimate D2E/DX2                !
 ! D13   D(6,5,8,9)           -172.1752         estimate D2E/DX2                !
 ! D14   D(6,5,8,10)            72.3328         estimate D2E/DX2                !
 ! D15   D(6,5,8,11)           -49.6268         estimate D2E/DX2                !
 ! D16   D(7,5,8,9)             72.4385         estimate D2E/DX2                !
 ! D17   D(7,5,8,10)           -43.0536         estimate D2E/DX2                !
 ! D18   D(7,5,8,11)          -165.0132         estimate D2E/DX2                !
 ! D19   D(5,8,11,12)           56.3553         estimate D2E/DX2                !
 ! D20   D(5,8,11,13)          -59.2417         estimate D2E/DX2                !
 ! D21   D(5,8,11,14)          178.1357         estimate D2E/DX2                !
 ! D22   D(9,8,11,12)          178.978          estimate D2E/DX2                !
 ! D23   D(9,8,11,13)           63.381          estimate D2E/DX2                !
 ! D24   D(9,8,11,14)          -59.2416         estimate D2E/DX2                !
 ! D25   D(10,8,11,12)         -65.425          estimate D2E/DX2                !
 ! D26   D(10,8,11,13)         178.978          estimate D2E/DX2                !
 ! D27   D(10,8,11,14)          56.3553         estimate D2E/DX2                !
 ! D28   D(8,11,14,15)         -49.6266         estimate D2E/DX2                !
 ! D29   D(8,11,14,16)        -165.013          estimate D2E/DX2                !
 ! D30   D(8,11,14,17)          73.211          estimate D2E/DX2                !
 ! D31   D(12,11,14,15)         72.3331         estimate D2E/DX2                !
 ! D32   D(12,11,14,16)        -43.0533         estimate D2E/DX2                !
 ! D33   D(12,11,14,17)       -164.8293         estimate D2E/DX2                !
 ! D34   D(13,11,14,15)       -172.175          estimate D2E/DX2                !
 ! D35   D(13,11,14,16)         72.4387         estimate D2E/DX2                !
 ! D36   D(13,11,14,17)        -49.3373         estimate D2E/DX2                !
 ! D37   D(11,14,17,18)         59.4214         estimate D2E/DX2                !
 ! D38   D(11,14,17,19)        179.5502         estimate D2E/DX2                !
 ! D39   D(11,14,17,20)        -60.3978         estimate D2E/DX2                !
 ! D40   D(15,14,17,18)       -177.6421         estimate D2E/DX2                !
 ! D41   D(15,14,17,19)        -57.5133         estimate D2E/DX2                !
 ! D42   D(15,14,17,20)         62.5387         estimate D2E/DX2                !
 ! D43   D(16,14,17,18)        -62.1866         estimate D2E/DX2                !
 ! D44   D(16,14,17,19)         57.9422         estimate D2E/DX2                !
 ! D45   D(16,14,17,20)        177.9941         estimate D2E/DX2                !
 --------------------------------------------------------------------------------
 Trust Radius=3.00D-01 FncErr=1.00D-07 GrdErr=1.00D-06
 Number of steps in this run= 110 maximum allowed number of steps= 120.
 GradGradGradGradGradGradGradGradGradGradGradGradGradGradGradGradGradGrad

 Leave Link  103 at Fri Sep 18 13:21:31 2015, MaxMem=  402653184 cpu:       0.0
 (Enter /share/apps/g09/l202.exe)
                          Input orientation:                          
 ---------------------------------------------------------------------
 Center     Atomic      Atomic             Coordinates (Angstroms)
 Number     Number       Type             X           Y           Z
 ---------------------------------------------------------------------
      1          6           0       -2.445841    0.847685    0.282129
      2          1           0       -2.300899    1.657891   -0.441278
      3          1           0       -1.914978    1.131601    1.198115
      4          1           0       -3.514074    0.803540    0.519866
      5          6           0       -1.944251   -0.487478   -0.264087
      6          1           0       -2.143413   -1.290713    0.472021
      7          1           0       -2.527705   -0.757449   -1.166777
      8          6           0       -0.450781   -0.464406   -0.620816
      9          1           0       -0.227093    0.422487   -1.244675
     10          1           0       -0.212532   -1.342176   -1.252243
     11          6           0        0.450780   -0.464403    0.620817
     12          1           0        0.212531   -1.342168    1.252250
     13          1           0        0.227093    0.422494    1.244671
     14          6           0        1.944250   -0.487478    0.264088
     15          1           0        2.143411   -1.290715   -0.472018
     16          1           0        2.527704   -0.757448    1.166778
     17          6           0        2.445842    0.847684   -0.282131
     18          1           0        2.300913    1.657889    0.441280
     19          1           0        3.514073    0.803534   -0.519879
     20          1           0        1.914971    1.131604   -1.198110
 ---------------------------------------------------------------------
                    Distance matrix (angstroms):
                    1          2          3          4          5
     1  C    0.000000
     2  H    1.095792   0.000000
     3  H    1.096109   1.764519   0.000000
     4  H    1.095258   1.767910   1.767697   0.000000
     5  C    1.527287   2.182018   2.181813   2.178452   0.000000
     6  H    2.168010   3.090822   2.539094   2.503377   1.107568
     7  H    2.163905   2.532125   3.088148   2.500875   1.108220
     8  C    2.552872   2.821226   2.828360   3.506081   1.535656
     9  H    2.726677   2.544080   3.052707   3.750073   2.176745
    10  H    3.483885   3.744241   3.875842   4.317945   2.169288
    11  C    3.197921   3.633719   2.911583   4.163885   2.553382
    12  H    3.578202   4.264472   3.263244   4.362113   2.771549
    13  H    2.872603   3.280148   2.256871   3.829735   2.796272
    14  C    4.588669   4.808476   4.288061   5.614753   3.924208
    15  H    5.118860   5.333584   5.012732   6.113663   4.171020
    16  H    5.300491   5.633393   4.827723   6.273616   4.703046
    17  C    4.924119   4.818020   4.613945   6.013796   4.588671
    18  H    4.818032   4.685678   4.315497   5.877939   4.808488
    19  H    6.013796   5.877925   5.703834   7.104641   5.614752
    20  H    4.613935   4.315476   4.517787   5.703823   4.288055
                    6          7          8          9         10
     6  H    0.000000
     7  H    1.765704   0.000000
     8  C    2.177632   2.167386   0.000000
     9  H    3.091016   2.586722   1.107166   0.000000
    10  H    2.589215   2.389401   1.107223   1.764739   0.000000
    11  C    2.726677   3.486078   1.534427   2.173970   2.172285
    12  H    2.482313   3.701686   2.172286   3.088998   2.540308
    13  H    3.025122   3.846591   2.173970   2.530440   3.088998
    14  C    4.171020   4.703046   2.553382   2.796271   2.771548
    15  H    4.389541   4.752514   2.726676   3.025120   2.482311
    16  H    4.752514   5.568001   3.486078   3.846591   3.701684
    17  C    5.118862   5.300492   3.197923   2.872606   3.578206
    18  H    5.333595   5.633405   3.633731   3.280164   4.264483
    19  H    6.113664   6.273614   4.163884   3.829732   4.362111
    20  H    5.012728   4.827719   2.911580   2.256868   3.263248
                   11         12         13         14         15
    11  C    0.000000
    12  H    1.107222   0.000000
    13  H    1.107166   1.764738   0.000000
    14  C    1.535656   2.169288   2.176745   0.000000
    15  H    2.177632   2.589217   3.091016   1.107568   0.000000
    16  H    2.167386   2.389399   2.586724   1.108220   1.765703
    17  C    2.552873   3.483885   2.726675   1.527288   2.168011
    18  H    2.821232   3.744243   2.544085   2.182019   3.090823
    19  H    3.506083   4.317946   3.750075   2.178454   2.503374
    20  H    2.828354   3.875837   3.052695   2.181813   2.539099
                   16         17         18         19         20
    16  H    0.000000
    17  C    2.163906   0.000000
    18  H    2.532121   1.095792   0.000000
    19  H    2.500880   1.095258   1.767910   0.000000
    20  H    3.088147   1.096108   1.764519   1.767697   0.000000
 Stoichiometry    C6H14
 Framework group  C1[X(C6H14)]
 Deg. of freedom    54
 Full point group                 C1      NOp   1
 Largest Abelian subgroup         C1      NOp   1
 Largest concise Abelian subgroup C1      NOp   1
                         Standard orientation:                         
 ---------------------------------------------------------------------
 Center     Atomic      Atomic             Coordinates (Angstroms)
 Number     Number       Type             X           Y           Z
 ---------------------------------------------------------------------
      1          6           0       -2.445841    0.847685    0.282129
      2          1           0       -2.300899    1.657891   -0.441278
      3          1           0       -1.914978    1.131601    1.198115
      4          1           0       -3.514074    0.803540    0.519866
      5          6           0       -1.944251   -0.487478   -0.264087
      6          1           0       -2.143413   -1.290713    0.472021
      7          1           0       -2.527705   -0.757449   -1.166777
      8          6           0       -0.450781   -0.464406   -0.620816
      9          1           0       -0.227093    0.422487   -1.244675
     10          1           0       -0.212532   -1.342176   -1.252243
     11          6           0        0.450780   -0.464403    0.620817
     12          1           0        0.212531   -1.342168    1.252250
     13          1           0        0.227093    0.422494    1.244671
     14          6           0        1.944250   -0.487478    0.264088
     15          1           0        2.143411   -1.290715   -0.472018
     16          1           0        2.527704   -0.757448    1.166778
     17          6           0        2.445842    0.847684   -0.282131
     18          1           0        2.300913    1.657889    0.441280
     19          1           0        3.514073    0.803534   -0.519879
     20          1           0        1.914971    1.131604   -1.198110
 ---------------------------------------------------------------------
 Rotational constants (GHZ):      7.0025207      1.5286738      1.4418849
 Leave Link  202 at Fri Sep 18 13:21:31 2015, MaxMem=  402653184 cpu:       0.0
 (Enter /share/apps/g09/l301.exe)
 Standard basis: 6-31G(d) (6D, 7F)
 Ernie: Thresh=  0.10000D-02 Tol=  0.10000D-05 Strict=F.
 There are   118 symmetry adapted basis functions of A   symmetry.
 Integral buffers will be    131072 words long.
 Raffenetti 2 integral format.
 Two-electron integral symmetry is turned on.
   118 basis functions,   224 primitive gaussians,   118 cartesian basis functions
    25 alpha electrons       25 beta electrons
       nuclear repulsion energy       250.3219166419 Hartrees.
 IExCor=  402 DFT=T Ex+Corr=B3LYP ExCW=0 ScaHFX=  0.200000
 ScaDFX=  0.800000  0.720000  1.000000  0.810000 ScalE2=  1.000000  1.000000
 IRadAn=      5 IRanWt=     -1 IRanGd=            0 ICorTp=0
 NAtoms=   20 NActive=   20 NUniq=   20 SFac= 7.50D-01 NAtFMM=   80 NAOKFM=F Big=F
 Leave Link  301 at Fri Sep 18 13:21:31 2015, MaxMem=  402653184 cpu:       0.1
 (Enter /share/apps/g09/l302.exe)
 NPDir=0 NMtPBC=     1 NCelOv=     1 NCel=       1 NClECP=     1 NCelD=      1
         NCelK=      1 NCelE2=     1 NClLst=     1 CellRange=     0.0.
 One-electron integrals computed using PRISM.
 NBasis=   118 RedAO= T  NBF=   118
 NBsUse=   118 1.00D-06 NBFU=   118
 Precomputing XC quadrature grid using
 IXCGrd= 2 IRadAn=           5 IRanWt=          -1 IRanGd=           0 AccXCQ= 1.00D-10.
 NRdTot=    1650 NPtTot=      441236 NUsed=      453059 NTot=      453091
 NSgBfM=   118   118   118   118   118 NAtAll=    20    20.
 Leave Link  302 at Fri Sep 18 13:21:32 2015, MaxMem=  402653184 cpu:       1.2
 (Enter /share/apps/g09/l303.exe)
 DipDrv:  MaxL=1.
 Leave Link  303 at Fri Sep 18 13:21:32 2015, MaxMem=  402653184 cpu:       0.1
 (Enter /share/apps/g09/l401.exe)
 Harris functional with IExCor=  402 diagonalized for initial guess.
 ExpMin= 1.61D-01 ExpMax= 3.05D+03 ExpMxC= 4.57D+02 IAcc=3 IRadAn=         5 AccDes= 0.00D+00
 HarFok:  IExCor=  402 AccDes= 0.00D+00 IRadAn=         5 IDoV= 1
 ScaDFX=  1.000000  1.000000  1.000000  1.000000
 FoFCou: FMM=F IPFlag=           0 FMFlag=      100000 FMFlg1=           0
         NFxFlg=           0 DoJE=T BraDBF=F KetDBF=T FulRan=T
         Omega=  0.000000  0.000000  1.000000  0.000000  0.000000 ICntrl=     500 IOpCl=  0
         NMat0=    1 NMatS0=    1 NMatT0=    0 NMatD0=    1 NMtDS0=    0 NMtDT0=    0
         I1Cent=           4 NGrid=           0.
 Petite list used in FoFCou.
 Harris En= -237.177404535038    
 Initial guess orbital symmetries:
       Occupied  (A) (A) (A) (A) (A) (A) (A) (A) (A) (A) (A) (A)
                 (A) (A) (A) (A) (A) (A) (A) (A) (A) (A) (A) (A)
                 (A)
       Virtual   (A) (A) (A) (A) (A) (A) (A) (A) (A) (A) (A) (A)
                 (A) (A) (A) (A) (A) (A) (A) (A) (A) (A) (A) (A)
                 (A) (A) (A) (A) (A) (A) (A) (A) (A) (A) (A) (A)
                 (A) (A) (A) (A) (A) (A) (A) (A) (A) (A) (A) (A)
                 (A) (A) (A) (A) (A) (A) (A) (A) (A) (A) (A) (A)
                 (A) (A) (A) (A) (A) (A) (A) (A) (A) (A) (A) (A)
                 (A) (A) (A) (A) (A) (A) (A) (A) (A) (A) (A) (A)
                 (A) (A) (A) (A) (A) (A) (A) (A) (A)
 The electronic state of the initial guess is 1-A.
 Leave Link  401 at Fri Sep 18 13:21:37 2015, MaxMem=  402653184 cpu:       9.9
 (Enter /share/apps/g09/l502.exe)
 Closed shell SCF:
 Requested convergence on RMS density matrix=1.00D-08 within 128 cycles.
 Requested convergence on MAX density matrix=1.00D-06.
 Requested convergence on             energy=1.00D-06.
 No special actions if energy rises.
 Using DIIS extrapolation, IDIIS=  1040.
 Integral symmetry usage will be decided dynamically.
       452866 words used for storage of precomputed grid.
 Keep R1 ints in memory in canonical form, NReq=26106921.
 IEnd=      514410 IEndB=      514410 NGot=   402653184 MDV=   377518698
 LenX=   377518698 LenY=   377504333
 Symmetry not used in FoFDir.
 MinBra= 0 MaxBra= 2 Meth= 1.
 IRaf=       0 NMat=   1 IRICut=       1 DoRegI=T DoRafI=F ISym2E= 0 JSym2E=0.
 Integral accuracy reduced to 1.0D-05 until final iterations.

 Cycle   1  Pass 0  IDiag  1:
 E= -236.791131976051    
 DIIS: error= 5.08D-02 at cycle   1 NSaved=   1.
 NSaved= 1 IEnMin= 1 EnMin= -236.791131976051     IErMin= 1 ErrMin= 5.08D-02
 ErrMax= 5.08D-02 EMaxC= 1.00D-01 BMatC= 2.55D-01 BMatP= 2.55D-01
 IDIUse=3 WtCom= 4.92D-01 WtEn= 5.08D-01
 Coeff-Com:  0.100D+01
 Coeff-En:   0.100D+01
 Coeff:      0.100D+01
 Gap=     0.335 Goal=   None    Shift=    0.000
 GapD=    0.335 DampG=1.000 DampE=0.500 DampFc=0.5000 IDamp=-1.
 Damping current iteration by 5.00D-01
 RMSDP=1.02D-02 MaxDP=1.47D-01              OVMax= 1.84D-01

 Cycle   2  Pass 0  IDiag  1:
 E= -236.917065942499     Delta-E=       -0.125933966447 Rises=F Damp=T
 DIIS: error= 9.29D-03 at cycle   2 NSaved=   2.
 NSaved= 2 IEnMin= 2 EnMin= -236.917065942499     IErMin= 2 ErrMin= 9.29D-03
 ErrMax= 9.29D-03 EMaxC= 1.00D-01 BMatC= 1.07D-02 BMatP= 2.55D-01
 IDIUse=3 WtCom= 9.07D-01 WtEn= 9.29D-02
 Coeff-Com:  0.935D-01 0.907D+00
 Coeff-En:   0.152D+00 0.848D+00
 Coeff:      0.989D-01 0.901D+00
 Gap=     0.401 Goal=   None    Shift=    0.000
 RMSDP=1.52D-03 MaxDP=2.50D-02 DE=-1.26D-01 OVMax= 1.03D-01

 Cycle   3  Pass 0  IDiag  1:
 E= -237.080533271761     Delta-E=       -0.163467329262 Rises=F Damp=F
 DIIS: error= 2.54D-03 at cycle   3 NSaved=   3.
 NSaved= 3 IEnMin= 3 EnMin= -237.080533271761     IErMin= 3 ErrMin= 2.54D-03
 ErrMax= 2.54D-03 EMaxC= 1.00D-01 BMatC= 8.76D-04 BMatP= 1.07D-02
 IDIUse=3 WtCom= 9.75D-01 WtEn= 2.54D-02
 Coeff-Com:  0.856D-02 0.173D+00 0.818D+00
 Coeff-En:   0.000D+00 0.000D+00 0.100D+01
 Coeff:      0.834D-02 0.169D+00 0.823D+00
 Gap=     0.391 Goal=   None    Shift=    0.000
 RMSDP=4.28D-04 MaxDP=5.15D-03 DE=-1.63D-01 OVMax= 7.29D-03

 Cycle   4  Pass 0  IDiag  1:
 E= -237.081197554992     Delta-E=       -0.000664283231 Rises=F Damp=F
 DIIS: error= 1.18D-03 at cycle   4 NSaved=   4.
 NSaved= 4 IEnMin= 4 EnMin= -237.081197554992     IErMin= 4 ErrMin= 1.18D-03
 ErrMax= 1.18D-03 EMaxC= 1.00D-01 BMatC= 2.08D-04 BMatP= 8.76D-04
 IDIUse=3 WtCom= 9.88D-01 WtEn= 1.18D-02
 Coeff-Com:  0.538D-03 0.207D-01 0.330D+00 0.649D+00
 Coeff-En:   0.000D+00 0.000D+00 0.988D-01 0.901D+00
 Coeff:      0.532D-03 0.205D-01 0.327D+00 0.652D+00
 Gap=     0.392 Goal=   None    Shift=    0.000
 RMSDP=1.59D-04 MaxDP=2.22D-03 DE=-6.64D-04 OVMax= 3.08D-03

 Cycle   5  Pass 0  IDiag  1:
 E= -237.081389212065     Delta-E=       -0.000191657073 Rises=F Damp=F
 DIIS: error= 3.18D-04 at cycle   5 NSaved=   5.
 NSaved= 5 IEnMin= 5 EnMin= -237.081389212065     IErMin= 5 ErrMin= 3.18D-04
 ErrMax= 3.18D-04 EMaxC= 1.00D-01 BMatC= 2.26D-05 BMatP= 2.08D-04
 IDIUse=3 WtCom= 9.97D-01 WtEn= 3.18D-03
 Coeff-Com:  0.134D-03-0.841D-03 0.110D+00 0.323D+00 0.568D+00
 Coeff-En:   0.000D+00 0.000D+00 0.000D+00 0.000D+00 0.100D+01
 Coeff:      0.133D-03-0.838D-03 0.110D+00 0.322D+00 0.569D+00
 Gap=     0.391 Goal=   None    Shift=    0.000
 RMSDP=3.93D-05 MaxDP=7.00D-04 DE=-1.92D-04 OVMax= 8.83D-04

 Cycle   6  Pass 0  IDiag  1:
 E= -237.081411241667     Delta-E=       -0.000022029602 Rises=F Damp=F
 DIIS: error= 4.36D-05 at cycle   6 NSaved=   6.
 NSaved= 6 IEnMin= 6 EnMin= -237.081411241667     IErMin= 6 ErrMin= 4.36D-05
 ErrMax= 4.36D-05 EMaxC= 1.00D-01 BMatC= 3.10D-07 BMatP= 2.26D-05
 IDIUse=1 WtCom= 1.00D+00 WtEn= 0.00D+00
 Coeff-Com:  0.144D-03-0.110D-02 0.266D-01 0.895D-01 0.201D+00 0.684D+00
 Coeff:      0.144D-03-0.110D-02 0.266D-01 0.895D-01 0.201D+00 0.684D+00
 Gap=     0.392 Goal=   None    Shift=    0.000
 RMSDP=7.04D-06 MaxDP=1.11D-04 DE=-2.20D-05 OVMax= 1.38D-04

 Initial convergence to 1.0D-05 achieved.  Increase integral accuracy.
 Cycle   7  Pass 1  IDiag  1:
 E= -237.081364840304     Delta-E=        0.000046401363 Rises=F Damp=F
 DIIS: error= 7.28D-06 at cycle   1 NSaved=   1.
 NSaved= 1 IEnMin= 1 EnMin= -237.081364840304     IErMin= 1 ErrMin= 7.28D-06
 ErrMax= 7.28D-06 EMaxC= 1.00D-01 BMatC= 1.01D-08 BMatP= 1.01D-08
 IDIUse=1 WtCom= 1.00D+00 WtEn= 0.00D+00
 Coeff-Com:  0.100D+01
 Coeff:      0.100D+01
 Gap=     0.392 Goal=   None    Shift=    0.000
 RMSDP=7.04D-06 MaxDP=1.11D-04 DE= 4.64D-05 OVMax= 3.29D-05

 Cycle   8  Pass 1  IDiag  1:
 E= -237.081364843354     Delta-E=       -0.000000003050 Rises=F Damp=F
 DIIS: error= 6.57D-06 at cycle   2 NSaved=   2.
 NSaved= 2 IEnMin= 2 EnMin= -237.081364843354     IErMin= 2 ErrMin= 6.57D-06
 ErrMax= 6.57D-06 EMaxC= 1.00D-01 BMatC= 8.13D-09 BMatP= 1.01D-08
 IDIUse=1 WtCom= 1.00D+00 WtEn= 0.00D+00
 Coeff-Com:  0.470D+00 0.530D+00
 Coeff:      0.470D+00 0.530D+00
 Gap=     0.392 Goal=   None    Shift=    0.000
 RMSDP=7.84D-07 MaxDP=1.61D-05 DE=-3.05D-09 OVMax= 1.85D-05

 Cycle   9  Pass 1  IDiag  1:
 E= -237.081364851110     Delta-E=       -0.000000007756 Rises=F Damp=F
 DIIS: error= 1.11D-06 at cycle   3 NSaved=   3.
 NSaved= 3 IEnMin= 3 EnMin= -237.081364851110     IErMin= 3 ErrMin= 1.11D-06
 ErrMax= 1.11D-06 EMaxC= 1.00D-01 BMatC= 2.46D-10 BMatP= 8.13D-09
 IDIUse=1 WtCom= 1.00D+00 WtEn= 0.00D+00
 Coeff-Com:  0.633D-01 0.172D+00 0.765D+00
 Coeff:      0.633D-01 0.172D+00 0.765D+00
 Gap=     0.392 Goal=   None    Shift=    0.000
 RMSDP=1.47D-07 MaxDP=2.88D-06 DE=-7.76D-09 OVMax= 3.29D-06

 Cycle  10  Pass 1  IDiag  1:
 E= -237.081364851331     Delta-E=       -0.000000000222 Rises=F Damp=F
 DIIS: error= 2.94D-07 at cycle   4 NSaved=   4.
 NSaved= 4 IEnMin= 4 EnMin= -237.081364851331     IErMin= 4 ErrMin= 2.94D-07
 ErrMax= 2.94D-07 EMaxC= 1.00D-01 BMatC= 1.46D-11 BMatP= 2.46D-10
 IDIUse=1 WtCom= 1.00D+00 WtEn= 0.00D+00
 Coeff-Com: -0.904D-02 0.268D-01 0.265D+00 0.717D+00
 Coeff:     -0.904D-02 0.268D-01 0.265D+00 0.717D+00
 Gap=     0.392 Goal=   None    Shift=    0.000
 RMSDP=4.89D-08 MaxDP=5.72D-07 DE=-2.22D-10 OVMax= 9.10D-07

 Cycle  11  Pass 1  IDiag  1:
 E= -237.081364851349     Delta-E=       -0.000000000018 Rises=F Damp=F
 DIIS: error= 5.20D-08 at cycle   5 NSaved=   5.
 NSaved= 5 IEnMin= 5 EnMin= -237.081364851349     IErMin= 5 ErrMin= 5.20D-08
 ErrMax= 5.20D-08 EMaxC= 1.00D-01 BMatC= 4.12D-13 BMatP= 1.46D-11
 IDIUse=1 WtCom= 1.00D+00 WtEn= 0.00D+00
 Coeff-Com: -0.464D-02 0.730D-02 0.867D-01 0.274D+00 0.637D+00
 Coeff:     -0.464D-02 0.730D-02 0.867D-01 0.274D+00 0.637D+00
 Gap=     0.392 Goal=   None    Shift=    0.000
 RMSDP=7.02D-09 MaxDP=9.51D-08 DE=-1.77D-11 OVMax= 1.35D-07

 SCF Done:  E(RB3LYP) =  -237.081364851     A.U. after   11 cycles
             Convg  =    0.7022D-08             -V/T =  2.0106
 KE= 2.345858106140D+02 PE=-1.047542033697D+03 EE= 3.255529415899D+02
 Leave Link  502 at Fri Sep 18 13:22:22 2015, MaxMem=  402653184 cpu:      89.9
 (Enter /share/apps/g09/l601.exe)
 Copying SCF densities to generalized density rwf, IOpCl= 0 IROHF=0.

 **********************************************************************

            Population analysis using the SCF density.

 **********************************************************************

 Orbital symmetries:
       Occupied  (A) (A) (A) (A) (A) (A) (A) (A) (A) (A) (A) (A)
                 (A) (A) (A) (A) (A) (A) (A) (A) (A) (A) (A) (A)
                 (A)
       Virtual   (A) (A) (A) (A) (A) (A) (A) (A) (A) (A) (A) (A)
                 (A) (A) (A) (A) (A) (A) (A) (A) (A) (A) (A) (A)
                 (A) (A) (A) (A) (A) (A) (A) (A) (A) (A) (A) (A)
                 (A) (A) (A) (A) (A) (A) (A) (A) (A) (A) (A) (A)
                 (A) (A) (A) (A) (A) (A) (A) (A) (A) (A) (A) (A)
                 (A) (A) (A) (A) (A) (A) (A) (A) (A) (A) (A) (A)
                 (A) (A) (A) (A) (A) (A) (A) (A) (A) (A) (A) (A)
                 (A) (A) (A) (A) (A) (A) (A) (A) (A)
 The electronic state is 1-A.
 Alpha  occ. eigenvalues --  -10.17710 -10.17710 -10.17478 -10.17457 -10.16878
 Alpha  occ. eigenvalues --  -10.16878  -0.80043  -0.75960  -0.69770  -0.64198
 Alpha  occ. eigenvalues --   -0.58462  -0.55562  -0.45853  -0.44501  -0.43764
 Alpha  occ. eigenvalues --   -0.42086  -0.39105  -0.37716  -0.37328  -0.34979
 Alpha  occ. eigenvalues --   -0.33622  -0.33328  -0.31396  -0.31182  -0.29971
 Alpha virt. eigenvalues --    0.09186   0.10779   0.11688   0.11744   0.15384
 Alpha virt. eigenvalues --    0.15730   0.16471   0.17398   0.18029   0.18164
 Alpha virt. eigenvalues --    0.18941   0.20021   0.20044   0.23942   0.25222
 Alpha virt. eigenvalues --    0.26072   0.26329   0.28401   0.28447   0.50615
 Alpha virt. eigenvalues --    0.51644   0.52080   0.52951   0.54605   0.57096
 Alpha virt. eigenvalues --    0.57157   0.60886   0.65792   0.67021   0.67232
 Alpha virt. eigenvalues --    0.69820   0.70741   0.73795   0.80729   0.83006
 Alpha virt. eigenvalues --    0.85572   0.85967   0.87297   0.87447   0.89144
 Alpha virt. eigenvalues --    0.89647   0.91078   0.92456   0.93817   0.96902
 Alpha virt. eigenvalues --    0.97363   0.97619   0.99148   1.01315   1.03196
 Alpha virt. eigenvalues --    1.06446   1.10819   1.19997   1.36999   1.43652
 Alpha virt. eigenvalues --    1.43830   1.55537   1.59387   1.59945   1.67113
 Alpha virt. eigenvalues --    1.72760   1.74223   1.80728   1.85735   1.86592
 Alpha virt. eigenvalues --    1.91959   1.97141   1.97280   1.99417   2.01637
 Alpha virt. eigenvalues --    2.06561   2.07644   2.16679   2.18288   2.24306
 Alpha virt. eigenvalues --    2.29811   2.31403   2.34547   2.37302   2.38900
 Alpha virt. eigenvalues --    2.41693   2.47914   2.55408   2.63043   2.63940
 Alpha virt. eigenvalues --    2.69879   2.80201   4.11340   4.18983   4.29679
 Alpha virt. eigenvalues --    4.41472   4.46125   4.55224
          Condensed to atoms (all electrons):
              1          2          3          4          5          6
     1  C    5.066749   0.377580   0.378386   0.372372   0.379504  -0.040233
     2  H    0.377580   0.579354  -0.033532  -0.031244  -0.035020   0.005276
     3  H    0.378386  -0.033532   0.575252  -0.030680  -0.037099  -0.004361
     4  H    0.372372  -0.031244  -0.030680   0.579151  -0.029055  -0.002695
     5  C    0.379504  -0.035020  -0.037099  -0.029055   4.961506   0.375729
     6  H   -0.040233   0.005276  -0.004361  -0.002695   0.375729   0.614272
     7  H   -0.038797  -0.004517   0.005324  -0.003120   0.371328  -0.038907
     8  C   -0.047433  -0.004833  -0.004626   0.004563   0.377288  -0.039941
     9  H   -0.007342   0.005758  -0.000032   0.000049  -0.038349   0.005530
    10  H    0.005040   0.000045  -0.000014  -0.000174  -0.033931  -0.001384
    11  C   -0.005122  -0.000329   0.002431   0.000092  -0.041556  -0.007835
    12  H   -0.000284   0.000043   0.000257  -0.000021  -0.004537   0.006358
    13  H    0.001991   0.000233   0.003615  -0.000123  -0.003319  -0.000157
    14  C    0.000140  -0.000015  -0.000150   0.000000   0.004077   0.000082
    15  H    0.000000   0.000001  -0.000001   0.000000   0.000082   0.000013
    16  H    0.000003   0.000000   0.000007   0.000000  -0.000162  -0.000010
    17  C   -0.000015  -0.000006   0.000009   0.000000   0.000140   0.000000
    18  H   -0.000006   0.000004  -0.000003   0.000000  -0.000015   0.000001
    19  H    0.000000   0.000000   0.000000   0.000000   0.000000   0.000000
    20  H    0.000009  -0.000003   0.000009   0.000000  -0.000150  -0.000001
              7          8          9         10         11         12
     1  C   -0.038797  -0.047433  -0.007342   0.005040  -0.005122  -0.000284
     2  H   -0.004517  -0.004833   0.005758   0.000045  -0.000329   0.000043
     3  H    0.005324  -0.004626  -0.000032  -0.000014   0.002431   0.000257
     4  H   -0.003120   0.004563   0.000049  -0.000174   0.000092  -0.000021
     5  C    0.371328   0.377288  -0.038349  -0.033931  -0.041556  -0.004537
     6  H   -0.038907  -0.039941   0.005530  -0.001384  -0.007835   0.006358
     7  H    0.617948  -0.034092  -0.001276  -0.005037   0.004720   0.000057
     8  C   -0.034092   4.996457   0.372502   0.369449   0.388156  -0.039549
     9  H   -0.001276   0.372502   0.612612  -0.039524  -0.042419   0.005743
    10  H   -0.005037   0.369449  -0.039524   0.617362  -0.039549  -0.004918
    11  C    0.004720   0.388156  -0.042419  -0.039549   4.996457   0.369449
    12  H    0.000057  -0.039549   0.005743  -0.004918   0.369449   0.617362
    13  H   -0.000024  -0.042419  -0.005259   0.005743   0.372502  -0.039524
    14  C   -0.000162  -0.041556  -0.003319  -0.004537   0.377288  -0.033931
    15  H   -0.000010  -0.007835  -0.000157   0.006358  -0.039942  -0.001384
    16  H    0.000003   0.004720  -0.000024   0.000057  -0.034092  -0.005037
    17  C    0.000003  -0.005122   0.001991  -0.000284  -0.047433   0.005040
    18  H    0.000000  -0.000329   0.000232   0.000043  -0.004833   0.000045
    19  H    0.000000   0.000092  -0.000123  -0.000021   0.004563  -0.000174
    20  H    0.000007   0.002431   0.003615   0.000257  -0.004626  -0.000014
             13         14         15         16         17         18
     1  C    0.001991   0.000140   0.000000   0.000003  -0.000015  -0.000006
     2  H    0.000233  -0.000015   0.000001   0.000000  -0.000006   0.000004
     3  H    0.003615  -0.000150  -0.000001   0.000007   0.000009  -0.000003
     4  H   -0.000123   0.000000   0.000000   0.000000   0.000000   0.000000
     5  C   -0.003319   0.004077   0.000082  -0.000162   0.000140  -0.000015
     6  H   -0.000157   0.000082   0.000013  -0.000010   0.000000   0.000001
     7  H   -0.000024  -0.000162  -0.000010   0.000003   0.000003   0.000000
     8  C   -0.042419  -0.041556  -0.007835   0.004720  -0.005122  -0.000329
     9  H   -0.005259  -0.003319  -0.000157  -0.000024   0.001991   0.000232
    10  H    0.005743  -0.004537   0.006358   0.000057  -0.000284   0.000043
    11  C    0.372502   0.377288  -0.039942  -0.034092  -0.047433  -0.004833
    12  H   -0.039524  -0.033931  -0.001384  -0.005037   0.005040   0.000045
    13  H    0.612612  -0.038350   0.005530  -0.001276  -0.007342   0.005758
    14  C   -0.038350   4.961506   0.375729   0.371328   0.379504  -0.035020
    15  H    0.005530   0.375729   0.614272  -0.038907  -0.040233   0.005276
    16  H   -0.001276   0.371328  -0.038907   0.617948  -0.038797  -0.004517
    17  C   -0.007342   0.379504  -0.040233  -0.038797   5.066749   0.377580
    18  H    0.005758  -0.035020   0.005276  -0.004517   0.377580   0.579354
    19  H    0.000049  -0.029055  -0.002695  -0.003119   0.372371  -0.031244
    20  H   -0.000032  -0.037099  -0.004361   0.005324   0.378386  -0.033532
             19         20
     1  C    0.000000   0.000009
     2  H    0.000000  -0.000003
     3  H    0.000000   0.000009
     4  H    0.000000   0.000000
     5  C    0.000000  -0.000150
     6  H    0.000000  -0.000001
     7  H    0.000000   0.000007
     8  C    0.000092   0.002431
     9  H   -0.000123   0.003615
    10  H   -0.000021   0.000257
    11  C    0.004563  -0.004626
    12  H   -0.000174  -0.000014
    13  H    0.000049  -0.000032
    14  C   -0.029055  -0.037099
    15  H   -0.002695  -0.004361
    16  H   -0.003119   0.005324
    17  C    0.372371   0.378386
    18  H   -0.031244  -0.033532
    19  H    0.579151  -0.030680
    20  H   -0.030680   0.575251
 Mulliken atomic charges:
              1
     1  C   -0.442541
     2  H    0.141206
     3  H    0.145206
     4  H    0.140886
     5  C   -0.246460
     6  H    0.128263
     7  H    0.126550
     8  C   -0.247921
     9  H    0.129792
    10  H    0.125020
    11  C   -0.247921
    12  H    0.125020
    13  H    0.129792
    14  C   -0.246460
    15  H    0.128263
    16  H    0.126550
    17  C   -0.442541
    18  H    0.141206
    19  H    0.140886
    20  H    0.145206
 Sum of Mulliken atomic charges =   0.00000
 Mulliken charges with hydrogens summed into heavy atoms:
              1
     1  C   -0.015243
     5  C    0.008352
     8  C    0.006890
    11  C    0.006890
    14  C    0.008352
    17  C   -0.015243
 Sum of Mulliken charges with hydrogens summed into heavy atoms =   0.00000
 Electronic spatial extent (au):  <R**2>=            935.0164
 Charge=              0.0000 electrons
 Dipole moment (field-independent basis, Debye):
    X=              0.0000    Y=             -0.0428    Z=              0.0000  Tot=              0.0428
 Quadrupole moment (field-independent basis, Debye-Ang):
   XX=            -41.9247   YY=            -41.6148   ZZ=            -41.3104
   XY=              0.0000   XZ=              0.1236   YZ=              0.0000
 Traceless Quadrupole moment (field-independent basis, Debye-Ang):
   XX=             -0.3081   YY=              0.0019   ZZ=              0.3063
   XY=              0.0000   XZ=              0.1236   YZ=              0.0000
 Octapole moment (field-independent basis, Debye-Ang**2):
  XXX=              0.0000  YYY=             -0.8137  ZZZ=              0.0000  XYY=              0.0000
  XXY=             -1.0621  XXZ=              0.0000  XZZ=              0.0000  YZZ=              0.0732
  YYZ=              0.0000  XYZ=              0.7220
 Hexadecapole moment (field-independent basis, Debye-Ang**3):
 XXXX=           -950.9224 YYYY=           -199.8979 ZZZZ=           -137.8533 XXXY=              0.0000
 XXXZ=             -1.1728 YYYX=              0.0000 YYYZ=              0.0000 ZZZX=              1.7852
 ZZZY=              0.0000 XXYY=           -197.8714 XXZZ=           -182.7205 YYZZ=            -53.8414
 XXYZ=              0.0000 YYXZ=              1.1263 ZZXY=              0.0000
 N-N= 2.503219166419D+02 E-N=-1.047542030769D+03  KE= 2.345858106140D+02
 No NMR shielding tensors so no spin-rotation constants.
 Leave Link  601 at Fri Sep 18 13:22:22 2015, MaxMem=  402653184 cpu:       0.3
 (Enter /share/apps/g09/l701.exe)
 Compute integral first derivatives.
 ... and contract with generalized density number  0.
 Leave Link  701 at Fri Sep 18 13:22:22 2015, MaxMem=  402653184 cpu:       0.4
 (Enter /share/apps/g09/l702.exe)
 L702 exits ... SP integral derivatives will be done elsewhere.
 Leave Link  702 at Fri Sep 18 13:22:22 2015, MaxMem=  402653184 cpu:       0.0
 (Enter /share/apps/g09/l703.exe)
 Compute integral first derivatives, UseDBF=F ICtDFT=           0.
 Integral derivatives from FoFDir, PRISM(SPDF).
 Calling FoFJK, ICntrl=      2127 FMM=F ISym2X=0 I1Cent= 0 IOpClX= 0 NMat=1 NMatS=1 NMatT=0.
 FoFCou: FMM=F IPFlag=           0 FMFlag=      100000 FMFlg1=         800
         NFxFlg=           0 DoJE=F BraDBF=F KetDBF=F FulRan=T
         Omega=  0.000000  0.000000  1.000000  0.000000  0.000000 ICntrl=    2127 IOpCl=  0
         NMat0=    1 NMatS0=    1 NMatT0=    0 NMatD0=    1 NMtDS0=    0 NMtDT0=    0
         I1Cent=           0 NGrid=           0.
 Symmetry not used in FoFCou.
 Leave Link  703 at Fri Sep 18 13:22:34 2015, MaxMem=  402653184 cpu:      23.4
 (Enter /share/apps/g09/l716.exe)
 Dipole        =-5.59605287D-07-1.68477337D-02 4.24040897D-07
 ***** Axes restored to original set *****
 -------------------------------------------------------------------
 Center     Atomic                   Forces (Hartrees/Bohr)
 Number     Number              X              Y              Z
 -------------------------------------------------------------------
      1        6          -0.002701590    0.001287851    0.002935465
      2        1           0.000266475   -0.000014016   -0.001294036
      3        1          -0.000850956    0.000163895    0.000305106
      4        1          -0.000649408    0.000354388    0.000480326
      5        6          -0.004459449   -0.003752635   -0.006762583
      6        1           0.002046967    0.003552636   -0.003439762
      7        1           0.002408925    0.002264213    0.004801343
      8        6          -0.000811968   -0.002950059   -0.001686138
      9        1          -0.002900871   -0.003982893    0.002843758
     10        1           0.000080498    0.003076539    0.004261603
     11        6           0.000812123   -0.002949462    0.001686252
     12        1          -0.000080644    0.003076185   -0.004261580
     13        1           0.002900880   -0.003982947   -0.002843815
     14        6           0.004459620   -0.003752303    0.006762351
     15        1          -0.002047011    0.003552673    0.003439652
     16        1          -0.002408867    0.002264206   -0.004801215
     17        6           0.002702148    0.001287376   -0.002934740
     18        1          -0.000266606   -0.000014081    0.001293880
     19        1           0.000649003    0.000354320   -0.000480282
     20        1           0.000850732    0.000164113   -0.000305585
 -------------------------------------------------------------------
 Cartesian Forces:  Max     0.006762583 RMS     0.002801581
 Leave Link  716 at Fri Sep 18 13:22:34 2015, MaxMem=  402653184 cpu:       0.0
 (Enter /share/apps/g09/l103.exe)

 GradGradGradGradGradGradGradGradGradGradGradGradGradGradGradGradGradGrad
 Berny optimization.
 Internal  Forces:  Max     0.007760709 RMS     0.002444844
 Search for a local minimum.
 Step number   1 out of a maximum of  110
 All quantities printed in internal units (Hartrees-Bohrs-Radians)
 RMS Force = .24448D-02 SwitMx=.10000D-02 MixMth= 1
 Mixed Optimization -- RFO/linear search
 Second derivative matrix not updated -- first step.
     Eigenvalues ---    0.00294   0.00294   0.00311   0.00405   0.00405
     Eigenvalues ---    0.03453   0.03453   0.03458   0.03458   0.04766
     Eigenvalues ---    0.04766   0.04794   0.04794   0.05467   0.05467
     Eigenvalues ---    0.05477   0.05477   0.08325   0.08325   0.08407
     Eigenvalues ---    0.08407   0.12205   0.12205   0.12260   0.12260
     Eigenvalues ---    0.16000   0.16000   0.16000   0.16000   0.16000
     Eigenvalues ---    0.16000   0.21869   0.21869   0.21877   0.21877
     Eigenvalues ---    0.28907   0.28907   0.29018   0.29675   0.29675
     Eigenvalues ---    0.32789   0.32789   0.32859   0.32859   0.32896
     Eigenvalues ---    0.32896   0.32902   0.32902   0.34116   0.34116
     Eigenvalues ---    0.34152   0.34152   0.34212   0.342121000.00000
     Eigenvalues --- 1000.000001000.000001000.000001000.000001000.00000
     Eigenvalues --- 1000.000001000.000001000.000001000.000001000.00000
     Eigenvalues --- 1000.000001000.000001000.000001000.000001000.00000
     Eigenvalues --- 1000.000001000.000001000.000001000.000001000.00000
     Eigenvalues --- 1000.000001000.000001000.000001000.000001000.00000
     Eigenvalues --- 1000.000001000.000001000.000001000.000001000.00000
     Eigenvalues --- 1000.000001000.000001000.000001000.000001000.00000
     Eigenvalues --- 1000.000001000.000001000.000001000.000001000.00000
     Eigenvalues --- 1000.000001000.000001000.000001000.000001000.00000
 RFO step:  Lambda=-2.56397142D-03 EMin= 2.94281204D-03
 Linear search not attempted -- first point.
 Iteration  1 RMS(Cart)=  0.05171504 RMS(Int)=  0.00062860
 Iteration  2 RMS(Cart)=  0.00098291 RMS(Int)=  0.00007769
 Iteration  3 RMS(Cart)=  0.00000066 RMS(Int)=  0.00007769
 Variable       Old X    -DE/DX   Delta X   Delta X   Delta X     New X
                                 (Linear)    (Quad)   (Total)
    R1        2.07075   0.00088   0.00000   0.00255   0.00255   2.07330
    R2        2.07135  -0.00011   0.00000  -0.00033  -0.00033   2.07101
    R3        2.06974   0.00072   0.00000   0.00210   0.00210   2.07184
    R4        2.88615   0.00373   0.00000   0.01245   0.01245   2.89861
    R5        2.09300  -0.00523   0.00000  -0.01579  -0.01579   2.07721
    R6        2.09423  -0.00573   0.00000  -0.01734  -0.01734   2.07689
    R7        2.90197   0.00308   0.00000   0.01057   0.01057   2.91254
    R8        2.09224  -0.00538   0.00000  -0.01622  -0.01622   2.07602
    R9        2.09235  -0.00485   0.00000  -0.01464  -0.01464   2.07771
   R10        2.89965   0.00247   0.00000   0.00843   0.00843   2.90808
   R11        2.09235  -0.00485   0.00000  -0.01463  -0.01463   2.07771
   R12        2.09224  -0.00538   0.00000  -0.01622  -0.01622   2.07602
   R13        2.90197   0.00308   0.00000   0.01057   0.01057   2.91254
   R14        2.09300  -0.00523   0.00000  -0.01579  -0.01579   2.07721
   R15        2.09423  -0.00573   0.00000  -0.01734  -0.01734   2.07689
   R16        2.88616   0.00373   0.00000   0.01245   0.01245   2.89861
   R17        2.07075   0.00088   0.00000   0.00255   0.00255   2.07330
   R18        2.06974   0.00072   0.00000   0.00210   0.00210   2.07184
   R19        2.07134  -0.00011   0.00000  -0.00033  -0.00033   2.07101
    A1        1.87141   0.00045   0.00000   0.00421   0.00423   1.87564
    A2        1.87770   0.00027   0.00000  -0.00032  -0.00033   1.87737
    A3        1.94639  -0.00159   0.00000  -0.01004  -0.01003   1.93637
    A4        1.87697  -0.00085   0.00000  -0.00472  -0.00473   1.87224
    A5        1.94577   0.00106   0.00000   0.00759   0.00760   1.95337
    A6        1.94197   0.00065   0.00000   0.00321   0.00320   1.94517
    A7        1.91479  -0.00125   0.00000  -0.00474  -0.00465   1.91014
    A8        1.90855  -0.00243   0.00000  -0.01030  -0.01043   1.89812
    A9        1.97071   0.00587   0.00000   0.02798   0.02798   1.99870
   A10        1.84421   0.00118   0.00000   0.00041   0.00035   1.84455
   A11        1.91789  -0.00271   0.00000  -0.01644  -0.01642   1.90147
   A12        1.90335  -0.00099   0.00000   0.00127   0.00125   1.90460
   A13        1.91709  -0.00385   0.00000  -0.02042  -0.02059   1.89650
   A14        1.90692  -0.00122   0.00000  -0.00183  -0.00168   1.90524
   A15        1.96432   0.00776   0.00000   0.03651   0.03655   2.00087
   A16        1.84443   0.00170   0.00000   0.00289   0.00280   1.84723
   A17        1.91478  -0.00100   0.00000   0.00286   0.00295   1.91774
   A18        1.91244  -0.00381   0.00000  -0.02233  -0.02235   1.89008
   A19        1.91244  -0.00381   0.00000  -0.02233  -0.02235   1.89008
   A20        1.91478  -0.00100   0.00000   0.00286   0.00295   1.91774
   A21        1.96432   0.00776   0.00000   0.03651   0.03655   2.00087
   A22        1.84443   0.00170   0.00000   0.00289   0.00280   1.84723
   A23        1.90692  -0.00122   0.00000  -0.00183  -0.00168   1.90524
   A24        1.91709  -0.00385   0.00000  -0.02042  -0.02059   1.89650
   A25        1.91789  -0.00271   0.00000  -0.01644  -0.01642   1.90147
   A26        1.90335  -0.00099   0.00000   0.00127   0.00125   1.90460
   A27        1.97071   0.00587   0.00000   0.02798   0.02798   1.99870
   A28        1.84421   0.00118   0.00000   0.00041   0.00035   1.84455
   A29        1.91479  -0.00125   0.00000  -0.00474  -0.00465   1.91014
   A30        1.90855  -0.00243   0.00000  -0.01030  -0.01043   1.89812
   A31        1.94639  -0.00159   0.00000  -0.01004  -0.01003   1.93637
   A32        1.94197   0.00065   0.00000   0.00321   0.00320   1.94517
   A33        1.94577   0.00106   0.00000   0.00759   0.00760   1.95337
   A34        1.87770   0.00027   0.00000  -0.00032  -0.00033   1.87737
   A35        1.87141   0.00045   0.00000   0.00421   0.00423   1.87564
   A36        1.87697  -0.00085   0.00000  -0.00472  -0.00473   1.87224
    D1       -3.10045   0.00024   0.00000  -0.00301  -0.00302  -3.10347
    D2       -1.08537  -0.00042   0.00000  -0.01098  -0.01095  -1.09633
    D3        1.03709   0.00054   0.00000   0.00211   0.00207   1.03916
    D4        1.09149   0.00002   0.00000  -0.00671  -0.00670   1.08479
    D5        3.10657  -0.00063   0.00000  -0.01468  -0.01463   3.09194
    D6       -1.05415   0.00033   0.00000  -0.00158  -0.00161  -1.05576
    D7       -1.00381  -0.00005   0.00000  -0.00805  -0.00805  -1.01186
    D8        1.01127  -0.00070   0.00000  -0.01601  -0.01598   0.99529
    D9        3.13373   0.00026   0.00000  -0.00292  -0.00296   3.13077
   D10       -0.86110  -0.00076   0.00000  -0.04269  -0.04267  -0.90378
   D11       -2.87682   0.00005   0.00000  -0.03371  -0.03376  -2.91058
   D12        1.27777   0.00055   0.00000  -0.02847  -0.02867   1.24910
   D13       -3.00502  -0.00127   0.00000  -0.04413  -0.04399  -3.04902
   D14        1.26245  -0.00047   0.00000  -0.03515  -0.03508   1.22736
   D15       -0.86615   0.00003   0.00000  -0.02991  -0.02999  -0.89614
   D16        1.26429  -0.00063   0.00000  -0.03623  -0.03610   1.22819
   D17       -0.75143   0.00017   0.00000  -0.02725  -0.02719  -0.77862
   D18       -2.88002   0.00068   0.00000  -0.02201  -0.02210  -2.90212
   D19        0.98359  -0.00015   0.00000  -0.00692  -0.00699   0.97659
   D20       -1.03396   0.00053   0.00000   0.00065   0.00058  -1.03339
   D21        3.10905   0.00084   0.00000  -0.00041  -0.00071   3.10835
   D22        3.12376  -0.00046   0.00000  -0.00586  -0.00571   3.11805
   D23        1.10621   0.00022   0.00000   0.00172   0.00186   1.10807
   D24       -1.03396   0.00053   0.00000   0.00065   0.00058  -1.03339
   D25       -1.14188  -0.00114   0.00000  -0.01343  -0.01328  -1.15516
   D26        3.12376  -0.00046   0.00000  -0.00586  -0.00571   3.11805
   D27        0.98359  -0.00015   0.00000  -0.00692  -0.00699   0.97659
   D28       -0.86615   0.00003   0.00000  -0.02991  -0.02999  -0.89614
   D29       -2.88002   0.00068   0.00000  -0.02201  -0.02210  -2.90211
   D30        1.27777   0.00055   0.00000  -0.02847  -0.02867   1.24911
   D31        1.26245  -0.00047   0.00000  -0.03515  -0.03509   1.22736
   D32       -0.75142   0.00017   0.00000  -0.02725  -0.02719  -0.77861
   D33       -2.87681   0.00005   0.00000  -0.03371  -0.03376  -2.91058
   D34       -3.00502  -0.00127   0.00000  -0.04413  -0.04399  -3.04901
   D35        1.26429  -0.00063   0.00000  -0.03623  -0.03610   1.22819
   D36       -0.86110  -0.00076   0.00000  -0.04269  -0.04267  -0.90377
   D37        1.03710   0.00054   0.00000   0.00211   0.00207   1.03917
   D38        3.13374   0.00026   0.00000  -0.00292  -0.00296   3.13078
   D39       -1.05414   0.00033   0.00000  -0.00159  -0.00161  -1.05575
   D40       -3.10044   0.00024   0.00000  -0.00302  -0.00303  -3.10346
   D41       -1.00380  -0.00005   0.00000  -0.00805  -0.00805  -1.01185
   D42        1.09151   0.00002   0.00000  -0.00672  -0.00670   1.08480
   D43       -1.08536  -0.00042   0.00000  -0.01098  -0.01096  -1.09632
   D44        1.01128  -0.00070   0.00000  -0.01602  -0.01599   0.99529
   D45        3.10658  -0.00063   0.00000  -0.01468  -0.01464   3.09195
         Item               Value     Threshold  Converged?
 Maximum Force            0.007761     0.000015     NO 
 RMS     Force            0.002445     0.000010     NO 
 Maximum Displacement     0.186411     0.000060     NO 
 RMS     Displacement     0.052130     0.000040     NO 
 Predicted change in Energy=-1.321417D-03
 GradGradGradGradGradGradGradGradGradGradGradGradGradGradGradGradGradGrad

 Leave Link  103 at Fri Sep 18 13:22:34 2015, MaxMem=  402653184 cpu:       0.1
 (Enter /share/apps/g09/l202.exe)
                          Input orientation:                          
 ---------------------------------------------------------------------
 Center     Atomic      Atomic             Coordinates (Angstroms)
 Number     Number       Type             X           Y           Z
 ---------------------------------------------------------------------
      1          6           0       -2.512023    0.834964    0.305874
      2          1           0       -2.363772    1.666366   -0.394495
      3          1           0       -2.013620    1.102690    1.244482
      4          1           0       -3.585965    0.766500    0.515599
      5          6           0       -1.969579   -0.476168   -0.276762
      6          1           0       -2.165510   -1.297841    0.426607
      7          1           0       -2.537657   -0.720881   -1.185221
      8          6           0       -0.465550   -0.452883   -0.612623
      9          1           0       -0.258790    0.425694   -1.238908
     10          1           0       -0.220555   -1.327458   -1.232258
     11          6           0        0.465549   -0.452880    0.612624
     12          1           0        0.220554   -1.327451    1.232265
     13          1           0        0.258790    0.425701    1.238904
     14          6           0        1.969579   -0.476168    0.276763
     15          1           0        2.165508   -1.297842   -0.426605
     16          1           0        2.537656   -0.720880    1.185223
     17          6           0        2.512025    0.834963   -0.305875
     18          1           0        2.363782    1.666364    0.394496
     19          1           0        3.585965    0.766494   -0.515608
     20          1           0        2.013616    1.102692   -1.244480
 ---------------------------------------------------------------------
                    Distance matrix (angstroms):
                    1          2          3          4          5
     1  C    0.000000
     2  H    1.097143   0.000000
     3  H    1.095933   1.768214   0.000000
     4  H    1.096368   1.769686   1.765379   0.000000
     5  C    1.533877   2.181674   2.192924   2.187410   0.000000
     6  H    2.164141   3.082213   2.540578   2.507412   1.099210
     7  H    2.155151   2.520800   3.082772   2.490792   1.099043
     8  C    2.586550   2.853426   2.874921   3.535078   1.541250
     9  H    2.762411   2.585198   3.115282   3.776843   2.160066
    10  H    3.506102   3.776004   3.905758   4.331934   2.167199
    11  C    3.258615   3.675669   2.994215   4.232147   2.592566
    12  H    3.605720   4.276450   3.301101   4.403162   2.792584
    13  H    2.952194   3.329425   2.371116   3.927017   2.841873
    14  C    4.669548   4.880468   4.392624   5.697836   3.977858
    15  H    5.192753   5.413126   5.101000   6.182936   4.218596
    16  H    5.356601   5.676129   4.903370   6.337148   4.744729
    17  C    5.061156   4.946966   4.791320   6.153453   4.669549
    18  H    4.946974   4.792939   4.494647   6.018630   4.880476
    19  H    6.153453   6.018621   5.879311   7.245686   5.697835
    20  H    4.791313   4.494633   4.734296   5.879304   4.392621
                    6          7          8          9         10
     6  H    0.000000
     7  H    1.751961   0.000000
     8  C    2.164213   2.166408   0.000000
     9  H    3.062694   2.551618   1.098581   0.000000
    10  H    2.556474   2.395644   1.099478   1.753582   0.000000
    11  C    2.769663   3.510459   1.538887   2.173645   2.153884
    12  H    2.518583   3.717512   2.153884   3.067570   2.503687
    13  H    3.083448   3.874423   2.173645   2.531293   3.067570
    14  C    4.218597   4.744729   2.592566   2.841873   2.792584
    15  H    4.414259   4.798765   2.769661   3.083445   2.518581
    16  H    4.798766   5.601590   3.510458   3.874423   3.717510
    17  C    5.192755   5.356602   3.258617   2.952196   3.605723
    18  H    5.413134   5.676138   3.675678   3.329437   4.276458
    19  H    6.182937   6.337145   4.232146   3.927015   4.403160
    20  H    5.100998   4.903367   2.994214   2.371114   3.301106
                   11         12         13         14         15
    11  C    0.000000
    12  H    1.099478   0.000000
    13  H    1.098581   1.753582   0.000000
    14  C    1.541250   2.167200   2.160066   0.000000
    15  H    2.164213   2.556476   3.062694   1.099210   0.000000
    16  H    2.166408   2.395643   2.551619   1.099043   1.751961
    17  C    2.586550   3.506101   2.762409   1.533877   2.164141
    18  H    2.853429   3.776004   2.585200   2.181674   3.082213
    19  H    3.535078   4.331934   3.776843   2.187411   2.507410
    20  H    2.874917   3.905755   3.115273   2.192924   2.540581
                   16         17         18         19         20
    16  H    0.000000
    17  C    2.155151   0.000000
    18  H    2.520796   1.097143   0.000000
    19  H    2.490794   1.096368   1.769686   0.000000
    20  H    3.082772   1.095933   1.768215   1.765379   0.000000
 Stoichiometry    C6H14
 Framework group  C1[X(C6H14)]
 Deg. of freedom    54
 Full point group                 C1      NOp   1
 Largest Abelian subgroup         C1      NOp   1
 Largest concise Abelian subgroup C1      NOp   1
                         Standard orientation:                         
 ---------------------------------------------------------------------
 Center     Atomic      Atomic             Coordinates (Angstroms)
 Number     Number       Type             X           Y           Z
 ---------------------------------------------------------------------
      1          6           0       -2.513327    0.832942    0.294973
      2          1           0       -2.362038    1.664343   -0.404747
      3          1           0       -2.019000    1.100668    1.235734
      4          1           0       -3.588169    0.764478    0.500037
      5          6           0       -1.968360   -0.478191   -0.285303
      6          1           0       -2.167340   -1.299863    0.417210
      7          1           0       -2.532491   -0.722904   -1.196219
      8          6           0       -0.462887   -0.454905   -0.614637
      9          1           0       -0.253413    0.423671   -1.240020
     10          1           0       -0.215207   -1.329481   -1.233203
     11          6           0        0.462887   -0.454902    0.614638
     12          1           0        0.215206   -1.329473    1.233210
     13          1           0        0.253413    0.423680    1.240015
     14          6           0        1.968360   -0.478190    0.285305
     15          1           0        2.167338   -1.299865   -0.417206
     16          1           0        2.532491   -0.722901    1.196221
     17          6           0        2.513328    0.832940   -0.294975
     18          1           0        2.362048    1.664342    0.404746
     19          1           0        3.588168    0.764472   -0.500047
     20          1           0        2.018995    1.100669   -1.235733
 ---------------------------------------------------------------------
 Rotational constants (GHZ):      7.1088972      1.4683348      1.3943575
 Leave Link  202 at Fri Sep 18 13:22:34 2015, MaxMem=  402653184 cpu:       0.0
 (Enter /share/apps/g09/l301.exe)
 Standard basis: 6-31G(d) (6D, 7F)
 Ernie: Thresh=  0.10000D-02 Tol=  0.10000D-05 Strict=F.
 There are   118 symmetry adapted basis functions of A   symmetry.
 Integral buffers will be    131072 words long.
 Raffenetti 2 integral format.
 Two-electron integral symmetry is turned on.
   118 basis functions,   224 primitive gaussians,   118 cartesian basis functions
    25 alpha electrons       25 beta electrons
       nuclear repulsion energy       248.6251778516 Hartrees.
 IExCor=  402 DFT=T Ex+Corr=B3LYP ExCW=0 ScaHFX=  0.200000
 ScaDFX=  0.800000  0.720000  1.000000  0.810000 ScalE2=  1.000000  1.000000
 IRadAn=      5 IRanWt=     -1 IRanGd=            0 ICorTp=0
 NAtoms=   20 NActive=   20 NUniq=   20 SFac= 7.50D-01 NAtFMM=   80 NAOKFM=F Big=F
 Leave Link  301 at Fri Sep 18 13:22:34 2015, MaxMem=  402653184 cpu:       0.1
 (Enter /share/apps/g09/l302.exe)
 NPDir=0 NMtPBC=     1 NCelOv=     1 NCel=       1 NClECP=     1 NCelD=      1
         NCelK=      1 NCelE2=     1 NClLst=     1 CellRange=     0.0.
 One-electron integrals computed using PRISM.
 NBasis=   118 RedAO= T  NBF=   118
 NBsUse=   118 1.00D-06 NBFU=   118
 Precomputing XC quadrature grid using
 IXCGrd= 2 IRadAn=           5 IRanWt=          -1 IRanGd=           0 AccXCQ= 1.00D-10.
 NRdTot=    1650 NPtTot=      442444 NUsed=      454267 NTot=      454299
 NSgBfM=   118   118   118   118   118 NAtAll=    20    20.
 Leave Link  302 at Fri Sep 18 13:22:35 2015, MaxMem=  402653184 cpu:       1.2
 (Enter /share/apps/g09/l303.exe)
 DipDrv:  MaxL=1.
 Leave Link  303 at Fri Sep 18 13:22:35 2015, MaxMem=  402653184 cpu:       0.1
 (Enter /share/apps/g09/l401.exe)
 Initial guess read from the read-write file.
 B after Tr=     0.000000    0.000000    0.000000
         Rot=    1.000000    0.000000    0.000000    0.000000 Ang=   0.00 deg.
 Guess basis will be translated and rotated to current coordinates.
 Initial guess orbital symmetries:
       Occupied  (A) (A) (A) (A) (A) (A) (A) (A) (A) (A) (A) (A)
                 (A) (A) (A) (A) (A) (A) (A) (A) (A) (A) (A) (A)
                 (A)
       Virtual   (A) (A) (A) (A) (A) (A) (A) (A) (A) (A) (A) (A)
                 (A) (A) (A) (A) (A) (A) (A) (A) (A) (A) (A) (A)
                 (A) (A) (A) (A) (A) (A) (A) (A) (A) (A) (A) (A)
                 (A) (A) (A) (A) (A) (A) (A) (A) (A) (A) (A) (A)
                 (A) (A) (A) (A) (A) (A) (A) (A) (A) (A) (A) (A)
                 (A) (A) (A) (A) (A) (A) (A) (A) (A) (A) (A) (A)
                 (A) (A) (A) (A) (A) (A) (A) (A) (A) (A) (A) (A)
                 (A) (A) (A) (A) (A) (A) (A) (A) (A)
 The electronic state of the initial guess is 1-A.
 Generating alternative initial guess.
 Harris functional with IExCor=  402 diagonalized for initial guess.
 ExpMin= 1.61D-01 ExpMax= 3.05D+03 ExpMxC= 4.57D+02 IAcc=3 IRadAn=         5 AccDes= 0.00D+00
 HarFok:  IExCor=  402 AccDes= 0.00D+00 IRadAn=         5 IDoV= 1
 ScaDFX=  1.000000  1.000000  1.000000  1.000000
 FoFCou: FMM=F IPFlag=           0 FMFlag=      100000 FMFlg1=           0
         NFxFlg=           0 DoJE=T BraDBF=F KetDBF=T FulRan=T
         Omega=  0.000000  0.000000  1.000000  0.000000  0.000000 ICntrl=     500 IOpCl=  0
         NMat0=    1 NMatS0=    1 NMatT0=    0 NMatD0=    1 NMtDS0=    0 NMtDT0=    0
         I1Cent=           4 NGrid=           0.
 Petite list used in FoFCou.
 Harris En= -237.181685285972    
 Leave Link  401 at Fri Sep 18 13:22:40 2015, MaxMem=  402653184 cpu:      10.2
 (Enter /share/apps/g09/l502.exe)
 Closed shell SCF:
 Requested convergence on RMS density matrix=1.00D-08 within 128 cycles.
 Requested convergence on MAX density matrix=1.00D-06.
 Requested convergence on             energy=1.00D-06.
 No special actions if energy rises.
 Using DIIS extrapolation, IDIIS=  1040.
 Integral symmetry usage will be decided dynamically.
       454074 words used for storage of precomputed grid.
 Keep R1 ints in memory in canonical form, NReq=26108129.
 IEnd=      515618 IEndB=      515618 NGot=   402653184 MDV=   377517490
 LenX=   377517490 LenY=   377503125
 Symmetry not used in FoFDir.
 MinBra= 0 MaxBra= 2 Meth= 1.
 IRaf=       0 NMat=   1 IRICut=       1 DoRegI=T DoRafI=F ISym2E= 0 JSym2E=0.
 Integral accuracy reduced to 1.0D-05 until final iterations.

 Cycle   1  Pass 0  IDiag  1:
 E= -237.080589606511    
 DIIS: error= 2.50D-03 at cycle   1 NSaved=   1.
 NSaved= 1 IEnMin= 1 EnMin= -237.080589606511     IErMin= 1 ErrMin= 2.50D-03
 ErrMax= 2.50D-03 EMaxC= 1.00D-01 BMatC= 9.70D-04 BMatP= 9.70D-04
 IDIUse=3 WtCom= 9.75D-01 WtEn= 2.50D-02
 Coeff-Com:  0.100D+01
 Coeff-En:   0.100D+01
 Coeff:      0.100D+01
 Gap=     0.397 Goal=   None    Shift=    0.000
 GapD=    0.397 DampG=1.000 DampE=1.000 DampFc=1.0000 IDamp=-1.
 RMSDP=3.91D-04 MaxDP=4.59D-03              OVMax= 1.15D-02

 Cycle   2  Pass 0  IDiag  1:
 E= -237.082472865049     Delta-E=       -0.001883258537 Rises=F Damp=F
 DIIS: error= 3.80D-04 at cycle   2 NSaved=   2.
 NSaved= 2 IEnMin= 2 EnMin= -237.082472865049     IErMin= 2 ErrMin= 3.80D-04
 ErrMax= 3.80D-04 EMaxC= 1.00D-01 BMatC= 3.09D-05 BMatP= 9.70D-04
 IDIUse=3 WtCom= 9.96D-01 WtEn= 3.80D-03
 Coeff-Com: -0.190D-01 0.102D+01
 Coeff-En:   0.000D+00 0.100D+01
 Coeff:     -0.189D-01 0.102D+01
 Gap=     0.394 Goal=   None    Shift=    0.000
 RMSDP=1.04D-04 MaxDP=1.58D-03 DE=-1.88D-03 OVMax= 2.26D-03

 Cycle   3  Pass 0  IDiag  1:
 E= -237.082483033900     Delta-E=       -0.000010168851 Rises=F Damp=F
 DIIS: error= 3.58D-04 at cycle   3 NSaved=   3.
 NSaved= 3 IEnMin= 3 EnMin= -237.082483033900     IErMin= 3 ErrMin= 3.58D-04
 ErrMax= 3.58D-04 EMaxC= 1.00D-01 BMatC= 3.13D-05 BMatP= 3.09D-05
 IDIUse=3 WtCom= 9.96D-01 WtEn= 3.58D-03
 Coeff-Com: -0.386D-01 0.528D+00 0.510D+00
 Coeff-En:   0.000D+00 0.410D+00 0.590D+00
 Coeff:     -0.385D-01 0.528D+00 0.510D+00
 Gap=     0.395 Goal=   None    Shift=    0.000
 RMSDP=5.23D-05 MaxDP=8.45D-04 DE=-1.02D-05 OVMax= 1.17D-03

 Cycle   4  Pass 0  IDiag  1:
 E= -237.082514901922     Delta-E=       -0.000031868022 Rises=F Damp=F
 DIIS: error= 5.33D-05 at cycle   4 NSaved=   4.
 NSaved= 4 IEnMin= 4 EnMin= -237.082514901922     IErMin= 4 ErrMin= 5.33D-05
 ErrMax= 5.33D-05 EMaxC= 1.00D-01 BMatC= 5.02D-07 BMatP= 3.09D-05
 IDIUse=1 WtCom= 1.00D+00 WtEn= 0.00D+00
 Coeff-Com: -0.138D-01 0.143D+00 0.183D+00 0.688D+00
 Coeff:     -0.138D-01 0.143D+00 0.183D+00 0.688D+00
 Gap=     0.395 Goal=   None    Shift=    0.000
 RMSDP=7.47D-06 MaxDP=8.42D-05 DE=-3.19D-05 OVMax= 1.37D-04

 Initial convergence to 1.0D-05 achieved.  Increase integral accuracy.
 Cycle   5  Pass 1  IDiag  1:
 E= -237.082483145031     Delta-E=        0.000031756890 Rises=F Damp=F
 DIIS: error= 1.05D-05 at cycle   1 NSaved=   1.
 NSaved= 1 IEnMin= 1 EnMin= -237.082483145031     IErMin= 1 ErrMin= 1.05D-05
 ErrMax= 1.05D-05 EMaxC= 1.00D-01 BMatC= 1.58D-08 BMatP= 1.58D-08
 IDIUse=1 WtCom= 1.00D+00 WtEn= 0.00D+00
 Coeff-Com:  0.100D+01
 Coeff:      0.100D+01
 Gap=     0.395 Goal=   None    Shift=    0.000
 RMSDP=7.47D-06 MaxDP=8.42D-05 DE= 3.18D-05 OVMax= 5.60D-05

 Cycle   6  Pass 1  IDiag  1:
 E= -237.082483146965     Delta-E=       -0.000000001934 Rises=F Damp=F
 DIIS: error= 1.03D-05 at cycle   2 NSaved=   2.
 NSaved= 2 IEnMin= 2 EnMin= -237.082483146965     IErMin= 2 ErrMin= 1.03D-05
 ErrMax= 1.03D-05 EMaxC= 1.00D-01 BMatC= 1.66D-08 BMatP= 1.58D-08
 IDIUse=1 WtCom= 1.00D+00 WtEn= 0.00D+00
 Coeff-Com:  0.506D+00 0.494D+00
 Coeff:      0.506D+00 0.494D+00
 Gap=     0.395 Goal=   None    Shift=    0.000
 RMSDP=1.22D-06 MaxDP=1.98D-05 DE=-1.93D-09 OVMax= 2.92D-05

 Cycle   7  Pass 1  IDiag  1:
 E= -237.082483163636     Delta-E=       -0.000000016671 Rises=F Damp=F
 DIIS: error= 1.33D-06 at cycle   3 NSaved=   3.
 NSaved= 3 IEnMin= 3 EnMin= -237.082483163636     IErMin= 3 ErrMin= 1.33D-06
 ErrMax= 1.33D-06 EMaxC= 1.00D-01 BMatC= 3.29D-10 BMatP= 1.58D-08
 IDIUse=1 WtCom= 1.00D+00 WtEn= 0.00D+00
 Coeff-Com:  0.131D+00 0.175D+00 0.694D+00
 Coeff:      0.131D+00 0.175D+00 0.694D+00
 Gap=     0.395 Goal=   None    Shift=    0.000
 RMSDP=2.17D-07 MaxDP=4.03D-06 DE=-1.67D-08 OVMax= 4.78D-06

 Cycle   8  Pass 1  IDiag  1:
 E= -237.082483163954     Delta-E=       -0.000000000318 Rises=F Damp=F
 DIIS: error= 3.42D-07 at cycle   4 NSaved=   4.
 NSaved= 4 IEnMin= 4 EnMin= -237.082483163954     IErMin= 4 ErrMin= 3.42D-07
 ErrMax= 3.42D-07 EMaxC= 1.00D-01 BMatC= 2.04D-11 BMatP= 3.29D-10
 IDIUse=1 WtCom= 1.00D+00 WtEn= 0.00D+00
 Coeff-Com: -0.101D-01 0.278D-02 0.210D+00 0.797D+00
 Coeff:     -0.101D-01 0.278D-02 0.210D+00 0.797D+00
 Gap=     0.395 Goal=   None    Shift=    0.000
 RMSDP=5.66D-08 MaxDP=9.04D-07 DE=-3.18D-10 OVMax= 1.15D-06

 Cycle   9  Pass 1  IDiag  1:
 E= -237.082483163975     Delta-E=       -0.000000000021 Rises=F Damp=F
 DIIS: error= 5.16D-08 at cycle   5 NSaved=   5.
 NSaved= 5 IEnMin= 5 EnMin= -237.082483163975     IErMin= 5 ErrMin= 5.16D-08
 ErrMax= 5.16D-08 EMaxC= 1.00D-01 BMatC= 6.20D-13 BMatP= 2.04D-11
 IDIUse=1 WtCom= 1.00D+00 WtEn= 0.00D+00
 Coeff-Com: -0.624D-02-0.119D-02 0.781D-01 0.331D+00 0.599D+00
 Coeff:     -0.624D-02-0.119D-02 0.781D-01 0.331D+00 0.599D+00
 Gap=     0.395 Goal=   None    Shift=    0.000
 RMSDP=8.57D-09 MaxDP=1.30D-07 DE=-2.15D-11 OVMax= 1.75D-07

 SCF Done:  E(RB3LYP) =  -237.082483164     A.U. after    9 cycles
             Convg  =    0.8572D-08             -V/T =  2.0106
 KE= 2.346019815997D+02 PE=-1.044160257608D+03 EE= 3.238506149929D+02
 Leave Link  502 at Fri Sep 18 13:23:21 2015, MaxMem=  402653184 cpu:      82.0
 (Enter /share/apps/g09/l701.exe)
 Compute integral first derivatives.
 ... and contract with generalized density number  0.
 Leave Link  701 at Fri Sep 18 13:23:21 2015, MaxMem=  402653184 cpu:       0.3
 (Enter /share/apps/g09/l702.exe)
 L702 exits ... SP integral derivatives will be done elsewhere.
 Leave Link  702 at Fri Sep 18 13:23:21 2015, MaxMem=  402653184 cpu:       0.1
 (Enter /share/apps/g09/l703.exe)
 Compute integral first derivatives, UseDBF=F ICtDFT=           0.
 Integral derivatives from FoFDir, PRISM(SPDF).
 Calling FoFJK, ICntrl=      2127 FMM=F ISym2X=0 I1Cent= 0 IOpClX= 0 NMat=1 NMatS=1 NMatT=0.
 FoFCou: FMM=F IPFlag=           0 FMFlag=      100000 FMFlg1=         800
         NFxFlg=           0 DoJE=F BraDBF=F KetDBF=F FulRan=T
         Omega=  0.000000  0.000000  1.000000  0.000000  0.000000 ICntrl=    2127 IOpCl=  0
         NMat0=    1 NMatS0=    1 NMatT0=    0 NMatD0=    1 NMtDS0=    0 NMtDT0=    0
         I1Cent=           0 NGrid=           0.
 Symmetry not used in FoFCou.
 Leave Link  703 at Fri Sep 18 13:23:33 2015, MaxMem=  402653184 cpu:      23.3
 (Enter /share/apps/g09/l716.exe)
 Dipole        =-1.24200183D-07-2.35108600D-02 2.04620989D-07
 ***** Axes restored to original set *****
 -------------------------------------------------------------------
 Center     Atomic                   Forces (Hartrees/Bohr)
 Number     Number              X              Y              Z
 -------------------------------------------------------------------
      1        6           0.000728778    0.000350475    0.000370642
      2        1           0.000070918    0.000100543   -0.000092615
      3        1           0.000162027   -0.000079857    0.000090178
      4        1           0.000151710   -0.000538732   -0.000350172
      5        6           0.000344256   -0.001068041    0.000468061
      6        1          -0.000150297   -0.000236008    0.000346141
      7        1           0.000916251    0.000534160   -0.000163198
      8        6           0.000622460    0.000939966   -0.000322120
      9        1           0.000199986    0.000433544   -0.000452036
     10        1          -0.000577534   -0.000436031    0.000263291
     11        6          -0.000622451    0.000939958    0.000322170
     12        1           0.000577525   -0.000436056   -0.000263285
     13        1          -0.000199985    0.000433518    0.000451999
     14        6          -0.000344239   -0.001067993   -0.000468094
     15        1           0.000150257   -0.000236011   -0.000346136
     16        1          -0.000916239    0.000534149    0.000163195
     17        6          -0.000728712    0.000350393   -0.000370526
     18        1          -0.000070968    0.000100574    0.000092571
     19        1          -0.000151724   -0.000538721    0.000350161
     20        1          -0.000162018   -0.000079829   -0.000090225
 -------------------------------------------------------------------
 Cartesian Forces:  Max     0.001068041 RMS     0.000466168
 Leave Link  716 at Fri Sep 18 13:23:33 2015, MaxMem=  402653184 cpu:       0.0
 (Enter /share/apps/g09/l103.exe)

 GradGradGradGradGradGradGradGradGradGradGradGradGradGradGradGradGradGrad
 Berny optimization.
 Using GEDIIS/GDIIS optimizer.
 Internal  Forces:  Max     0.002009894 RMS     0.000553826
 Search for a local minimum.
 Step number   2 out of a maximum of  110
 All quantities printed in internal units (Hartrees-Bohrs-Radians)
 RMS Force = .55383D-03 SwitMx=.10000D-02 MixMth= 2
 Mixed Optimization -- En-DIIS/RFO-DIIS
 Update second derivatives using D2CorX and points    1    2
 DE= -1.12D-03 DEPred=-1.32D-03 R= 8.46D-01
 SS=  1.41D+00  RLast= 1.80D-01 DXNew= 5.0454D-01 5.4149D-01
 Trust test= 8.46D-01 RLast= 1.80D-01 DXMaxT set to 5.05D-01
 Use linear search instead of GDIIS.
     Eigenvalues ---    0.00279   0.00294   0.00311   0.00405   0.00405
     Eigenvalues ---    0.03272   0.03279   0.03323   0.03340   0.04734
     Eigenvalues ---    0.04746   0.04765   0.04842   0.05427   0.05427
     Eigenvalues ---    0.05500   0.05511   0.08643   0.08657   0.08665
     Eigenvalues ---    0.08666   0.12410   0.12443   0.12444   0.12818
     Eigenvalues ---    0.15886   0.16000   0.16000   0.16000   0.16000
     Eigenvalues ---    0.16149   0.21877   0.21916   0.21924   0.23738
     Eigenvalues ---    0.28907   0.28988   0.29249   0.29675   0.30538
[...]
 GradGradGradGradGradGradGradGradGradGradGradGradGradGradGradGradGradGrad

 Largest change from initial coordinates is atom   19       4.759 Angstoms.
 Leave Link  103 at Fri Sep 18 13:29:46 2015, MaxMem=  402653184 cpu:       0.0
 (Enter /share/apps/g09/l202.exe)
                          Input orientation:                          
 ---------------------------------------------------------------------
 Center     Atomic      Atomic             Coordinates (Angstroms)
 Number     Number       Type             X           Y           Z
 ---------------------------------------------------------------------
      1          6           0       -2.520658    0.771998    0.387143
      2          1           0       -2.328484    1.687222   -0.187186
      3          1           0       -2.077924    0.905729    1.380490
      4          1           0       -3.605217    0.685336    0.520197
      5          6           0       -1.953650   -0.458256   -0.331713
      6          1           0       -2.161936   -1.358059    0.265109
      7          1           0       -2.489981   -0.593063   -1.280829
      8          6           0       -0.445592   -0.385663   -0.625672
      9          1           0       -0.244567    0.510525   -1.229386
     10          1           0       -0.167257   -1.244777   -1.253600
     11          6           0        0.445592   -0.385662    0.625674
     12          1           0        0.167256   -1.244774    1.253603
     13          1           0        0.244567    0.510528    1.229385
     14          6           0        1.953650   -0.458257    0.331714
     15          1           0        2.161935   -1.358061   -0.265106
     16          1           0        2.489980   -0.593062    1.280831
     17          6           0        2.520658    0.771995   -0.387145
     18          1           0        2.328485    1.687221    0.187182
     19          1           0        3.605217    0.685332   -0.520199
     20          1           0        2.077924    0.905724   -1.380492
 ---------------------------------------------------------------------
                    Distance matrix (angstroms):
                    1          2          3          4          5
     1  C    0.000000
     2  H    1.097461   0.000000
     3  H    1.095735   1.769497   0.000000
     4  H    1.096122   1.770371   1.766721   0.000000
     5  C    1.533550   2.182766   2.192610   2.182023   0.000000
     6  H    2.163496   3.083187   2.525048   2.514675   1.099647
     7  H    2.155566   2.534134   3.082010   2.474217   1.098474
     8  C    2.582997   2.834503   2.890829   3.527504   1.538156
     9  H    2.803948   2.610270   3.213851   3.792832   2.159936
    10  H    3.506839   3.795361   3.900482   4.323339   2.158633
    11  C    3.193072   3.557117   2.933525   4.191326   2.584225
    12  H    3.470303   4.111106   3.111526   4.300553   2.762260
    13  H    2.902448   3.164155   2.360716   3.918462   2.864913
    14  C    4.640693   4.817573   4.383375   5.678409   3.963223
    15  H    5.185485   5.426204   5.080269   6.168648   4.213328
    16  H    5.269588   5.529228   4.808539   6.274097   4.729093
    17  C    5.100430   4.938806   4.928425   6.193313   4.640693
    18  H    4.938806   4.671992   4.631539   6.026897   4.817573
    19  H    6.193313   6.026897   5.996606   7.285107   5.678409
    20  H    4.928425   4.631539   4.989398   5.996606   4.383375
                    6          7          8          9         10
     6  H    0.000000
     7  H    1.755778   0.000000
     8  C    2.164459   2.156796   0.000000
     9  H    3.066175   2.502486   1.099106   0.000000
    10  H    2.509593   2.412575   1.099928   1.757171   0.000000
    11  C    2.806201   3.506473   1.536253   2.172721   2.155303
    12  H    2.532803   3.729475   2.155303   3.068535   2.529420
    13  H    3.195732   3.872575   2.172721   2.506952   3.068535
    14  C    4.213328   4.729093   2.584225   2.864913   2.762260
    15  H    4.356259   4.822576   2.806201   3.195732   2.532803
    16  H    4.822576   5.600188   3.506473   3.872575   3.729475
    17  C    5.185485   5.269588   3.193072   2.902448   3.470303
    18  H    5.426204   5.529228   3.557117   3.164155   4.111106
    19  H    6.168648   6.274097   4.191326   3.918462   4.300553
    20  H    5.080269   4.808539   2.933525   2.360716   3.111526
                   11         12         13         14         15
    11  C    0.000000
    12  H    1.099928   0.000000
    13  H    1.099106   1.757171   0.000000
    14  C    1.538156   2.158633   2.159936   0.000000
    15  H    2.164459   2.509593   3.066175   1.099647   0.000000
    16  H    2.156796   2.412575   2.502486   1.098474   1.755778
    17  C    2.582997   3.506839   2.803948   1.533550   2.163496
    18  H    2.834503   3.795361   2.610270   2.182766   3.083187
    19  H    3.527504   4.323339   3.792832   2.182023   2.514675
    20  H    2.890829   3.900482   3.213851   2.192610   2.525048
                   16         17         18         19         20
    16  H    0.000000
    17  C    2.155566   0.000000
    18  H    2.534134   1.097461   0.000000
    19  H    2.474217   1.096122   1.770371   0.000000
    20  H    3.082010   1.095735   1.769497   1.766721   0.000000
 Stoichiometry    C6H14
 Framework group  C1[X(C6H14)]
 Deg. of freedom    54
 Full point group                 C1      NOp   1
 Largest Abelian subgroup         C1      NOp   1
 Largest concise Abelian subgroup C1      NOp   1
                         Standard orientation:                         
 ---------------------------------------------------------------------
 Center     Atomic      Atomic             Coordinates (Angstroms)
 Number     Number       Type             X           Y           Z
 ---------------------------------------------------------------------
      1          6           0        2.526997    0.765542   -0.343342
      2          1           0        2.324885    1.680766    0.227565
      3          1           0        2.101568    0.899272   -1.344223
      4          1           0        3.613702    0.678879   -0.457554
      5          6           0        1.947600   -0.464712    0.365567
      6          1           0        2.166211   -1.364515   -0.227549
      7          1           0        2.467378   -0.599517    1.323848
      8          6           0        0.434667   -0.392117    0.633312
      9          1           0        0.223195    0.504071    1.233445
     10          1           0        0.145476   -1.251231    1.256316
     11          6           0       -0.434667   -0.392118   -0.633312
     12          1           0       -0.145476   -1.251231   -1.256315
     13          1           0       -0.223195    0.504071   -1.233445
     14          6           0       -1.947600   -0.464712   -0.365567
     15          1           0       -2.166211   -1.364515    0.227549
     16          1           0       -2.467378   -0.599517   -1.323848
     17          6           0       -2.526997    0.765542    0.343342
     18          1           0       -2.324885    1.680766   -0.227565
     19          1           0       -3.613702    0.678879    0.457554
     20          1           0       -2.101568    0.899272    1.344223
 ---------------------------------------------------------------------
 Rotational constants (GHZ):      7.3209418      1.4583791      1.4190105
 Leave Link  202 at Fri Sep 18 13:29:46 2015, MaxMem=  402653184 cpu:       0.0
 (Enter /share/apps/g09/l601.exe)
 Copying SCF densities to generalized density rwf, IOpCl= 0 IROHF=0.

 **********************************************************************

            Population analysis using the SCF density.

 **********************************************************************

 Orbital symmetries:
       Occupied  (A) (A) (A) (A) (A) (A) (A) (A) (A) (A) (A) (A)
                 (A) (A) (A) (A) (A) (A) (A) (A) (A) (A) (A) (A)
                 (A)
       Virtual   (A) (A) (A) (A) (A) (A) (A) (A) (A) (A) (A) (A)
                 (A) (A) (A) (A) (A) (A) (A) (A) (A) (A) (A) (A)
                 (A) (A) (A) (A) (A) (A) (A) (A) (A) (A) (A) (A)
                 (A) (A) (A) (A) (A) (A) (A) (A) (A) (A) (A) (A)
                 (A) (A) (A) (A) (A) (A) (A) (A) (A) (A) (A) (A)
                 (A) (A) (A) (A) (A) (A) (A) (A) (A) (A) (A) (A)
                 (A) (A) (A) (A) (A) (A) (A) (A) (A) (A) (A) (A)
                 (A) (A) (A) (A) (A) (A) (A) (A) (A)
 The electronic state is 1-A.
 Alpha  occ. eigenvalues --  -10.17617 -10.17617 -10.17343 -10.17322 -10.16937
 Alpha  occ. eigenvalues --  -10.16937  -0.79872  -0.75880  -0.69809  -0.64472
 Alpha  occ. eigenvalues --   -0.58673  -0.55299  -0.46195  -0.44461  -0.43238
 Alpha  occ. eigenvalues --   -0.42392  -0.39268  -0.37583  -0.37413  -0.34923
 Alpha  occ. eigenvalues --   -0.33516  -0.33365  -0.31339  -0.31105  -0.30323
 Alpha virt. eigenvalues --    0.09021   0.10876   0.12284   0.12432   0.15653
 Alpha virt. eigenvalues --    0.16001   0.16356   0.17681   0.17811   0.18409
 Alpha virt. eigenvalues --    0.18555   0.19711   0.19901   0.23900   0.24707
 Alpha virt. eigenvalues --    0.25255   0.25604   0.28177   0.28298   0.50394
 Alpha virt. eigenvalues --    0.51107   0.51962   0.53115   0.54847   0.56908
 Alpha virt. eigenvalues --    0.56914   0.61148   0.65596   0.66871   0.66920
 Alpha virt. eigenvalues --    0.69950   0.70458   0.72924   0.81452   0.82340
 Alpha virt. eigenvalues --    0.86119   0.86211   0.88054   0.88290   0.88859
 Alpha virt. eigenvalues --    0.89688   0.91492   0.92400   0.94349   0.96037
 Alpha virt. eigenvalues --    0.96817   0.98133   0.99476   1.01181   1.02550
 Alpha virt. eigenvalues --    1.05710   1.10592   1.20432   1.36151   1.43113
 Alpha virt. eigenvalues --    1.43947   1.54281   1.58567   1.58790   1.65912
 Alpha virt. eigenvalues --    1.71127   1.72961   1.79551   1.84849   1.87417
 Alpha virt. eigenvalues --    1.92958   1.97944   1.98232   1.99701   2.00286
 Alpha virt. eigenvalues --    2.05901   2.08603   2.16388   2.18374   2.27672
 Alpha virt. eigenvalues --    2.30476   2.31551   2.33618   2.35682   2.38249
 Alpha virt. eigenvalues --    2.40859   2.47186   2.57430   2.62595   2.63510
 Alpha virt. eigenvalues --    2.71010   2.79000   4.10817   4.18672   4.29693
 Alpha virt. eigenvalues --    4.40553   4.45869   4.54569
          Condensed to atoms (all electrons):
              1          2          3          4          5          6
     1  C    5.065908   0.376814   0.378561   0.373020   0.378215  -0.040611
     2  H    0.376814   0.581313  -0.032965  -0.031348  -0.036283   0.005383
     3  H    0.378561  -0.032965   0.572986  -0.031343  -0.034464  -0.004537
     4  H    0.373020  -0.031348  -0.031343   0.578980  -0.028514  -0.002465
     5  C    0.378215  -0.036283  -0.034464  -0.028514   4.956460   0.374985
     6  H   -0.040611   0.005383  -0.004537  -0.002465   0.374985   0.614773
     7  H   -0.039907  -0.004085   0.005213  -0.003583   0.373667  -0.038594
     8  C   -0.045742  -0.004108  -0.004932   0.004357   0.381841  -0.039807
     9  H   -0.006483   0.005527  -0.000095  -0.000016  -0.039092   0.005949
    10  H    0.005049   0.000013  -0.000028  -0.000160  -0.034478  -0.002825
    11  C   -0.004410  -0.000589   0.003077   0.000096  -0.039442  -0.007053
    12  H   -0.000648   0.000086   0.000418  -0.000030  -0.003788   0.006310
    13  H    0.002830   0.000306   0.002087  -0.000075  -0.003990  -0.000190
    14  C    0.000140  -0.000023  -0.000090  -0.000001   0.003754  -0.000007
    15  H    0.000003   0.000000   0.000000   0.000000  -0.000007   0.000003
    16  H    0.000004   0.000000   0.000006   0.000000  -0.000142  -0.000007
    17  C   -0.000021  -0.000001   0.000007   0.000000   0.000140   0.000003
    18  H   -0.000001   0.000004  -0.000003   0.000000  -0.000023   0.000000
    19  H    0.000000   0.000000   0.000000   0.000000  -0.000001   0.000000
    20  H    0.000007  -0.000003   0.000001   0.000000  -0.000090   0.000000
              7          8          9         10         11         12
     1  C   -0.039907  -0.045742  -0.006483   0.005049  -0.004410  -0.000648
     2  H   -0.004085  -0.004108   0.005527   0.000013  -0.000589   0.000086
     3  H    0.005213  -0.004932  -0.000095  -0.000028   0.003077   0.000418
     4  H   -0.003583   0.004357  -0.000016  -0.000160   0.000096  -0.000030
     5  C    0.373667   0.381841  -0.039092  -0.034478  -0.039442  -0.003788
     6  H   -0.038594  -0.039807   0.005949  -0.002825  -0.007053   0.006310
     7  H    0.614413  -0.034299  -0.002691  -0.004004   0.004675   0.000038
     8  C   -0.034299   4.987875   0.371942   0.370540   0.388302  -0.043108
     9  H   -0.002691   0.371942   0.612950  -0.039151  -0.040231   0.005981
    10  H   -0.004004   0.370540  -0.039151   0.619142  -0.043108  -0.004547
    11  C    0.004675   0.388302  -0.040231  -0.043108   4.987875   0.370540
    12  H    0.000038  -0.043108   0.005981  -0.004547   0.370540   0.619142
    13  H   -0.000053  -0.040231  -0.005594   0.005981   0.371942  -0.039151
    14  C   -0.000142  -0.039442  -0.003990  -0.003788   0.381841  -0.034478
    15  H   -0.000007  -0.007053  -0.000190   0.006310  -0.039807  -0.002825
    16  H    0.000003   0.004675  -0.000053   0.000038  -0.034299  -0.004004
    17  C    0.000004  -0.004410   0.002830  -0.000648  -0.045742   0.005049
    18  H    0.000000  -0.000589   0.000306   0.000086  -0.004108   0.000013
    19  H    0.000000   0.000096  -0.000075  -0.000030   0.004357  -0.000160
    20  H    0.000006   0.003077   0.002087   0.000418  -0.004932  -0.000028
             13         14         15         16         17         18
     1  C    0.002830   0.000140   0.000003   0.000004  -0.000021  -0.000001
     2  H    0.000306  -0.000023   0.000000   0.000000  -0.000001   0.000004
     3  H    0.002087  -0.000090   0.000000   0.000006   0.000007  -0.000003
     4  H   -0.000075  -0.000001   0.000000   0.000000   0.000000   0.000000
     5  C   -0.003990   0.003754  -0.000007  -0.000142   0.000140  -0.000023
     6  H   -0.000190  -0.000007   0.000003  -0.000007   0.000003   0.000000
     7  H   -0.000053  -0.000142  -0.000007   0.000003   0.000004   0.000000
     8  C   -0.040231  -0.039442  -0.007053   0.004675  -0.004410  -0.000589
     9  H   -0.005594  -0.003990  -0.000190  -0.000053   0.002830   0.000306
    10  H    0.005981  -0.003788   0.006310   0.000038  -0.000648   0.000086
    11  C    0.371942   0.381841  -0.039807  -0.034299  -0.045742  -0.004108
    12  H   -0.039151  -0.034478  -0.002825  -0.004004   0.005049   0.000013
    13  H    0.612950  -0.039092   0.005949  -0.002691  -0.006483   0.005527
    14  C   -0.039092   4.956460   0.374985   0.373667   0.378215  -0.036283
    15  H    0.005949   0.374985   0.614773  -0.038594  -0.040611   0.005383
    16  H   -0.002691   0.373667  -0.038594   0.614413  -0.039907  -0.004085
    17  C   -0.006483   0.378215  -0.040611  -0.039907   5.065908   0.376814
    18  H    0.005527  -0.036283   0.005383  -0.004085   0.376814   0.581313
    19  H   -0.000016  -0.028514  -0.002465  -0.003583   0.373020  -0.031348
    20  H   -0.000095  -0.034464  -0.004537   0.005213   0.378561  -0.032965
             19         20
     1  C    0.000000   0.000007
     2  H    0.000000  -0.000003
     3  H    0.000000   0.000001
     4  H    0.000000   0.000000
     5  C   -0.000001  -0.000090
     6  H    0.000000   0.000000
     7  H    0.000000   0.000006
     8  C    0.000096   0.003077
     9  H   -0.000075   0.002087
    10  H   -0.000030   0.000418
    11  C    0.004357  -0.004932
    12  H   -0.000160  -0.000028
    13  H   -0.000016  -0.000095
    14  C   -0.028514  -0.034464
    15  H   -0.002465  -0.004537
    16  H   -0.003583   0.005213
    17  C    0.373020   0.378561
    18  H   -0.031348  -0.032965
    19  H    0.578980  -0.031343
    20  H   -0.031343   0.572986
 Mulliken atomic charges:
              1
     1  C   -0.442728
     2  H    0.139960
     3  H    0.146101
     4  H    0.141082
     5  C   -0.248747
     6  H    0.128690
     7  H    0.129347
     8  C   -0.248984
     9  H    0.130089
    10  H    0.125189
    11  C   -0.248984
    12  H    0.125189
    13  H    0.130089
    14  C   -0.248747
    15  H    0.128690
    16  H    0.129347
    17  C   -0.442728
    18  H    0.139960
    19  H    0.141082
    20  H    0.146101
 Sum of Mulliken atomic charges =   0.00000
 Mulliken charges with hydrogens summed into heavy atoms:
              1
     1  C   -0.015585
     5  C    0.009290
     8  C    0.006295
    11  C    0.006295
    14  C    0.009290
    17  C   -0.015585
 Sum of Mulliken charges with hydrogens summed into heavy atoms =   0.00000
 Electronic spatial extent (au):  <R**2>=            954.6384
 Charge=              0.0000 electrons
 Dipole moment (field-independent basis, Debye):
    X=              0.0000    Y=             -0.0535    Z=              0.0000  Tot=              0.0535
 Quadrupole moment (field-independent basis, Debye-Ang):
   XX=            -41.7488   YY=            -41.4995   ZZ=            -41.3121
   XY=              0.0000   XZ=              0.2206   YZ=              0.0000
 Traceless Quadrupole moment (field-independent basis, Debye-Ang):
   XX=             -0.2287   YY=              0.0206   ZZ=              0.2080
   XY=              0.0000   XZ=              0.2206   YZ=              0.0000
 Octapole moment (field-independent basis, Debye-Ang**2):
  XXX=              0.0000  YYY=             -0.6875  ZZZ=              0.0000  XYY=              0.0000
  XXY=             -1.0983  XXZ=              0.0000  XZZ=              0.0000  YZZ=              0.0550
  YYZ=              0.0000  XYZ=              0.8350
 Hexadecapole moment (field-independent basis, Debye-Ang**3):
 XXXX=           -985.2679 YYYY=           -177.4212 ZZZZ=           -146.9870 XXXY=              0.0000
 XXXZ=              1.1493 YYYX=              0.0000 YYYZ=              0.0000 ZZZX=              1.8101
 ZZZY=              0.0000 XXYY=           -200.7227 XXZZ=           -191.1099 YYZZ=            -53.3728
 XXYZ=              0.0000 YYXZ=              0.8568 ZZXY=              0.0000
 N-N= 2.492898530055D+02 E-N=-1.045507339620D+03  KE= 2.346180796692D+02
 No NMR shielding tensors so no spin-rotation constants.
 Leave Link  601 at Fri Sep 18 13:29:46 2015, MaxMem=  402653184 cpu:       0.3
 (Enter /share/apps/g09/l9999.exe)
 1\1\GINC-COMPUTE-0-4\FOpt\RB3LYP\6-31G(d)\C6H14\HETANJIN\18-Sep-2015\0
 \\#p B3LYP/6-31G(d) opt=tight int=ultrafine\\using B3LYP/6-31G(d) to d
 o opt and freq calc.\\0,1\C,-2.5206575588,0.771997877,0.3871434023\H,-
 2.3284838082,1.6872220769,-0.1871858929\H,-2.0779235376,0.9057290789,1
 .3804903213\H,-3.6052168539,0.6853357646,0.5201974927\C,-1.95365049,-0
 .4582562704,-0.3317126873\H,-2.1619362548,-1.3580588941,0.2651090027\H
 ,-2.4899806285,-0.5930626313,-1.2808289497\C,-0.4455917805,-0.38566309
 69,-0.6256724207\H,-0.2445665709,0.5105249018,-1.2293860498\H,-0.16725
 6702,-1.2447771921,-1.2536001443\C,0.4455915507,-0.3856619915,0.625673
 5375\H,0.1672558218,-1.2447744273,1.2536032433\H,0.2445670214,0.510527
 5524,1.229385099\C,1.9536502049,-0.4582569854,0.3317139707\H,2.1619352
 89,-1.3580611496,-0.2651056344\H,2.4899802427,-0.5930615518,1.28083054
 49\C,2.5206582015,0.7719950673,-0.3871449724\H,2.328485125,1.687220746
 5,0.187182191\H,3.6052174339,0.6853318366,-0.5201988451\H,2.0779242944
 ,0.9057242884,-1.3804922089\\Version=EM64L-G09RevA.01\State=1-A\HF=-23
 7.0827594\RMSD=4.447e-09\RMSF=1.794e-07\Dipole=0.,-0.0210359,0.\Quadru
 pole=-0.1642087,0.0153482,0.1488605,0.0000003,0.1695085,0.\PG=C01 [X(C
 6H14)]\\@


 WOMEN HOLD UP HALF THE SKY. -- MAO TSE TUNG
 Job cpu time:  0 days  0 hours 16 minutes 27.4 seconds.
 File lengths (MBytes):  RWF=     15 Int=      0 D2E=      0 Chk=      2 Scr=      1
 Normal termination of Gaussian 09 at Fri Sep 18 13:29:46 2015.
