using PM6 to do opt and freq calc.                                      
FOpt      RPM6                                                        ZDO                 
Number of atoms                            I               20
Info1-9                                    I   N=           9
          33          29           0           0           0         110
           2           8         302
Charge                                     I                0
Multiplicity                               I                1
Number of electrons                        I               38
Number of alpha electrons                  I               19
Number of beta electrons                   I               19
Number of basis functions                  I               38
Number of independent functions            I               38
Number of point charges in /Mol/           I                0
Number of translation vectors              I                0
Atomic numbers                             I   N=          20
           6           1           1           1           6           6
           1           1           6           1           1           1
           6           1           1           1           6           1
           1           1
Nuclear charges                            R   N=          20
  4.00000000E+00  1.00000000E+00  1.00000000E+00  1.00000000E+00  4.00000000E+00
  4.00000000E+00  1.00000000E+00  1.00000000E+00  4.00000000E+00  1.00000000E+00
  1.00000000E+00  1.00000000E+00  4.00000000E+00  1.00000000E+00  1.00000000E+00
  1.00000000E+00  4.00000000E+00  1.00000000E+00  1.00000000E+00  1.00000000E+00
Current cartesian coordinates              R   N=          60
  9.36966234E-01 -1.67426637E+00  2.37907426E+00 -6.14292716E-01 -3.04221022E+00
  2.41994247E+00  8.12316244E-01 -5.42631675E-01  4.10500766E+00  2.70522329E+00
 -2.74318727E+00  2.45985379E+00  8.15824879E-01 -2.97096004E-03 -3.92217313E-06
 -1.63093038E+00  1.61795034E+00  1.39474996E-03 -1.60830855E+00  2.88302626E+00
 -1.66508369E+00 -1.60811617E+00  2.88040327E+00  1.66986651E+00 -4.07691054E+00
  9.04725528E-02  1.24051495E-04 -4.21466562E+00 -1.13396776E+00  1.66479540E+00
 -5.72872916E+00  1.33899196E+00  9.44897242E-03 -4.22214560E+00 -1.11893683E+00
 -1.67481820E+00  3.10336452E+00  1.80978555E+00 -2.52092534E-03  3.10548301E+00
  3.02894603E+00 -1.67211615E+00  3.10754707E+00  3.03102371E+00  1.66554987E+00
  4.88783927E+00  7.64244950E-01 -2.97688784E-03  9.33159714E-01 -1.67609110E+00
 -2.37790988E+00  2.70286008E+00 -2.74234625E+00 -2.46251169E+00 -6.15976680E-01
 -3.04653359E+00 -2.41346169E+00  8.02118984E-01 -5.46102665E-01 -4.10444636E+00
Force Field                                I                0
Int Atom Types                             I   N=          20
           0           0           0           0           0           0
           0           0           0           0           0           0
           0           0           0           0           0           0
           0           0
MM charges                                 R   N=          20
  0.00000000E+00  0.00000000E+00  0.00000000E+00  0.00000000E+00  0.00000000E+00
  0.00000000E+00  0.00000000E+00  0.00000000E+00  0.00000000E+00  0.00000000E+00
  0.00000000E+00  0.00000000E+00  0.00000000E+00  0.00000000E+00  0.00000000E+00
  0.00000000E+00  0.00000000E+00  0.00000000E+00  0.00000000E+00  0.00000000E+00
Integer atomic weights                     I   N=          20
          12           1           1           1          12          12
           1           1          12           1           1           1
          12           1           1           1          12           1
           1           1
Real atomic weights                        R   N=          20
  1.20000000E+01  1.00782504E+00  1.00782504E+00  1.00782504E+00  1.20000000E+01
  1.20000000E+01  1.00782504E+00  1.00782504E+00  1.20000000E+01  1.00782504E+00
  1.00782504E+00  1.00782504E+00  1.20000000E+01  1.00782504E+00  1.00782504E+00
  1.00782504E+00  1.20000000E+01  1.00782504E+00  1.00782504E+00  1.00782504E+00
Atom fragment info                         I   N=          20
           0           0           0           0           0           0
           0           0           0           0           0           0
           0           0           0           0           0           0
           0           0
Atom residue num                           I   N=          20
           0           0           0           0           0           0
           0           0           0           0           0           0
           0           0           0           0           0           0
           0           0
Nuclear spins                              I   N=          20
           0           1           1           1           0           0
           1           1           0           1           1           1
           0           1           1           1           0           1
           1           1
Nuclear ZEff                               R   N=          20
 -3.90000000E+00 -1.00000000E+00 -1.00000000E+00 -1.00000000E+00 -3.90000000E+00
 -3.90000000E+00 -1.00000000E+00 -1.00000000E+00 -3.90000000E+00 -1.00000000E+00
 -1.00000000E+00 -1.00000000E+00 -3.90000000E+00 -1.00000000E+00 -1.00000000E+00
 -1.00000000E+00 -3.90000000E+00 -1.00000000E+00 -1.00000000E+00 -1.00000000E+00
Nuclear QMom                               R   N=          20
  0.00000000E+00  0.00000000E+00  0.00000000E+00  0.00000000E+00  0.00000000E+00
  0.00000000E+00  0.00000000E+00  0.00000000E+00  0.00000000E+00  0.00000000E+00
  0.00000000E+00  0.00000000E+00  0.00000000E+00  0.00000000E+00  0.00000000E+00
  0.00000000E+00  0.00000000E+00  0.00000000E+00  0.00000000E+00  0.00000000E+00
Nuclear GFac                               R   N=          20
  0.00000000E+00  2.79284600E+00  2.79284600E+00  2.79284600E+00  0.00000000E+00
  0.00000000E+00  2.79284600E+00  2.79284600E+00  0.00000000E+00  2.79284600E+00
  2.79284600E+00  2.79284600E+00  0.00000000E+00  2.79284600E+00  2.79284600E+00
  2.79284600E+00  0.00000000E+00  2.79284600E+00  2.79284600E+00  2.79284600E+00
MicOpt                                     I   N=          20
          -1          -1          -1          -1          -1          -1
          -1          -1          -1          -1          -1          -1
          -1          -1          -1          -1          -1          -1
          -1          -1
Number of contracted shells                I               20
Number of primitive shells                 I              120
Pure/Cartesian d shells                    I                0
Pure/Cartesian f shells                    I                0
Highest angular momentum                   I                1
Largest degree of contraction              I                6
Shell types                                I   N=          20
          -1           0           0           0          -1          -1
           0           0          -1           0           0           0
          -1           0           0           0          -1           0
           0           0
Number of primitives per shell             I   N=          20
           6           6           6           6           6           6
           6           6           6           6           6           6
           6           6           6           6           6           6
           6           6
Shell to atom map                          I   N=          20
           1           2           3           4           5           6
           7           8           9          10          11          12
          13          14          15          16          17          18
          19          20
Primitive exponents                        R   N=         120
  1.14476344E+01  3.29633588E+00  1.29653143E+00  5.92558930E-01  2.94896438E-01
  1.51447622E-01  4.39461478E+00  1.26542531E+00  4.97723458E-01  2.27476537E-01
  1.13207340E-01  5.81389949E-02  4.39461478E+00  1.26542531E+00  4.97723458E-01
  2.27476537E-01  1.13207340E-01  5.81389949E-02  4.39461478E+00  1.26542531E+00
  4.97723458E-01  2.27476537E-01  1.13207340E-01  5.81389949E-02  1.14476344E+01
  3.29633588E+00  1.29653143E+00  5.92558930E-01  2.94896438E-01  1.51447622E-01
  1.14476344E+01  3.29633588E+00  1.29653143E+00  5.92558930E-01  2.94896438E-01
  1.51447622E-01  4.39461478E+00  1.26542531E+00  4.97723458E-01  2.27476537E-01
  1.13207340E-01  5.81389949E-02  4.39461478E+00  1.26542531E+00  4.97723458E-01
  2.27476537E-01  1.13207340E-01  5.81389949E-02  1.14476344E+01  3.29633588E+00
  1.29653143E+00  5.92558930E-01  2.94896438E-01  1.51447622E-01  4.39461478E+00
  1.26542531E+00  4.97723458E-01  2.27476537E-01  1.13207340E-01  5.81389949E-02
  4.39461478E+00  1.26542531E+00  4.97723458E-01  2.27476537E-01  1.13207340E-01
  5.81389949E-02  4.39461478E+00  1.26542531E+00  4.97723458E-01  2.27476537E-01
  1.13207340E-01  5.81389949E-02  1.14476344E+01  3.29633588E+00  1.29653143E+00
  5.92558930E-01  2.94896438E-01  1.51447622E-01  4.39461478E+00  1.26542531E+00
  4.97723458E-01  2.27476537E-01  1.13207340E-01  5.81389949E-02  4.39461478E+00
  1.26542531E+00  4.97723458E-01  2.27476537E-01  1.13207340E-01  5.81389949E-02
  4.39461478E+00  1.26542531E+00  4.97723458E-01  2.27476537E-01  1.13207340E-01
  5.81389949E-02  1.14476344E+01  3.29633588E+00  1.29653143E+00  5.92558930E-01
  2.94896438E-01  1.51447622E-01  4.39461478E+00  1.26542531E+00  4.97723458E-01
  2.27476537E-01  1.13207340E-01  5.81389949E-02  4.39461478E+00  1.26542531E+00
  4.97723458E-01  2.27476537E-01  1.13207340E-01  5.81389949E-02  4.39461478E+00
  1.26542531E+00  4.97723458E-01  2.27476537E-01  1.13207340E-01  5.81389949E-02
Contraction coefficients                   R   N=         120
 -9.73739553E-03 -7.26587678E-02 -1.71615520E-01  1.28977624E-01  7.28861451E-01
  3.01331742E-01 -9.73739553E-03 -7.26587678E-02 -1.71615520E-01  1.28977624E-01
  7.28861451E-01  3.01331742E-01 -9.73739553E-03 -7.26587678E-02 -1.71615520E-01
  1.28977624E-01  7.28861451E-01  3.01331742E-01 -9.73739553E-03 -7.26587678E-02
 -1.71615520E-01  1.28977624E-01  7.28861451E-01  3.01331742E-01 -9.73739553E-03
 -7.26587678E-02 -1.71615520E-01  1.28977624E-01  7.28861451E-01  3.01331742E-01
 -9.73739553E-03 -7.26587678E-02 -1.71615520E-01  1.28977624E-01  7.28861451E-01
  3.01331742E-01 -9.73739553E-03 -7.26587678E-02 -1.71615520E-01  1.28977624E-01
  7.28861451E-01  3.01331742E-01 -9.73739553E-03 -7.26587678E-02 -1.71615520E-01
  1.28977624E-01  7.28861451E-01  3.01331742E-01 -9.73739553E-03 -7.26587678E-02
 -1.71615520E-01  1.28977624E-01  7.28861451E-01  3.01331742E-01 -9.73739553E-03
 -7.26587678E-02 -1.71615520E-01  1.28977624E-01  7.28861451E-01  3.01331742E-01
 -9.73739553E-03 -7.26587678E-02 -1.71615520E-01  1.28977624E-01  7.28861451E-01
  3.01331742E-01 -9.73739553E-03 -7.26587678E-02 -1.71615520E-01  1.28977624E-01
  7.28861451E-01  3.01331742E-01 -9.73739553E-03 -7.26587678E-02 -1.71615520E-01
  1.28977624E-01  7.28861451E-01  3.01331742E-01 -9.73739553E-03 -7.26587678E-02
 -1.71615520E-01  1.28977624E-01  7.28861451E-01  3.01331742E-01 -9.73739553E-03
 -7.26587678E-02 -1.71615520E-01  1.28977624E-01  7.28861451E-01  3.01331742E-01
 -9.73739553E-03 -7.26587678E-02 -1.71615520E-01  1.28977624E-01  7.28861451E-01
  3.01331742E-01 -9.73739553E-03 -7.26587678E-02 -1.71615520E-01  1.28977624E-01
  7.28861451E-01  3.01331742E-01 -9.73739553E-03 -7.26587678E-02 -1.71615520E-01
  1.28977624E-01  7.28861451E-01  3.01331742E-01 -9.73739553E-03 -7.26587678E-02
 -1.71615520E-01  1.28977624E-01  7.28861451E-01  3.01331742E-01 -9.73739553E-03
 -7.26587678E-02 -1.71615520E-01  1.28977624E-01  7.28861451E-01  3.01331742E-01
P(S=P) Contraction coefficients            R   N=         120
 -8.10494336E-03 -1.71547892E-02  7.36978576E-02  3.96514999E-01  4.97808488E-01
  1.17482582E-01  0.00000000E+00  0.00000000E+00  0.00000000E+00  0.00000000E+00
  0.00000000E+00  0.00000000E+00  0.00000000E+00  0.00000000E+00  0.00000000E+00
  0.00000000E+00  0.00000000E+00  0.00000000E+00  0.00000000E+00  0.00000000E+00
  0.00000000E+00  0.00000000E+00  0.00000000E+00  0.00000000E+00 -8.10494336E-03
 -1.71547892E-02  7.36978576E-02  3.96514999E-01  4.97808488E-01  1.17482582E-01
 -8.10494336E-03 -1.71547892E-02  7.36978576E-02  3.96514999E-01  4.97808488E-01
  1.17482582E-01  0.00000000E+00  0.00000000E+00  0.00000000E+00  0.00000000E+00
  0.00000000E+00  0.00000000E+00  0.00000000E+00  0.00000000E+00  0.00000000E+00
  0.00000000E+00  0.00000000E+00  0.00000000E+00 -8.10494336E-03 -1.71547892E-02
  7.36978576E-02  3.96514999E-01  4.97808488E-01  1.17482582E-01  0.00000000E+00
  0.00000000E+00  0.00000000E+00  0.00000000E+00  0.00000000E+00  0.00000000E+00
  0.00000000E+00  0.00000000E+00  0.00000000E+00  0.00000000E+00  0.00000000E+00
  0.00000000E+00  0.00000000E+00  0.00000000E+00  0.00000000E+00  0.00000000E+00
  0.00000000E+00  0.00000000E+00 -8.10494336E-03 -1.71547892E-02  7.36978576E-02
  3.96514999E-01  4.97808488E-01  1.17482582E-01  0.00000000E+00  0.00000000E+00
  0.00000000E+00  0.00000000E+00  0.00000000E+00  0.00000000E+00  0.00000000E+00
  0.00000000E+00  0.00000000E+00  0.00000000E+00  0.00000000E+00  0.00000000E+00
  0.00000000E+00  0.00000000E+00  0.00000000E+00  0.00000000E+00  0.00000000E+00
  0.00000000E+00 -8.10494336E-03 -1.71547892E-02  7.36978576E-02  3.96514999E-01
  4.97808488E-01  1.17482582E-01  0.00000000E+00  0.00000000E+00  0.00000000E+00
  0.00000000E+00  0.00000000E+00  0.00000000E+00  0.00000000E+00  0.00000000E+00
  0.00000000E+00  0.00000000E+00  0.00000000E+00  0.00000000E+00  0.00000000E+00
  0.00000000E+00  0.00000000E+00  0.00000000E+00  0.00000000E+00  0.00000000E+00
Coordinates of each shell                  R   N=          60
  9.36966234E-01 -1.67426637E+00  2.37907426E+00 -6.14292716E-01 -3.04221022E+00
  2.41994247E+00  8.12316244E-01 -5.42631675E-01  4.10500766E+00  2.70522329E+00
 -2.74318727E+00  2.45985379E+00  8.15824879E-01 -2.97096004E-03 -3.92217313E-06
 -1.63093038E+00  1.61795034E+00  1.39474996E-03 -1.60830855E+00  2.88302626E+00
 -1.66508369E+00 -1.60811617E+00  2.88040327E+00  1.66986651E+00 -4.07691054E+00
  9.04725528E-02  1.24051495E-04 -4.21466562E+00 -1.13396776E+00  1.66479540E+00
 -5.72872916E+00  1.33899196E+00  9.44897242E-03 -4.22214560E+00 -1.11893683E+00
 -1.67481820E+00  3.10336452E+00  1.80978555E+00 -2.52092534E-03  3.10548301E+00
  3.02894603E+00 -1.67211615E+00  3.10754707E+00  3.03102371E+00  1.66554987E+00
  4.88783927E+00  7.64244950E-01 -2.97688784E-03  9.33159714E-01 -1.67609110E+00
 -2.37790988E+00  2.70286008E+00 -2.74234625E+00 -2.46251169E+00 -6.15976680E-01
 -3.04653359E+00 -2.41346169E+00  8.02118984E-01 -5.46102665E-01 -4.10444636E+00
Constraint Structure                       R   N=          60
  1.04734084E+00 -1.64426096E+00  2.39746827E+00 -4.11398292E-01 -3.15999570E+00
  2.42248725E+00  8.16848408E-01 -4.72027153E-01  4.13171369E+00  2.93337774E+00
 -2.57888834E+00  2.48101280E+00  8.15054321E-01  5.86716142E-03 -1.42929333E-04
 -1.69707653E+00  1.53922536E+00 -7.62022549E-03 -1.74160003E+00  2.78386524E+00
 -1.70868078E+00 -1.74023891E+00  2.80064379E+00  1.68147542E+00 -4.16325583E+00
  2.09824564E-02  6.07723881E-05 -4.30230908E+00 -1.18928386E+00  1.71299722E+00
 -5.79307546E+00  1.35260765E+00  1.10310135E-02 -4.31681850E+00 -1.17874940E+00
 -1.71935144E+00  3.03562478E+00  1.90591509E+00 -2.29314442E-02  2.96307918E+00
  3.12119861E+00 -1.74206171E+00  2.96611392E+00  3.15858831E+00  1.66915574E+00
  4.88865975E+00  9.03661490E-01 -1.36956167E-02  1.03599035E+00 -1.68846094E+00
 -2.36757612E+00  2.91869401E+00 -2.63087011E+00 -2.43814176E+00 -4.28332028E-01
 -3.19913246E+00 -2.36113825E+00  8.04931664E-01 -5.47227088E-01 -4.12235350E+00
Num ILSW                                   I              100
ILSW                                       I   N=         100
           0           0           0           0           2           0
           0           0           0           0           0          -1
           0           0           0           0           0           0
           0           0           0           0           1           0
           1           0           0           0           0           0
           0           0      100000           0          -1           0
           0           0           0           0           0           0
           0           0           0          40           0           0
           0           0           1           0           0           0
           0           0           4          40           0           0
           0           0           0           0           0           0
           0           0           0           0           0           0
           0           0           0           0           0           0
           0           0           0           0           0           0
           0           0           0           0           0           0
           0           0           0           0           0           0
           0           0           0           0
Num RLSW                                   I               40
RLSW                                       R   N=          40
  1.00000000E+00  1.00000000E+00  1.00000000E+00  1.00000000E+00  1.00000000E+00
  0.00000000E+00  0.00000000E+00  1.00000000E+00  0.00000000E+00  0.00000000E+00
  0.00000000E+00  0.00000000E+00  1.00000000E+00  0.00000000E+00  0.00000000E+00
  0.00000000E+00  0.00000000E+00  1.00000000E+00  0.00000000E+00  0.00000000E+00
  0.00000000E+00  0.00000000E+00  1.00000000E+00  0.00000000E+00  0.00000000E+00
  0.00000000E+00  0.00000000E+00  1.00000000E+00  0.00000000E+00  0.00000000E+00
  0.00000000E+00  0.00000000E+00  0.00000000E+00  0.00000000E+00  0.00000000E+00
  0.00000000E+00  0.00000000E+00  0.00000000E+00  1.00000000E+00  1.00000000E+00
MxBond                                     I                4
NBond                                      I   N=          20
           4           1           1           1           4           4
           1           1           4           1           1           1
           4           1           1           1           4           1
           1           1
IBond                                      I   N=          80
           2           3           4           5           1           0
           0           0           1           0           0           0
           1           0           0           0           1           6
          13          17           5           7           8           9
           6           0           0           0           6           0
           0           0           6          10          11          12
           9           0           0           0           9           0
           0           0           9           0           0           0
           5          14          15          16          13           0
           0           0          13           0           0           0
          13           0           0           0           5          18
          19          20          17           0           0           0
          17           0           0           0          17           0
           0           0
RBond                                      R   N=          80
  1.00000000E+00  1.00000000E+00  1.00000000E+00  1.00000000E+00  1.00000000E+00
  0.00000000E+00  0.00000000E+00  0.00000000E+00  1.00000000E+00  0.00000000E+00
  0.00000000E+00  0.00000000E+00  1.00000000E+00  0.00000000E+00  0.00000000E+00
  0.00000000E+00  1.00000000E+00  1.00000000E+00  1.00000000E+00  1.00000000E+00
  1.00000000E+00  1.00000000E+00  1.00000000E+00  1.00000000E+00  1.00000000E+00
  0.00000000E+00  0.00000000E+00  0.00000000E+00  1.00000000E+00  0.00000000E+00
  0.00000000E+00  0.00000000E+00  1.00000000E+00  1.00000000E+00  1.00000000E+00
  1.00000000E+00  1.00000000E+00  0.00000000E+00  0.00000000E+00  0.00000000E+00
  1.00000000E+00  0.00000000E+00  0.00000000E+00  0.00000000E+00  1.00000000E+00
  0.00000000E+00  0.00000000E+00  0.00000000E+00  1.00000000E+00  1.00000000E+00
  1.00000000E+00  1.00000000E+00  1.00000000E+00  0.00000000E+00  0.00000000E+00
  0.00000000E+00  1.00000000E+00  0.00000000E+00  0.00000000E+00  0.00000000E+00
  1.00000000E+00  0.00000000E+00  0.00000000E+00  0.00000000E+00  1.00000000E+00
  1.00000000E+00  1.00000000E+00  1.00000000E+00  1.00000000E+00  0.00000000E+00
  0.00000000E+00  0.00000000E+00  1.00000000E+00  0.00000000E+00  0.00000000E+00
  0.00000000E+00  1.00000000E+00  0.00000000E+00  0.00000000E+00  0.00000000E+00
Virial Ratio                               R      9.989298140067470E-01
SCF Energy                                 R     -6.043134615993040E-02
Total Energy                               R     -6.043134615993040E-02
RMS Force                                  R      1.582932048354907E-05
RMS Density                                R      4.097458220963605E-09
External E-field                           R   N=          35
  0.00000000E+00  0.00000000E+00  0.00000000E+00  0.00000000E+00  0.00000000E+00
  0.00000000E+00  0.00000000E+00  0.00000000E+00  0.00000000E+00  0.00000000E+00
  0.00000000E+00  0.00000000E+00  0.00000000E+00  0.00000000E+00  0.00000000E+00
  0.00000000E+00  0.00000000E+00  0.00000000E+00  0.00000000E+00  0.00000000E+00
  0.00000000E+00  0.00000000E+00  0.00000000E+00  0.00000000E+00  0.00000000E+00
  0.00000000E+00  0.00000000E+00  0.00000000E+00  0.00000000E+00  0.00000000E+00
  0.00000000E+00  0.00000000E+00  0.00000000E+00  0.00000000E+00  0.00000000E+00
IOpCl                                      I                0
IROHF                                      I                0
Alpha Orbital Energies                     R   N=          38
 -1.07271571E+00 -9.53086706E-01 -8.83918521E-01 -8.82556649E-01 -7.92398878E-01
 -6.66267431E-01 -5.70570410E-01 -5.65793876E-01 -5.41504633E-01 -5.25353638E-01
 -4.95934693E-01 -4.77493865E-01 -4.73023254E-01 -4.60541933E-01 -4.59015859E-01
 -4.35634711E-01 -4.13463937E-01 -4.09244752E-01 -4.01637298E-01  1.54730740E-01
  1.61717148E-01  1.63533649E-01  1.81544513E-01  1.84135851E-01  2.14042402E-01
  2.21989406E-01  2.24004584E-01  2.24283205E-01  2.26806696E-01  2.27388733E-01
  2.28272143E-01  2.28809728E-01  2.33642327E-01  2.47619862E-01  2.55488580E-01
  2.60187426E-01  2.65627113E-01  2.66625710E-01
Alpha MO coefficients                      R   N=        1444
  3.10664768E-01 -1.01640095E-02  6.37626149E-02 -9.00521972E-02  1.33885547E-01
  1.29745355E-01  1.26689092E-01  4.96607396E-01 -1.38446930E-02  5.40358805E-03
  3.66674061E-06  3.66087299E-01  6.10341934E-02 -7.36799606E-02 -6.73481079E-05
  1.51646158E-01  1.51639098E-01  2.34318715E-01  7.81071566E-02  2.05734020E-02
  2.35883206E-05  1.07180253E-01  8.63855934E-02  1.07027094E-01  3.04596875E-01
 -8.85483365E-02 -6.63741700E-02  9.36788498E-05  1.27101445E-01  1.27098992E-01
  1.25012493E-01  3.10665042E-01 -1.00146303E-02  6.38440331E-02  9.00210645E-02
  1.26689229E-01  1.33858587E-01  1.29758012E-01 -1.63084393E-01 -5.61939403E-02
 -1.40872537E-02  3.38067509E-02 -3.89255645E-02 -6.18770109E-02 -9.81669246E-02
 -1.63676665E-01 -1.82464304E-01  4.42451701E-02  7.68835740E-05  3.71816211E-01
 -1.84985257E-01 -3.30728194E-02 -2.21845515E-05  1.55514996E-01  1.55515681E-01
  5.52039855E-01  4.22757308E-02  4.95243847E-02  3.70567129E-05  2.35026981E-01
  2.52683495E-01  2.35137400E-01 -2.95142765E-01  1.35548232E-03  4.76270327E-02
 -3.47935868E-05 -1.20093731E-01 -1.20100138E-01 -1.49447887E-01 -1.62983022E-01
 -5.62612443E-02 -1.40714312E-02 -3.37247187E-02 -9.81535615E-02 -3.89692272E-02
 -6.17284853E-02 -3.39717938E-01  2.68973889E-02  7.31845991E-02  8.87914193E-03
 -1.94878874E-01 -1.27450255E-01 -1.62251956E-01 -2.46059472E-03  8.46516040E-02
  2.78357008E-01 -8.11898226E-04  1.64871630E-01  3.75618512E-02  8.24087752E-02
 -2.48581847E-04  1.03945096E-01  1.03624131E-01 -9.80534218E-04  1.28257395E-02
  5.08618899E-02 -1.00212582E-04 -2.47705256E-02  1.14722195E-02 -2.43414328E-02
  5.15816856E-01  1.08899116E-02  7.12890332E-02 -2.22092901E-04  2.58752613E-01
  2.58591939E-01  2.18093106E-01 -3.37454791E-01  2.68723281E-02  7.32100539E-02
 -9.28781083E-03 -1.61146564E-01 -1.93891386E-01 -1.26303909E-01 -5.11178800E-01
  9.84179667E-04 -9.33223090E-03 -7.02318591E-02 -2.29555507E-01 -2.69074711E-01
 -2.30264905E-01  1.69144711E-05 -3.56801879E-04 -7.56000028E-04 -2.91141283E-01
 -4.91473719E-04 -1.49586869E-04 -2.19309777E-04 -8.47615885E-02  4.01969476E-02
 -4.08534247E-02  4.60504364E-05 -2.42370293E-05 -9.84276389E-05 -3.94934623E-02
 -2.76646148E-02 -9.03330055E-05  2.78530423E-02 -1.06952233E-03 -7.57271706E-05
 -2.04502287E-04 -8.38392695E-02  3.89036913E-02 -3.99791344E-02 -4.51418813E-04
  5.12732189E-01 -1.16893122E-03  8.95035104E-03 -7.01883737E-02  2.31077922E-01
  2.30364272E-01  2.69653879E-01 -5.88829585E-02 -4.91913980E-02  6.64980887E-02
 -4.16757572E-02 -4.23637349E-02 -2.35049541E-02 -7.43551281E-02  1.93305729E-01
 -2.04844593E-01  1.04394142E-01  1.23216368E-04  4.21505194E-01  1.97304604E-01
  9.20149931E-02  8.29298713E-05  2.20043857E-01  2.20071012E-01 -4.01253038E-01
  2.01828242E-01  1.20439233E-01  8.90308898E-05 -2.32403608E-01 -2.33865451E-01
 -2.32387114E-01 -2.69841666E-01 -1.56081205E-01 -2.15734847E-02  1.29462931E-04
 -1.29009988E-01 -1.28989688E-01 -1.95492610E-01 -5.86611158E-02 -4.91100506E-02
  6.64469689E-02  4.16624283E-02 -7.42275868E-02 -4.22541742E-02 -2.33784262E-02
 -1.44192053E-01 -2.52546152E-02  1.71222977E-01 -2.76850904E-01 -1.26466585E-01
 -1.57302747E-01 -1.47040063E-01  4.62961040E-01  1.91626394E-02 -3.82774077E-02
 -3.38612725E-05 -1.99686245E-01  1.67792310E-01 -2.66244147E-01 -2.10924290E-04
 -1.97562883E-01 -1.97558848E-01  9.97495628E-02 -7.37085891E-02 -1.70874412E-01
 -1.16992562E-04  1.05894982E-01  2.01555612E-02  1.05439513E-01 -8.22054905E-02
 -1.98451173E-01 -1.95870205E-01  2.17600821E-04 -1.17224797E-01 -1.17254053E-01
 -8.90876740E-02 -1.44255687E-01 -2.48118847E-02  1.71545116E-01  2.76776549E-01
 -1.47122448E-01 -1.26563487E-01 -1.57273476E-01 -1.99882504E-03  3.29297277E-01
  2.15587098E-02 -1.00844949E-01 -1.88140307E-01 -6.32711790E-02  1.81482606E-01
  5.14798776E-02  3.37665379E-01 -7.75822315E-02 -2.74743845E-04  2.80567565E-02
 -1.73436656E-01  2.71999513E-01 -2.05038428E-04  1.18032419E-01  1.17600166E-01
  2.82057873E-02 -1.72678532E-01  2.89517076E-01 -2.66615719E-04 -1.05253366E-01
  2.25464560E-01 -1.02973722E-01 -5.94747671E-02 -4.02172234E-02 -3.37579825E-01
  1.32217367E-04 -1.60212349E-01 -1.60329676E-01  6.93524681E-02 -2.14089493E-03
  3.29110010E-01  2.16714157E-02  1.00398820E-01  1.81328410E-01 -1.87697468E-01
 -6.37429731E-02 -7.62125618E-02 -7.59214956E-02  2.60049544E-01 -8.88926862E-02
 -1.05080183E-01  2.12073050E-02 -1.69525907E-01  3.19136010E-05  2.80241999E-04
 -4.99765080E-04  2.76816482E-01  1.07621348E-04 -2.60789164E-04 -8.77403110E-05
  4.66229917E-01 -2.58522714E-01  2.58809907E-01 -2.28888927E-06 -9.65564457E-05
  9.95062255E-05  3.54805510E-01  1.89094975E-01  1.19650070E-03 -1.90401972E-01
  9.70032227E-05  7.92307709E-04 -1.37892029E-04  2.70016669E-01 -1.52710012E-01
  1.52540689E-01  5.11883465E-04  7.60184703E-02  7.57896164E-02 -2.60630509E-01
 -8.75633067E-02  1.69462870E-01  1.05474176E-01 -2.22823809E-02 -3.08139133E-02
 -6.56490686E-02 -2.01850040E-01 -3.37185936E-01  1.07057120E-01 -2.81525735E-01
  1.54346138E-02 -2.56358080E-02 -8.82939430E-02 -3.31719607E-01 -8.25863180E-04
  1.01500443E-01 -2.19828837E-01 -9.31386193E-02 -1.58266066E-04  2.40327206E-03
  2.21774906E-03 -2.89112179E-02  2.70168913E-01  9.89057908E-02  7.68757392E-04
 -6.23840234E-02 -1.22889068E-01 -6.36519752E-02  4.03298570E-02  3.77085287E-01
 -2.09229562E-02 -1.77961198E-03  6.75050552E-03  5.00225576E-03  2.50998419E-01
 -3.10544794E-02 -6.46059803E-02 -1.99480518E-01  3.37938071E-01  1.44520965E-02
  1.06026333E-01 -2.81020475E-01 -4.05339272E-03  1.91317491E-01  2.35410122E-01
 -3.55151978E-02 -2.16915364E-01  6.04210433E-02  2.62087971E-02 -6.14229734E-05
 -2.99581992E-04 -8.17978345E-04  2.05058454E-01  2.28977928E-04 -5.19526254E-04
 -3.67678240E-04 -1.94120660E-01  1.01712842E-01 -1.01968420E-01 -5.89052046E-07
  9.03598922E-04  4.30093514E-04 -4.22690633E-01 -2.49006217E-01 -1.67772126E-03
  2.49991347E-01  7.66456506E-05  1.42676201E-03  3.13470522E-04  4.32942479E-01
 -2.43362241E-01  2.43448665E-01  7.16256639E-04  3.98383688E-03 -1.92049533E-01
 -2.36420577E-01 -3.33152141E-02 -2.66106022E-02  2.17578211E-01 -6.14723638E-02
 -1.01193044E-02  8.47724188E-02  2.23991500E-01  1.96288362E-01 -1.51589589E-01
  1.93260692E-01 -2.36128655E-02 -3.70324697E-02 -2.72559877E-03  2.45282160E-02
 -1.85422043E-06  7.62355564E-02 -1.60158260E-01 -2.58012726E-01  2.14755309E-04
 -7.78914999E-02 -7.73682428E-02  3.34566233E-02  4.01444602E-01 -9.21656288E-02
 -9.18294706E-05  3.07897593E-02 -2.60015036E-01  2.95208922E-02 -8.37808383E-03
  2.86962636E-01 -3.43196469E-01  5.94133484E-06 -1.48329641E-01 -1.48359091E-01
  2.99360792E-01 -1.00881169E-02  8.48734295E-02  2.23853790E-01 -1.96598454E-01
 -2.29355436E-02 -1.52107387E-01  1.93126374E-01  3.34787931E-02 -2.84113412E-01
  2.10688846E-01  2.82864205E-02  5.62638742E-02  1.31567119E-01 -2.45002519E-01
  6.06224845E-02 -6.16331700E-02 -1.39827188E-01 -3.89272742E-04 -6.52942610E-02
 -1.01365961E-01 -3.34418142E-02  4.48773712E-04 -4.83526691E-02 -4.77376901E-02
 -1.66575362E-02 -2.21100965E-01  4.84337343E-01  1.13893198E-03 -2.02361533E-01
  3.44484363E-01 -2.00473007E-01  7.46097097E-03  1.74138387E-01 -5.68705160E-02
 -1.28586891E-04 -1.93965100E-02 -1.94673011E-02  1.22955683E-01  3.34829680E-02
 -2.87963865E-01  2.12068994E-01 -2.81859814E-02 -2.47803896E-01  5.73260591E-02