 Entering Gaussian System, Link 0=/share/apps/g09/g09
 Input=C6H14_5_00_1_opt_PM6.gjf
 Output=C6H14_5_00_1_opt_PM6.log
 Initial command:
 /share/apps/g09/l1.exe /state/partition1/Gau-11024.inp -scrdir=/state/partition1/
 Entering Link 1 = /share/apps/g09/l1.exe PID=     11036.
  
 Copyright (c) 1988,1990,1992,1993,1995,1998,2003,2009, Gaussian, Inc.
                  All Rights Reserved.
  
 This is part of the Gaussian(R) 09 program.  It is based on
 the Gaussian(R) 03 system (copyright 2003, Gaussian, Inc.),
 the Gaussian(R) 98 system (copyright 1998, Gaussian, Inc.),
 the Gaussian(R) 94 system (copyright 1995, Gaussian, Inc.),
 the Gaussian 92(TM) system (copyright 1992, Gaussian, Inc.),
 the Gaussian 90(TM) system (copyright 1990, Gaussian, Inc.),
 the Gaussian 88(TM) system (copyright 1988, Gaussian, Inc.),
 the Gaussian 86(TM) system (copyright 1986, Carnegie Mellon
 University), and the Gaussian 82(TM) system (copyright 1983,
 Carnegie Mellon University). Gaussian is a federally registered
 trademark of Gaussian, Inc.
  
 This software contains proprietary and confidential information,
 including trade secrets, belonging to Gaussian, Inc.
  
 This software is provided under written license and may be
 used, copied, transmitted, or stored only in accord with that
 written license.
  
 The following legend is applicable only to US Government
 contracts under FAR:
  
                    RESTRICTED RIGHTS LEGEND
  
 Use, reproduction and disclosure by the US Government is
 subject to restrictions as set forth in subparagraphs (a)
 and (c) of the Commercial Computer Software - Restricted
 Rights clause in FAR 52.227-19.
  
 Gaussian, Inc.
 340 Quinnipiac St., Bldg. 40, Wallingford CT 06492
  
  
 ---------------------------------------------------------------
 Warning -- This program may not be used in any manner that
 competes with the business of Gaussian, Inc. or will provide
 assistance to any competitor of Gaussian, Inc.  The licensee
 of this program is prohibited from giving any competitor of
 Gaussian, Inc. access to this program.  By using this program,
 the user acknowledges that Gaussian, Inc. is engaged in the
 business of creating and licensing software in the field of
 computational chemistry and represents and warrants to the
 licensee that it is not a competitor of Gaussian, Inc. and that
 it will not use this program in any manner prohibited above.
 ---------------------------------------------------------------
  

 Cite this work as:
 Gaussian 09, Revision A.01,
 M. J. Frisch, G. W. Trucks, H. B. Schlegel, G. E. Scuseria, 
 M. A. Robb, J. R. Cheeseman, G. Scalmani, V. Barone, B. Mennucci, 
 G. A. Petersson, H. Nakatsuji, M. Caricato, X. Li, H. P. Hratchian, 
 A. F. Izmaylov, J. Bloino, G. Zheng, J. L. Sonnenberg, M. Hada, 
 M. Ehara, K. Toyota, R. Fukuda, J. Hasegawa, M. Ishida, T. Nakajima, 
 Y. Honda, O. Kitao, H. Nakai, T. Vreven, J. A. Montgomery, Jr., 
 J. E. Peralta, F. Ogliaro, M. Bearpark, J. J. Heyd, E. Brothers, 
 K. N. Kudin, V. N. Staroverov, R. Kobayashi, J. Normand, 
 K. Raghavachari, A. Rendell, J. C. Burant, S. S. Iyengar, J. Tomasi, 
 M. Cossi, N. Rega, J. M. Millam, M. Klene, J. E. Knox, J. B. Cross, 
 V. Bakken, C. Adamo, J. Jaramillo, R. Gomperts, R. E. Stratmann, 
 O. Yazyev, A. J. Austin, R. Cammi, C. Pomelli, J. W. Ochterski, 
 R. L. Martin, K. Morokuma, V. G. Zakrzewski, G. A. Voth, 
 P. Salvador, J. J. Dannenberg, S. Dapprich, A. D. Daniels, 
 O. Farkas, J. B. Foresman, J. V. Ortiz, J. Cioslowski, 
 and D. J. Fox, Gaussian, Inc., Wallingford CT, 2009.
 
 ******************************************
 Gaussian 09:  EM64L-G09RevA.01  8-May-2009
                14-Sep-2015 
 ******************************************
 %mem=3GB
 %nprocshared=2
 Will use up to    2 processors via shared memory.
 %chk=C6H14_5_00_1_opt_PM6.chk
 ----------
 #p PM6 opt
 ----------
 1/14=-1,18=20,19=15,26=1,38=1/1,3;
 2/9=110,12=2,17=6,18=5,40=1/2;
 3/5=2,16=1,25=1,41=3900000,71=1/1,2,3;
 4/35=1/1;
 5/5=2,35=1,38=5/2;
 6/7=2,8=2,9=2,10=2,28=1/1;
 7//1,2,3,16;
 1/14=-1,18=20,19=15/3(2);
 2/9=110/2;
 99//99;
 2/9=110/2;
 3/5=2,16=1,25=1,41=3900000,71=1,135=20/1,2,3;
 4/5=5,16=3,35=1/1;
 5/5=2,35=1,38=5/2;
 7//1,2,3,16;
 1/14=-1,18=20,19=15/3(-5);
 2/9=110/2;
 6/7=2,8=2,9=2,10=2,19=2,28=1/1;
 99/9=1/99;
 Leave Link    1 at Mon Sep 14 19:12:26 2015, MaxMem=  402653184 cpu:       3.3
 (Enter /share/apps/g09/l101.exe)
 ----------------------------------
 using PM6 to do opt and freq calc.
 ----------------------------------
 Symbolic Z-matrix:
 Charge =  0 Multiplicity = 1
 C                     0.4792   -0.9037    1.2989 
 H                    -0.3375   -1.6601    1.3152 
 H                     0.384    -0.2641    2.2065 
 H                     1.4468   -1.4538    1.3606 
 C                     0.4189   -0.0435    0.0168 
 C                    -0.8617    0.8424   -0.0126 
 H                    -0.8387    1.4881   -0.9221 
 H                    -0.855     1.5231    0.8715 
 C                    -2.2106    0.115    -0.0111 
 H                    -2.3296   -0.5069    0.9034 
 H                    -3.0313    0.8678   -0.0243 
 H                    -2.3192   -0.5274   -0.9128 
 C                     1.6497    0.8929    0.0031 
 H                     1.6571    1.5238   -0.9159 
 H                     1.6422    1.5698    0.8887 
 H                     2.5982    0.3075    0.0258 
 C                     0.4965   -0.9635   -1.222 
 H                     1.4629   -1.5188   -1.2418 
 H                    -0.3229   -1.7172   -1.2156 
 H                     0.4181   -0.3672   -2.1602 
 
 NAtoms=     20 NQM=     20 NQMF=      0 NMic=      0 NMicF=      0 NTot=     20.
                    Isotopes and Nuclear Properties:
 (Nuclear quadrupole moments (NQMom) in fm**2, nuclear magnetic moments (NMagM)
  in nuclear magnetons)

  Atom         1           2           3           4           5           6           7           8           9          10
 IAtWgt=          12           1           1           1          12          12           1           1          12           1
 AtmWgt=  12.0000000   1.0078250   1.0078250   1.0078250  12.0000000  12.0000000   1.0078250   1.0078250  12.0000000   1.0078250
 NucSpn=           0           1           1           1           0           0           1           1           0           1
 AtZEff=   0.0000000   0.0000000   0.0000000   0.0000000   0.0000000   0.0000000   0.0000000   0.0000000   0.0000000   0.0000000
 NQMom=    0.0000000   0.0000000   0.0000000   0.0000000   0.0000000   0.0000000   0.0000000   0.0000000   0.0000000   0.0000000
 NMagM=    0.0000000   2.7928460   2.7928460   2.7928460   0.0000000   0.0000000   2.7928460   2.7928460   0.0000000   2.7928460

  Atom        11          12          13          14          15          16          17          18          19          20
 IAtWgt=           1           1          12           1           1           1          12           1           1           1
 AtmWgt=   1.0078250   1.0078250  12.0000000   1.0078250   1.0078250   1.0078250  12.0000000   1.0078250   1.0078250   1.0078250
 NucSpn=           1           1           0           1           1           1           0           1           1           1
 AtZEff=   0.0000000   0.0000000   0.0000000   0.0000000   0.0000000   0.0000000   0.0000000   0.0000000   0.0000000   0.0000000
 NQMom=    0.0000000   0.0000000   0.0000000   0.0000000   0.0000000   0.0000000   0.0000000   0.0000000   0.0000000   0.0000000
 NMagM=    2.7928460   2.7928460   0.0000000   2.7928460   2.7928460   2.7928460   0.0000000   2.7928460   2.7928460   2.7928460
 Leave Link  101 at Mon Sep 14 19:12:28 2015, MaxMem=  402653184 cpu:       0.1
 (Enter /share/apps/g09/l103.exe)

 GradGradGradGradGradGradGradGradGradGradGradGradGradGradGradGradGradGrad
 Berny optimization.
 Initialization pass.
                           ----------------------------
                           !    Initial Parameters    !
                           ! (Angstroms and Degrees)  !
 --------------------------                            --------------------------
 ! Name  Definition              Value          Derivative Info.                !
 --------------------------------------------------------------------------------
 ! R1    R(1,2)                  1.1133         estimate D2E/DX2                !
 ! R2    R(1,3)                  1.1144         estimate D2E/DX2                !
 ! R3    R(1,4)                  1.1147         estimate D2E/DX2                !
 ! R4    R(1,5)                  1.5451         estimate D2E/DX2                !
 ! R5    R(5,6)                  1.5574         estimate D2E/DX2                !
 ! R6    R(5,13)                 1.5466         estimate D2E/DX2                !
 ! R7    R(5,17)                 1.545          estimate D2E/DX2                !
 ! R8    R(6,7)                  1.1156         estimate D2E/DX2                !
 ! R9    R(6,8)                  1.1158         estimate D2E/DX2                !
 ! R10   R(6,9)                  1.5325         estimate D2E/DX2                !
 ! R11   R(9,10)                 1.1123         estimate D2E/DX2                !
 ! R12   R(9,11)                 1.1137         estimate D2E/DX2                !
 ! R13   R(9,12)                 1.1124         estimate D2E/DX2                !
 ! R14   R(13,14)                1.1147         estimate D2E/DX2                !
 ! R15   R(13,15)                1.1147         estimate D2E/DX2                !
 ! R16   R(13,16)                1.1148         estimate D2E/DX2                !
 ! R17   R(17,18)                1.1148         estimate D2E/DX2                !
 ! R18   R(17,19)                1.1133         estimate D2E/DX2                !
 ! R19   R(17,20)                1.1144         estimate D2E/DX2                !
 ! A1    A(2,1,3)              108.3825         estimate D2E/DX2                !
 ! A2    A(2,1,4)              107.4976         estimate D2E/DX2                !
 ! A3    A(2,1,5)              111.2092         estimate D2E/DX2                !
 ! A4    A(3,1,4)              108.1978         estimate D2E/DX2                !
 ! A5    A(3,1,5)              110.667          estimate D2E/DX2                !
 ! A6    A(4,1,5)              110.7647         estimate D2E/DX2                !
 ! A7    A(1,5,6)              111.3724         estimate D2E/DX2                !
 ! A8    A(1,5,13)             108.2625         estimate D2E/DX2                !
 ! A9    A(1,5,17)             109.3813         estimate D2E/DX2                !
 ! A10   A(6,5,13)             108.0469         estimate D2E/DX2                !
 ! A11   A(6,5,17)             111.3999         estimate D2E/DX2                !
 ! A12   A(13,5,17)            108.2679         estimate D2E/DX2                !
 ! A13   A(5,6,7)              109.1264         estimate D2E/DX2                !
 ! A14   A(5,6,8)              109.0937         estimate D2E/DX2                !
 ! A15   A(5,6,9)              116.9827         estimate D2E/DX2                !
 ! A16   A(7,6,8)              107.0217         estimate D2E/DX2                !
 ! A17   A(7,6,9)              107.0767         estimate D2E/DX2                !
 ! A18   A(8,6,9)              107.1014         estimate D2E/DX2                !
 ! A19   A(6,9,10)             111.1214         estimate D2E/DX2                !
 ! A20   A(6,9,11)             109.1328         estimate D2E/DX2                !
 ! A21   A(6,9,12)             111.0524         estimate D2E/DX2                !
 ! A22   A(10,9,11)            107.9881         estimate D2E/DX2                !
 ! A23   A(10,9,12)            109.4571         estimate D2E/DX2                !
 ! A24   A(11,9,12)            107.9855         estimate D2E/DX2                !
 ! A25   A(5,13,14)            110.8091         estimate D2E/DX2                !
 ! A26   A(5,13,15)            110.8105         estimate D2E/DX2                !
 ! A27   A(5,13,16)            111.0371         estimate D2E/DX2                !
 ! A28   A(14,13,15)           108.1398         estimate D2E/DX2                !
 ! A29   A(14,13,16)           107.9582         estimate D2E/DX2                !
 ! A30   A(15,13,16)           107.9638         estimate D2E/DX2                !
 ! A31   A(5,17,18)            110.7571         estimate D2E/DX2                !
 ! A32   A(5,17,19)            111.1948         estimate D2E/DX2                !
 ! A33   A(5,17,20)            110.6627         estimate D2E/DX2                !
 ! A34   A(18,17,19)           107.5126         estimate D2E/DX2                !
 ! A35   A(18,17,20)           108.2145         estimate D2E/DX2                !
 ! A36   A(19,17,20)           108.3786         estimate D2E/DX2                !
 ! D1    D(2,1,5,6)             66.3479         estimate D2E/DX2                !
 ! D2    D(2,1,5,13)          -175.0022         estimate D2E/DX2                !
 ! D3    D(2,1,5,17)           -57.227          estimate D2E/DX2                !
 ! D4    D(3,1,5,6)            -54.1773         estimate D2E/DX2                !
 ! D5    D(3,1,5,13)            64.4725         estimate D2E/DX2                !
 ! D6    D(3,1,5,17)          -177.7522         estimate D2E/DX2                !
 ! D7    D(4,1,5,6)           -174.1765         estimate D2E/DX2                !
 ! D8    D(4,1,5,13)           -55.5266         estimate D2E/DX2                !
 ! D9    D(4,1,5,17)            62.2486         estimate D2E/DX2                !
 ! D10   D(1,5,6,7)            176.8147         estimate D2E/DX2                !
 ! D11   D(1,5,6,8)             60.2042         estimate D2E/DX2                !
 ! D12   D(1,5,6,9)            -61.4937         estimate D2E/DX2                !
 ! D13   D(13,5,6,7)            58.0357         estimate D2E/DX2                !
 ! D14   D(13,5,6,8)           -58.5747         estimate D2E/DX2                !
 ! D15   D(13,5,6,9)           179.7273         estimate D2E/DX2                !
 ! D16   D(17,5,6,7)           -60.766          estimate D2E/DX2                !
 ! D17   D(17,5,6,8)          -177.3765         estimate D2E/DX2                !
 ! D18   D(17,5,6,9)            60.9256         estimate D2E/DX2                !
 ! D19   D(1,5,13,14)          179.0894         estimate D2E/DX2                !
 ! D20   D(1,5,13,15)          -60.8606         estimate D2E/DX2                !
 ! D21   D(1,5,13,16)           59.1184         estimate D2E/DX2                !
 ! D22   D(6,5,13,14)          -60.1712         estimate D2E/DX2                !
 ! D23   D(6,5,13,15)           59.8787         estimate D2E/DX2                !
 ! D24   D(6,5,13,16)          179.8577         estimate D2E/DX2                !
 ! D25   D(17,5,13,14)          60.6042         estimate D2E/DX2                !
 ! D26   D(17,5,13,15)        -179.3458         estimate D2E/DX2                !
 ! D27   D(17,5,13,16)         -59.3668         estimate D2E/DX2                !
 ! D28   D(1,5,17,18)          -62.0067         estimate D2E/DX2                !
 ! D29   D(1,5,17,19)           57.4732         estimate D2E/DX2                !
 ! D30   D(1,5,17,20)          177.981          estimate D2E/DX2                !
 ! D31   D(6,5,17,18)          174.4346         estimate D2E/DX2                !
 ! D32   D(6,5,17,19)          -66.0855         estimate D2E/DX2                !
 ! D33   D(6,5,17,20)           54.4223         estimate D2E/DX2                !
 ! D34   D(13,5,17,18)          55.7651         estimate D2E/DX2                !
 ! D35   D(13,5,17,19)         175.245          estimate D2E/DX2                !
 ! D36   D(13,5,17,20)         -64.2472         estimate D2E/DX2                !
 ! D37   D(5,6,9,10)            60.5206         estimate D2E/DX2                !
 ! D38   D(5,6,9,11)           179.4959         estimate D2E/DX2                !
 ! D39   D(5,6,9,12)           -61.5741         estimate D2E/DX2                !
 ! D40   D(7,6,9,10)          -176.7247         estimate D2E/DX2                !
 ! D41   D(7,6,9,11)           -57.7494         estimate D2E/DX2                !
 ! D42   D(7,6,9,12)            61.1806         estimate D2E/DX2                !
 ! D43   D(8,6,9,10)           -62.2107         estimate D2E/DX2                !
 ! D44   D(8,6,9,11)            56.7646         estimate D2E/DX2                !
 ! D45   D(8,6,9,12)           175.6946         estimate D2E/DX2                !
 --------------------------------------------------------------------------------
 Trust Radius=3.00D-01 FncErr=1.00D-07 GrdErr=1.00D-07
 Number of steps in this run= 110 maximum allowed number of steps= 120.
 GradGradGradGradGradGradGradGradGradGradGradGradGradGradGradGradGradGrad

 Leave Link  103 at Mon Sep 14 19:12:30 2015, MaxMem=  402653184 cpu:       0.0
 (Enter /share/apps/g09/l202.exe)
                          Input orientation:                          
 ---------------------------------------------------------------------
 Center     Atomic      Atomic             Coordinates (Angstroms)
 Number     Number       Type             X           Y           Z
 ---------------------------------------------------------------------
      1          6           0        0.479200   -0.903700    1.298900
      2          1           0       -0.337500   -1.660100    1.315200
      3          1           0        0.384000   -0.264100    2.206500
      4          1           0        1.446800   -1.453800    1.360600
      5          6           0        0.418900   -0.043500    0.016800
      6          6           0       -0.861700    0.842400   -0.012600
      7          1           0       -0.838700    1.488100   -0.922100
      8          1           0       -0.855000    1.523100    0.871500
      9          6           0       -2.210600    0.115000   -0.011100
     10          1           0       -2.329600   -0.506900    0.903400
     11          1           0       -3.031300    0.867800   -0.024300
     12          1           0       -2.319200   -0.527400   -0.912800
     13          6           0        1.649700    0.892900    0.003100
     14          1           0        1.657100    1.523800   -0.915900
     15          1           0        1.642200    1.569800    0.888700
     16          1           0        2.598200    0.307500    0.025800
     17          6           0        0.496500   -0.963500   -1.222000
     18          1           0        1.462900   -1.518800   -1.241800
     19          1           0       -0.322900   -1.717200   -1.215600
     20          1           0        0.418100   -0.367200   -2.160200
 ---------------------------------------------------------------------
                    Distance matrix (angstroms):
                    1          2          3          4          5
     1  C    0.000000
     2  H    1.113286   0.000000
     3  H    1.114401   1.806597   0.000000
     4  H    1.114750   1.796760   1.805679   0.000000
     5  C    1.545109   2.207120   2.201061   2.202572   0.000000
     6  C    2.562598   2.881032   2.774980   3.533749   1.557440
     7  H    3.520001   3.894596   3.788580   4.369097   2.192918
     8  H    2.802163   3.255371   2.551750   3.794659   2.192617
     9  C    3.160518   2.901475   3.434154   4.209426   2.634420
    10  H    2.864128   2.338357   3.020041   3.920057   2.924902
    11  H    4.148817   3.929516   4.233431   5.230789   3.568758
    12  H    3.586678   3.189691   4.136019   4.495478   2.931810
    13  C    2.505382   3.491186   2.792063   2.718635   1.546577
    14  H    3.490780   4.369606   3.816641   3.754035   2.204427
    15  H    2.763880   3.812266   2.585122   3.066436   2.204407
    16  H    2.752808   3.761959   3.159883   2.491905   2.207404
    17  C    2.521669   2.760107   3.500918   2.795226   1.545007
    18  H    2.793057   3.130440   3.824797   2.603261   2.202390
    19  H    2.761858   2.531486   3.784439   3.136562   2.206887
    20  H    3.500991   3.784300   4.368050   3.825566   2.200934
                    6          7          8          9         10
     6  C    0.000000
     7  H    1.115638   0.000000
     8  H    1.115809   1.794016   0.000000
     9  C    1.532529   2.144163   2.144616   0.000000
    10  H    2.194173   3.087921   2.509255   1.112309   0.000000
    11  H    2.169780   2.449145   2.442981   1.113746   1.800780
    12  H    2.193403   2.500841   3.087419   1.112445   1.816345
    13  C    2.511957   2.720734   2.724847   3.937924   4.313329
    14  H    2.761270   2.496063   3.083090   4.214556   4.829842
    15  H    2.758798   3.072546   2.497696   4.215466   4.481974
    16  H    3.501214   3.755611   3.757324   4.812793   5.071158
    17  C    2.562934   2.807675   3.520295   3.155603   3.565480
    18  H    3.534114   3.800134   4.369422   4.204584   4.473129
    19  H    2.879074   3.259776   3.890843   2.893301   3.159404
    20  H    2.777266   2.560191   3.792786   3.429462   4.117647
                   11         12         13         14         15
    11  H    0.000000
    12  H    1.800861   0.000000
    13  C    4.681147   4.313733   0.000000
    14  H    4.817300   4.474192   1.114742   0.000000
    15  H    4.813312   4.830770   1.114692   1.805248   0.000000
    16  H    5.657536   5.075318   1.114837   1.803290   1.803312
    17  C    4.151327   2.866000   2.505386   2.761766   3.490744
    18  H    5.232208   3.923697   2.720472   3.066160   3.756412
    19  H    3.928976   2.343614   3.491275   3.809764   4.369676
    20  H    4.240950   3.012388   2.790082   2.580559   3.813946
                   16         17         18         19         20
    16  H    0.000000
    17  C    2.754921   0.000000
    18  H    2.496215   1.114755   0.000000
    19  H    3.764746   1.113338   1.796978   0.000000
    20  H    3.160166   1.114423   1.805893   1.806613   0.000000
 Stoichiometry    C6H14
 Framework group  C1[X(C6H14)]
 Deg. of freedom    54
 Full point group                 C1      NOp   1
 Largest Abelian subgroup         C1      NOp   1
 Largest concise Abelian subgroup C1      NOp   1
                         Standard orientation:                         
 ---------------------------------------------------------------------
 Center     Atomic      Atomic             Coordinates (Angstroms)
 Number     Number       Type             X           Y           Z
 ---------------------------------------------------------------------
      1          6           0        0.554229   -0.870105    1.268686
      2          1           0       -0.217703   -1.672198    1.281925
      3          1           0        0.432258   -0.249786    2.186409
      4          1           0        1.552277   -1.364689    1.312895
      5          6           0        0.431308    0.003105   -0.000076
      6          6           0       -0.898054    0.814523   -0.004032
      7          1           0       -0.921615    1.473158   -0.904195
      8          1           0       -0.920895    1.482037    0.889798
      9          6           0       -2.203100    0.011103    0.000032
     10          1           0       -2.276684   -0.629342    0.906479
     11          1           0       -3.065563    0.715769    0.005837
     12          1           0       -2.284362   -0.623767   -0.909842
     13          6           0        1.606383    1.008567   -0.012135
     14          1           0        1.567994    1.651667   -0.921859
     15          1           0        1.569600    1.671453    0.883279
     16          1           0        2.586967    0.478197   -0.007247
     17          6           0        0.548222   -0.893495   -1.252867
     18          1           0        1.544506   -1.392197   -1.290209
     19          1           0       -0.226664   -1.692908   -1.249461
     20          1           0        0.425951   -0.289580   -2.181456
 ---------------------------------------------------------------------
 Rotational constants (GHZ):      4.2342917      2.4482060      2.4401977
 Leave Link  202 at Mon Sep 14 19:12:30 2015, MaxMem=  402653184 cpu:       0.0
 (Enter /share/apps/g09/l301.exe)
 Standard basis: VSTO-6G (5D, 7F)
 Ernie: Thresh=  0.10000D-02 Tol=  0.10000D-05 Strict=F.
  NNHCO=     0 NNPyr=     0 NCTC=     0               EPep=         0.000000000
    EC=       133.107131935  ECS=         3.119704997   EG=         0.300157799
   EHC=         0.000404110  EAt=       -31.187935768  AtH=         2.796400831
 EPDDG=         0.000000000  ECC=       136.527398842 EAtT=        33.984336599
 There are    38 symmetry adapted basis functions of A   symmetry.
 Integral buffers will be    131072 words long.
 Regular integral format.
 Two-electron integral symmetry is turned off.
    38 basis functions,   228 primitive gaussians,    38 cartesian basis functions
    19 alpha electrons       19 beta electrons
       nuclear repulsion energy       170.5117354406 Hartrees.
 IExCor=    0 DFT=F Ex=HF Corr=None ExCW=0 ScaHFX=  1.000000
 ScaDFX=  1.000000  1.000000  1.000000  1.000000 ScalE2=  1.000000  1.000000
 IRadAn=      0 IRanWt=     -1 IRanGd=            0 ICorTp=0
 Leave Link  301 at Mon Sep 14 19:12:30 2015, MaxMem=  402653184 cpu:       0.1
 (Enter /share/apps/g09/l302.exe)
 Do NDO integrals.
 NPDir=0 NMtPBC=     1 NCelOv=     1 NCel=       1 NClECP=     1 NCelD=      1
         NCelK=      1 NCelE2=     1 NClLst=     1 CellRange=     0.0.
 One-electron integrals computed using PRISM.
 NBasis=    38 RedAO= F  NBF=    38
 NBsUse=    38 1.00D-04 NBFU=    38
 Leave Link  302 at Mon Sep 14 19:12:31 2015, MaxMem=  402653184 cpu:       0.2
 (Enter /share/apps/g09/l303.exe)
 DipDrv:  MaxL=1.
 Leave Link  303 at Mon Sep 14 19:12:32 2015, MaxMem=  402653184 cpu:       0.0
 (Enter /share/apps/g09/l401.exe)
 Simple Huckel Guess.
 Initial guess orbital symmetries:
       Occupied  (A) (A) (A) (A) (A) (A) (A) (A) (A) (A) (A) (A)
                 (A) (A) (A) (A) (A) (A) (A)
       Virtual   (A) (A) (A) (A) (A) (A) (A) (A) (A) (A) (A) (A)
                 (A) (A) (A) (A) (A) (A) (A)
 The electronic state of the initial guess is 1-A.
 Leave Link  401 at Mon Sep 14 19:12:32 2015, MaxMem=  402653184 cpu:       0.1
 (Enter /share/apps/g09/l502.exe)
 Closed shell SCF:
 Requested convergence on RMS density matrix=1.00D-08 within 128 cycles.
 Requested convergence on MAX density matrix=1.00D-06.
 Requested convergence on             energy=1.00D-06.
 No special actions if energy rises.
 Using DIIS extrapolation, IDIIS=  1040.
 Overlap will be assumed to be unity.
 Two-electron integral symmetry not used.
 Keep J ints in memory in canonical form, NReq=884654.
 IEnd=       81865 IEndB=       81865 NGot=   402653184 MDV=   402586639
 LenX=   402586639 LenY=   402584754
 Symmetry not used in FoFDir.
 MinBra= 0 MaxBra= 1 Meth=40.
 IRaf=       0 NMat=   1 IRICut=       1 DoRegI=T DoRafI=F ISym2E= 0 JSym2E=0.

 Cycle   1  Pass 1  IDiag  1:
 E= 0.718357432092489E-01
 DIIS: error= 2.19D-02 at cycle   1 NSaved=   1.
 NSaved= 1 IEnMin= 1 EnMin= 0.718357432092489E-01 IErMin= 1 ErrMin= 2.19D-02
 ErrMax= 2.19D-02 EMaxC= 1.00D-01 BMatC= 4.35D-02 BMatP= 4.35D-02
 IDIUse=3 WtCom= 7.81D-01 WtEn= 2.19D-01
 Coeff-Com:  0.100D+01
 Coeff-En:   0.100D+01
 Coeff:      0.100D+01
 GapD=    2.000 DampG=2.000 DampE=0.500 DampFc=1.0000 IDamp=-1.
 RMSDP=8.43D-03 MaxDP=6.89D-02              OVMax= 0.00D+00

 Cycle   2  Pass 1  IDiag  1:
 E=-0.437989969724981E-01 Delta-E=       -0.115634740182 Rises=F Damp=F
 DIIS: error= 5.28D-03 at cycle   2 NSaved=   2.
 NSaved= 2 IEnMin= 2 EnMin=-0.437989969724981E-01 IErMin= 2 ErrMin= 5.28D-03
 ErrMax= 5.28D-03 EMaxC= 1.00D-01 BMatC= 3.07D-03 BMatP= 4.35D-02
 IDIUse=3 WtCom= 9.47D-01 WtEn= 5.28D-02
 Coeff-Com: -0.302D+00 0.130D+01
 Coeff-En:   0.000D+00 0.100D+01
 Coeff:     -0.287D+00 0.129D+01
 RMSDP=3.15D-03 MaxDP=2.14D-02 DE=-1.16D-01 OVMax= 0.00D+00

 Cycle   3  Pass 1  IDiag  3:
 E=-0.548176700297347E-01 Delta-E=       -0.011018673057 Rises=F Damp=F
 DIIS: error= 1.80D-03 at cycle   3 NSaved=   3.
 NSaved= 3 IEnMin= 3 EnMin=-0.548176700297347E-01 IErMin= 3 ErrMin= 1.80D-03
 ErrMax= 1.80D-03 EMaxC= 1.00D-01 BMatC= 2.47D-04 BMatP= 3.07D-03
 IDIUse=3 WtCom= 9.82D-01 WtEn= 1.80D-02
 Coeff-Com:  0.223D+00-0.105D+01 0.183D+01
 Coeff-En:   0.000D+00 0.000D+00 0.100D+01
 Coeff:      0.219D+00-0.103D+01 0.181D+01
 Gap=     0.555 Goal=   None    Shift=    0.000
 RMSDP=1.65D-03 MaxDP=1.79D-02 DE=-1.10D-02 OVMax= 0.00D+00

 Cycle   4  Pass 1  IDiag  3:
 E=-0.566541936499050E-01 Delta-E=       -0.001836523620 Rises=F Damp=F
 DIIS: error= 6.86D-04 at cycle   4 NSaved=   4.
 NSaved= 4 IEnMin= 4 EnMin=-0.566541936499050E-01 IErMin= 4 ErrMin= 6.86D-04
 ErrMax= 6.86D-04 EMaxC= 1.00D-01 BMatC= 3.34D-05 BMatP= 2.47D-04
 IDIUse=3 WtCom= 9.93D-01 WtEn= 6.86D-03
 Coeff-Com: -0.125D+00 0.610D+00-0.144D+01 0.195D+01
 Coeff-En:   0.000D+00 0.000D+00 0.000D+00 0.100D+01
 Coeff:     -0.124D+00 0.606D+00-0.143D+01 0.195D+01
 Gap=     0.555 Goal=   None    Shift=    0.000
 RMSDP=8.94D-04 MaxDP=9.82D-03 DE=-1.84D-03 OVMax= 0.00D+00

 Cycle   5  Pass 1  IDiag  3:
 E=-0.569514780966074E-01 Delta-E=       -0.000297284447 Rises=F Damp=F
 DIIS: error= 1.23D-04 at cycle   5 NSaved=   5.
 NSaved= 5 IEnMin= 5 EnMin=-0.569514780966074E-01 IErMin= 5 ErrMin= 1.23D-04
 ErrMax= 1.23D-04 EMaxC= 1.00D-01 BMatC= 1.25D-06 BMatP= 3.34D-05
 IDIUse=3 WtCom= 9.99D-01 WtEn= 1.23D-03
 Coeff-Com:  0.715D-01-0.353D+00 0.868D+00-0.129D+01 0.170D+01
 Coeff-En:   0.000D+00 0.000D+00 0.000D+00 0.000D+00 0.100D+01
 Coeff:      0.714D-01-0.353D+00 0.867D+00-0.129D+01 0.170D+01
 Gap=     0.555 Goal=   None    Shift=    0.000
 RMSDP=1.29D-04 MaxDP=1.39D-03 DE=-2.97D-04 OVMax= 0.00D+00

 Cycle   6  Pass 1  IDiag  3:
 E=-0.569605602333922E-01 Delta-E=       -0.000009082137 Rises=F Damp=F
 DIIS: error= 5.42D-05 at cycle   6 NSaved=   6.
 NSaved= 6 IEnMin= 6 EnMin=-0.569605602333922E-01 IErMin= 6 ErrMin= 5.42D-05
 ErrMax= 5.42D-05 EMaxC= 1.00D-01 BMatC= 1.28D-07 BMatP= 1.25D-06
 IDIUse=1 WtCom= 1.00D+00 WtEn= 0.00D+00
 Coeff-Com: -0.143D-01 0.716D-01-0.182D+00 0.287D+00-0.601D+00 0.144D+01
 Coeff:     -0.143D-01 0.716D-01-0.182D+00 0.287D+00-0.601D+00 0.144D+01
 Gap=     0.555 Goal=   None    Shift=    0.000
 RMSDP=3.80D-05 MaxDP=4.14D-04 DE=-9.08D-06 OVMax= 0.00D+00

 Cycle   7  Pass 1  IDiag  3:
 E=-0.569614860139041E-01 Delta-E=       -0.000000925781 Rises=F Damp=F
 DIIS: error= 2.12D-05 at cycle   7 NSaved=   7.
 NSaved= 7 IEnMin= 7 EnMin=-0.569614860139041E-01 IErMin= 7 ErrMin= 2.12D-05
 ErrMax= 2.12D-05 EMaxC= 1.00D-01 BMatC= 1.85D-08 BMatP= 1.28D-07
 IDIUse=1 WtCom= 1.00D+00 WtEn= 0.00D+00
 Coeff-Com:  0.590D-02-0.299D-01 0.767D-01-0.121D+00 0.267D+00-0.981D+00
 Coeff-Com:  0.178D+01
 Coeff:      0.590D-02-0.299D-01 0.767D-01-0.121D+00 0.267D+00-0.981D+00
 Coeff:      0.178D+01
 Gap=     0.555 Goal=   None    Shift=    0.000
 RMSDP=1.83D-05 MaxDP=2.17D-04 DE=-9.26D-07 OVMax= 0.00D+00

 Cycle   8  Pass 1  IDiag  3:
 E=-0.569616334256864E-01 Delta-E=       -0.000000147412 Rises=F Damp=F
 DIIS: error= 5.75D-06 at cycle   8 NSaved=   8.
 NSaved= 8 IEnMin= 8 EnMin=-0.569616334256864E-01 IErMin= 8 ErrMin= 5.75D-06
 ErrMax= 5.75D-06 EMaxC= 1.00D-01 BMatC= 1.09D-09 BMatP= 1.85D-08
 IDIUse=1 WtCom= 1.00D+00 WtEn= 0.00D+00
 Coeff-Com: -0.654D-03 0.366D-02-0.111D-01 0.206D-01-0.675D-01 0.391D+00
 Coeff-Com: -0.954D+00 0.162D+01
 Coeff:     -0.654D-03 0.366D-02-0.111D-01 0.206D-01-0.675D-01 0.391D+00
 Coeff:     -0.954D+00 0.162D+01
 Gap=     0.555 Goal=   None    Shift=    0.000
 RMSDP=3.81D-06 MaxDP=4.89D-05 DE=-1.47D-07 OVMax= 0.00D+00

 Cycle   9  Pass 1  IDiag  3:
 E=-0.569616406238254E-01 Delta-E=       -0.000000007198 Rises=F Damp=F
 DIIS: error= 1.07D-06 at cycle   9 NSaved=   9.
 NSaved= 9 IEnMin= 9 EnMin=-0.569616406238254E-01 IErMin= 9 ErrMin= 1.07D-06
 ErrMax= 1.07D-06 EMaxC= 1.00D-01 BMatC= 4.18D-11 BMatP= 1.09D-09
 IDIUse=1 WtCom= 1.00D+00 WtEn= 0.00D+00
 Coeff-Com: -0.182D-03 0.762D-03-0.117D-02 0.380D-03 0.103D-01-0.102D+00
 Coeff-Com:  0.287D+00-0.652D+00 0.146D+01
 Coeff:     -0.182D-03 0.762D-03-0.117D-02 0.380D-03 0.103D-01-0.102D+00
 Coeff:      0.287D+00-0.652D+00 0.146D+01
 Gap=     0.555 Goal=   None    Shift=    0.000
 RMSDP=6.43D-07 MaxDP=8.64D-06 DE=-7.20D-09 OVMax= 0.00D+00

 Cycle  10  Pass 1  IDiag  3:
 E=-0.569616408526770E-01 Delta-E=       -0.000000000229 Rises=F Damp=F
 DIIS: error= 1.38D-07 at cycle  10 NSaved=  10.
 NSaved=10 IEnMin=10 EnMin=-0.569616408526770E-01 IErMin=10 ErrMin= 1.38D-07
 ErrMax= 1.38D-07 EMaxC= 1.00D-01 BMatC= 1.29D-12 BMatP= 4.18D-11
 IDIUse=1 WtCom= 1.00D+00 WtEn= 0.00D+00
 Coeff-Com: -0.148D-04 0.131D-03-0.617D-03 0.149D-02-0.709D-02 0.498D-01
 Coeff-Com: -0.131D+00 0.288D+00-0.693D+00 0.149D+01
 Coeff:     -0.148D-04 0.131D-03-0.617D-03 0.149D-02-0.709D-02 0.498D-01
 Coeff:     -0.131D+00 0.288D+00-0.693D+00 0.149D+01
 Gap=     0.555 Goal=   None    Shift=    0.000
 RMSDP=9.75D-08 MaxDP=1.05D-06 DE=-2.29D-10 OVMax= 0.00D+00

 Cycle  11  Pass 1  IDiag  3:
 E=-0.569616408595834E-01 Delta-E=       -0.000000000007 Rises=F Damp=F
 DIIS: error= 2.85D-08 at cycle  11 NSaved=  11.
 NSaved=11 IEnMin=11 EnMin=-0.569616408595834E-01 IErMin=11 ErrMin= 2.85D-08
 ErrMax= 2.85D-08 EMaxC= 1.00D-01 BMatC= 6.30D-14 BMatP= 1.29D-12
 IDIUse=1 WtCom= 1.00D+00 WtEn= 0.00D+00
 Coeff-Com:  0.700D-05-0.610D-04 0.284D-03-0.679D-03 0.321D-02-0.226D-01
 Coeff-Com:  0.595D-01-0.130D+00 0.319D+00-0.819D+00 0.159D+01
 Coeff:      0.700D-05-0.610D-04 0.284D-03-0.679D-03 0.321D-02-0.226D-01
 Coeff:      0.595D-01-0.130D+00 0.319D+00-0.819D+00 0.159D+01
 Gap=     0.555 Goal=   None    Shift=    0.000
 RMSDP=2.43D-08 MaxDP=1.72D-07 DE=-6.91D-12 OVMax= 0.00D+00

 Cycle  12  Pass 1  IDiag  3:
 E=-0.569616408599813E-01 Delta-E=        0.000000000000 Rises=F Damp=F
 DIIS: error= 4.57D-09 at cycle  12 NSaved=  12.
 NSaved=12 IEnMin=12 EnMin=-0.569616408599813E-01 IErMin=12 ErrMin= 4.57D-09
 ErrMax= 4.57D-09 EMaxC= 1.00D-01 BMatC= 1.88D-15 BMatP= 6.30D-14
 IDIUse=1 WtCom= 1.00D+00 WtEn= 0.00D+00
 Coeff-Com:  0.154D-07 0.100D-04-0.765D-04 0.212D-03-0.116D-02 0.855D-02
 Coeff-Com: -0.228D-01 0.502D-01-0.124D+00 0.328D+00-0.729D+00 0.149D+01
 Coeff:      0.154D-07 0.100D-04-0.765D-04 0.212D-03-0.116D-02 0.855D-02
 Coeff:     -0.228D-01 0.502D-01-0.124D+00 0.328D+00-0.729D+00 0.149D+01
 Gap=     0.555 Goal=   None    Shift=    0.000
 RMSDP=3.85D-09 MaxDP=2.93D-08 DE=-3.98D-13 OVMax= 0.00D+00

 Cycle  13  Pass 2  IDiag  1:
 RMSDP=3.85D-09 MaxDP=2.93D-08 DE=-3.98D-13 OVMax= 0.00D+00

 SCF Done:  E(RPM6) = -0.569616408600E-01 A.U. after   13 cycles
             Convg  =    0.3846D-08             -V/T =  0.9990
 KE=-5.633747768986D+01 PE=-2.620634429199D+02 EE= 1.478322235283D+02
 Leave Link  502 at Mon Sep 14 19:12:33 2015, MaxMem=  402653184 cpu:       0.8
 (Enter /share/apps/g09/l601.exe)
 Copying SCF densities to generalized density rwf, IOpCl= 0 IROHF=0.

 **********************************************************************

            Population analysis using the SCF density.

 **********************************************************************

 Orbital symmetries:
       Occupied  (A) (A) (A) (A) (A) (A) (A) (A) (A) (A) (A) (A)
                 (A) (A) (A) (A) (A) (A) (A)
       Virtual   (A) (A) (A) (A) (A) (A) (A) (A) (A) (A) (A) (A)
                 (A) (A) (A) (A) (A) (A) (A)
 The electronic state is 1-A.
 Alpha  occ. eigenvalues --   -1.05953  -0.94554  -0.86906  -0.86808  -0.78150
 Alpha  occ. eigenvalues --   -0.65928  -0.56470  -0.56377  -0.53658  -0.52097
 Alpha  occ. eigenvalues --   -0.49309  -0.47502  -0.47074  -0.45645  -0.45243
 Alpha  occ. eigenvalues --   -0.43351  -0.40991  -0.40721  -0.40087
 Alpha virt. eigenvalues --    0.15437   0.16225   0.16347   0.17993   0.18447
 Alpha virt. eigenvalues --    0.21364   0.21884   0.22105   0.22120   0.22413
 Alpha virt. eigenvalues --    0.22434   0.22563   0.22616   0.23182   0.24351
 Alpha virt. eigenvalues --    0.25092   0.25360   0.25946   0.26006
          Condensed to atoms (all electrons):
              1          2          3          4          5          6
     1  C    4.523857   0.000000   0.000000   0.000000   0.000000   0.000000
     2  H    0.000000   0.847018   0.000000   0.000000   0.000000   0.000000
     3  H    0.000000   0.000000   0.848752   0.000000   0.000000   0.000000
     4  H    0.000000   0.000000   0.000000   0.849065   0.000000   0.000000
     5  C    0.000000   0.000000   0.000000   0.000000   3.737203   0.000000
     6  C    0.000000   0.000000   0.000000   0.000000   0.000000   4.297054
     7  H    0.000000   0.000000   0.000000   0.000000   0.000000   0.000000
     8  H    0.000000   0.000000   0.000000   0.000000   0.000000   0.000000
     9  C    0.000000   0.000000   0.000000   0.000000   0.000000   0.000000
    10  H    0.000000   0.000000   0.000000   0.000000   0.000000   0.000000
    11  H    0.000000   0.000000   0.000000   0.000000   0.000000   0.000000
    12  H    0.000000   0.000000   0.000000   0.000000   0.000000   0.000000
    13  C    0.000000   0.000000   0.000000   0.000000   0.000000   0.000000
    14  H    0.000000   0.000000   0.000000   0.000000   0.000000   0.000000
    15  H    0.000000   0.000000   0.000000   0.000000   0.000000   0.000000
    16  H    0.000000   0.000000   0.000000   0.000000   0.000000   0.000000
    17  C    0.000000   0.000000   0.000000   0.000000   0.000000   0.000000
    18  H    0.000000   0.000000   0.000000   0.000000   0.000000   0.000000
    19  H    0.000000   0.000000   0.000000   0.000000   0.000000   0.000000
    20  H    0.000000   0.000000   0.000000   0.000000   0.000000   0.000000
              7          8          9         10         11         12
     1  C    0.000000   0.000000   0.000000   0.000000   0.000000   0.000000
     2  H    0.000000   0.000000   0.000000   0.000000   0.000000   0.000000
     3  H    0.000000   0.000000   0.000000   0.000000   0.000000   0.000000
     4  H    0.000000   0.000000   0.000000   0.000000   0.000000   0.000000
     5  C    0.000000   0.000000   0.000000   0.000000   0.000000   0.000000
     6  C    0.000000   0.000000   0.000000   0.000000   0.000000   0.000000
     7  H    0.867951   0.000000   0.000000   0.000000   0.000000   0.000000
     8  H    0.000000   0.867960   0.000000   0.000000   0.000000   0.000000
     9  C    0.000000   0.000000   4.445495   0.000000   0.000000   0.000000
    10  H    0.000000   0.000000   0.000000   0.854637   0.000000   0.000000
    11  H    0.000000   0.000000   0.000000   0.000000   0.860867   0.000000
    12  H    0.000000   0.000000   0.000000   0.000000   0.000000   0.854733
    13  C    0.000000   0.000000   0.000000   0.000000   0.000000   0.000000
    14  H    0.000000   0.000000   0.000000   0.000000   0.000000   0.000000
    15  H    0.000000   0.000000   0.000000   0.000000   0.000000   0.000000
    16  H    0.000000   0.000000   0.000000   0.000000   0.000000   0.000000
    17  C    0.000000   0.000000   0.000000   0.000000   0.000000   0.000000
    18  H    0.000000   0.000000   0.000000   0.000000   0.000000   0.000000
    19  H    0.000000   0.000000   0.000000   0.000000   0.000000   0.000000
    20  H    0.000000   0.000000   0.000000   0.000000   0.000000   0.000000
             13         14         15         16         17         18
     1  C    0.000000   0.000000   0.000000   0.000000   0.000000   0.000000
     2  H    0.000000   0.000000   0.000000   0.000000   0.000000   0.000000
     3  H    0.000000   0.000000   0.000000   0.000000   0.000000   0.000000
     4  H    0.000000   0.000000   0.000000   0.000000   0.000000   0.000000
     5  C    0.000000   0.000000   0.000000   0.000000   0.000000   0.000000
     6  C    0.000000   0.000000   0.000000   0.000000   0.000000   0.000000
     7  H    0.000000   0.000000   0.000000   0.000000   0.000000   0.000000
     8  H    0.000000   0.000000   0.000000   0.000000   0.000000   0.000000
     9  C    0.000000   0.000000   0.000000   0.000000   0.000000   0.000000
    10  H    0.000000   0.000000   0.000000   0.000000   0.000000   0.000000
    11  H    0.000000   0.000000   0.000000   0.000000   0.000000   0.000000
    12  H    0.000000   0.000000   0.000000   0.000000   0.000000   0.000000
    13  C    4.534279   0.000000   0.000000   0.000000   0.000000   0.000000
    14  H    0.000000   0.848289   0.000000   0.000000   0.000000   0.000000
    15  H    0.000000   0.000000   0.848298   0.000000   0.000000   0.000000
    16  H    0.000000   0.000000   0.000000   0.845984   0.000000   0.000000
    17  C    0.000000   0.000000   0.000000   0.000000   4.523786   0.000000
    18  H    0.000000   0.000000   0.000000   0.000000   0.000000   0.849064
    19  H    0.000000   0.000000   0.000000   0.000000   0.000000   0.000000
    20  H    0.000000   0.000000   0.000000   0.000000   0.000000   0.000000
             19         20
     1  C    0.000000   0.000000
     2  H    0.000000   0.000000
     3  H    0.000000   0.000000
     4  H    0.000000   0.000000
     5  C    0.000000   0.000000
     6  C    0.000000   0.000000
     7  H    0.000000   0.000000
     8  H    0.000000   0.000000
     9  C    0.000000   0.000000
    10  H    0.000000   0.000000
    11  H    0.000000   0.000000
    12  H    0.000000   0.000000
    13  C    0.000000   0.000000
    14  H    0.000000   0.000000
    15  H    0.000000   0.000000
    16  H    0.000000   0.000000
    17  C    0.000000   0.000000
    18  H    0.000000   0.000000
    19  H    0.846949   0.000000
    20  H    0.000000   0.848758
 Mulliken atomic charges:
              1
     1  C   -0.523857
     2  H    0.152982
     3  H    0.151248
     4  H    0.150935
     5  C    0.262797
     6  C   -0.297054
     7  H    0.132049
     8  H    0.132040
     9  C   -0.445495
    10  H    0.145363
    11  H    0.139133
    12  H    0.145267
    13  C   -0.534279
    14  H    0.151711
    15  H    0.151702
    16  H    0.154016
    17  C   -0.523786
    18  H    0.150936
    19  H    0.153051
    20  H    0.151242
 Sum of Mulliken atomic charges =   0.00000
 Mulliken charges with hydrogens summed into heavy atoms:
              1
     1  C   -0.068691
     5  C    0.262797
     6  C   -0.032965
     9  C   -0.015732
    13  C   -0.076851
    17  C   -0.068557
 Sum of Mulliken charges with hydrogens summed into heavy atoms =   0.00000
 Charge=              0.0000 electrons
 Dipole moment (field-independent basis, Debye):
    X=              0.0099    Y=              0.0260    Z=             -0.0002  Tot=              0.0278
 N-N= 1.705117354406D+02 E-N=-2.620634428301D+02  KE=-5.633747768986D+01
 Leave Link  601 at Mon Sep 14 19:12:33 2015, MaxMem=  402653184 cpu:       0.0
 (Enter /share/apps/g09/l701.exe)
 Compute integral first derivatives.
 ... and contract with generalized density number  0.
 Leave Link  701 at Mon Sep 14 19:12:33 2015, MaxMem=  402653184 cpu:       0.2
 (Enter /share/apps/g09/l702.exe)
 L702 exits ... SP integral derivatives will be done elsewhere.
 Leave Link  702 at Mon Sep 14 19:12:35 2015, MaxMem=  402653184 cpu:       0.0
 (Enter /share/apps/g09/l703.exe)
 Compute integral first derivatives, UseDBF=F ICtDFT=           0.
 Integral derivatives from FoFDir, PRISM(SPDF).
 Calling FoFJK, ICntrl=      2127 FMM=F ISym2X=0 I1Cent= 0 IOpClX= 0 NMat=1 NMatS=1 NMatT=0.
 FoFCou: FMM=F IPFlag=           0 FMFlag=      100000 FMFlg1=         800
         NFxFlg=           0 DoJE=F BraDBF=F KetDBF=F FulRan=T
         Omega=  0.000000  0.000000  1.000000  0.000000  0.000000 ICntrl=    2127 IOpCl=  0
         NMat0=    1 NMatS0=    1 NMatT0=    0 NMatD0=    1 NMtDS0=    0 NMtDT0=    0
         I1Cent=           0 NGrid=           0.
 Symmetry not used in FoFCou.
 Leave Link  703 at Mon Sep 14 19:12:36 2015, MaxMem=  402653184 cpu:       0.1
 (Enter /share/apps/g09/l716.exe)
 Dipole        = 3.88468496D-03 1.02383344D-02-7.95875982D-05
 ***** Axes restored to original set *****
 -------------------------------------------------------------------
 Center     Atomic                   Forces (Hartrees/Bohr)
 Number     Number              X              Y              Z
 -------------------------------------------------------------------
      1        6          -0.001250879   -0.001711095    0.003221339
      2        1           0.007493013    0.007471765    0.000685493
      3        1           0.000840041   -0.007659620   -0.008213441
      4        1          -0.009859047    0.005181351    0.000414033
      5        6          -0.000308933   -0.002942086    0.000079145
      6        6          -0.002635328    0.000522933    0.000050570
      7        1           0.002721317   -0.001285493    0.004293176
      8        1           0.002767834   -0.001497789   -0.004248593
      9        6           0.000461626   -0.002065905   -0.000010348
     10        1           0.000124787    0.003907964   -0.009100901
     11        1           0.005177155   -0.008066451    0.000120745
     12        1          -0.000031798    0.004090016    0.009071775
     13        6           0.003589023    0.005590519   -0.000124698
     14        1           0.001354186   -0.005695494    0.009581920
     15        1           0.001515460   -0.006171506   -0.009233377
     16        1          -0.009137711    0.006878729   -0.000253910
     17        6          -0.001232331   -0.001856444   -0.003152455
     18        1          -0.009838084    0.005191706   -0.000839595
     19        1           0.007566576    0.007394617   -0.000925471
     20        1           0.000683093   -0.007277719    0.008584592
 -------------------------------------------------------------------
 Cartesian Forces:  Max     0.009859047 RMS     0.005081531
 Leave Link  716 at Mon Sep 14 19:12:37 2015, MaxMem=  402653184 cpu:       0.0
 (Enter /share/apps/g09/l103.exe)

 GradGradGradGradGradGradGradGradGradGradGradGradGradGradGradGradGradGrad
 Berny optimization.
 Internal  Forces:  Max     0.011391526 RMS     0.004255325
 Search for a local minimum.
 Step number   1 out of a maximum of  110
 All quantities printed in internal units (Hartrees-Bohrs-Radians)
 RMS Force = .42553D-02 SwitMx=.10000D-02 MixMth= 1
 Mixed Optimization -- RFO/linear search
 Second derivative matrix not updated -- first step.
     Eigenvalues ---    0.00230   0.00230   0.00230   0.00230   0.00336
     Eigenvalues ---    0.03112   0.04276   0.04695   0.04879   0.05078
     Eigenvalues ---    0.05428   0.05430   0.05445   0.05454   0.05462
     Eigenvalues ---    0.05480   0.05481   0.05751   0.08990   0.12667
     Eigenvalues ---    0.14242   0.14503   0.16000   0.16000   0.16000
     Eigenvalues ---    0.16000   0.16000   0.16000   0.16000   0.16000
     Eigenvalues ---    0.16000   0.16000   0.16000   0.16000   0.22023
     Eigenvalues ---    0.27028   0.27944   0.28071   0.28080   0.29191
     Eigenvalues ---    0.31993   0.32010   0.32093   0.32102   0.32102
     Eigenvalues ---    0.32103   0.32108   0.32136   0.32138   0.32207
     Eigenvalues ---    0.32249   0.32255   0.32342   0.323571000.00000
     Eigenvalues --- 1000.000001000.000001000.000001000.000001000.00000
     Eigenvalues --- 1000.000001000.000001000.000001000.000001000.00000
     Eigenvalues --- 1000.000001000.000001000.000001000.000001000.00000
     Eigenvalues --- 1000.000001000.000001000.000001000.000001000.00000
     Eigenvalues --- 1000.000001000.000001000.000001000.000001000.00000
     Eigenvalues --- 1000.000001000.000001000.000001000.000001000.00000
     Eigenvalues --- 1000.000001000.000001000.000001000.000001000.00000
     Eigenvalues --- 1000.000001000.000001000.000001000.000001000.00000
     Eigenvalues --- 1000.000001000.000001000.000001000.000001000.00000
 RFO step:  Lambda=-6.49680378D-03 EMin= 2.30000000D-03
 Linear search not attempted -- first point.
 Iteration  1 RMS(Cart)=  0.04756938 RMS(Int)=  0.00066186
 Iteration  2 RMS(Cart)=  0.00085186 RMS(Int)=  0.00016214
 Iteration  3 RMS(Cart)=  0.00000070 RMS(Int)=  0.00016214
 Variable       Old X    -DE/DX   Delta X   Delta X   Delta X     New X
                                 (Linear)    (Quad)   (Total)
    R1        2.10381  -0.01056   0.00000  -0.03210  -0.03210   2.07170
    R2        2.10591  -0.01116   0.00000  -0.03403  -0.03403   2.07188
    R3        2.10657  -0.01109   0.00000  -0.03387  -0.03387   2.07271
    R4        2.91983  -0.00517   0.00000  -0.01799  -0.01799   2.90185
    R5        2.94314  -0.00956   0.00000  -0.03455  -0.03455   2.90859
    R6        2.92261  -0.00177   0.00000  -0.00618  -0.00618   2.91643
    R7        2.91964  -0.00514   0.00000  -0.01788  -0.01788   2.90176
    R8        2.10825  -0.00419   0.00000  -0.01282  -0.01282   2.09543
    R9        2.10857  -0.00426   0.00000  -0.01306  -0.01306   2.09551
   R10        2.89606  -0.00403   0.00000  -0.01351  -0.01351   2.88255
   R11        2.10196  -0.00968   0.00000  -0.02933  -0.02933   2.07263
   R12        2.10468  -0.00927   0.00000  -0.02821  -0.02821   2.07647
   R13        2.10222  -0.00971   0.00000  -0.02944  -0.02944   2.07278
   R14        2.10656  -0.01111   0.00000  -0.03393  -0.03393   2.07263
   R15        2.10646  -0.01109   0.00000  -0.03387  -0.03387   2.07260
   R16        2.10674  -0.01139   0.00000  -0.03479  -0.03479   2.07195
   R17        2.10658  -0.01110   0.00000  -0.03389  -0.03389   2.07269
   R18        2.10390  -0.01058   0.00000  -0.03216  -0.03216   2.07174
   R19        2.10596  -0.01117   0.00000  -0.03407  -0.03407   2.07189
    A1        1.89163  -0.00136   0.00000  -0.01096  -0.01095   1.88068
    A2        1.87619  -0.00058   0.00000  -0.00224  -0.00225   1.87394
    A3        1.94097   0.00016   0.00000   0.00014   0.00014   1.94111
    A4        1.88841  -0.00137   0.00000  -0.00669  -0.00675   1.88166
    A5        1.93150   0.00175   0.00000   0.00985   0.00982   1.94133
    A6        1.93321   0.00124   0.00000   0.00895   0.00891   1.94212
    A7        1.94382  -0.00107   0.00000  -0.01802  -0.01810   1.92571
    A8        1.88954   0.00077   0.00000   0.01673   0.01664   1.90618
    A9        1.90906   0.00047   0.00000   0.00275   0.00224   1.91130
   A10        1.88577   0.00023   0.00000   0.00208   0.00229   1.88806
   A11        1.94429  -0.00108   0.00000  -0.01815  -0.01824   1.92606
   A12        1.88963   0.00077   0.00000   0.01665   0.01657   1.90620
   A13        1.90462   0.00118   0.00000  -0.00528  -0.00489   1.89973
   A14        1.90404   0.00122   0.00000  -0.00500  -0.00462   1.89943
   A15        2.04173  -0.00970   0.00000  -0.04259  -0.04239   1.99934
   A16        1.86788  -0.00211   0.00000  -0.00833  -0.00902   1.85887
   A17        1.86884   0.00499   0.00000   0.03225   0.03183   1.90067
   A18        1.86927   0.00494   0.00000   0.03188   0.03147   1.90074
   A19        1.93943   0.00120   0.00000   0.00466   0.00459   1.94402
   A20        1.90473   0.00333   0.00000   0.02484   0.02466   1.92939
   A21        1.93823   0.00133   0.00000   0.00561   0.00553   1.94376
   A22        1.88475  -0.00175   0.00000  -0.00595  -0.00610   1.87864
   A23        1.91039  -0.00248   0.00000  -0.02367  -0.02365   1.88673
   A24        1.88470  -0.00178   0.00000  -0.00589  -0.00606   1.87864
   A25        1.93398   0.00176   0.00000   0.01109   0.01104   1.94502
   A26        1.93401   0.00176   0.00000   0.01108   0.01103   1.94504
   A27        1.93796   0.00073   0.00000   0.00337   0.00336   1.94132
   A28        1.88740  -0.00162   0.00000  -0.00784  -0.00792   1.87948
   A29        1.88423  -0.00143   0.00000  -0.00949  -0.00950   1.87472
   A30        1.88432  -0.00143   0.00000  -0.00951  -0.00952   1.87480
   A31        1.93308   0.00126   0.00000   0.00900   0.00896   1.94204
   A32        1.94072   0.00019   0.00000   0.00035   0.00035   1.94107
   A33        1.93143   0.00175   0.00000   0.00987   0.00984   1.94127
   A34        1.87645  -0.00061   0.00000  -0.00239  -0.00240   1.87405
   A35        1.88870  -0.00139   0.00000  -0.00684  -0.00690   1.88180
   A36        1.89156  -0.00137   0.00000  -0.01095  -0.01094   1.88062
    D1        1.15799  -0.00091   0.00000  -0.02323  -0.02321   1.13478
    D2       -3.05436  -0.00077   0.00000  -0.02083  -0.02087  -3.07524
    D3       -0.99880   0.00085   0.00000   0.01021   0.01023  -0.98857
    D4       -0.94557  -0.00048   0.00000  -0.01611  -0.01607  -0.96164
    D5        1.12526  -0.00034   0.00000  -0.01371  -0.01373   1.11153
    D6       -3.10236   0.00129   0.00000   0.01733   0.01737  -3.08499
    D7       -3.03995  -0.00072   0.00000  -0.02004  -0.02003  -3.05999
    D8       -0.96912  -0.00058   0.00000  -0.01764  -0.01769  -0.98682
    D9        1.08644   0.00105   0.00000   0.01340   0.01341   1.09985
   D10        3.08600  -0.00013   0.00000   0.00394   0.00371   3.08971
   D11        1.05076   0.00106   0.00000   0.01968   0.01971   1.07047
   D12       -1.07327   0.00048   0.00000   0.01193   0.01184  -1.06143
   D13        1.01291  -0.00059   0.00000  -0.00726  -0.00739   1.00553
   D14       -1.02232   0.00059   0.00000   0.00848   0.00861  -1.01371
   D15        3.13683   0.00001   0.00000   0.00073   0.00073   3.13757
   D16       -1.06057  -0.00105   0.00000  -0.01829  -0.01833  -1.07889
   D17       -3.09580   0.00014   0.00000  -0.00255  -0.00233  -3.09813
   D18        1.06335  -0.00045   0.00000  -0.01030  -0.01020   1.05315
   D19        3.12570   0.00056   0.00000   0.00886   0.00888   3.13458
   D20       -1.06222   0.00085   0.00000   0.01362   0.01368  -1.04854
   D21        1.03181   0.00071   0.00000   0.01122   0.01126   1.04307
   D22       -1.05019  -0.00014   0.00000  -0.00194  -0.00195  -1.05214
   D23        1.04508   0.00015   0.00000   0.00283   0.00285   1.04793
   D24        3.13911   0.00001   0.00000   0.00043   0.00043   3.13954
   D25        1.05774  -0.00085   0.00000  -0.01292  -0.01298   1.04476
   D26       -3.13017  -0.00056   0.00000  -0.00816  -0.00818  -3.13836
   D27       -1.03615  -0.00071   0.00000  -0.01056  -0.01060  -1.04674
   D28       -1.08222  -0.00106   0.00000  -0.01431  -0.01432  -1.09654
   D29        1.00310  -0.00086   0.00000  -0.01114  -0.01116   0.99194
   D30        3.10635  -0.00129   0.00000  -0.01809  -0.01813   3.08822
   D31        3.04446   0.00071   0.00000   0.01906   0.01905   3.06351
   D32       -1.15341   0.00090   0.00000   0.02223   0.02221  -1.13120
   D33        0.94985   0.00048   0.00000   0.01527   0.01524   0.96509
   D34        0.97328   0.00057   0.00000   0.01678   0.01683   0.99012
   D35        3.05860   0.00077   0.00000   0.01995   0.01999   3.07859
   D36       -1.12133   0.00034   0.00000   0.01300   0.01302  -1.10831
   D37        1.05628  -0.00069   0.00000  -0.01085  -0.01090   1.04539
   D38        3.13279   0.00000   0.00000   0.00039   0.00039   3.13318
   D39       -1.07467   0.00072   0.00000   0.01224   0.01230  -1.06237
   D40       -3.08443  -0.00185   0.00000  -0.02143  -0.02184  -3.10627
   D41       -1.00792  -0.00117   0.00000  -0.01018  -0.01055  -1.01847
   D42        1.06780  -0.00044   0.00000   0.00167   0.00135   1.06916
   D43       -1.08578   0.00046   0.00000  -0.00034  -0.00002  -1.08581
   D44        0.99073   0.00115   0.00000   0.01090   0.01126   1.00199
   D45        3.06645   0.00187   0.00000   0.02275   0.02317   3.08962
         Item               Value     Threshold  Converged?
 Maximum Force            0.011392     0.000450     NO 
 RMS     Force            0.004255     0.000300     NO 
 Maximum Displacement     0.186235     0.001800     NO 
 RMS     Displacement     0.047570     0.001200     NO 
 Predicted change in Energy=-3.356589D-03
 GradGradGradGradGradGradGradGradGradGradGradGradGradGradGradGradGradGrad

 Leave Link  103 at Mon Sep 14 19:12:38 2015, MaxMem=  402653184 cpu:       0.1
 (Enter /share/apps/g09/l202.exe)
                          Input orientation:                          
 ---------------------------------------------------------------------
 Center     Atomic      Atomic             Coordinates (Angstroms)
 Number     Number       Type             X           Y           Z
 ---------------------------------------------------------------------
      1          6           0        0.443931   -0.883758    1.291222
      2          1           0       -0.383802   -1.602512    1.302090
      3          1           0        0.357560   -0.260744    2.189260
      4          1           0        1.376055   -1.456624    1.368699
      5          6           0        0.420168   -0.028018    0.016394
      6          6           0       -0.841502    0.853080   -0.012922
      7          1           0       -0.807079    1.498102   -0.914207
      8          1           0       -0.823195    1.533609    0.862406
      9          6           0       -2.155676    0.078667   -0.009443
     10          1           0       -2.248323   -0.547805    0.886042
     11          1           0       -3.010268    0.769249   -0.022531
     12          1           0       -2.239402   -0.570456   -0.889641
     13          6           0        1.654615    0.898136    0.003228
     14          1           0        1.677716    1.522633   -0.898110
     15          1           0        1.663286    1.567047    0.872359
     16          1           0        2.585512    0.319263    0.025289
     17          6           0        0.461508   -0.942862   -1.216183
     18          1           0        1.392996   -1.520867   -1.251631
     19          1           0       -0.368222   -1.659361   -1.206449
     20          1           0        0.391223   -0.362580   -2.143770
 ---------------------------------------------------------------------
                    Distance matrix (angstroms):
                    1          2          3          4          5
     1  C    0.000000
     2  H    1.096298   0.000000
     3  H    1.096394   1.771166   0.000000
     4  H    1.096829   1.767149   1.772225   0.000000
     5  C    1.535591   2.185957   2.186190   2.187090   0.000000
     6  C    2.523833   2.822884   2.743713   3.487287   1.539157
     7  H    3.478822   3.834702   3.752524   4.325291   2.168225
     8  H    2.762816   3.197130   2.524763   3.746268   2.168032
     9  C    3.062017   2.772367   3.356464   4.090173   2.578182
    10  H    2.743222   2.182187   2.927697   3.767629   2.854349
    11  H    4.048440   3.778649   4.158747   5.111738   3.522079
    12  H    3.471973   3.051569   4.039773   4.353955   2.861547
    13  C    2.509946   3.477848   2.793581   2.736239   1.543307
    14  H    3.479384   4.342495   3.801987   3.755715   2.195966
    15  H    2.769245   3.797545   2.603838   3.077571   2.195963
    16  H    2.763370   3.760355   3.159581   2.534031   2.193035
    17  C    2.508163   2.737040   3.474642   2.789617   1.535544
    18  H    2.787961   3.112100   3.807856   2.621172   2.186979
    19  H    2.738524   2.509231   3.743492   3.116888   2.185905
    20  H    3.474704   3.743266   4.334357   3.808446   2.186110
                    6          7          8          9         10
     6  C    0.000000
     7  H    1.108852   0.000000
     8  H    1.108898   1.777041   0.000000
     9  C    1.525379   2.156875   2.156961   0.000000
    10  H    2.179394   3.082827   2.522664   1.096788   0.000000
    11  H    2.170406   2.486032   2.480050   1.098818   1.772201
    12  H    2.179269   2.516165   3.082596   1.096868   1.775850
    13  C    2.496577   2.694733   2.698436   3.897437   4.254766
    14  H    2.752875   2.484969   3.058446   4.191619   4.783691
    15  H    2.750898   3.049472   2.486726   4.192532   4.446738
    16  H    3.468552   3.712411   3.714120   4.747417   4.985847
    17  C    2.524100   2.767456   3.479066   3.057679   3.452334
    18  H    3.487550   3.750781   4.325560   4.085904   4.333093
    19  H    2.821499   3.201183   3.831738   2.765602   3.024708
    20  H    2.745533   2.531777   3.755986   3.352126   4.022595
                   11         12         13         14         15
    11  H    0.000000
    12  H    1.772265   0.000000
    13  C    4.666735   4.256448   0.000000
    14  H    4.828190   4.441273   1.096786   0.000000
    15  H    4.824875   4.785869   1.096771   1.771085   0.000000
    16  H    5.614048   4.990841   1.096426   1.767727   1.767765
    17  C    4.050847   2.745948   2.509929   2.767489   3.479357
    18  H    5.113125   3.772086   2.737643   3.077163   3.757606
    19  H    3.778917   2.188012   3.477927   3.795526   4.342600
    20  H    4.165433   2.921684   2.791982   2.600146   3.799821
                   16         17         18         19         20
    16  H    0.000000
    17  C    2.765069   0.000000
    18  H    2.537459   1.096820   0.000000
    19  H    3.762536   1.096320   1.767232   0.000000
    20  H    3.159846   1.096396   1.772311   1.771148   0.000000
 Stoichiometry    C6H14
 Framework group  C1[X(C6H14)]
 Deg. of freedom    54
 Full point group                 C1      NOp   1
 Largest Abelian subgroup         C1      NOp   1
 Largest concise Abelian subgroup C1      NOp   1
                         Standard orientation:                         
 ---------------------------------------------------------------------
 Center     Atomic      Atomic             Coordinates (Angstroms)
 Number     Number       Type             X           Y           Z
 ---------------------------------------------------------------------
      1          6           0        0.482173   -0.880997    1.258040
      2          1           0       -0.332506   -1.614580    1.262856
      3          1           0        0.393297   -0.276661    2.168512
      4          1           0        1.425033   -1.438386    1.316044
      5          6           0        0.431044   -0.001961   -0.000022
      6          6           0       -0.846319    0.856728   -0.000990
      7          1           0       -0.831965    1.519128   -0.890133
      8          1           0       -0.831776    1.520868    0.886907
      9          6           0       -2.146419    0.058907   -0.000148
     10          1           0       -2.219371   -0.585885    0.884084
     11          1           0       -3.013244    0.734151    0.007746
     12          1           0       -2.226972   -0.574920   -0.891716
     13          6           0        1.648643    0.946302   -0.006933
     14          1           0        1.652042    1.587979   -0.896415
     15          1           0        1.653699    1.598770    0.874636
     16          1           0        2.589856    0.383930   -0.004435
     17          6           0        0.476899   -0.892535   -1.250091
     18          1           0        1.418139   -1.452944   -1.305078
     19          1           0       -0.339826   -1.623878   -1.246348
     20          1           0        0.387468   -0.296240   -2.165797
 ---------------------------------------------------------------------
 Rotational constants (GHZ):      4.2874777      2.5238112      2.5155571
 Leave Link  202 at Mon Sep 14 19:12:39 2015, MaxMem=  402653184 cpu:       0.0
 (Enter /share/apps/g09/l301.exe)
 Standard basis: VSTO-6G (5D, 7F)
 Ernie: Thresh=  0.10000D-02 Tol=  0.10000D-05 Strict=F.
  NNHCO=     0 NNPyr=     0 NCTC=     0               EPep=         0.000000000
    EC=       134.288712114  ECS=         3.253880054   EG=         0.304743526
   EHC=         0.000473813  EAt=       -31.187935768  AtH=         2.796400831
 EPDDG=         0.000000000  ECC=       137.847809507 EAtT=        33.984336599
 There are    38 symmetry adapted basis functions of A   symmetry.
 Integral buffers will be    131072 words long.
 Regular integral format.
 Two-electron integral symmetry is turned off.
    38 basis functions,   228 primitive gaussians,    38 cartesian basis functions
    19 alpha electrons       19 beta electrons
       nuclear repulsion energy       171.8321461065 Hartrees.
 IExCor=    0 DFT=F Ex=HF Corr=None ExCW=0 ScaHFX=  1.000000
 ScaDFX=  1.000000  1.000000  1.000000  1.000000 ScalE2=  1.000000  1.000000
 IRadAn=      0 IRanWt=     -1 IRanGd=            0 ICorTp=0
 Leave Link  301 at Mon Sep 14 19:12:39 2015, MaxMem=  402653184 cpu:       0.1
 (Enter /share/apps/g09/l302.exe)
 Do NDO integrals.
 NPDir=0 NMtPBC=     1 NCelOv=     1 NCel=       1 NClECP=     1 NCelD=      1
         NCelK=      1 NCelE2=     1 NClLst=     1 CellRange=     0.0.
 One-electron integrals computed using PRISM.
 NBasis=    38 RedAO= F  NBF=    38
 NBsUse=    38 1.00D-04 NBFU=    38
 Leave Link  302 at Mon Sep 14 19:12:40 2015, MaxMem=  402653184 cpu:       0.2
 (Enter /share/apps/g09/l303.exe)
 DipDrv:  MaxL=1.
 Leave Link  303 at Mon Sep 14 19:12:40 2015, MaxMem=  402653184 cpu:       0.1
 (Enter /share/apps/g09/l401.exe)
 Initial guess read from the read-write file.
 B after Tr=     0.000000    0.000000    0.000000
         Rot=    1.000000    0.000000    0.000000    0.000000 Ang=   0.00 deg.
 Guess basis will be translated and rotated to current coordinates.
 Initial guess orbital symmetries:
       Occupied  (A) (A) (A) (A) (A) (A) (A) (A) (A) (A) (A) (A)
                 (A) (A) (A) (A) (A) (A) (A)
       Virtual   (A) (A) (A) (A) (A) (A) (A) (A) (A) (A) (A) (A)
                 (A) (A) (A) (A) (A) (A) (A)
 The electronic state of the initial guess is 1-A.
 Leave Link  401 at Mon Sep 14 19:12:40 2015, MaxMem=  402653184 cpu:       0.2
 (Enter /share/apps/g09/l502.exe)
 Closed shell SCF:
 Requested convergence on RMS density matrix=1.00D-08 within 128 cycles.
 Requested convergence on MAX density matrix=1.00D-06.
 Requested convergence on             energy=1.00D-06.
 No special actions if energy rises.
 Using DIIS extrapolation, IDIIS=  1040.
 Overlap will be assumed to be unity.
 Two-electron integral symmetry not used.
 Keep J ints in memory in canonical form, NReq=884654.
 IEnd=       81865 IEndB=       81865 NGot=   402653184 MDV=   402586639
 LenX=   402586639 LenY=   402584754
 Symmetry not used in FoFDir.
 MinBra= 0 MaxBra= 1 Meth=40.
 IRaf=       0 NMat=   1 IRICut=       1 DoRegI=T DoRafI=F ISym2E= 0 JSym2E=0.

 Cycle   1  Pass 1  IDiag  1:
 E=-0.525861216853514E-01
 DIIS: error= 7.06D-03 at cycle   1 NSaved=   1.
 NSaved= 1 IEnMin= 1 EnMin=-0.525861216853514E-01 IErMin= 1 ErrMin= 7.06D-03
 ErrMax= 7.06D-03 EMaxC= 1.00D-01 BMatC= 1.70D-03 BMatP= 1.70D-03
 IDIUse=3 WtCom= 9.29D-01 WtEn= 7.06D-02
 Coeff-Com:  0.100D+01
 Coeff-En:   0.100D+01
 Coeff:      0.100D+01
 GapD=    2.000 DampG=2.000 DampE=1.000 DampFc=2.0000 IDamp=-1.
 RMSDP=2.00D-03 MaxDP=1.49D-02              OVMax= 0.00D+00

 Cycle   2  Pass 1  IDiag  3:
 E=-0.587500342368799E-01 Delta-E=       -0.006163912552 Rises=F Damp=F
 DIIS: error= 3.11D-03 at cycle   2 NSaved=   2.
 NSaved= 2 IEnMin= 2 EnMin=-0.587500342368799E-01 IErMin= 2 ErrMin= 3.11D-03
 ErrMax= 3.11D-03 EMaxC= 1.00D-01 BMatC= 2.84D-04 BMatP= 1.70D-03
 IDIUse=3 WtCom= 9.69D-01 WtEn= 3.11D-02
 Coeff-Com: -0.629D+00 0.163D+01
 Coeff-En:   0.000D+00 0.100D+01
 Coeff:     -0.609D+00 0.161D+01
 Gap=     0.557 Goal=   None    Shift=    0.000
 RMSDP=1.40D-03 MaxDP=1.07D-02 DE=-6.16D-03 OVMax= 0.00D+00

 Cycle   3  Pass 1  IDiag  3:
 E=-0.601236468741604E-01 Delta-E=       -0.001373612637 Rises=F Damp=F
 DIIS: error= 3.76D-04 at cycle   3 NSaved=   3.
 NSaved= 3 IEnMin= 3 EnMin=-0.601236468741604E-01 IErMin= 3 ErrMin= 3.76D-04
 ErrMax= 3.76D-04 EMaxC= 1.00D-01 BMatC= 4.35D-06 BMatP= 2.84D-04
 IDIUse=3 WtCom= 9.96D-01 WtEn= 3.76D-03
 Coeff-Com:  0.217D+00-0.641D+00 0.142D+01
 Coeff-En:   0.000D+00 0.000D+00 0.100D+01
 Coeff:      0.216D+00-0.639D+00 0.142D+01
 Gap=     0.557 Goal=   None    Shift=    0.000
 RMSDP=1.89D-04 MaxDP=1.44D-03 DE=-1.37D-03 OVMax= 0.00D+00

 Cycle   4  Pass 1  IDiag  3:
 E=-0.601454068803662E-01 Delta-E=       -0.000021760006 Rises=F Damp=F
 DIIS: error= 3.22D-05 at cycle   4 NSaved=   4.
 NSaved= 4 IEnMin= 4 EnMin=-0.601454068803662E-01 IErMin= 4 ErrMin= 3.22D-05
 ErrMax= 3.22D-05 EMaxC= 1.00D-01 BMatC= 6.98D-08 BMatP= 4.35D-06
 IDIUse=1 WtCom= 1.00D+00 WtEn= 0.00D+00
 Coeff-Com: -0.863D-01 0.257D+00-0.608D+00 0.144D+01
 Coeff:     -0.863D-01 0.257D+00-0.608D+00 0.144D+01
 Gap=     0.557 Goal=   None    Shift=    0.000
 RMSDP=2.16D-05 MaxDP=1.45D-04 DE=-2.18D-05 OVMax= 0.00D+00

 Cycle   5  Pass 1  IDiag  3:
 E=-0.601457867289241E-01 Delta-E=       -0.000000379849 Rises=F Damp=F
 DIIS: error= 1.21D-05 at cycle   5 NSaved=   5.
 NSaved= 5 IEnMin= 5 EnMin=-0.601457867289241E-01 IErMin= 5 ErrMin= 1.21D-05
 ErrMax= 1.21D-05 EMaxC= 1.00D-01 BMatC= 7.78D-09 BMatP= 6.98D-08
 IDIUse=1 WtCom= 1.00D+00 WtEn= 0.00D+00
 Coeff-Com:  0.499D-01-0.149D+00 0.356D+00-0.102D+01 0.176D+01
 Coeff:      0.499D-01-0.149D+00 0.356D+00-0.102D+01 0.176D+01
 Gap=     0.557 Goal=   None    Shift=    0.000
 RMSDP=9.93D-06 MaxDP=9.35D-05 DE=-3.80D-07 OVMax= 0.00D+00

 Cycle   6  Pass 1  IDiag  3:
 E=-0.601458450778694E-01 Delta-E=       -0.000000058349 Rises=F Damp=F
 DIIS: error= 3.62D-06 at cycle   6 NSaved=   6.
 NSaved= 6 IEnMin= 6 EnMin=-0.601458450778694E-01 IErMin= 6 ErrMin= 3.62D-06
 ErrMax= 3.62D-06 EMaxC= 1.00D-01 BMatC= 8.73D-10 BMatP= 7.78D-09
 IDIUse=1 WtCom= 1.00D+00 WtEn= 0.00D+00
 Coeff-Com: -0.273D-01 0.811D-01-0.195D+00 0.580D+00-0.126D+01 0.182D+01
 Coeff:     -0.273D-01 0.811D-01-0.195D+00 0.580D+00-0.126D+01 0.182D+01
 Gap=     0.557 Goal=   None    Shift=    0.000
 RMSDP=3.98D-06 MaxDP=4.56D-05 DE=-5.83D-08 OVMax= 0.00D+00

 Cycle   7  Pass 1  IDiag  3:
 E=-0.601458524920417E-01 Delta-E=       -0.000000007414 Rises=F Damp=F
 DIIS: error= 1.05D-06 at cycle   7 NSaved=   7.
 NSaved= 7 IEnMin= 7 EnMin=-0.601458524920417E-01 IErMin= 7 ErrMin= 1.05D-06
 ErrMax= 1.05D-06 EMaxC= 1.00D-01 BMatC= 7.32D-11 BMatP= 8.73D-10
 IDIUse=1 WtCom= 1.00D+00 WtEn= 0.00D+00
 Coeff-Com:  0.917D-02-0.273D-01 0.655D-01-0.198D+00 0.467D+00-0.916D+00
 Coeff-Com:  0.160D+01
 Coeff:      0.917D-02-0.273D-01 0.655D-01-0.198D+00 0.467D+00-0.916D+00
 Coeff:      0.160D+01
 Gap=     0.557 Goal=   None    Shift=    0.000
 RMSDP=1.10D-06 MaxDP=1.23D-05 DE=-7.41D-09 OVMax= 0.00D+00

 Cycle   8  Pass 1  IDiag  3:
 E=-0.601458530767047E-01 Delta-E=       -0.000000000585 Rises=F Damp=F
 DIIS: error= 3.16D-07 at cycle   8 NSaved=   8.
 NSaved= 8 IEnMin= 8 EnMin=-0.601458530767047E-01 IErMin= 8 ErrMin= 3.16D-07
 ErrMax= 3.16D-07 EMaxC= 1.00D-01 BMatC= 5.94D-12 BMatP= 7.32D-11
 IDIUse=1 WtCom= 1.00D+00 WtEn= 0.00D+00
 Coeff-Com: -0.166D-02 0.493D-02-0.119D-01 0.363D-01-0.949D-01 0.229D+00
 Coeff-Com: -0.667D+00 0.151D+01
 Coeff:     -0.166D-02 0.493D-02-0.119D-01 0.363D-01-0.949D-01 0.229D+00
 Coeff:     -0.667D+00 0.151D+01
 Gap=     0.557 Goal=   None    Shift=    0.000
 RMSDP=3.00D-07 MaxDP=2.91D-06 DE=-5.85D-10 OVMax= 0.00D+00

 Cycle   9  Pass 1  IDiag  3:
 E=-0.601458531216394E-01 Delta-E=       -0.000000000045 Rises=F Damp=F
 DIIS: error= 1.15D-07 at cycle   9 NSaved=   9.
 NSaved= 9 IEnMin= 9 EnMin=-0.601458531216394E-01 IErMin= 9 ErrMin= 1.15D-07
 ErrMax= 1.15D-07 EMaxC= 1.00D-01 BMatC= 6.67D-13 BMatP= 5.94D-12
 IDIUse=1 WtCom= 1.00D+00 WtEn= 0.00D+00
 Coeff-Com:  0.354D-03-0.105D-02 0.253D-02-0.806D-02 0.249D-01-0.753D-01
 Coeff-Com:  0.309D+00-0.100D+01 0.175D+01
 Coeff:      0.354D-03-0.105D-02 0.253D-02-0.806D-02 0.249D-01-0.753D-01
 Coeff:      0.309D+00-0.100D+01 0.175D+01
 Gap=     0.557 Goal=   None    Shift=    0.000
 RMSDP=9.68D-08 MaxDP=1.19D-06 DE=-4.49D-11 OVMax= 0.00D+00

 Cycle  10  Pass 1  IDiag  3:
 E=-0.601458531266132E-01 Delta-E=       -0.000000000005 Rises=F Damp=F
 DIIS: error= 4.08D-08 at cycle  10 NSaved=  10.
 NSaved=10 IEnMin=10 EnMin=-0.601458531266132E-01 IErMin=10 ErrMin= 4.08D-08
 ErrMax= 4.08D-08 EMaxC= 1.00D-01 BMatC= 5.48D-14 BMatP= 6.67D-13
 IDIUse=1 WtCom= 1.00D+00 WtEn= 0.00D+00
 Coeff-Com: -0.341D-04 0.981D-04-0.248D-03 0.986D-03-0.528D-02 0.231D-01
 Coeff-Com: -0.125D+00 0.463D+00-0.106D+01 0.170D+01
 Coeff:     -0.341D-04 0.981D-04-0.248D-03 0.986D-03-0.528D-02 0.231D-01
 Coeff:     -0.125D+00 0.463D+00-0.106D+01 0.170D+01
 Gap=     0.557 Goal=   None    Shift=    0.000
 RMSDP=3.04D-08 MaxDP=3.84D-07 DE=-4.97D-12 OVMax= 0.00D+00

 Cycle  11  Pass 1  IDiag  3:
 E=-0.601458531272385E-01 Delta-E=       -0.000000000001 Rises=F Damp=F
 DIIS: error= 6.63D-09 at cycle  11 NSaved=  11.
 NSaved=11 IEnMin=11 EnMin=-0.601458531272385E-01 IErMin=11 ErrMin= 6.63D-09
 ErrMax= 6.63D-09 EMaxC= 1.00D-01 BMatC= 2.40D-15 BMatP= 5.48D-14
 IDIUse=1 WtCom= 1.00D+00 WtEn= 0.00D+00
 Coeff-Com:  0.251D-05-0.597D-05 0.203D-04-0.181D-03 0.175D-02-0.899D-02
 Coeff-Com:  0.527D-01-0.201D+00 0.485D+00-0.930D+00 0.160D+01
 Coeff:      0.251D-05-0.597D-05 0.203D-04-0.181D-03 0.175D-02-0.899D-02
 Coeff:      0.527D-01-0.201D+00 0.485D+00-0.930D+00 0.160D+01
 Gap=     0.557 Goal=   None    Shift=    0.000
 RMSDP=5.58D-09 MaxDP=6.03D-08 DE=-6.25D-13 OVMax= 0.00D+00

 Cycle  12  Pass 2  IDiag  1:
 RMSDP=5.58D-09 MaxDP=6.03D-08 DE=-6.25D-13 OVMax= 0.00D+00

 SCF Done:  E(RPM6) = -0.601458531272E-01 A.U. after   12 cycles
             Convg  =    0.5576D-08             -V/T =  0.9989
 KE=-5.647623186101D+01 PE=-2.643493280537D+02 EE= 1.489332679551D+02
 Leave Link  502 at Mon Sep 14 19:12:46 2015, MaxMem=  402653184 cpu:       3.2
 (Enter /share/apps/g09/l701.exe)
 Compute integral first derivatives.
 ... and contract with generalized density number  0.
 Leave Link  701 at Mon Sep 14 19:12:46 2015, MaxMem=  402653184 cpu:       0.1
 (Enter /share/apps/g09/l702.exe)
 L702 exits ... SP integral derivatives will be done elsewhere.
 Leave Link  702 at Mon Sep 14 19:12:47 2015, MaxMem=  402653184 cpu:       0.0
 (Enter /share/apps/g09/l703.exe)
 Compute integral first derivatives, UseDBF=F ICtDFT=           0.
 Integral derivatives from FoFDir, PRISM(SPDF).
 Calling FoFJK, ICntrl=      2127 FMM=F ISym2X=0 I1Cent= 0 IOpClX= 0 NMat=1 NMatS=1 NMatT=0.
 FoFCou: FMM=F IPFlag=           0 FMFlag=      100000 FMFlg1=         800
         NFxFlg=           0 DoJE=F BraDBF=F KetDBF=F FulRan=T
         Omega=  0.000000  0.000000  1.000000  0.000000  0.000000 ICntrl=    2127 IOpCl=  0
         NMat0=    1 NMatS0=    1 NMatT0=    0 NMatD0=    1 NMtDS0=    0 NMtDT0=    0
         I1Cent=           0 NGrid=           0.
 Symmetry not used in FoFCou.
 Leave Link  703 at Mon Sep 14 19:12:49 2015, MaxMem=  402653184 cpu:       0.0
 (Enter /share/apps/g09/l716.exe)
 Dipole        = 1.32026950D-03-1.12018977D-02 8.17069141D-05
 ***** Axes restored to original set *****
 -------------------------------------------------------------------
 Center     Atomic                   Forces (Hartrees/Bohr)
 Number     Number              X              Y              Z
 -------------------------------------------------------------------
      1        6           0.001576131   -0.002061553    0.003245549
      2        1           0.000626950    0.000391144    0.000688598
      3        1           0.000237973   -0.001250664   -0.000458280
      4        1          -0.001133648    0.000540685    0.000432994
      5        6           0.004268295   -0.002042225    0.000071261
      6        6          -0.005476767    0.005327779   -0.000142841
      7        1          -0.000291425    0.000946179    0.000945322
      8        1          -0.000273307    0.000906169   -0.001004267
      9        6          -0.001851010    0.000982118   -0.000056571
     10        1          -0.000619613   -0.000114688   -0.000876793
     11        1           0.000690559   -0.001484600    0.000015582
     12        1          -0.000631870   -0.000078680    0.000916489
     13        6           0.001715303    0.001232993   -0.000017347
     14        1           0.000301140   -0.000749188    0.001242748
     15        1           0.000325888   -0.000813796   -0.001189609
     16        1          -0.000851279    0.000832202   -0.000030078
     17        6           0.001613106   -0.002202916   -0.003120331
     18        1          -0.001120395    0.000525599   -0.000486990
     19        1           0.000671201    0.000342661   -0.000696870
     20        1           0.000222769   -0.001229221    0.000521436
 -------------------------------------------------------------------
 Cartesian Forces:  Max     0.005476767 RMS     0.001570829
 Leave Link  716 at Mon Sep 14 19:12:51 2015, MaxMem=  402653184 cpu:       0.1
 (Enter /share/apps/g09/l103.exe)

 GradGradGradGradGradGradGradGradGradGradGradGradGradGradGradGradGradGrad
 Berny optimization.
 Using GEDIIS/GDIIS optimizer.
 Internal  Forces:  Max     0.010645231 RMS     0.001398735
 Search for a local minimum.
 Step number   2 out of a maximum of  110
 All quantities printed in internal units (Hartrees-Bohrs-Radians)
 RMS Force = .13987D-02 SwitMx=.10000D-02 MixMth= 1
 Mixed Optimization -- RFO/linear search
 Update second derivatives using D2CorX and points    1    2
 DE= -3.18D-03 DEPred=-3.36D-03 R= 9.49D-01
 SS=  1.41D+00  RLast= 1.77D-01 DXNew= 5.0454D-01 5.3207D-01
 Trust test= 9.49D-01 RLast= 1.77D-01 DXMaxT set to 5.05D-01
 Use linear search instead of GDIIS.
     Eigenvalues ---    0.00230   0.00230   0.00230   0.00230   0.00336
     Eigenvalues ---    0.03298   0.04604   0.04727   0.04871   0.04960
     Eigenvalues ---    0.05342   0.05377   0.05382   0.05383   0.05396
     Eigenvalues ---    0.05399   0.05425   0.05544   0.08693   0.12410
     Eigenvalues ---    0.14265   0.14494   0.15043   0.16000   0.16000
     Eigenvalues ---    0.16000   0.16000   0.16000   0.16000   0.16000
     Eigenvalues ---    0.16000   0.16000   0.16000   0.16026   0.21417
     Eigenvalues ---    0.25414   0.27796   0.27954   0.28076   0.29137
     Eigenvalues ---    0.31993   0.32010   0.32094   0.32101   0.32102
     Eigenvalues ---    0.32106   0.32123   0.32137   0.32192   0.32208
     Eigenvalues ---    0.32252   0.32319   0.32351   0.382631000.00000
     Eigenvalues --- 1000.000001000.000001000.000001000.000001000.00000
     Eigenvalues --- 1000.000001000.000001000.000001000.000001000.00000
     Eigenvalues --- 1000.000001000.000001000.000001000.000001000.00000
     Eigenvalues --- 1000.000001000.000001000.000001000.000001000.00000
     Eigenvalues --- 1000.000001000.000001000.000001000.000001000.00000
     Eigenvalues --- 1000.000001000.000001000.000001000.000001000.00000
     Eigenvalues --- 1000.000001000.000001000.000001000.000001000.00000
     Eigenvalues --- 1000.000001000.000001000.000001000.000001000.00000
     Eigenvalues --- 1000.000001000.000001000.000001000.000001000.00000
 RFO step:  Lambda=-7.85308721D-04 EMin= 2.29996931D-03
 Quartic linear search produced a step of -0.03191.
 Iteration  1 RMS(Cart)=  0.01544552 RMS(Int)=  0.00005784
 Iteration  2 RMS(Cart)=  0.00006848 RMS(Int)=  0.00001054
 Iteration  3 RMS(Cart)=  0.00000000 RMS(Int)=  0.00001054
 Variable       Old X    -DE/DX   Delta X   Delta X   Delta X     New X
                                 (Linear)    (Quad)   (Total)
    R1        2.07170  -0.00072   0.00102  -0.00713  -0.00611   2.06560
    R2        2.07188  -0.00110   0.00109  -0.00858  -0.00750   2.06439
    R3        2.07271  -0.00122   0.00108  -0.00889  -0.00781   2.06489
    R4        2.90185   0.00459   0.00057   0.01300   0.01357   2.91542
    R5        2.90859   0.01065   0.00110   0.03264   0.03374   2.94233
    R6        2.91643   0.00149   0.00020   0.00420   0.00440   2.92083
    R7        2.90176   0.00460   0.00057   0.01304   0.01361   2.91537
    R8        2.09543  -0.00023   0.00041  -0.00267  -0.00226   2.09317
    R9        2.09551  -0.00024   0.00042  -0.00275  -0.00233   2.09318
   R10        2.88255   0.00243   0.00043   0.00594   0.00637   2.88892
   R11        2.07263  -0.00060   0.00094  -0.00632  -0.00539   2.06724
   R12        2.07647  -0.00147   0.00090  -0.00877  -0.00787   2.06859
   R13        2.07278  -0.00064   0.00094  -0.00647  -0.00553   2.06725
   R14        2.07263  -0.00144   0.00108  -0.00958  -0.00850   2.06412
   R15        2.07260  -0.00144   0.00108  -0.00956  -0.00848   2.06412
   R16        2.07195  -0.00116   0.00111  -0.00888  -0.00777   2.06417
   R17        2.07269  -0.00121   0.00108  -0.00889  -0.00781   2.06488
[...]
 ! D9    D(4,1,5,17)            61.216          -DE/DX =    0.0                 !
 ! D10   D(1,5,6,7)            176.507          -DE/DX =    0.0                 !
 ! D11   D(1,5,6,8)             61.6924         -DE/DX =    0.0                 !
 ! D12   D(1,5,6,9)            -60.9046         -DE/DX =    0.0                 !
 ! D13   D(13,5,6,7)            57.3284         -DE/DX =    0.0                 !
 ! D14   D(13,5,6,8)           -57.4863         -DE/DX =    0.0                 !
 ! D15   D(13,5,6,9)           179.9168         -DE/DX =    0.0                 !
 ! D16   D(17,5,6,7)           -61.8527         -DE/DX =    0.0                 !
 ! D17   D(17,5,6,8)          -176.6673         -DE/DX =    0.0                 !
 ! D18   D(17,5,6,9)            60.7357         -DE/DX =    0.0                 !
 ! D19   D(1,5,13,14)          179.5416         -DE/DX =    0.0                 !
 ! D20   D(1,5,13,15)          -59.9871         -DE/DX =    0.0                 !
 ! D21   D(1,5,13,16)           59.7776         -DE/DX =    0.0                 !
 ! D22   D(6,5,13,14)          -60.2543         -DE/DX =    0.0                 !
 ! D23   D(6,5,13,15)           60.217          -DE/DX =    0.0                 !
 ! D24   D(6,5,13,16)          179.9818         -DE/DX =    0.0                 !
 ! D25   D(17,5,13,14)          59.9534         -DE/DX =    0.0                 !
 ! D26   D(17,5,13,15)        -179.5753         -DE/DX =    0.0                 !
 ! D27   D(17,5,13,16)         -59.8105         -DE/DX =    0.0                 !
 ! D28   D(1,5,17,18)          -61.3244         -DE/DX =    0.0                 !
 ! D29   D(1,5,17,19)           58.5222         -DE/DX =    0.0                 !
 ! D30   D(1,5,17,20)          178.5436         -DE/DX =    0.0                 !
 ! D31   D(6,5,17,18)          176.4856         -DE/DX =    0.0                 !
 ! D32   D(6,5,17,19)          -63.6678         -DE/DX =    0.0                 !
 ! D33   D(6,5,17,20)           56.3536         -DE/DX =    0.0                 !
 ! D34   D(13,5,17,18)          57.8331         -DE/DX =    0.0                 !
 ! D35   D(13,5,17,19)         177.6797         -DE/DX =    0.0                 !
 ! D36   D(13,5,17,20)         -62.2989         -DE/DX =    0.0                 !
 ! D37   D(5,6,9,10)            59.9306         -DE/DX =    0.0                 !
 ! D38   D(5,6,9,11)           179.7556         -DE/DX =    0.0                 !
 ! D39   D(5,6,9,12)           -60.4212         -DE/DX =    0.0                 !
 ! D40   D(7,6,9,10)          -177.6307         -DE/DX =    0.0                 !
 ! D41   D(7,6,9,11)           -57.8057         -DE/DX =    0.0                 !
 ! D42   D(7,6,9,12)            62.0175         -DE/DX =    0.0                 !
 ! D43   D(8,6,9,10)           -62.5127         -DE/DX =    0.0                 !
 ! D44   D(8,6,9,11)            57.3124         -DE/DX =    0.0                 !
 ! D45   D(8,6,9,12)           177.1356         -DE/DX =    0.0                 !
 --------------------------------------------------------------------------------
 GradGradGradGradGradGradGradGradGradGradGradGradGradGradGradGradGradGrad

 Largest change from initial coordinates is atom    4       0.010 Angstoms.
 Leave Link  103 at Mon Sep 14 19:13:36 2015, MaxMem=  402653184 cpu:       0.1
 (Enter /share/apps/g09/l202.exe)
                          Input orientation:                          
 ---------------------------------------------------------------------
 Center     Atomic      Atomic             Coordinates (Angstroms)
 Number     Number       Type             X           Y           Z
 ---------------------------------------------------------------------
      1          6           0        0.451822   -0.887292    1.295207
      2          1           0       -0.386837   -1.590185    1.325721
      3          1           0        0.392947   -0.266436    2.194200
      4          1           0        1.372904   -1.474562    1.359088
      5          6           0        0.420198   -0.030393    0.016152
      6          6           0       -0.852966    0.858598   -0.014058
      7          1           0       -0.817030    1.507355   -0.910612
      8          1           0       -0.831868    1.546040    0.853682
      9          6           0       -2.166825    0.082414   -0.008200
     10          1           0       -2.263128   -0.543382    0.886366
     11          1           0       -3.024369    0.764245   -0.025997
     12          1           0       -2.251962   -0.575466   -0.880577
     13          6           0        1.653985    0.898676    0.004140
     14          1           0        1.678490    1.523378   -0.893614
     15          1           0        1.664691    1.564557    0.872069
     16          1           0        2.584315    0.322585    0.024845
     17          6           0        0.471047   -0.945371   -1.221338
     18          1           0        1.393667   -1.533238   -1.244972
     19          1           0       -0.366180   -1.650532   -1.231213
     20          1           0        0.424200   -0.366790   -2.148788
 ---------------------------------------------------------------------
                    Distance matrix (angstroms):
                    1          2          3          4          5
     1  C    0.000000
     2  H    1.094687   0.000000
     3  H    1.094128   1.764832   0.000000
     4  H    1.094239   1.763851   1.765587   0.000000
     5  C    1.539889   2.190714   2.190970   2.190149   0.000000
     6  C    2.542593   2.829986   2.773878   3.504806   1.553115
     7  H    3.494275   3.844607   3.774948   4.340413   2.180434
     8  H    2.786380   3.202622   2.565586   3.773659   2.180429
     9  C    3.081641   2.783037   3.394804   4.101626   2.589596
    10  H    2.767016   2.193012   2.973527   3.783027   2.867171
    11  H    4.069037   3.785111   4.203526   5.125109   3.535290
    12  H    3.484497   3.062041   4.067591   4.354783   2.870830
    13  C    2.510325   3.479362   2.782816   2.747208   1.544520
    14  H    3.479509   4.345721   3.793501   3.762406   2.196628
    15  H    2.767971   3.790378   2.591891   3.091695   2.196639
    16  H    2.761367   3.765463   3.139290   2.545085   2.192731
    17  C    2.517289   2.763920   3.483239   2.784240   1.539854
    18  H    2.785108   3.127602   3.799227   2.604804   2.190118
    19  H    2.763053   2.557728   3.771663   3.124906   2.190698
    20  H    3.483215   3.771828   4.344260   3.798999   2.190923
                    6          7          8          9         10
     6  C    0.000000
     7  H    1.107243   0.000000
     8  H    1.107246   1.764780   0.000000
     9  C    1.526014   2.160266   2.160359   0.000000
    10  H    2.182857   3.086398   2.532836   1.095967   0.000000
    11  H    2.173485   2.491406   2.488393   1.095715   1.766857
    12  H    2.182793   2.529442   3.086278   1.095946   1.767270
    13  C    2.507338   2.704288   2.705599   3.907048   4.266337
    14  H    2.761127   2.495629   3.058669   4.200807   4.793347
    15  H    2.760833   3.056168   2.496695   4.201444   4.457732
    16  H    3.479041   3.721277   3.722113   4.757321   4.998982
    17  C    2.542605   2.787751   3.494342   3.080002   3.475589
    18  H    3.504766   3.774146   4.340427   4.100858   4.346788
    19  H    2.830929   3.205979   3.844701   2.782298   3.050956
    20  H    2.773049   2.566350   3.775110   3.390769   4.057718
                   11         12         13         14         15
    11  H    0.000000
    12  H    1.766847   0.000000
    13  C    4.680382   4.267580   0.000000
    14  H    4.842099   4.455756   1.093991   0.000000
    15  H    4.840899   4.794960   1.093990   1.766217   0.000000
    16  H    5.626277   5.001586   1.094451   1.762382   1.762383
    17  C    4.070572   2.769065   2.510309   2.767678   3.479494
    18  H    5.126731   3.786914   2.746316   3.089899   3.761868
    19  H    3.788095   2.198837   3.479314   3.790561   4.345691
    20  H    4.204535   2.968796   2.783680   2.592574   3.794008
                   16         17         18         19         20
    16  H    0.000000
    17  C    2.761628   0.000000
    18  H    2.544436   1.094245   0.000000
    19  H    3.765142   1.094668   1.763805   0.000000
    20  H    3.141021   1.094127   1.765601   1.764834   0.000000
 Stoichiometry    C6H14
 Framework group  C1[X(C6H14)]
 Deg. of freedom    54
 Full point group                 C1      NOp   1
 Largest Abelian subgroup         C1      NOp   1
 Largest concise Abelian subgroup C1      NOp   1
                         Standard orientation:                         
 ---------------------------------------------------------------------
 Center     Atomic      Atomic             Coordinates (Angstroms)
 Number     Number       Type             X           Y           Z
 ---------------------------------------------------------------------
      1          6           0        0.495821   -0.885984    1.258952
      2          1           0       -0.325070   -1.609868    1.280578
      3          1           0        0.429859   -0.287148    2.172276
      4          1           0        1.431543   -1.451632    1.301699
      5          6           0        0.431716   -0.001572   -0.000002
      6          6           0       -0.863051    0.856182    0.000738
      7          1           0       -0.851080    1.525632   -0.881124
      8          1           0       -0.850978    1.524244    0.883655
      9          6           0       -2.157408    0.047876    0.000066
     10          1           0       -2.230305   -0.600070    0.880972
     11          1           0       -3.031513    0.708564    0.005000
     12          1           0       -2.234263   -0.592116   -0.886276
     13          6           0        1.642230    0.957697   -0.001334
     14          1           0        1.643351    1.602849   -0.884846
     15          1           0        1.644443    1.603949    0.881371
     16          1           0        2.586533    0.404421   -0.001575
     17          6           0        0.493807   -0.886949   -1.258336
     18          1           0        1.430292   -1.451187   -1.303105
     19          1           0       -0.325961   -1.612156   -1.277149
     20          1           0        0.424463   -0.288985   -2.171979
 ---------------------------------------------------------------------
 Rotational constants (GHZ):      4.2633552      2.5031032      2.4954729
 Leave Link  202 at Mon Sep 14 19:13:38 2015, MaxMem=  402653184 cpu:       0.0
 (Enter /share/apps/g09/l601.exe)
 Copying SCF densities to generalized density rwf, IOpCl= 0 IROHF=0.

 **********************************************************************

            Population analysis using the SCF density.

 **********************************************************************

 Orbital symmetries:
       Occupied  (A) (A) (A) (A) (A) (A) (A) (A) (A) (A) (A) (A)
                 (A) (A) (A) (A) (A) (A) (A)
       Virtual   (A) (A) (A) (A) (A) (A) (A) (A) (A) (A) (A) (A)
                 (A) (A) (A) (A) (A) (A) (A)
 The electronic state is 1-A.
 Alpha  occ. eigenvalues --   -1.07272  -0.95309  -0.88392  -0.88256  -0.79240
 Alpha  occ. eigenvalues --   -0.66627  -0.57057  -0.56579  -0.54150  -0.52535
 Alpha  occ. eigenvalues --   -0.49593  -0.47749  -0.47302  -0.46054  -0.45902
 Alpha  occ. eigenvalues --   -0.43563  -0.41346  -0.40924  -0.40164
 Alpha virt. eigenvalues --    0.15473   0.16172   0.16353   0.18154   0.18414
 Alpha virt. eigenvalues --    0.21404   0.22199   0.22400   0.22428   0.22681
 Alpha virt. eigenvalues --    0.22739   0.22827   0.22881   0.23364   0.24762
 Alpha virt. eigenvalues --    0.25549   0.26019   0.26563   0.26663
          Condensed to atoms (all electrons):
              1          2          3          4          5          6
     1  C    4.528078   0.000000   0.000000   0.000000   0.000000   0.000000
     2  H    0.000000   0.846337   0.000000   0.000000   0.000000   0.000000
     3  H    0.000000   0.000000   0.848408   0.000000   0.000000   0.000000
     4  H    0.000000   0.000000   0.000000   0.848846   0.000000   0.000000
     5  C    0.000000   0.000000   0.000000   0.000000   3.728347   0.000000
     6  C    0.000000   0.000000   0.000000   0.000000   0.000000   4.295115
     7  H    0.000000   0.000000   0.000000   0.000000   0.000000   0.000000
     8  H    0.000000   0.000000   0.000000   0.000000   0.000000   0.000000
     9  C    0.000000   0.000000   0.000000   0.000000   0.000000   0.000000
    10  H    0.000000   0.000000   0.000000   0.000000   0.000000   0.000000
    11  H    0.000000   0.000000   0.000000   0.000000   0.000000   0.000000
    12  H    0.000000   0.000000   0.000000   0.000000   0.000000   0.000000
    13  C    0.000000   0.000000   0.000000   0.000000   0.000000   0.000000
    14  H    0.000000   0.000000   0.000000   0.000000   0.000000   0.000000
    15  H    0.000000   0.000000   0.000000   0.000000   0.000000   0.000000
    16  H    0.000000   0.000000   0.000000   0.000000   0.000000   0.000000
    17  C    0.000000   0.000000   0.000000   0.000000   0.000000   0.000000
    18  H    0.000000   0.000000   0.000000   0.000000   0.000000   0.000000
    19  H    0.000000   0.000000   0.000000   0.000000   0.000000   0.000000
    20  H    0.000000   0.000000   0.000000   0.000000   0.000000   0.000000
              7          8          9         10         11         12
     1  C    0.000000   0.000000   0.000000   0.000000   0.000000   0.000000
     2  H    0.000000   0.000000   0.000000   0.000000   0.000000   0.000000
     3  H    0.000000   0.000000   0.000000   0.000000   0.000000   0.000000
     4  H    0.000000   0.000000   0.000000   0.000000   0.000000   0.000000
     5  C    0.000000   0.000000   0.000000   0.000000   0.000000   0.000000
     6  C    0.000000   0.000000   0.000000   0.000000   0.000000   0.000000
     7  H    0.867745   0.000000   0.000000   0.000000   0.000000   0.000000
     8  H    0.000000   0.867746   0.000000   0.000000   0.000000   0.000000
     9  C    0.000000   0.000000   4.446119   0.000000   0.000000   0.000000
    10  H    0.000000   0.000000   0.000000   0.855335   0.000000   0.000000
    11  H    0.000000   0.000000   0.000000   0.000000   0.860795   0.000000
    12  H    0.000000   0.000000   0.000000   0.000000   0.000000   0.855376
    13  C    0.000000   0.000000   0.000000   0.000000   0.000000   0.000000
    14  H    0.000000   0.000000   0.000000   0.000000   0.000000   0.000000
    15  H    0.000000   0.000000   0.000000   0.000000   0.000000   0.000000
    16  H    0.000000   0.000000   0.000000   0.000000   0.000000   0.000000
    17  C    0.000000   0.000000   0.000000   0.000000   0.000000   0.000000
    18  H    0.000000   0.000000   0.000000   0.000000   0.000000   0.000000
    19  H    0.000000   0.000000   0.000000   0.000000   0.000000   0.000000
    20  H    0.000000   0.000000   0.000000   0.000000   0.000000   0.000000
             13         14         15         16         17         18
     1  C    0.000000   0.000000   0.000000   0.000000   0.000000   0.000000
     2  H    0.000000   0.000000   0.000000   0.000000   0.000000   0.000000
     3  H    0.000000   0.000000   0.000000   0.000000   0.000000   0.000000
     4  H    0.000000   0.000000   0.000000   0.000000   0.000000   0.000000
     5  C    0.000000   0.000000   0.000000   0.000000   0.000000   0.000000
     6  C    0.000000   0.000000   0.000000   0.000000   0.000000   0.000000
     7  H    0.000000   0.000000   0.000000   0.000000   0.000000   0.000000
     8  H    0.000000   0.000000   0.000000   0.000000   0.000000   0.000000
     9  C    0.000000   0.000000   0.000000   0.000000   0.000000   0.000000
    10  H    0.000000   0.000000   0.000000   0.000000   0.000000   0.000000
    11  H    0.000000   0.000000   0.000000   0.000000   0.000000   0.000000
    12  H    0.000000   0.000000   0.000000   0.000000   0.000000   0.000000
    13  C    4.538639   0.000000   0.000000   0.000000   0.000000   0.000000
    14  H    0.000000   0.847856   0.000000   0.000000   0.000000   0.000000
    15  H    0.000000   0.000000   0.847861   0.000000   0.000000   0.000000
    16  H    0.000000   0.000000   0.000000   0.845762   0.000000   0.000000
    17  C    0.000000   0.000000   0.000000   0.000000   4.528056   0.000000
    18  H    0.000000   0.000000   0.000000   0.000000   0.000000   0.848862
    19  H    0.000000   0.000000   0.000000   0.000000   0.000000   0.000000
    20  H    0.000000   0.000000   0.000000   0.000000   0.000000   0.000000
             19         20
     1  C    0.000000   0.000000
     2  H    0.000000   0.000000
     3  H    0.000000   0.000000
     4  H    0.000000   0.000000
     5  C    0.000000   0.000000
     6  C    0.000000   0.000000
     7  H    0.000000   0.000000
     8  H    0.000000   0.000000
     9  C    0.000000   0.000000
    10  H    0.000000   0.000000
    11  H    0.000000   0.000000
    12  H    0.000000   0.000000
    13  C    0.000000   0.000000
    14  H    0.000000   0.000000
    15  H    0.000000   0.000000
    16  H    0.000000   0.000000
    17  C    0.000000   0.000000
    18  H    0.000000   0.000000
    19  H    0.846314   0.000000
    20  H    0.000000   0.848406
 Mulliken atomic charges:
              1
     1  C   -0.528078
     2  H    0.153663
     3  H    0.151592
     4  H    0.151154
     5  C    0.271653
     6  C   -0.295115
     7  H    0.132255
     8  H    0.132254
     9  C   -0.446119
    10  H    0.144665
    11  H    0.139205
    12  H    0.144624
    13  C   -0.538639
    14  H    0.152144
    15  H    0.152139
    16  H    0.154238
    17  C   -0.528056
    18  H    0.151138
    19  H    0.153686
    20  H    0.151594
 Sum of Mulliken atomic charges =   0.00000
 Mulliken charges with hydrogens summed into heavy atoms:
              1
     1  C   -0.071668
     5  C    0.271653
     6  C   -0.030605
     9  C   -0.017625
    13  C   -0.080117
    17  C   -0.071638
 Sum of Mulliken charges with hydrogens summed into heavy atoms =   0.00000
 Charge=              0.0000 electrons
 Dipole moment (field-independent basis, Debye):
    X=              0.0116    Y=             -0.0380    Z=             -0.0001  Tot=              0.0397
 N-N= 1.715308538793D+02 E-N=-2.637541790096D+02  KE=-5.646807801720D+01
 Leave Link  601 at Mon Sep 14 19:13:45 2015, MaxMem=  402653184 cpu:       0.0
 (Enter /share/apps/g09/l9999.exe)
 1\1\GINC-COMPUTE-0-2\FOpt\RPM6\ZDO\C6H14\HETANJIN\14-Sep-2015\0\\#p PM
 6 opt\\using PM6 to do opt and freq calc.\\0,1\C,0.4518220209,-0.88729
 21491,1.295207212\H,-0.3868367276,-1.5901854942,1.3257205519\H,0.39294
 66675,-0.2664359061,2.1941998479\H,1.3729044732,-1.4745623746,1.359088
 4077\C,0.4201983263,-0.0303932346,0.0161519655\C,-0.8529662667,0.85859
 75946,-0.0140579093\H,-0.8170296932,1.5073549451,-0.9106121473\H,-0.83
 18682351,1.5460403585,0.853681584\C,-2.1668250591,0.0824143567,-0.0082
 002011\H,-2.2631280426,-0.5433817121,0.8863658871\H,-3.0243691972,0.76
 42453204,-0.0259972897\H,-2.2519617348,-0.5754664148,-0.8805772918\C,1
 .6539850298,0.8986758981,0.0041399834\H,1.6784897021,1.5233775621,-0.8
 936142323\H,1.6646905161,1.5645574652,0.8720691902\H,2.5843150235,0.32
 2584808,0.024844782\C,0.4710466049,-0.9453712442,-1.2213378461\H,1.393
 6665701,-1.5332376431,-1.244971851\H,-0.3661803776,-1.6505318886,-1.23
 12125128\H,0.4242003995,-0.3667902474,-2.1487881303\\Version=EM64L-G09
 RevA.01\State=1-A\HF=-0.0604313\RMSD=4.097e-09\RMSF=1.583e-05\Dipole=0
 .0041918,-0.0150529,0.0003442\PG=C01 [X(C6H14)]\\@


 You can't act like a skunk without someone's getting wind of it.
 -- Lorene Workman
 Job cpu time:  0 days  0 hours  0 minutes 13.5 seconds.
 File lengths (MBytes):  RWF=      5 Int=      0 D2E=      0 Chk=      3 Scr=      1
 Normal termination of Gaussian 09 at Mon Sep 14 19:13:45 2015.
