 Entering Gaussian System, Link 0=/home/hetanjin/apps/g09D01/g09/g09
 Input=C6H14_1_r004_C14_2_opt_B3L.gjf
 Output=C6H14_1_r004_C14_2_opt_B3L.log
 Initial command:
 /home/hetanjin/apps/g09D01/g09/l1.exe "/state/partition1/Gau-1211.inp" -scrdir="/state/partition1/"
 Entering Link 1 = /home/hetanjin/apps/g09D01/g09/l1.exe PID=      1213.
  
 Copyright (c) 1988,1990,1992,1993,1995,1998,2003,2009,2013,
            Gaussian, Inc.  All Rights Reserved.
  
 This is part of the Gaussian(R) 09 program.  It is based on
 the Gaussian(R) 03 system (copyright 2003, Gaussian, Inc.),
 the Gaussian(R) 98 system (copyright 1998, Gaussian, Inc.),
 the Gaussian(R) 94 system (copyright 1995, Gaussian, Inc.),
 the Gaussian 92(TM) system (copyright 1992, Gaussian, Inc.),
 the Gaussian 90(TM) system (copyright 1990, Gaussian, Inc.),
 the Gaussian 88(TM) system (copyright 1988, Gaussian, Inc.),
 the Gaussian 86(TM) system (copyright 1986, Carnegie Mellon
 University), and the Gaussian 82(TM) system (copyright 1983,
 Carnegie Mellon University). Gaussian is a federally registered
 trademark of Gaussian, Inc.
  
 This software contains proprietary and confidential information,
 including trade secrets, belonging to Gaussian, Inc.
  
 This software is provided under written license and may be
 used, copied, transmitted, or stored only in accord with that
 written license.
  
 The following legend is applicable only to US Government
 contracts under FAR:
  
                    RESTRICTED RIGHTS LEGEND
  
 Use, reproduction and disclosure by the US Government is
 subject to restrictions as set forth in subparagraphs (a)
 and (c) of the Commercial Computer Software - Restricted
 Rights clause in FAR 52.227-19.
  
 Gaussian, Inc.
 340 Quinnipiac St., Bldg. 40, Wallingford CT 06492
  
  
 ---------------------------------------------------------------
 Warning -- This program may not be used in any manner that
 competes with the business of Gaussian, Inc. or will provide
 assistance to any competitor of Gaussian, Inc.  The licensee
 of this program is prohibited from giving any competitor of
 Gaussian, Inc. access to this program.  By using this program,
 the user acknowledges that Gaussian, Inc. is engaged in the
 business of creating and licensing software in the field of
 computational chemistry and represents and warrants to the
 licensee that it is not a competitor of Gaussian, Inc. and that
 it will not use this program in any manner prohibited above.
 ---------------------------------------------------------------
  

 Cite this work as:
 Gaussian 09, Revision D.01,
 M. J. Frisch, G. W. Trucks, H. B. Schlegel, G. E. Scuseria, 
 M. A. Robb, J. R. Cheeseman, G. Scalmani, V. Barone, B. Mennucci, 
 G. A. Petersson, H. Nakatsuji, M. Caricato, X. Li, H. P. Hratchian, 
 A. F. Izmaylov, J. Bloino, G. Zheng, J. L. Sonnenberg, M. Hada, 
 M. Ehara, K. Toyota, R. Fukuda, J. Hasegawa, M. Ishida, T. Nakajima, 
 Y. Honda, O. Kitao, H. Nakai, T. Vreven, J. A. Montgomery, Jr., 
 J. E. Peralta, F. Ogliaro, M. Bearpark, J. J. Heyd, E. Brothers, 
 K. N. Kudin, V. N. Staroverov, T. Keith, R. Kobayashi, J. Normand, 
 K. Raghavachari, A. Rendell, J. C. Burant, S. S. Iyengar, J. Tomasi, 
 M. Cossi, N. Rega, J. M. Millam, M. Klene, J. E. Knox, J. B. Cross, 
 V. Bakken, C. Adamo, J. Jaramillo, R. Gomperts, R. E. Stratmann, 
 O. Yazyev, A. J. Austin, R. Cammi, C. Pomelli, J. W. Ochterski, 
 R. L. Martin, K. Morokuma, V. G. Zakrzewski, G. A. Voth, 
 P. Salvador, J. J. Dannenberg, S. Dapprich, A. D. Daniels, 
 O. Farkas, J. B. Foresman, J. V. Ortiz, J. Cioslowski, 
 and D. J. Fox, Gaussian, Inc., Wallingford CT, 2013.
 
 ******************************************
 Gaussian 09:  ES64L-G09RevD.01 24-Apr-2013
                 7-Nov-2015 
 ******************************************
 %mem=6GB
 %nprocshared=4
 Will use up to    4 processors via shared memory.
 ----------------------------------------------
 #p B3LYP/6-31G(d) opt=tight int=ultrafine freq
 ----------------------------------------------
 1/7=10,14=-1,18=20,19=15,26=4,38=1/1,3;
 2/9=110,12=2,17=6,18=5,40=1/2;
 3/5=1,6=6,7=1,11=2,16=1,25=1,30=1,71=1,74=-5,75=-5/1,2,3;
 4//1;
 5/5=2,38=5/2;
 6/7=2,8=2,9=2,10=2,28=1/1;
 7//1,2,3,16;
 1/7=10,14=-1,18=20,19=15,26=4/3(2);
 2/9=110/2;
 99//99;
 2/9=110/2;
 3/5=1,6=6,7=1,11=2,16=1,25=1,30=1,71=1,74=-5,75=-5/1,2,3;
 4/5=5,16=3,69=1/1;
 5/5=2,38=5/2;
 7//1,2,3,16;
 1/7=10,14=-1,18=20,19=15,26=4/3(-5);
 2/9=110/2;
 6/7=2,8=2,9=2,10=2,19=2,28=1/1;
 99/9=1/99;
 Leave Link    1 at Sat Nov  7 01:56:32 2015, MaxMem=   805306368 cpu:         0.3
 (Enter /home/hetanjin/apps/g09D01/g09/l101.exe)
 ---------------------------------------------
 using B3LYP/6-31G(d) to do opt and freq calc.
 ---------------------------------------------
 Symbolic Z-matrix:
 Charge =  0 Multiplicity = 2
 C                    -1.41423   2.90508   0. 
 H                    -0.9005    3.3015   -0.8846 
 H                    -0.9005    3.3015    0.8846 
 H                    -2.43424   3.30628   0. 
 C                    -1.41423   1.37295   0. 
 H                    -1.9654    1.00688   0.878 
 H                    -1.9654    1.00688  -0.878 
 C                    -0.00489   0.76692   0. 
 H                     0.54683   1.1341    0.87848 
 H                     0.54683   1.1341   -0.87848 
 C                     0.00489  -0.76692   0. 
 H                    -0.54683  -1.1341   -0.87848 
 H                    -0.54683  -1.1341    0.87848 
 C                     1.41423  -1.37295   0. 
 H                     1.9654   -1.00688  -0.878 
 C                     1.41423  -2.90508   0. 
 H                     0.9005   -3.3015   -0.8846 
 H                     2.43424  -3.30628   0. 
 H                     0.9005   -3.3015    0.8846 
 
 NAtoms=     19 NQM=       19 NQMF=       0 NMMI=      0 NMMIF=      0
                NMic=       0 NMicF=      0.
                    Isotopes and Nuclear Properties:
 (Nuclear quadrupole moments (NQMom) in fm**2, nuclear magnetic moments (NMagM)
  in nuclear magnetons)

  Atom         1           2           3           4           5           6           7           8           9          10
 IAtWgt=          12           1           1           1          12           1           1          12           1           1
 AtmWgt=  12.0000000   1.0078250   1.0078250   1.0078250  12.0000000   1.0078250   1.0078250  12.0000000   1.0078250   1.0078250
 NucSpn=           0           1           1           1           0           1           1           0           1           1
 AtZEff=   0.0000000   0.0000000   0.0000000   0.0000000   0.0000000   0.0000000   0.0000000   0.0000000   0.0000000   0.0000000
 NQMom=    0.0000000   0.0000000   0.0000000   0.0000000   0.0000000   0.0000000   0.0000000   0.0000000   0.0000000   0.0000000
 NMagM=    0.0000000   2.7928460   2.7928460   2.7928460   0.0000000   2.7928460   2.7928460   0.0000000   2.7928460   2.7928460
 AtZNuc=   6.0000000   1.0000000   1.0000000   1.0000000   6.0000000   1.0000000   1.0000000   6.0000000   1.0000000   1.0000000

  Atom        11          12          13          14          15          16          17          18          19
 IAtWgt=          12           1           1          12           1          12           1           1           1
 AtmWgt=  12.0000000   1.0078250   1.0078250  12.0000000   1.0078250  12.0000000   1.0078250   1.0078250   1.0078250
 NucSpn=           0           1           1           0           1           0           1           1           1
 AtZEff=   0.0000000   0.0000000   0.0000000   0.0000000   0.0000000   0.0000000   0.0000000   0.0000000   0.0000000
 NQMom=    0.0000000   0.0000000   0.0000000   0.0000000   0.0000000   0.0000000   0.0000000   0.0000000   0.0000000
 NMagM=    0.0000000   2.7928460   2.7928460   0.0000000   2.7928460   0.0000000   2.7928460   2.7928460   2.7928460
 AtZNuc=   6.0000000   1.0000000   1.0000000   6.0000000   1.0000000   6.0000000   1.0000000   1.0000000   1.0000000
 Leave Link  101 at Sat Nov  7 01:56:32 2015, MaxMem=   805306368 cpu:         0.6
 (Enter /home/hetanjin/apps/g09D01/g09/l103.exe)

 GradGradGradGradGradGradGradGradGradGradGradGradGradGradGradGradGradGrad
 Berny optimization.
 Initialization pass.
                           ----------------------------
                           !    Initial Parameters    !
                           ! (Angstroms and Degrees)  !
 --------------------------                            --------------------------
 ! Name  Definition              Value          Derivative Info.                !
 --------------------------------------------------------------------------------
 ! R1    R(1,2)                  1.0971         estimate D2E/DX2                !
 ! R2    R(1,3)                  1.0971         estimate D2E/DX2                !
 ! R3    R(1,4)                  1.0961         estimate D2E/DX2                !
 ! R4    R(1,5)                  1.5321         estimate D2E/DX2                !
 ! R5    R(5,6)                  1.0994         estimate D2E/DX2                !
 ! R6    R(5,7)                  1.0994         estimate D2E/DX2                !
 ! R7    R(5,8)                  1.5341         estimate D2E/DX2                !
 ! R8    R(8,9)                  1.1004         estimate D2E/DX2                !
 ! R9    R(8,10)                 1.1004         estimate D2E/DX2                !
 ! R10   R(8,11)                 1.5339         estimate D2E/DX2                !
 ! R11   R(11,12)                1.1004         estimate D2E/DX2                !
 ! R12   R(11,13)                1.1004         estimate D2E/DX2                !
 ! R13   R(11,14)                1.5341         estimate D2E/DX2                !
 ! R14   R(14,15)                1.0994         estimate D2E/DX2                !
 ! R15   R(14,16)                1.5321         estimate D2E/DX2                !
 ! R16   R(16,17)                1.0971         estimate D2E/DX2                !
 ! R17   R(16,18)                1.0961         estimate D2E/DX2                !
 ! R18   R(16,19)                1.0971         estimate D2E/DX2                !
 ! A1    A(2,1,3)              107.4766         estimate D2E/DX2                !
 ! A2    A(2,1,4)              107.6687         estimate D2E/DX2                !
 ! A3    A(2,1,5)              111.1823         estimate D2E/DX2                !
 ! A4    A(3,1,4)              107.6687         estimate D2E/DX2                !
 ! A5    A(3,1,5)              111.1823         estimate D2E/DX2                !
 ! A6    A(4,1,5)              111.4711         estimate D2E/DX2                !
 ! A7    A(1,5,6)              109.4494         estimate D2E/DX2                !
 ! A8    A(1,5,7)              109.4494         estimate D2E/DX2                !
 ! A9    A(1,5,8)              113.2685         estimate D2E/DX2                !
 ! A10   A(6,5,7)              105.9962         estimate D2E/DX2                !
 ! A11   A(6,5,8)              109.2096         estimate D2E/DX2                !
 ! A12   A(7,5,8)              109.2096         estimate D2E/DX2                !
 ! A13   A(5,8,9)              109.1945         estimate D2E/DX2                !
 ! A14   A(5,8,10)             109.1945         estimate D2E/DX2                !
 ! A15   A(5,8,11)             113.634          estimate D2E/DX2                !
 ! A16   A(9,8,10)             105.9372         estimate D2E/DX2                !
 ! A17   A(9,8,11)             109.2971         estimate D2E/DX2                !
 ! A18   A(10,8,11)            109.2971         estimate D2E/DX2                !
 ! A19   A(8,11,12)            109.2971         estimate D2E/DX2                !
 ! A20   A(8,11,13)            109.2971         estimate D2E/DX2                !
 ! A21   A(8,11,14)            113.634          estimate D2E/DX2                !
 ! A22   A(12,11,13)           105.9372         estimate D2E/DX2                !
 ! A23   A(12,11,14)           109.1945         estimate D2E/DX2                !
 ! A24   A(13,11,14)           109.1945         estimate D2E/DX2                !
 ! A25   A(11,14,15)           109.2096         estimate D2E/DX2                !
 ! A26   A(11,14,16)           113.2685         estimate D2E/DX2                !
 ! A27   A(15,14,16)           109.4494         estimate D2E/DX2                !
 ! A28   A(14,16,17)           111.1823         estimate D2E/DX2                !
 ! A29   A(14,16,18)           111.4711         estimate D2E/DX2                !
 ! A30   A(14,16,19)           111.1823         estimate D2E/DX2                !
 ! A31   A(17,16,18)           107.6687         estimate D2E/DX2                !
 ! A32   A(17,16,19)           107.4766         estimate D2E/DX2                !
 ! A33   A(18,16,19)           107.6687         estimate D2E/DX2                !
 ! D1    D(2,1,5,6)           -178.0268         estimate D2E/DX2                !
 ! D2    D(2,1,5,7)            -62.2647         estimate D2E/DX2                !
 ! D3    D(2,1,5,8)             59.8542         estimate D2E/DX2                !
 ! D4    D(3,1,5,6)             62.2647         estimate D2E/DX2                !
 ! D5    D(3,1,5,7)            178.0268         estimate D2E/DX2                !
 ! D6    D(3,1,5,8)            -59.8542         estimate D2E/DX2                !
 ! D7    D(4,1,5,6)            -57.881          estimate D2E/DX2                !
 ! D8    D(4,1,5,7)             57.881          estimate D2E/DX2                !
 ! D9    D(4,1,5,8)            180.0            estimate D2E/DX2                !
 ! D10   D(1,5,8,9)             57.7038         estimate D2E/DX2                !
 ! D11   D(1,5,8,10)           -57.7038         estimate D2E/DX2                !
 ! D12   D(1,5,8,11)           180.0            estimate D2E/DX2                !
 ! D13   D(6,5,8,9)            -64.5489         estimate D2E/DX2                !
 ! D14   D(6,5,8,10)          -179.9565         estimate D2E/DX2                !
 ! D15   D(6,5,8,11)            57.7473         estimate D2E/DX2                !
 ! D16   D(7,5,8,9)            179.9565         estimate D2E/DX2                !
 ! D17   D(7,5,8,10)            64.5489         estimate D2E/DX2                !
 ! D18   D(7,5,8,11)           -57.7473         estimate D2E/DX2                !
 ! D19   D(5,8,11,12)           57.7606         estimate D2E/DX2                !
 ! D20   D(5,8,11,13)          -57.7606         estimate D2E/DX2                !
 ! D21   D(5,8,11,14)          180.0            estimate D2E/DX2                !
 ! D22   D(9,8,11,12)          180.0            estimate D2E/DX2                !
 ! D23   D(9,8,11,13)           64.4789         estimate D2E/DX2                !
 ! D24   D(9,8,11,14)          -57.7606         estimate D2E/DX2                !
 ! D25   D(10,8,11,12)         -64.4789         estimate D2E/DX2                !
 ! D26   D(10,8,11,13)         180.0            estimate D2E/DX2                !
 ! D27   D(10,8,11,14)          57.7606         estimate D2E/DX2                !
 ! D28   D(8,11,14,15)         -57.7473         estimate D2E/DX2                !
 ! D29   D(8,11,14,16)         180.0            estimate D2E/DX2                !
 ! D30   D(12,11,14,15)         64.5489         estimate D2E/DX2                !
 ! D31   D(12,11,14,16)        -57.7038         estimate D2E/DX2                !
 ! D32   D(13,11,14,15)        179.9565         estimate D2E/DX2                !
 ! D33   D(13,11,14,16)         57.7038         estimate D2E/DX2                !
 ! D34   D(11,14,16,17)         59.8542         estimate D2E/DX2                !
 ! D35   D(11,14,16,18)        180.0            estimate D2E/DX2                !
 ! D36   D(11,14,16,19)        -59.8542         estimate D2E/DX2                !
 ! D37   D(15,14,16,17)        -62.2647         estimate D2E/DX2                !
 ! D38   D(15,14,16,18)         57.881          estimate D2E/DX2                !
 ! D39   D(15,14,16,19)        178.0268         estimate D2E/DX2                !
 --------------------------------------------------------------------------------
 Trust Radius=3.00D-01 FncErr=1.00D-07 GrdErr=1.00D-06
 Number of steps in this run=    100 maximum allowed number of steps=    114.
 GradGradGradGradGradGradGradGradGradGradGradGradGradGradGradGradGradGrad

 Leave Link  103 at Sat Nov  7 01:56:32 2015, MaxMem=   805306368 cpu:         0.1
 (Enter /home/hetanjin/apps/g09D01/g09/l202.exe)
                          Input orientation:                          
 ---------------------------------------------------------------------
 Center     Atomic      Atomic             Coordinates (Angstroms)
 Number     Number       Type             X           Y           Z
 ---------------------------------------------------------------------
      1          6           0       -1.414227    2.905083    0.000000
      2          1           0       -0.900497    3.301499   -0.884602
      3          1           0       -0.900497    3.301499    0.884602
      4          1           0       -2.434236    3.306282    0.000000
      5          6           0       -1.414227    1.372954    0.000000
      6          1           0       -1.965398    1.006883    0.877995
      7          1           0       -1.965398    1.006883   -0.877995
      8          6           0       -0.004893    0.766918    0.000000
      9          1           0        0.546827    1.134100    0.878477
     10          1           0        0.546827    1.134100   -0.878477
     11          6           0        0.004893   -0.766918    0.000000
     12          1           0       -0.546827   -1.134100   -0.878477
     13          1           0       -0.546827   -1.134100    0.878477
     14          6           0        1.414227   -1.372954    0.000000
     15          1           0        1.965398   -1.006883   -0.877995
     16          6           0        1.414227   -2.905083    0.000000
     17          1           0        0.900497   -3.301499   -0.884602
     18          1           0        2.434236   -3.306282    0.000000
     19          1           0        0.900497   -3.301499    0.884602
 ---------------------------------------------------------------------
                    Distance matrix (angstroms):
                    1          2          3          4          5
     1  C    0.000000
     2  H    1.097080   0.000000
     3  H    1.097080   1.769204   0.000000
     4  H    1.096074   1.770565   1.770565   0.000000
     5  C    1.532129   2.183054   2.183054   2.185904   0.000000
     6  H    2.162829   3.083184   2.529688   2.505578   1.099397
     7  H    2.162829   2.529688   3.083184   2.505578   1.099397
     8  C    2.560854   2.829970   2.829970   3.514268   1.534113
     9  H    2.784571   3.146556   2.606224   3.791679   2.162061
    10  H    2.784571   2.606224   3.146556   3.791679   2.162061
    11  C    3.936686   4.260783   4.260783   4.747663   2.567675
    12  H    4.223636   4.449681   4.786237   4.904185   2.794535
    13  H    4.223636   4.786237   4.449681   4.904185   2.794535
    14  C    5.128523   5.290650   5.290650   6.058541   3.942101
    15  H    5.243684   5.174510   5.466467   6.223427   4.225679
    16  C    6.462057   6.682973   6.682973   7.306964   5.128523
    17  H    6.682973   6.844206   7.069176   7.454243   5.290650
    18  H    7.306964   7.454243   7.454243   8.211457   6.058541
    19  H    6.682973   7.069176   6.844206   7.454243   5.290650
                    6          7          8          9         10
     6  H    0.000000
     7  H    1.755990   0.000000
     8  C    2.161490   2.161490   0.000000
     9  H    2.515444   3.068005   1.100427   0.000000
    10  H    3.068005   2.515444   1.100427   1.756954   0.000000
    11  C    2.792721   2.792721   1.533867   2.163165   2.163165
    12  H    3.111486   2.568298   2.163165   3.070456   2.518097
    13  H    2.568298   3.111486   2.163165   2.518097   3.070456
    14  C    4.225679   4.225679   2.567675   2.794535   2.794535
    15  H    4.752885   4.416606   2.792721   3.111486   2.568298
    16  C    5.243684   5.243684   3.936686   4.223636   4.223636
    17  H    5.466467   5.174510   4.260783   4.786237   4.449681
    18  H    6.223427   6.223427   4.747663   4.904185   4.904185
    19  H    5.174510   5.466467   4.260783   4.449681   4.786237
                   11         12         13         14         15
    11  C    0.000000
    12  H    1.100427   0.000000
    13  H    1.100427   1.756954   0.000000
    14  C    1.534113   2.162061   2.162061   0.000000
    15  H    2.161490   2.515444   3.068005   1.099397   0.000000
    16  C    2.560854   2.784571   2.784571   1.532129   2.162829
    17  H    2.829970   2.606224   3.146556   2.183054   2.529688
    18  H    3.514268   3.791679   3.791679   2.185904   2.505578
    19  H    2.829970   3.146556   2.606224   2.183054   3.083184
                   16         17         18         19
    16  C    0.000000
    17  H    1.097080   0.000000
    18  H    1.096074   1.770565   0.000000
    19  H    1.097080   1.769204   1.770565   0.000000
 Stoichiometry    C6H13(2)
 Framework group  C1[X(C6H13)]
 Deg. of freedom    51
 Full point group                 C1      NOp   1
 Largest Abelian subgroup         C1      NOp   1
 Largest concise Abelian subgroup C1      NOp   1
                         Standard orientation:                         
 ---------------------------------------------------------------------
 Center     Atomic      Atomic             Coordinates (Angstroms)
 Number     Number       Type             X           Y           Z
 ---------------------------------------------------------------------
      1          6           0       -3.188663   -0.202613   -0.020810
      2          1           0       -3.279168   -0.942272    0.784359
      3          1           0       -3.290624   -0.737947   -0.972969
      4          1           0       -4.035590    0.487845    0.064991
      5          6           0       -1.850304    0.539145    0.056709
      6          1           0       -1.804487    1.295824   -0.739538
      7          1           0       -1.793116    1.093025    1.004665
      8          6           0       -0.634950   -0.389820   -0.059225
      9          1           0       -0.692844   -0.944658   -1.007772
     10          1           0       -0.681468   -1.147569    0.737388
     11          6           0        0.709663    0.344277    0.017364
     12          1           0        0.767557    0.899115    0.965911
     13          1           0        0.756181    1.102026   -0.779249
     14          6           0        1.925017   -0.584688   -0.098571
     15          1           0        1.879200   -1.341367    0.697677
     16          6           0        3.263376    0.157070   -0.021051
     17          1           0        3.365338    0.692404    0.931108
     18          1           0        4.110303   -0.533387   -0.106852
     19          1           0        3.353882    0.896729   -0.826220
 ---------------------------------------------------------------------
 Rotational constants (GHZ):     15.6119818      1.1359639      1.0980432
 Leave Link  202 at Sat Nov  7 01:56:32 2015, MaxMem=   805306368 cpu:         0.1
 (Enter /home/hetanjin/apps/g09D01/g09/l301.exe)
 Standard basis: 6-31G(d) (6D, 7F)
 Ernie: Thresh=  0.10000D-02 Tol=  0.10000D-05 Strict=F.
 There are   116 symmetry adapted cartesian basis functions of A   symmetry.
 There are   116 symmetry adapted basis functions of A   symmetry.
   116 basis functions,   220 primitive gaussians,   116 cartesian basis functions
    25 alpha electrons       24 beta electrons
       nuclear repulsion energy       232.6515188283 Hartrees.
 IExCor=  402 DFT=T Ex+Corr=B3LYP ExCW=0 ScaHFX=  0.200000
 ScaDFX=  0.800000  0.720000  1.000000  0.810000 ScalE2=  1.000000  1.000000
 IRadAn=      5 IRanWt=     -1 IRanGd=            0 ICorTp=0 IEmpDi=  4
 NAtoms=   19 NActive=   19 NUniq=   19 SFac= 1.00D+00 NAtFMM=   60 NAOKFM=F Big=F
 Integral buffers will be    131072 words long.
 Raffenetti 2 integral format.
 Two-electron integral symmetry is turned on.
 Leave Link  301 at Sat Nov  7 01:56:33 2015, MaxMem=   805306368 cpu:         0.1
 (Enter /home/hetanjin/apps/g09D01/g09/l302.exe)
 NPDir=0 NMtPBC=     1 NCelOv=     1 NCel=       1 NClECP=     1 NCelD=      1
         NCelK=      1 NCelE2=     1 NClLst=     1 CellRange=     0.0.
 One-electron integrals computed using PRISM.
 NBasis=   116 RedAO= T EigKep=  3.45D-03  NBF=   116
 NBsUse=   116 1.00D-06 EigRej= -1.00D+00 NBFU=   116
 Precomputing XC quadrature grid using
 IXCGrd= 4 IRadAn=           5 IRanWt=          -1 IRanGd=           0 AccXCQ= 0.00D+00.
 Generated NRdTot=       0 NPtTot=           0 NUsed=           0 NTot=          32
 NSgBfM=   116   116   116   116   116 MxSgAt=    19 MxSgA2=    19.
 Leave Link  302 at Sat Nov  7 01:56:33 2015, MaxMem=   805306368 cpu:         2.0
 (Enter /home/hetanjin/apps/g09D01/g09/l303.exe)
 DipDrv:  MaxL=1.
 Leave Link  303 at Sat Nov  7 01:56:33 2015, MaxMem=   805306368 cpu:         0.2
 (Enter /home/hetanjin/apps/g09D01/g09/l401.exe)
 ExpMin= 1.61D-01 ExpMax= 3.05D+03 ExpMxC= 4.57D+02 IAcc=3 IRadAn=         5 AccDes= 0.00D+00
 Harris functional with IExCor=  402 and IRadAn=       5 diagonalized for initial guess.
 HarFok:  IExCor=  402 AccDes= 0.00D+00 IRadAn=         5 IDoV= 1 UseB2=F ITyADJ=14
 ICtDFT=  3500011 ScaDFX=  1.000000  1.000000  1.000000  1.000000
 FoFCou: FMM=F IPFlag=           0 FMFlag=      100000 FMFlg1=           0
         NFxFlg=           0 DoJE=T BraDBF=F KetDBF=T FulRan=T
         wScrn=  0.000000 ICntrl=     500 IOpCl=  0 I1Cent=   200000004 NGrid=           0
         NMat0=    1 NMatS0=      1 NMatT0=    0 NMatD0=    1 NMtDS0=    0 NMtDT0=    0
 Petite list used in FoFCou.
 Harris En= -236.453866361902    
 JPrj=0 DoOrth=F DoCkMO=F.
 Initial guess <Sx>= 0.0000 <Sy>= 0.0000 <Sz>= 0.5000 <S**2>= 0.7500 S= 0.5000
 Leave Link  401 at Sat Nov  7 01:56:36 2015, MaxMem=   805306368 cpu:         8.6
 (Enter /home/hetanjin/apps/g09D01/g09/l502.exe)
 UHF open shell SCF:
 Using DIIS extrapolation, IDIIS=  1040.
 Integral symmetry usage will be decided dynamically.
 Keep R1 and R2 ints in memory in canonical form, NReq=47059932.
 IVT=       60514 IEndB=       60514 NGot=   805306368 MDV=   759189273
 LenX=   759189273 LenY=   759175376
 Requested convergence on RMS density matrix=1.00D-08 within 128 cycles.
 Requested convergence on MAX density matrix=1.00D-06.
 Requested convergence on             energy=1.00D-06.
 No special actions if energy rises.
 FoFCou: FMM=F IPFlag=           0 FMFlag=           0 FMFlg1=           0
         NFxFlg=           0 DoJE=F BraDBF=F KetDBF=F FulRan=T
         wScrn=  0.000000 ICntrl=     600 IOpCl=  0 I1Cent=           0 NGrid=           0
         NMat0=    1 NMatS0=   6786 NMatT0=    0 NMatD0=    1 NMtDS0=    0 NMtDT0=    0
 Symmetry not used in FoFCou.
 Integral accuracy reduced to 1.0D-05 until final iterations.

 Cycle   1  Pass 0  IDiag  1:
 E= -236.154989195650    
 DIIS: error= 5.57D-02 at cycle   1 NSaved=   1.
 NSaved= 1 IEnMin= 1 EnMin= -236.154989195650     IErMin= 1 ErrMin= 5.57D-02
 ErrMax= 5.57D-02  0.00D+00 EMaxC= 1.00D-01 BMatC= 8.93D-01 BMatP= 8.93D-01
 IDIUse=3 WtCom= 4.43D-01 WtEn= 5.57D-01
 Coeff-Com:  0.100D+01
 Coeff-En:   0.100D+01
 Coeff:      0.100D+01
 Gap=     0.278 Goal=   None    Shift=    0.000
 Gap=     0.255 Goal=   None    Shift=    0.000
 GapD=    0.255 DampG=1.000 DampE=0.500 DampFc=0.5000 IDamp=-1.
 Damping current iteration by 5.00D-01
 RMSDP=9.29D-03 MaxDP=1.39D-01              OVMax= 1.83D-01

 Cycle   2  Pass 0  IDiag  1:
 E= -236.271240728087     Delta-E=       -0.116251532437 Rises=F Damp=T
 DIIS: error= 9.25D-03 at cycle   2 NSaved=   2.
 NSaved= 2 IEnMin= 2 EnMin= -236.271240728087     IErMin= 2 ErrMin= 9.25D-03
 ErrMax= 9.25D-03  0.00D+00 EMaxC= 1.00D-01 BMatC= 3.43D-02 BMatP= 8.93D-01
 IDIUse=3 WtCom= 9.08D-01 WtEn= 9.25D-02
 Coeff-Com:  0.584D-01 0.942D+00
 Coeff-En:   0.891D-01 0.911D+00
 Coeff:      0.613D-01 0.939D+00
 Gap=     0.305 Goal=   None    Shift=    0.000
 Gap=     0.260 Goal=   None    Shift=    0.000
 RMSDP=1.29D-03 MaxDP=2.07D-02 DE=-1.16D-01 OVMax= 9.20D-02

 Cycle   3  Pass 0  IDiag  1:
 E= -236.407986577951     Delta-E=       -0.136745849864 Rises=F Damp=F
 DIIS: error= 2.38D-03 at cycle   3 NSaved=   3.
 NSaved= 3 IEnMin= 3 EnMin= -236.407986577951     IErMin= 3 ErrMin= 2.38D-03
 ErrMax= 2.38D-03  0.00D+00 EMaxC= 1.00D-01 BMatC= 2.26D-03 BMatP= 3.43D-02
 IDIUse=3 WtCom= 9.76D-01 WtEn= 2.38D-02
 Coeff-Com: -0.666D-02 0.130D+00 0.877D+00
 Coeff-En:   0.000D+00 0.000D+00 0.100D+01
 Coeff:     -0.650D-02 0.127D+00 0.880D+00
 Gap=     0.310 Goal=   None    Shift=    0.000
 Gap=     0.249 Goal=   None    Shift=    0.000
 RMSDP=3.78D-04 MaxDP=7.40D-03 DE=-1.37D-01 OVMax= 8.75D-03

 Cycle   4  Pass 0  IDiag  1:
 E= -236.408314866369     Delta-E=       -0.000328288419 Rises=F Damp=F
 DIIS: error= 1.34D-03 at cycle   4 NSaved=   4.
 NSaved= 4 IEnMin= 4 EnMin= -236.408314866369     IErMin= 4 ErrMin= 1.34D-03
 ErrMax= 1.34D-03  0.00D+00 EMaxC= 1.00D-01 BMatC= 1.13D-03 BMatP= 2.26D-03
 IDIUse=3 WtCom= 9.87D-01 WtEn= 1.34D-02
 Coeff-Com: -0.438D-02 0.231D-01 0.425D+00 0.557D+00
 Coeff-En:   0.000D+00 0.000D+00 0.281D+00 0.719D+00
 Coeff:     -0.432D-02 0.227D-01 0.423D+00 0.559D+00
 Gap=     0.305 Goal=   None    Shift=    0.000
 Gap=     0.254 Goal=   None    Shift=    0.000
 RMSDP=1.70D-04 MaxDP=2.68D-03 DE=-3.28D-04 OVMax= 4.07D-03

 Cycle   5  Pass 0  IDiag  1:
 E= -236.408596068094     Delta-E=       -0.000281201725 Rises=F Damp=F
 DIIS: error= 2.77D-04 at cycle   5 NSaved=   5.
 NSaved= 5 IEnMin= 5 EnMin= -236.408596068094     IErMin= 5 ErrMin= 2.77D-04
 ErrMax= 2.77D-04  0.00D+00 EMaxC= 1.00D-01 BMatC= 5.56D-05 BMatP= 1.13D-03
 IDIUse=3 WtCom= 9.97D-01 WtEn= 2.77D-03
 Coeff-Com: -0.738D-03-0.462D-02 0.748D-01 0.215D+00 0.716D+00
 Coeff-En:   0.000D+00 0.000D+00 0.000D+00 0.000D+00 0.100D+01
 Coeff:     -0.736D-03-0.461D-02 0.746D-01 0.214D+00 0.716D+00
 Gap=     0.306 Goal=   None    Shift=    0.000
 Gap=     0.254 Goal=   None    Shift=    0.000
 RMSDP=3.70D-05 MaxDP=9.27D-04 DE=-2.81D-04 OVMax= 9.94D-04

 Cycle   6  Pass 0  IDiag  1:
 E= -236.408611704559     Delta-E=       -0.000015636465 Rises=F Damp=F
 DIIS: error= 5.39D-05 at cycle   6 NSaved=   6.
 NSaved= 6 IEnMin= 6 EnMin= -236.408611704559     IErMin= 6 ErrMin= 5.39D-05
 ErrMax= 5.39D-05  0.00D+00 EMaxC= 1.00D-01 BMatC= 1.49D-06 BMatP= 5.56D-05
 IDIUse=1 WtCom= 1.00D+00 WtEn= 0.00D+00
 Coeff-Com:  0.255D-03-0.138D-02-0.292D-01-0.423D-01-0.231D-01 0.110D+01
 Coeff:      0.255D-03-0.138D-02-0.292D-01-0.423D-01-0.231D-01 0.110D+01
 Gap=     0.307 Goal=   None    Shift=    0.000
 Gap=     0.254 Goal=   None    Shift=    0.000
 RMSDP=1.19D-05 MaxDP=3.10D-04 DE=-1.56D-05 OVMax= 3.52D-04

 Cycle   7  Pass 0  IDiag  1:
 E= -236.408612579660     Delta-E=       -0.000000875102 Rises=F Damp=F
 DIIS: error= 1.86D-05 at cycle   7 NSaved=   7.
 NSaved= 7 IEnMin= 7 EnMin= -236.408612579660     IErMin= 7 ErrMin= 1.86D-05
 ErrMax= 1.86D-05  0.00D+00 EMaxC= 1.00D-01 BMatC= 4.03D-07 BMatP= 1.49D-06
 IDIUse=1 WtCom= 1.00D+00 WtEn= 0.00D+00
 Coeff-Com:  0.148D-03 0.463D-04-0.182D-01-0.379D-01-0.840D-01 0.400D+00
 Coeff-Com:  0.740D+00
 Coeff:      0.148D-03 0.463D-04-0.182D-01-0.379D-01-0.840D-01 0.400D+00
 Coeff:      0.740D+00
 Gap=     0.307 Goal=   None    Shift=    0.000
 Gap=     0.254 Goal=   None    Shift=    0.000
 RMSDP=4.25D-06 MaxDP=9.28D-05 DE=-8.75D-07 OVMax= 1.16D-04

 Initial convergence to 1.0D-05 achieved.  Increase integral accuracy.
 Cycle   8  Pass 1  IDiag  1:
 E= -236.408612967109     Delta-E=       -0.000000387448 Rises=F Damp=F
 DIIS: error= 8.73D-06 at cycle   1 NSaved=   1.
 NSaved= 1 IEnMin= 1 EnMin= -236.408612967109     IErMin= 1 ErrMin= 8.73D-06
 ErrMax= 8.73D-06  0.00D+00 EMaxC= 1.00D-01 BMatC= 6.57D-08 BMatP= 6.57D-08
 IDIUse=1 WtCom= 1.00D+00 WtEn= 0.00D+00
 Coeff-Com:  0.100D+01
 Coeff:      0.100D+01
 Gap=     0.307 Goal=   None    Shift=    0.000
 Gap=     0.254 Goal=   None    Shift=    0.000
 RMSDP=4.25D-06 MaxDP=9.28D-05 DE=-3.87D-07 OVMax= 5.83D-05

 Cycle   9  Pass 1  IDiag  1:
 E= -236.408612965955     Delta-E=        0.000000001154 Rises=F Damp=F
 DIIS: error= 1.06D-05 at cycle   2 NSaved=   2.
 NSaved= 2 IEnMin= 1 EnMin= -236.408612967109     IErMin= 1 ErrMin= 8.73D-06
 ErrMax= 1.06D-05  0.00D+00 EMaxC= 1.00D-01 BMatC= 8.94D-08 BMatP= 6.57D-08
 IDIUse=1 WtCom= 1.00D+00 WtEn= 0.00D+00
 Coeff-Com:  0.541D+00 0.459D+00
 Coeff:      0.541D+00 0.459D+00
 Gap=     0.307 Goal=   None    Shift=    0.000
 Gap=     0.254 Goal=   None    Shift=    0.000
 RMSDP=1.26D-06 MaxDP=2.40D-05 DE= 1.15D-09 OVMax= 3.07D-05

 Cycle  10  Pass 1  IDiag  1:
 E= -236.408612988525     Delta-E=       -0.000000022571 Rises=F Damp=F
 DIIS: error= 1.18D-06 at cycle   3 NSaved=   3.
 NSaved= 3 IEnMin= 3 EnMin= -236.408612988525     IErMin= 3 ErrMin= 1.18D-06
 ErrMax= 1.18D-06  0.00D+00 EMaxC= 1.00D-01 BMatC= 1.01D-09 BMatP= 6.57D-08
 IDIUse=1 WtCom= 1.00D+00 WtEn= 0.00D+00
 Coeff-Com: -0.159D+00-0.741D-01 0.123D+01
 Coeff:     -0.159D+00-0.741D-01 0.123D+01
 Gap=     0.307 Goal=   None    Shift=    0.000
 Gap=     0.254 Goal=   None    Shift=    0.000
 RMSDP=3.25D-07 MaxDP=8.21D-06 DE=-2.26D-08 OVMax= 8.01D-06

 Cycle  11  Pass 1  IDiag  1:
 E= -236.408612989167     Delta-E=       -0.000000000641 Rises=F Damp=F
 DIIS: error= 6.51D-07 at cycle   4 NSaved=   4.
 NSaved= 4 IEnMin= 4 EnMin= -236.408612989167     IErMin= 4 ErrMin= 6.51D-07
 ErrMax= 6.51D-07  0.00D+00 EMaxC= 1.00D-01 BMatC= 3.21D-10 BMatP= 1.01D-09
 IDIUse=1 WtCom= 1.00D+00 WtEn= 0.00D+00
 Coeff-Com: -0.135D+00-0.882D-01 0.518D+00 0.705D+00
 Coeff:     -0.135D+00-0.882D-01 0.518D+00 0.705D+00
 Gap=     0.307 Goal=   None    Shift=    0.000
 Gap=     0.254 Goal=   None    Shift=    0.000
 RMSDP=1.17D-07 MaxDP=2.88D-06 DE=-6.41D-10 OVMax= 3.05D-06

 Cycle  12  Pass 1  IDiag  1:
 E= -236.408612989269     Delta-E=       -0.000000000102 Rises=F Damp=F
 DIIS: error= 2.71D-07 at cycle   5 NSaved=   5.
 NSaved= 5 IEnMin= 5 EnMin= -236.408612989269     IErMin= 5 ErrMin= 2.71D-07
 ErrMax= 2.71D-07  0.00D+00 EMaxC= 1.00D-01 BMatC= 3.77D-11 BMatP= 3.21D-10
 IDIUse=1 WtCom= 1.00D+00 WtEn= 0.00D+00
 Coeff-Com: -0.363D-01-0.273D-01 0.599D-01 0.293D+00 0.711D+00
 Coeff:     -0.363D-01-0.273D-01 0.599D-01 0.293D+00 0.711D+00
 Gap=     0.307 Goal=   None    Shift=    0.000
 Gap=     0.254 Goal=   None    Shift=    0.000
 RMSDP=3.51D-08 MaxDP=9.32D-07 DE=-1.02D-10 OVMax= 1.03D-06

 Cycle  13  Pass 1  IDiag  1:
 E= -236.408612989282     Delta-E=       -0.000000000013 Rises=F Damp=F
 DIIS: error= 5.70D-08 at cycle   6 NSaved=   6.
 NSaved= 6 IEnMin= 6 EnMin= -236.408612989282     IErMin= 6 ErrMin= 5.70D-08
 ErrMax= 5.70D-08  0.00D+00 EMaxC= 1.00D-01 BMatC= 1.94D-12 BMatP= 3.77D-11
 IDIUse=1 WtCom= 1.00D+00 WtEn= 0.00D+00
 Coeff-Com:  0.660D-02 0.337D-02-0.451D-01-0.750D-02 0.187D+00 0.855D+00
 Coeff:      0.660D-02 0.337D-02-0.451D-01-0.750D-02 0.187D+00 0.855D+00
 Gap=     0.307 Goal=   None    Shift=    0.000
 Gap=     0.254 Goal=   None    Shift=    0.000
 RMSDP=9.24D-09 MaxDP=2.13D-07 DE=-1.30D-11 OVMax= 2.23D-07

 SCF Done:  E(UB3LYP) =  -236.408612989     A.U. after   13 cycles
            NFock= 13  Conv=0.92D-08     -V/T= 2.0105
 <Sx>= 0.0000 <Sy>= 0.0000 <Sz>= 0.5000 <S**2>= 0.7529 S= 0.5014
 <L.S>= 0.000000000000E+00
 KE= 2.339442872866D+02 PE=-1.010885210001D+03 EE= 3.078807908971D+02
 Annihilation of the first spin contaminant:
 S**2 before annihilation     0.7529,   after     0.7500
 Leave Link  502 at Sat Nov  7 01:57:09 2015, MaxMem=   805306368 cpu:       126.3
 (Enter /home/hetanjin/apps/g09D01/g09/l601.exe)
 Copying SCF densities to generalized density rwf, IOpCl= 1 IROHF=0.

 **********************************************************************

            Population analysis using the SCF density.

 **********************************************************************

 Orbital symmetries:
 Alpha Orbitals:
       Occupied  (A) (A) (A) (A) (A) (A) (A) (A) (A) (A) (A) (A)
                 (A) (A) (A) (A) (A) (A) (A) (A) (A) (A) (A) (A)
                 (A)
       Virtual   (A) (A) (A) (A) (A) (A) (A) (A) (A) (A) (A) (A)
                 (A) (A) (A) (A) (A) (A) (A) (A) (A) (A) (A) (A)
                 (A) (A) (A) (A) (A) (A) (A) (A) (A) (A) (A) (A)
                 (A) (A) (A) (A) (A) (A) (A) (A) (A) (A) (A) (A)
                 (A) (A) (A) (A) (A) (A) (A) (A) (A) (A) (A) (A)
                 (A) (A) (A) (A) (A) (A) (A) (A) (A) (A) (A) (A)
                 (A) (A) (A) (A) (A) (A) (A) (A) (A) (A) (A) (A)
                 (A) (A) (A) (A) (A) (A) (A)
 Beta  Orbitals:
       Occupied  (A) (A) (A) (A) (A) (A) (A) (A) (A) (A) (A) (A)
                 (A) (A) (A) (A) (A) (A) (A) (A) (A) (A) (A) (A)
       Virtual   (A) (A) (A) (A) (A) (A) (A) (A) (A) (A) (A) (A)
                 (A) (A) (A) (A) (A) (A) (A) (A) (A) (A) (A) (A)
                 (A) (A) (A) (A) (A) (A) (A) (A) (A) (A) (A) (A)
                 (A) (A) (A) (A) (A) (A) (A) (A) (A) (A) (A) (A)
                 (A) (A) (A) (A) (A) (A) (A) (A) (A) (A) (A) (A)
                 (A) (A) (A) (A) (A) (A) (A) (A) (A) (A) (A) (A)
                 (A) (A) (A) (A) (A) (A) (A) (A) (A) (A) (A) (A)
                 (A) (A) (A) (A) (A) (A) (A) (A)
 The electronic state is 2-A.
 Alpha  occ. eigenvalues --  -10.19591 -10.17949 -10.17668 -10.17616 -10.17446
 Alpha  occ. eigenvalues --  -10.17034  -0.79984  -0.76131  -0.70574  -0.63527
 Alpha  occ. eigenvalues --   -0.57544  -0.56207  -0.46988  -0.43642  -0.42685
 Alpha  occ. eigenvalues --   -0.41629  -0.39755  -0.37869  -0.37541  -0.35181
 Alpha  occ. eigenvalues --   -0.33658  -0.32359  -0.31988  -0.30786  -0.21183
 Alpha virt. eigenvalues --    0.09476   0.10579   0.12507   0.13586   0.14072
 Alpha virt. eigenvalues --    0.16467   0.16794   0.17438   0.18368   0.19105
 Alpha virt. eigenvalues --    0.19537   0.20211   0.20688   0.22767   0.24293
 Alpha virt. eigenvalues --    0.26293   0.27900   0.29469   0.49273   0.49881
 Alpha virt. eigenvalues --    0.51583   0.55382   0.55944   0.57421   0.58709
 Alpha virt. eigenvalues --    0.59484   0.62736   0.63554   0.66418   0.69036
 Alpha virt. eigenvalues --    0.71679   0.75616   0.79287   0.81501   0.82281
 Alpha virt. eigenvalues --    0.84115   0.86633   0.88823   0.89707   0.91005
 Alpha virt. eigenvalues --    0.92062   0.93341   0.94098   0.94788   0.95983
 Alpha virt. eigenvalues --    0.96225   0.97833   0.98809   1.01434   1.07628
 Alpha virt. eigenvalues --    1.22393   1.34945   1.40444   1.40462   1.45634
 Alpha virt. eigenvalues --    1.49102   1.52513   1.63191   1.69543   1.78945
 Alpha virt. eigenvalues --    1.82296   1.87136   1.89731   1.91911   1.93890
 Alpha virt. eigenvalues --    1.95029   1.98920   2.01729   2.02586   2.05665
 Alpha virt. eigenvalues --    2.10032   2.18360   2.22586   2.24692   2.28453
 Alpha virt. eigenvalues --    2.32296   2.33594   2.41092   2.42352   2.44721
 Alpha virt. eigenvalues --    2.55885   2.60558   2.62887   2.77361   2.81991
 Alpha virt. eigenvalues --    4.08842   4.16680   4.28130   4.33258   4.41729
 Alpha virt. eigenvalues --    4.54851
  Beta  occ. eigenvalues --  -10.18164 -10.17979 -10.17669 -10.17649 -10.17430
  Beta  occ. eigenvalues --  -10.17034  -0.79509  -0.75221  -0.70342  -0.63206
  Beta  occ. eigenvalues --   -0.57407  -0.54531  -0.46636  -0.43203  -0.42133
  Beta  occ. eigenvalues --   -0.41062  -0.39312  -0.37656  -0.37177  -0.34900
  Beta  occ. eigenvalues --   -0.33360  -0.32129  -0.31891  -0.30423
  Beta virt. eigenvalues --   -0.05030   0.09624   0.10810   0.12637   0.13770
  Beta virt. eigenvalues --    0.14188   0.16573   0.17102   0.17705   0.18672
  Beta virt. eigenvalues --    0.19250   0.19941   0.20396   0.20949   0.23422
  Beta virt. eigenvalues --    0.24778   0.26521   0.28546   0.30294   0.49418
  Beta virt. eigenvalues --    0.50110   0.52147   0.55492   0.57582   0.58778
  Beta virt. eigenvalues --    0.59800   0.60174   0.63023   0.65910   0.66789
  Beta virt. eigenvalues --    0.69525   0.71923   0.76667   0.79764   0.81664
  Beta virt. eigenvalues --    0.82542   0.84577   0.86867   0.89029   0.89967
  Beta virt. eigenvalues --    0.91166   0.92200   0.93598   0.94385   0.95640
  Beta virt. eigenvalues --    0.96122   0.96579   0.98229   0.98941   1.01862
  Beta virt. eigenvalues --    1.08335   1.23276   1.35507   1.40586   1.41272
  Beta virt. eigenvalues --    1.46266   1.49457   1.53563   1.63493   1.70765
  Beta virt. eigenvalues --    1.80200   1.82507   1.87557   1.90216   1.93357
  Beta virt. eigenvalues --    1.94589   1.95831   2.00162   2.02823   2.02971
  Beta virt. eigenvalues --    2.06564   2.10935   2.20662   2.22699   2.25066
  Beta virt. eigenvalues --    2.29619   2.32786   2.34109   2.41461   2.43039
  Beta virt. eigenvalues --    2.45409   2.56787   2.61398   2.63579   2.78098
  Beta virt. eigenvalues --    2.82435   4.10068   4.17191   4.28172   4.34161
  Beta virt. eigenvalues --    4.42421   4.55225
          Condensed to atoms (all electrons):
               1          2          3          4          5          6
     1  C    5.063664   0.377499   0.377706   0.371542   0.371598  -0.038493
     2  H    0.377499   0.579761  -0.032830  -0.031407  -0.034757   0.005262
     3  H    0.377706  -0.032830   0.578546  -0.031380  -0.034749  -0.004509
     4  H    0.371542  -0.031407  -0.031380   0.579031  -0.027238  -0.002711
     5  C    0.371598  -0.034757  -0.034749  -0.027238   4.960997   0.376494
     6  H   -0.038493   0.005262  -0.004509  -0.002711   0.376494   0.612864
     7  H   -0.038486  -0.004512   0.005279  -0.002738   0.375665  -0.040435
     8  C   -0.041722  -0.004512  -0.004387   0.004033   0.380358  -0.040176
     9  H   -0.002783  -0.000388   0.004812  -0.000034  -0.040526  -0.005473
    10  H   -0.002917   0.004881  -0.000396  -0.000034  -0.041008   0.005996
    11  C    0.003558   0.000029   0.000035  -0.000131  -0.035820  -0.003610
    12  H    0.000029   0.000003   0.000006   0.000002  -0.003019  -0.000473
    13  H    0.000021   0.000006   0.000003   0.000002  -0.003650   0.005129
    14  C   -0.000104   0.000001  -0.000001   0.000001   0.003475   0.000022
    15  H    0.000001  -0.000001   0.000000   0.000000   0.000026   0.000007
    16  C    0.000001   0.000000   0.000000   0.000000  -0.000134   0.000002
    17  H    0.000000   0.000000   0.000000   0.000000   0.000005   0.000000
    18  H    0.000000   0.000000   0.000000   0.000000   0.000001   0.000000
    19  H    0.000000   0.000000   0.000000   0.000000   0.000000  -0.000001
               7          8          9         10         11         12
     1  C   -0.038486  -0.041722  -0.002783  -0.002917   0.003558   0.000029
     2  H   -0.004512  -0.004512  -0.000388   0.004881   0.000029   0.000003
     3  H    0.005279  -0.004387   0.004812  -0.000396   0.000035   0.000006
     4  H   -0.002738   0.004033  -0.000034  -0.000034  -0.000131   0.000002
     5  C    0.375665   0.380358  -0.040526  -0.041008  -0.035820  -0.003019
     6  H   -0.040435  -0.040176  -0.005473   0.005996  -0.003610  -0.000473
     7  H    0.615754  -0.040523   0.005943  -0.005461  -0.003476   0.005306
     8  C   -0.040523   4.982984   0.374275   0.373008   0.378193  -0.040776
     9  H    0.005943   0.374275   0.607951  -0.039858  -0.039037   0.006023
    10  H   -0.005461   0.373008  -0.039858   0.618246  -0.039880  -0.005307
    11  C   -0.003476   0.378193  -0.039037  -0.039880   5.016678   0.361698
    12  H    0.005306  -0.040776   0.006023  -0.005307   0.361698   0.621336
    13  H   -0.000447  -0.038431  -0.005327   0.005842   0.368345  -0.040968
    14  C    0.000003  -0.035709   0.000624  -0.003877   0.379840  -0.041116
    15  H    0.000004  -0.004063  -0.000337   0.005149  -0.054744  -0.002861
    16  C    0.000001   0.003481   0.000060   0.000037  -0.049270  -0.001492
    17  H   -0.000001   0.000008   0.000008   0.000001  -0.003322   0.004670
    18  H    0.000000  -0.000121   0.000001   0.000002   0.004151  -0.000071
    19  H    0.000000   0.000019   0.000002   0.000006  -0.005617  -0.000300
              13         14         15         16         17         18
     1  C    0.000021  -0.000104   0.000001   0.000001   0.000000   0.000000
     2  H    0.000006   0.000001  -0.000001   0.000000   0.000000   0.000000
     3  H    0.000003  -0.000001   0.000000   0.000000   0.000000   0.000000
     4  H    0.000002   0.000001   0.000000   0.000000   0.000000   0.000000
     5  C   -0.003650   0.003475   0.000026  -0.000134   0.000005   0.000001
     6  H    0.005129   0.000022   0.000007   0.000002   0.000000   0.000000
     7  H   -0.000447   0.000003   0.000004   0.000001  -0.000001   0.000000
     8  C   -0.038431  -0.035709  -0.004063   0.003481   0.000008  -0.000121
     9  H   -0.005327   0.000624  -0.000337   0.000060   0.000008   0.000001
    10  H    0.005842  -0.003877   0.005149   0.000037   0.000001   0.000002
    11  C    0.368345   0.379840  -0.054744  -0.049270  -0.003322   0.004151
    12  H   -0.040968  -0.041116  -0.002861  -0.001492   0.004670  -0.000071
    13  H    0.610973  -0.041216   0.006039  -0.004241  -0.000339  -0.000031
    14  C   -0.041216   5.209064   0.358196   0.361330  -0.034763  -0.027242
    15  H    0.006039   0.358196   0.627741  -0.052982  -0.002014  -0.003387
    16  C   -0.004241   0.361330  -0.052982   5.109672   0.363938   0.369782
    17  H   -0.000339  -0.034763  -0.002014   0.363938   0.585376  -0.032014
    18  H   -0.000031  -0.027242  -0.003387   0.369782  -0.032014   0.570268
    19  H    0.004942  -0.034749   0.005344   0.373143  -0.033441  -0.030299
              19
     1  C    0.000000
     2  H    0.000000
     3  H    0.000000
     4  H    0.000000
     5  C    0.000000
     6  H   -0.000001
     7  H    0.000000
     8  C    0.000019
     9  H    0.000002
    10  H    0.000006
    11  C   -0.005617
    12  H   -0.000300
    13  H    0.004942
    14  C   -0.034749
    15  H    0.005344
    16  C    0.373143
    17  H   -0.033441
    18  H   -0.030299
    19  H    0.572595
          Atomic-Atomic Spin Densities.
               1          2          3          4          5          6
     1  C   -0.000628   0.000008  -0.000048   0.000131   0.000440   0.000006
     2  H    0.000008   0.000053  -0.000034   0.000022  -0.000017   0.000002
     3  H   -0.000048  -0.000034   0.000268  -0.000047  -0.000042  -0.000010
     4  H    0.000131   0.000022  -0.000047   0.000036  -0.000111   0.000012
     5  C    0.000440  -0.000017  -0.000042  -0.000111  -0.000263   0.000222
     6  H    0.000006   0.000002  -0.000010   0.000012   0.000222   0.000049
     7  H   -0.000053   0.000000  -0.000002   0.000003   0.000080   0.000019
     8  C   -0.000124  -0.000020   0.000117  -0.000019  -0.002272  -0.000270
     9  H    0.000009   0.000020  -0.000106   0.000009   0.001301   0.000065
    10  H   -0.000026  -0.000012   0.000008   0.000000   0.000052  -0.000013
    11  C   -0.000036   0.000000   0.000001   0.000002   0.000315  -0.000006
    12  H    0.000012   0.000004  -0.000003   0.000001   0.001365   0.000045
    13  H   -0.000011  -0.000001   0.000003   0.000000  -0.000559  -0.000067
    14  C   -0.000002   0.000000  -0.000002   0.000000   0.000191   0.000003
    15  H    0.000000   0.000000   0.000000   0.000000  -0.000072   0.000000
    16  C    0.000000   0.000000   0.000000   0.000000  -0.000001   0.000000
    17  H    0.000000   0.000000   0.000000   0.000000   0.000006   0.000000
    18  H    0.000000   0.000000   0.000000   0.000000   0.000000   0.000000
    19  H    0.000000   0.000000   0.000000   0.000000  -0.000002   0.000000
               7          8          9         10         11         12
     1  C   -0.000053  -0.000124   0.000009  -0.000026  -0.000036   0.000012
     2  H    0.000000  -0.000020   0.000020  -0.000012   0.000000   0.000004
     3  H   -0.000002   0.000117  -0.000106   0.000008   0.000001  -0.000003
     4  H    0.000003  -0.000019   0.000009   0.000000   0.000002   0.000001
     5  C    0.000080  -0.002272   0.001301   0.000052   0.000315   0.001365
     6  H    0.000019  -0.000270   0.000065  -0.000013  -0.000006   0.000045
     7  H   -0.000174   0.000160  -0.000017   0.000012  -0.000034   0.000029
     8  C    0.000160   0.014325  -0.004682   0.000240   0.006816  -0.006158
     9  H   -0.000017  -0.004682   0.002148  -0.000170  -0.001190   0.000845
    10  H    0.000012   0.000240  -0.000170  -0.000763   0.000643  -0.000549
    11  C   -0.000034   0.006816  -0.001190   0.000643  -0.043062   0.001451
    12  H    0.000029  -0.006158   0.000845  -0.000549   0.001451   0.087161
    13  H   -0.000003   0.003519  -0.000782   0.000042   0.005239  -0.008820
    14  C   -0.000001  -0.007108   0.004288  -0.000176  -0.027394  -0.024617
    15  H   -0.000001   0.000889  -0.000351   0.000102   0.005959  -0.003435
    16  C    0.000000   0.000116  -0.000047   0.000014   0.002113  -0.001281
    17  H    0.000000  -0.000075   0.000016  -0.000008  -0.001551   0.006184
    18  H    0.000000   0.000004  -0.000002   0.000000   0.000065  -0.000122
    19  H    0.000000   0.000042  -0.000013   0.000001   0.001060  -0.000798
              13         14         15         16         17         18
     1  C   -0.000011  -0.000002   0.000000   0.000000   0.000000   0.000000
     2  H   -0.000001   0.000000   0.000000   0.000000   0.000000   0.000000
     3  H    0.000003  -0.000002   0.000000   0.000000   0.000000   0.000000
     4  H    0.000000   0.000000   0.000000   0.000000   0.000000   0.000000
     5  C   -0.000559   0.000191  -0.000072  -0.000001   0.000006   0.000000
     6  H   -0.000067   0.000003   0.000000   0.000000   0.000000   0.000000
     7  H   -0.000003  -0.000001  -0.000001   0.000000   0.000000   0.000000
     8  C    0.003519  -0.007108   0.000889   0.000116  -0.000075   0.000004
     9  H   -0.000782   0.004288  -0.000351  -0.000047   0.000016  -0.000002
    10  H    0.000042  -0.000176   0.000102   0.000014  -0.000008   0.000000
    11  C    0.005239  -0.027394   0.005959   0.002113  -0.001551   0.000065
    12  H   -0.008820  -0.024617  -0.003435  -0.001281   0.006184  -0.000122
    13  H    0.012447  -0.005410   0.000289   0.001038  -0.000863   0.000046
    14  C   -0.005410   1.133349  -0.015212  -0.025017  -0.023910  -0.004321
    15  H    0.000289  -0.015212  -0.019810   0.005828  -0.003429   0.001013
    16  C    0.001038  -0.025017   0.005828  -0.049775   0.001121   0.006074
    17  H   -0.000863  -0.023910  -0.003429   0.001121   0.091268  -0.005730
    18  H    0.000046  -0.004321   0.001013   0.006074  -0.005730   0.006487
    19  H    0.000672  -0.005348   0.000232   0.006275  -0.008316   0.001667
              19
     1  C    0.000000
     2  H    0.000000
     3  H    0.000000
     4  H    0.000000
     5  C   -0.000002
     6  H    0.000000
     7  H    0.000000
     8  C    0.000042
     9  H   -0.000013
    10  H    0.000001
    11  C    0.001060
    12  H   -0.000798
    13  H    0.000672
    14  C   -0.005348
    15  H    0.000232
    16  C    0.006275
    17  H   -0.008316
    18  H    0.001667
    19  H    0.011593
 Mulliken charges and spin densities:
               1          2
     1  C   -0.441113  -0.000324
     2  H    0.140964   0.000025
     3  H    0.141862   0.000104
     4  H    0.141063   0.000039
     5  C   -0.247717   0.000632
     6  H    0.130104   0.000057
     7  H    0.128126   0.000020
     8  C   -0.245942   0.005501
     9  H    0.134063   0.001339
    10  H    0.125569  -0.000606
    11  C   -0.277622  -0.049610
    12  H    0.137311   0.051315
    13  H    0.133350   0.006780
    14  C   -0.093779   0.999313
    15  H    0.117883  -0.027999
    16  C   -0.473326  -0.053544
    17  H    0.151887   0.054712
    18  H    0.148962   0.005181
    19  H    0.148355   0.007064
 Sum of Mulliken charges =   0.00000   1.00000
 Mulliken charges and spin densities with hydrogens summed into heavy atoms:
               1          2
     1  C   -0.017224  -0.000156
     5  C    0.010512   0.000708
     8  C    0.013691   0.006234
    11  C   -0.006961   0.008485
    14  C    0.024104   0.971314
    16  C   -0.024122   0.013414
 Electronic spatial extent (au):  <R**2>=           1122.6696
 Charge=              0.0000 electrons
 Dipole moment (field-independent basis, Debye):
    X=              0.0387    Y=              0.3896    Z=              0.4513  Tot=              0.5974
 Quadrupole moment (field-independent basis, Debye-Ang):
   XX=            -40.8658   YY=            -41.2062   ZZ=            -40.3334
   XY=              0.4682   XZ=              0.9368   YZ=             -0.6070
 Traceless Quadrupole moment (field-independent basis, Debye-Ang):
   XX=             -0.0640   YY=             -0.4044   ZZ=              0.4684
   XY=              0.4682   XZ=              0.9368   YZ=             -0.6070
 Octapole moment (field-independent basis, Debye-Ang**2):
  XXX=              3.0481  YYY=              0.9898  ZZZ=              0.7394  XYY=             -0.6838
  XXY=              1.5466  XXZ=              1.8651  XZZ=             -0.7351  YZZ=              0.7107
  YYZ=              0.7311  XYZ=             -0.9925
 Hexadecapole moment (field-independent basis, Debye-Ang**3):
 XXXX=          -1353.4752 YYYY=           -132.6394 ZZZZ=            -79.2749 XXXY=             -9.9543
 XXXZ=              3.1564 YYYX=              1.3102 YYYZ=             -2.3810 ZZZX=              2.5012
 ZZZY=             -0.1957 XXYY=           -246.0097 XXZZ=           -237.5824 YYZZ=            -32.7689
 XXYZ=             -1.7844 YYXZ=              0.9654 ZZXY=              3.5804
 N-N= 2.326515188283D+02 E-N=-1.010885207046D+03  KE= 2.339442872866D+02
                          Isotropic Fermi Contact Couplings
        Atom                 a.u.       MegaHertz       Gauss      10(-4) cm-1
     1  C(13)             -0.00021      -0.23171      -0.08268      -0.07729
     2  H(1)               0.00000       0.01520       0.00542       0.00507
     3  H(1)               0.00006       0.24985       0.08915       0.08334
     4  H(1)               0.00002       0.09830       0.03508       0.03279
     5  C(13)             -0.00128      -1.43401      -0.51169      -0.47833
     6  H(1)               0.00007       0.29967       0.10693       0.09996
     7  H(1)               0.00024       1.08068       0.38561       0.36048
     8  C(13)              0.00745       8.38079       2.99047       2.79553
     9  H(1)              -0.00030      -1.34778      -0.48092      -0.44957
    10  H(1)              -0.00023      -1.03518      -0.36938      -0.34530
    11  C(13)             -0.00755      -8.49118      -3.02986      -2.83235
    12  H(1)               0.02243     100.23961      35.76799      33.43634
    13  H(1)               0.00430      19.22463       6.85983       6.41265
    14  C(13)              0.30024     337.52352     120.43678     112.58573
    15  H(1)              -0.00286     -12.80320      -4.56850      -4.27069
    16  C(13)             -0.00853      -9.59089      -3.42227      -3.19918
    17  H(1)               0.02414     107.88238      38.49512      35.98569
    18  H(1)               0.00359      16.04219       5.72425       5.35110
    19  H(1)               0.00435      19.46588       6.94591       6.49312
 --------------------------------------------------------
       Center         ----  Spin Dipole Couplings  ----
                      3XX-RR        3YY-RR        3ZZ-RR
 --------------------------------------------------------
     1   Atom        0.001866     -0.000956     -0.000910
     2   Atom        0.001761     -0.000921     -0.000839
     3   Atom        0.001903     -0.000979     -0.000925
     4   Atom        0.001237     -0.000608     -0.000629
     5   Atom        0.002810     -0.001864     -0.000946
     6   Atom        0.002417     -0.000766     -0.001651
     7   Atom        0.002873     -0.001378     -0.001495
     8   Atom        0.017093     -0.009099     -0.007994
     9   Atom        0.011848     -0.006255     -0.005593
    10   Atom        0.007617     -0.004567     -0.003051
    11   Atom        0.006304      0.003666     -0.009970
    12   Atom       -0.000140      0.001197     -0.001057
    13   Atom       -0.002849      0.010377     -0.007528
    14   Atom       -0.478498     -0.164280      0.642778
    15   Atom       -0.058128      0.023044      0.035084
    16   Atom        0.012141     -0.001051     -0.011090
    17   Atom        0.002206     -0.001604     -0.000602
    18   Atom        0.019106     -0.010163     -0.008943
    19   Atom        0.001526      0.005641     -0.007166
 --------------------------------------------------------
                        XY            XZ            YZ
 --------------------------------------------------------
     1   Atom       -0.000426     -0.000154      0.000090
     2   Atom        0.000215     -0.000544      0.000012
     3   Atom        0.000060      0.000374      0.000033
     4   Atom       -0.000312     -0.000076      0.000033
     5   Atom       -0.001399     -0.000823      0.001239
     6   Atom       -0.002167      0.000721     -0.000222
     7   Atom       -0.001624     -0.000995      0.000749
     8   Atom       -0.000113     -0.006019     -0.000211
     9   Atom        0.001352      0.004313      0.001325
    10   Atom        0.002809     -0.005455     -0.000816
    11   Atom       -0.025427     -0.014267      0.014637
    12   Atom       -0.008340     -0.003031      0.008431
    13   Atom       -0.012993      0.003944     -0.005044
    14   Atom        0.030338      0.057311      0.592233
    15   Atom        0.005447     -0.001857     -0.041734
    16   Atom        0.024499      0.013555      0.011989
    17   Atom        0.008293      0.004689      0.007176
    18   Atom        0.001788      0.002680      0.001165
    19   Atom        0.013962     -0.004774     -0.004540
 --------------------------------------------------------


 ---------------------------------------------------------------------------------
              Anisotropic Spin Dipole Couplings in Principal Axis System
 ---------------------------------------------------------------------------------

       Atom             a.u.   MegaHertz   Gauss  10(-4) cm-1        Axes

              Baa    -0.0011    -0.141    -0.050    -0.047  0.1060  0.8883 -0.4468
     1 C(13)  Bbb    -0.0009    -0.119    -0.042    -0.040  0.1174  0.4350  0.8927
              Bcc     0.0019     0.260     0.093     0.087  0.9874 -0.1470 -0.0582
 
              Baa    -0.0010    -0.532    -0.190    -0.178  0.1941 -0.6660  0.7202
     2 H(1)   Bbb    -0.0009    -0.474    -0.169    -0.158  0.0764  0.7422  0.6658
              Bcc     0.0019     1.006     0.359     0.336  0.9780  0.0742 -0.1949
 
              Baa    -0.0010    -0.535    -0.191    -0.178  0.0689  0.7525 -0.6549
     3 H(1)   Bbb    -0.0010    -0.508    -0.181    -0.169 -0.1114  0.6582  0.7446
              Bcc     0.0020     1.042     0.372     0.348  0.9914  0.0216  0.1292
 
              Baa    -0.0007    -0.357    -0.128    -0.119  0.1241  0.8726 -0.4725
     4 H(1)   Bbb    -0.0006    -0.332    -0.118    -0.111  0.1134  0.4606  0.8804
              Bcc     0.0013     0.689     0.246     0.230  0.9858 -0.1628 -0.0418
 
              Baa    -0.0028    -0.379    -0.135    -0.126  0.1383  0.8531 -0.5031
     5 C(13)  Bbb    -0.0007    -0.090    -0.032    -0.030  0.3672  0.4277  0.8260
              Bcc     0.0035     0.469     0.167     0.156  0.9198 -0.2990 -0.2541
 
              Baa    -0.0019    -1.039    -0.371    -0.346  0.4433  0.7106 -0.5464
     6 H(1)   Bbb    -0.0017    -0.892    -0.318    -0.298  0.1435  0.5455  0.8258
              Bcc     0.0036     1.931     0.689     0.644  0.8848 -0.4445  0.1398
 
              Baa    -0.0022    -1.193    -0.426    -0.398  0.1277  0.7782 -0.6148
     7 H(1)   Bbb    -0.0015    -0.777    -0.277    -0.259  0.3748  0.5361  0.7564
              Bcc     0.0037     1.970     0.703     0.657  0.9182 -0.3271 -0.2232
 
              Baa    -0.0095    -1.274    -0.455    -0.425  0.1930  0.5014  0.8434
     8 C(13)  Bbb    -0.0090    -1.203    -0.429    -0.401 -0.1093  0.8652 -0.4894
              Bcc     0.0185     2.477     0.884     0.826  0.9751 -0.0023 -0.2218
 
              Baa    -0.0075    -3.992    -1.424    -1.331 -0.1177 -0.6663  0.7364
     9 H(1)   Bbb    -0.0055    -2.941    -1.049    -0.981 -0.2157  0.7410  0.6359
              Bcc     0.0130     6.932     2.474     2.312  0.9693  0.0840  0.2310
 
              Baa    -0.0056    -2.980    -1.063    -0.994  0.4138 -0.5760  0.7050
    10 H(1)   Bbb    -0.0049    -2.608    -0.931    -0.870  0.0835  0.7951  0.6007
              Bcc     0.0105     5.589     1.994     1.864  0.9065  0.1897 -0.3771
 
              Baa    -0.0207    -2.780    -0.992    -0.927  0.5703  0.7686 -0.2897
    11 C(13)  Bbb    -0.0183    -2.449    -0.874    -0.817  0.4812 -0.0269  0.8762
              Bcc     0.0390     5.230     1.866     1.744  0.6657 -0.6391 -0.3852
 
              Baa    -0.0101    -5.378    -1.919    -1.794  0.4467  0.7236 -0.5261
    12 H(1)   Bbb    -0.0036    -1.928    -0.688    -0.643  0.7247  0.0522  0.6871
              Bcc     0.0137     7.307     2.607     2.437 -0.5247  0.6882  0.5011
 
              Baa    -0.0111    -5.901    -2.106    -1.968  0.8420  0.4354 -0.3186
    13 H(1)   Bbb    -0.0088    -4.676    -1.669    -1.560  0.1649  0.3545  0.9204
              Bcc     0.0198    10.577     3.774     3.528 -0.5136  0.8275 -0.2267
 
              Baa    -0.4814   -64.602   -23.052   -21.549  0.9990 -0.0283 -0.0360
    14 C(13)  Bbb    -0.4774   -64.062   -22.859   -21.369  0.0081  0.8838 -0.4677
              Bcc     0.9588   128.664    45.911    42.918  0.0451  0.4669  0.8831
 
              Baa    -0.0585   -31.215   -11.138   -10.412  0.9972 -0.0732 -0.0128
    15 H(1)   Bbb    -0.0129    -6.892    -2.459    -2.299  0.0636  0.7519  0.6562
              Bcc     0.0714    38.107    13.597    12.711 -0.0384 -0.6552  0.7545
 
              Baa    -0.0204    -2.734    -0.976    -0.912 -0.4429  0.8056 -0.3936
    16 C(13)  Bbb    -0.0172    -2.313    -0.825    -0.771 -0.5070  0.1371  0.8510
              Bcc     0.0376     5.047     1.801     1.684  0.7395  0.5764  0.3477
 
              Baa    -0.0096    -5.102    -1.820    -1.702 -0.3932  0.8070 -0.4406
    17 H(1)   Bbb    -0.0040    -2.149    -0.767    -0.717 -0.6656  0.0808  0.7419
              Bcc     0.0136     7.251     2.587     2.419  0.6343  0.5850  0.5054
 
              Baa    -0.0109    -5.799    -2.069    -1.934 -0.0055  0.8590 -0.5119
    18 H(1)   Bbb    -0.0086    -4.595    -1.640    -1.533 -0.1153  0.5080  0.8536
              Bcc     0.0195    10.394     3.709     3.467  0.9933  0.0637  0.0963
 
              Baa    -0.0107    -5.727    -2.043    -1.910  0.7654 -0.5697  0.2993
    19 H(1)   Bbb    -0.0086    -4.581    -1.635    -1.528 -0.0819  0.3750  0.9234
              Bcc     0.0193    10.308     3.678     3.438  0.6383  0.7313 -0.2404
 

 ---------------------------------------------------------------------------------

 No NMR shielding tensors so no spin-rotation constants.
 Leave Link  601 at Sat Nov  7 01:57:10 2015, MaxMem=   805306368 cpu:         1.2
 (Enter /home/hetanjin/apps/g09D01/g09/l701.exe)
 Compute integral first derivatives.
 ... and contract with generalized density number  0.
 Leave Link  701 at Sat Nov  7 01:57:10 2015, MaxMem=   805306368 cpu:         1.1
 (Enter /home/hetanjin/apps/g09D01/g09/l702.exe)
 L702 exits ... SP integral derivatives will be done elsewhere.
 Leave Link  702 at Sat Nov  7 01:57:10 2015, MaxMem=   805306368 cpu:         0.1
 (Enter /home/hetanjin/apps/g09D01/g09/l703.exe)
 Compute integral first derivatives, UseDBF=F ICtDFT=           0.
 Integral derivatives from FoFJK, PRISM(SPDF).
 Calling FoFJK, ICntrl=      2127 FMM=F ISym2X=0 I1Cent= 0 IOpClX= 1 NMat=1 NMatS=1 NMatT=0.
 FoFJK:  IHMeth= 1 ICntrl=    2127 DoSepK=F KAlg= 0 I1Cent=   0 FoldK=F
 IRaf=         0 NMat=   1 IRICut=       1 DoRegI=T DoRafI=F ISym2E= 0.
 FoFCou: FMM=F IPFlag=           0 FMFlag=      100000 FMFlg1=         800
         NFxFlg=           0 DoJE=F BraDBF=F KetDBF=F FulRan=T
         wScrn=  0.000000 ICntrl=    2127 IOpCl=  1 I1Cent=           0 NGrid=           0
         NMat0=    1 NMatS0=      1 NMatT0=    0 NMatD0=    1 NMtDS0=    0 NMtDT0=    0
 Symmetry not used in FoFCou.
 Leave Link  703 at Sat Nov  7 01:57:17 2015, MaxMem=   805306368 cpu:        28.8
 (Enter /home/hetanjin/apps/g09D01/g09/l716.exe)
 Dipole        = 1.52164217D-02 1.53264032D-01 1.77545449D-01
 ***** Axes restored to original set *****
 -------------------------------------------------------------------
 Center     Atomic                   Forces (Hartrees/Bohr)
 Number     Number              X              Y              Z
 -------------------------------------------------------------------
      1        6           0.000037310   -0.000009967   -0.000023149
      2        1           0.000001439   -0.000005271    0.000004714
      3        1          -0.000002709   -0.000056352   -0.000024331
      4        1          -0.000001018   -0.000023450   -0.000001691
      5        6           0.000025218   -0.000113249   -0.000139791
      6        1          -0.000000789    0.000004184    0.000009430
      7        1          -0.000212957   -0.000018559   -0.000142643
      8        6          -0.000333304    0.002057887    0.000333780
      9        1          -0.000243102   -0.000681974   -0.000635728
     10        1           0.000020853   -0.000110918   -0.000009861
     11        6           0.014307927    0.003785203    0.016429393
     12        1           0.000466210   -0.002069172   -0.002503233
     13        1          -0.001322009   -0.000188054   -0.000394157
     14        6          -0.030137251   -0.020416644   -0.035552798
     15        1           0.010191479    0.006691518    0.010123118
     16        6           0.009426769    0.012331390    0.016364172
     17        1          -0.001484380    0.000830190   -0.002806002
     18        1          -0.000074939   -0.000838852   -0.000643861
     19        1          -0.000664747   -0.001167909   -0.000387361
 -------------------------------------------------------------------
 Cartesian Forces:  Max     0.035552798 RMS     0.008239774
 Leave Link  716 at Sat Nov  7 01:57:18 2015, MaxMem=   805306368 cpu:         0.1
 (Enter /home/hetanjin/apps/g09D01/g09/l103.exe)

 GradGradGradGradGradGradGradGradGradGradGradGradGradGradGradGradGradGrad
 Berny optimization.
 FormGI is forming the generalized inverse of G from B-inverse, IUseBI=4.
 Internal  Forces:  Max     0.013396599 RMS     0.003110316
 Search for a local minimum.
 Step number   1 out of a maximum of  100
 All quantities printed in internal units (Hartrees-Bohrs-Radians)
 RMS Force = .31103D-02 SwitMx=.10000D-02 MixMth= 1
 Mixed Optimization -- RFO/linear search
 Second derivative matrix not updated -- first step.
 ITU=  0
     Eigenvalues ---    0.00315   0.00315   0.00318   0.00341   0.00341
     Eigenvalues ---    0.02302   0.03382   0.03425   0.03848   0.04763
     Eigenvalues ---    0.04780   0.05298   0.05434   0.05477   0.06912
     Eigenvalues ---    0.06959   0.08440   0.08496   0.09453   0.11019
     Eigenvalues ---    0.12286   0.12327   0.12926   0.16000   0.16000
     Eigenvalues ---    0.16000   0.16000   0.16000   0.16000   0.21899
     Eigenvalues ---    0.21905   0.21934   0.23379   0.29047   0.29047
     Eigenvalues ---    0.29069   0.29228   0.29228   0.33635   0.33635
     Eigenvalues ---    0.33635   0.33635   0.33749   0.33749   0.33749
     Eigenvalues ---    0.34007   0.34007   0.34007   0.34007   0.34120
     Eigenvalues ---    0.34120
 RFO step:  Lambda=-1.32537589D-02 EMin= 3.14701035D-03
 Linear search not attempted -- first point.
 Iteration  1 RMS(Cart)=  0.06755712 RMS(Int)=  0.00624499
 Iteration  2 RMS(Cart)=  0.00801928 RMS(Int)=  0.00407445
 Iteration  3 RMS(Cart)=  0.00002617 RMS(Int)=  0.00407439
 Iteration  4 RMS(Cart)=  0.00000025 RMS(Int)=  0.00407439
 ITry= 1 IFail=0 DXMaxC= 2.32D-01 DCOld= 1.00D+10 DXMaxT= 3.00D-01 DXLimC= 3.00D+00 Rises=F
 Variable       Old X    -DE/DX   Delta X   Delta X   Delta X     New X
                                 (Linear)    (Quad)   (Total)
    R1        2.07318   0.00000   0.00000  -0.00001  -0.00001   2.07317
    R2        2.07318  -0.00004   0.00000  -0.00012  -0.00012   2.07306
    R3        2.07128  -0.00001   0.00000  -0.00002  -0.00002   2.07126
    R4        2.89530  -0.00009   0.00000  -0.00031  -0.00031   2.89499
    R5        2.07756   0.00001   0.00000   0.00002   0.00002   2.07758
    R6        2.07756   0.00023   0.00000   0.00065   0.00065   2.07821
    R7        2.89905   0.00005   0.00000   0.00017   0.00017   2.89922
    R8        2.07951  -0.00086   0.00000  -0.00245  -0.00245   2.07705
    R9        2.07951  -0.00002   0.00000  -0.00005  -0.00005   2.07945
   R10        2.89859   0.00105   0.00000   0.00345   0.00345   2.90204
   R11        2.07951   0.00246   0.00000   0.00702   0.00702   2.08653
   R12        2.07951   0.00041   0.00000   0.00118   0.00118   2.08068
   R13        2.89905  -0.01069   0.00000  -0.03520  -0.03520   2.86385
   R14        2.07756  -0.00075   0.00000  -0.00213  -0.00213   2.07543
   R15        2.89530  -0.01115   0.00000  -0.03651  -0.03651   2.85880
   R16        2.07318   0.00266   0.00000   0.00752   0.00752   2.08070
   R17        2.07128   0.00024   0.00000   0.00067   0.00067   2.07195
   R18        2.07318   0.00042   0.00000   0.00119   0.00119   2.07437
    A1        1.87582   0.00002   0.00000   0.00008   0.00008   1.87591
    A2        1.87917   0.00001   0.00000   0.00013   0.00013   1.87930
    A3        1.94050   0.00001   0.00000   0.00007   0.00007   1.94057
    A4        1.87917   0.00004   0.00000   0.00020   0.00020   1.87938
    A5        1.94050  -0.00006   0.00000  -0.00038  -0.00038   1.94012
    A6        1.94554  -0.00002   0.00000  -0.00008  -0.00008   1.94545
    A7        1.91025   0.00005   0.00000   0.00003   0.00003   1.91029
    A8        1.91025  -0.00003   0.00000  -0.00031  -0.00031   1.90994
    A9        1.97691  -0.00013   0.00000  -0.00057  -0.00057   1.97634
   A10        1.84998  -0.00004   0.00000  -0.00017  -0.00017   1.84982
   A11        1.90607   0.00002   0.00000  -0.00005  -0.00005   1.90601
   A12        1.90607   0.00014   0.00000   0.00110   0.00110   1.90716
   A13        1.90580   0.00038   0.00000   0.00347   0.00347   1.90927
   A14        1.90580   0.00000   0.00000  -0.00006  -0.00006   1.90575
   A15        1.98329  -0.00011   0.00000  -0.00061  -0.00061   1.98268
   A16        1.84895   0.00002   0.00000   0.00057   0.00056   1.84952
   A17        1.90759  -0.00028   0.00000  -0.00236  -0.00236   1.90523
   A18        1.90759   0.00001   0.00000  -0.00092  -0.00092   1.90668
   A19        1.90759   0.00060   0.00000   0.00023   0.00024   1.90783
   A20        1.90759  -0.00064   0.00000   0.00513   0.00495   1.91255
   A21        1.98329   0.00191   0.00000   0.00899   0.00888   1.99217
   A22        1.84895   0.00008   0.00000  -0.00255  -0.00248   1.84647
   A23        1.90580  -0.00270   0.00000  -0.02562  -0.02558   1.88023
   A24        1.90580   0.00063   0.00000   0.01300   0.01288   1.91868
   A25        1.90607   0.00114   0.00000   0.11744   0.09467   2.00074
   A26        1.97691   0.01340   0.00000   0.10049   0.08089   2.05780
   A27        1.91025   0.00106   0.00000   0.11693   0.09413   2.00438
   A28        1.94050  -0.00372   0.00000  -0.02548  -0.02544   1.91505
   A29        1.94554   0.00159   0.00000   0.01088   0.01076   1.95630
   A30        1.94050   0.00211   0.00000   0.01445   0.01436   1.95485
   A31        1.87917   0.00030   0.00000  -0.00252  -0.00251   1.87666
   A32        1.87582   0.00019   0.00000  -0.00218  -0.00213   1.87369
   A33        1.87917  -0.00046   0.00000   0.00480   0.00458   1.88375
    D1       -3.10715  -0.00001   0.00000  -0.00007  -0.00007  -3.10722
    D2       -1.08672  -0.00004   0.00000  -0.00042  -0.00042  -1.08715
    D3        1.04465   0.00003   0.00000   0.00037   0.00037   1.04502
    D4        1.08672   0.00000   0.00000   0.00003   0.00003   1.08676
    D5        3.10715  -0.00003   0.00000  -0.00033  -0.00033   3.10683
    D6       -1.04465   0.00003   0.00000   0.00047   0.00047  -1.04419
    D7       -1.01021   0.00000   0.00000   0.00009   0.00009  -1.01013
    D8        1.01021  -0.00003   0.00000  -0.00027  -0.00027   1.00994
    D9        3.14159   0.00004   0.00000   0.00052   0.00052  -3.14107
   D10        1.00712   0.00015   0.00000   0.00167   0.00167   1.00879
   D11       -1.00712  -0.00008   0.00000  -0.00089  -0.00089  -1.00801
   D12        3.14159  -0.00001   0.00000   0.00075   0.00075  -3.14084
   D13       -1.12659   0.00016   0.00000   0.00205   0.00205  -1.12454
   D14       -3.14083  -0.00007   0.00000  -0.00050  -0.00050  -3.14134
   D15        1.00788   0.00000   0.00000   0.00114   0.00114   1.00902
   D16        3.14083   0.00012   0.00000   0.00167   0.00168  -3.14068
   D17        1.12659  -0.00011   0.00000  -0.00088  -0.00088   1.12571
   D18       -1.00788  -0.00004   0.00000   0.00076   0.00076  -1.00712
   D19        1.00811   0.00046   0.00000   0.00497   0.00498   1.01309
   D20       -1.00811   0.00039   0.00000   0.00504   0.00506  -1.00305
   D21        3.14159  -0.00127   0.00000  -0.02173  -0.02176   3.11983
   D22        3.14159   0.00067   0.00000   0.00728   0.00729  -3.13430
   D23        1.12537   0.00060   0.00000   0.00736   0.00738   1.13274
   D24       -1.00811  -0.00106   0.00000  -0.01942  -0.01945  -1.02756
   D25       -1.12537   0.00053   0.00000   0.00614   0.00615  -1.11922
   D26        3.14159   0.00046   0.00000   0.00621   0.00623  -3.13536
   D27        1.00811  -0.00119   0.00000  -0.02057  -0.02059   0.98752
   D28       -1.00788   0.00597   0.00000   0.16448   0.16697  -0.84091
   D29        3.14159  -0.00538   0.00000  -0.14002  -0.14242   2.99917
   D30        1.12659   0.00606   0.00000   0.15207   0.15454   1.28113
   D31       -1.00712  -0.00528   0.00000  -0.15243  -0.15485  -1.16197
   D32        3.14083   0.00502   0.00000   0.14207   0.14444  -2.99791
   D33        1.00712  -0.00633   0.00000  -0.16243  -0.16495   0.84217
   D34        1.04465   0.00588   0.00000   0.15867   0.16107   1.20572
   D35        3.14159   0.00480   0.00000   0.14551   0.14784  -2.99376
   D36       -1.04465   0.00672   0.00000   0.16879   0.17130  -0.87335
   D37       -1.08672  -0.00556   0.00000  -0.14681  -0.14924  -1.23597
   D38        1.01021  -0.00664   0.00000  -0.15997  -0.16247   0.84774
   D39        3.10715  -0.00472   0.00000  -0.13670  -0.13901   2.96815
         Item               Value     Threshold  Converged?
 Maximum Force            0.013397     0.000015     NO 
 RMS     Force            0.003110     0.000010     NO 
 Maximum Displacement     0.231928     0.000060     NO 
 RMS     Displacement     0.065046     0.000040     NO 
 Predicted change in Energy=-9.830212D-03
 Lowest energy point so far.  Saving SCF results.
 GradGradGradGradGradGradGradGradGradGradGradGradGradGradGradGradGradGrad

 Leave Link  103 at Sat Nov  7 01:57:18 2015, MaxMem=   805306368 cpu:         0.1
 (Enter /home/hetanjin/apps/g09D01/g09/l202.exe)
                          Input orientation:                          
 ---------------------------------------------------------------------
 Center     Atomic      Atomic             Coordinates (Angstroms)
 Number     Number       Type             X           Y           Z
 ---------------------------------------------------------------------
      1          6           0       -1.397992    2.916172    0.031503
      2          1           0       -0.894283    3.319967   -0.855513
      3          1           0       -0.862109    3.289021    0.913127
      4          1           0       -2.411502    3.332696    0.057189
      5          6           0       -1.421783    1.384612    0.005549
      6          1           0       -1.962526    1.011866    0.887223
      7          1           0       -1.994983    1.042369   -0.868372
      8          6           0       -0.021813    0.758038   -0.030079
      9          1           0        0.552565    1.098096    0.843155
     10          1           0        0.519280    1.131486   -0.912481
     11          6           0       -0.035945   -0.777346   -0.057333
     12          1           0       -0.606089   -1.121668   -0.937964
     13          1           0       -0.581822   -1.156977    0.820281
     14          6           0        1.340155   -1.408824   -0.122731
     15          1           0        2.004312   -0.981112   -0.885719
     16          6           0        1.438477   -2.910050    0.036166
     17          1           0        1.000301   -3.406341   -0.843624
     18          1           0        2.477845   -3.248302    0.122508
     19          1           0        0.892515   -3.266822    0.919120
 ---------------------------------------------------------------------
                    Distance matrix (angstroms):
                    1          2          3          4          5
     1  C    0.000000
     2  H    1.097073   0.000000
     3  H    1.097018   1.769203   0.000000
     4  H    1.096063   1.770632   1.770637   0.000000
     5  C    1.531965   2.182953   2.182593   2.185690   0.000000
     6  H    2.162716   3.083116   2.529234   2.505352   1.099406
     7  H    2.162710   2.529656   3.082952   2.505144   1.099739
     8  C    2.560313   2.829492   2.828712   3.513843   1.534204
     9  H    2.787266   3.148897   2.608899   3.794321   2.163730
    10  H    2.784267   2.605927   3.145797   3.791446   2.162077
    11  C    3.937657   4.261667   4.261418   4.748560   2.568767
    12  H    4.227426   4.451739   4.790226   4.908278   2.799466
    13  H    4.228339   4.790506   4.455792   4.907871   2.798034
    14  C    5.121214   5.281207   5.290814   6.048909   3.930399
    15  H    5.254122   5.186718   5.448509   6.244791   4.257832
    16  C    6.480003   6.711927   6.670100   7.334483   5.160053
    17  H    6.818492   6.988048   7.168167   7.607002   5.435146
    18  H    7.282248   7.447814   7.383560   8.198750   6.056787
    19  H    6.653097   7.051791   6.786591   7.430550   5.275076
                    6          7          8          9         10
     6  H    0.000000
     7  H    1.756161   0.000000
     8  C    2.161537   2.162632   0.000000
     9  H    2.516954   3.069598   1.099130   0.000000
    10  H    3.067997   2.516228   1.100399   1.756269   0.000000
    11  C    2.793775   2.794096   1.535691   2.162060   2.164068
    12  H    3.118204   2.572338   2.167701   3.072819   2.518692
    13  H    2.571906   3.112185   2.168872   2.524422   3.074403
    14  C    4.217516   4.205647   2.561022   2.799621   2.784011
    15  H    4.780281   4.482090   2.803916   3.069150   2.582461
    16  C    5.260470   5.313045   3.948633   4.183456   4.251925
    17  H    5.594169   5.363148   4.364473   4.830698   4.563770
    18  H    6.200864   6.276773   4.724652   4.808036   4.908128
    19  H    5.143874   5.486519   4.235148   4.378795   4.779036
                   11         12         13         14         15
    11  C    0.000000
    12  H    1.104143   0.000000
    13  H    1.101049   1.758767   0.000000
    14  C    1.515484   2.129537   2.155619   0.000000
    15  H    2.211423   2.614705   3.103136   1.098269   0.000000
    16  C    2.594434   2.885739   2.787420   1.512810   2.211525
    17  H    2.933202   2.794480   3.214240   2.150642   2.625176
    18  H    3.529463   3.893305   3.771219   2.176731   2.526046
[...]
 6874,-0.05062906,0.02589329,-0.01163865,-0.00057573,-0.02544381,0.0114
 4902,0.00234530,-0.01353849,0.00579453,0.04888018,-0.08151783,-0.00685
 007,-0.00025085,-0.00134871,-0.01566124,-0.00118877,-0.00133579,-0.018
 09505,0.00021363,0.00371629,0.03304657,0.00094843,0.51131155,-0.007778
 24,-0.19414734,-0.00355103,-0.00087594,-0.01316677,-0.00057205,-0.0008
 1203,-0.01112042,-0.00029051,-0.00217843,-0.01214818,-0.00029606,0.036
 54895,0.48498300,-0.00030103,-0.00368246,-0.08167053,0.00088088,0.0294
 9758,0.00200910,-0.00072584,-0.02903982,0.00000011,-0.00027325,-0.0017
 1040,-0.00141887,0.00440161,-0.00501560,0.59206153,-0.00047912,-0.0004
 3307,0.00046951,0.00092436,0.00007222,-0.00002533,-0.00018020,-0.00004
 996,0.00022019,0.00045963,-0.00022174,-0.00042307,-0.10535958,-0.04047
 683,0.09461554,0.11536867,-0.01617337,-0.01370338,0.02906475,-0.000254
 32,-0.00706806,-0.00070826,-0.00017650,0.00155608,-0.00046243,0.000558
 38,0.00134035,0.00000821,-0.04037260,-0.07687372,0.06787279,0.04206652
 ,0.08711609,-0.00134079,-0.00089559,0.00190698,-0.00039667,-0.00069618
 ,0.00165032,-0.00001436,0.00046298,0.00085790,-0.00031537,0.00057307,0
 .00009978,0.09488434,0.06821177,-0.21814833,-0.10638179,-0.07567527,0.
 23420755,-0.00045492,-0.00034905,-0.00036282,-0.00019053,-0.00007141,-
 0.00014046,0.00095779,0.00010250,0.00008973,0.00051826,-0.00028753,0.0
 0037095,-0.12146073,-0.03852120,-0.10546386,0.00908712,0.00511413,0.01
 247579,0.13343214,-0.01853601,-0.01169318,-0.02858032,-0.00013899,0.00
 155064,0.00052547,-0.00024896,-0.00710928,0.00012357,0.00053248,0.0013
 7178,0.00004232,-0.03835004,-0.06829150,-0.05479296,0.00670376,0.00322
 366,0.00891686,0.03990832,0.07750450,0.00025626,-0.00000855,-0.0000927
 2,0.00008578,-0.00041424,0.00087226,0.00043156,0.00008406,0.00166576,0
 .00031756,-0.00046192,0.00000755,-0.10570840,-0.05510291,-0.21032078,-
 0.01461128,-0.00762013,-0.02230016,0.11769780,0.06209652,0.22552833,0.
 00217830,0.00500392,0.00007269,0.00060605,-0.00159901,0.00003612,0.000
 67178,-0.00167943,-0.00021449,0.00096627,-0.00327968,-0.00015106,-0.17
 266771,0.03663789,0.00456901,-0.01687419,0.00688389,0.00085530,-0.0192
 4857,0.00783516,0.00112271,0.51674457,0.03394039,-0.01848320,-0.002016
 54,0.00040648,0.00165116,-0.00024985,0.00037520,0.00168338,0.00033376,
 0.00016275,-0.00685197,-0.00024742,0.03646037,-0.09473501,-0.00210944,
 -0.00951691,0.00392516,0.00025562,-0.00770818,0.00307077,0.00059383,0.
 03331895,0.47605918,0.00115990,-0.00087197,-0.00020705,-0.00095426,0.0
 0106943,0.00010234,0.00093393,-0.00083382,-0.00002691,-0.00001892,-0.0
 0014343,0.00022802,0.00503209,-0.00236377,-0.08234306,0.02714068,-0.01
 210849,-0.00148590,-0.02641766,0.01170680,0.00144786,0.00581295,-0.004
 11859,0.59123044,0.00101809,-0.00155317,-0.00037921,0.00002659,0.00015
 205,0.00007188,0.00041937,0.00103628,0.00055841,0.00023518,-0.00015920
 ,0.00046240,-0.01872132,-0.00761593,-0.02603125,0.00118438,-0.00070075
 ,0.00031921,-0.00548046,0.00288313,0.00060156,-0.12219064,-0.03810005,
 -0.10645463,0.13419135,0.00027619,0.00116289,0.00104918,0.00002311,-0.
 00003421,0.00004512,-0.00012638,-0.00006431,-0.00042074,-0.00019555,0.
 00014726,-0.00011057,0.00779689,0.00296226,0.01168327,-0.00068365,0.00
 022573,-0.00033385,0.00298631,-0.00089712,-0.00019583,-0.03783627,-0.0
 6743294,-0.05403920,0.03975016,0.07654834,0.00016687,-0.00002423,0.000
 11982,-0.00005010,-0.00006851,-0.00004990,-0.00016391,0.00062772,0.000
 22643,0.00014857,0.00027198,0.00023917,0.00138038,0.00058723,0.0016659
 4,-0.00041537,0.00035162,0.00094250,0.00073092,-0.00024121,0.00170892,
 -0.10647546,-0.05461091,-0.21145432,0.11861883,0.06111402,0.22643388,0
 .00105717,-0.00159855,0.00018541,0.00039454,0.00101771,-0.00050154,0.0
 0002465,0.00016144,-0.00006682,0.00018258,-0.00016064,-0.00046834,-0.0
 1684540,-0.00954196,0.02704490,-0.00557094,0.00293304,0.00016552,0.001
 18424,-0.00068537,-0.00038243,-0.10417345,-0.03990767,0.09378020,0.009
 06423,0.00659968,-0.01467766,0.11474018,0.00022355,0.00124832,-0.00101
 980,-0.00010585,-0.00004046,0.00041565,0.00001516,-0.00003787,-0.00004
 697,-0.00017590,0.00015776,0.00011327,0.00694691,0.00381869,-0.0120648
 3,0.00302270,-0.00089979,-0.00024002,-0.00069470,0.00022158,0.00034542
 ,-0.03979229,-0.07624290,0.06728572,0.00497426,0.00313402,-0.00754140,
 0.04177336,0.08654766,-0.00023964,0.00026935,0.00005306,0.00013910,-0.
 00074586,0.00024239,0.00004226,0.00005510,-0.00004720,-0.00015825,-0.0
 0026919,0.00028167,0.00068688,0.00045299,-0.00155936,0.00015495,-0.000
 19880,0.00174174,0.00034984,-0.00033671,0.00095807,0.09394074,0.067654
 45,-0.21734891,0.01263263,0.00892175,-0.02216310,-0.10586041,-0.075122
 30,0.23355622,-0.00674490,0.00129883,0.00029487,0.00010788,0.00003280,
 -0.00032931,0.00013626,-0.00000656,0.00032608,0.00004624,0.00241018,0.
 00008960,0.00302666,0.03325809,0.00135321,0.00081163,0.00019329,-0.000
 20493,0.00082336,0.00035734,0.00011549,-0.07992263,-0.01279753,0.00216
 385,-0.00035784,-0.01742853,0.00027423,-0.00109168,-0.01557180,-0.0010
 7870,0.50162290,0.00125398,0.00011158,0.00000437,0.00010894,-0.0000638
 0,-0.00003692,0.00010073,-0.00006765,0.00000487,-0.00041574,-0.0000473
 6,-0.00000941,0.00439282,-0.01766905,-0.00055159,-0.00176750,0.0012976
 2,0.00041127,-0.00162573,0.00116101,-0.00013488,-0.00898326,-0.1802480
 1,-0.00374380,-0.00064174,-0.01203854,-0.00000398,-0.00098921,-0.01441
 287,-0.00072467,0.01530364,0.47544563,0.00052900,-0.00000336,-0.000528
 78,-0.00009202,-0.00026313,0.00029897,0.00010156,0.00022441,0.00024966
 ,-0.00002164,-0.00019310,0.00057781,-0.00035727,-0.00271731,-0.0004420
 7,0.00026785,-0.00093286,-0.00003433,-0.00041614,0.00104769,0.00009364
 ,0.00377343,-0.00442762,-0.08011332,-0.00069366,-0.02795820,-0.0004051
 7,0.00138722,0.02904144,0.00119429,-0.02430537,-0.02157926,0.52506504,
 0.00017481,0.00001473,0.00024892,-0.00002809,-0.00004344,-0.00000304,-
 0.00009346,0.00013880,-0.00000638,0.00001545,-0.00005251,0.00000424,0.
 00049492,0.00057636,0.00066345,-0.00000133,-0.00001416,0.00009935,0.00
 053984,-0.00012692,-0.00003776,-0.00109918,-0.00141485,-0.00240097,0.0
 0034156,-0.00010734,0.00016547,-0.00018310,0.00000993,-0.00004159,-0.1
 1284526,-0.03870381,-0.10423064,0.13046703,-0.00005204,-0.00004559,0.0
 0022427,-0.00003729,0.00000039,-0.00002026,0.00009083,0.00026995,0.000
 19946,0.00010712,0.00003842,0.00008509,-0.00162719,0.00157943,-0.00095
 314,0.00016434,-0.00004279,0.00004375,0.00100670,-0.00007684,0.0006333
 9,-0.01887316,-0.01294987,-0.02854673,-0.00017867,-0.00706760,-0.00005
 219,-0.00004083,0.00161971,0.00053324,-0.03053628,-0.06116253,-0.04397
 446,0.03664994,0.07036065,0.00036897,-0.00003461,0.00031563,-0.0000119
 7,0.00003298,-0.00002192,-0.00001553,0.00022609,0.00001204,0.00002731,
 -0.00010056,-0.00001632,-0.00036519,0.00046091,-0.00015663,-0.00006007
 ,-0.00004684,-0.00004384,0.00063354,-0.00044321,0.00035053,-0.00108303
 ,-0.00035960,-0.00179644,-0.00007890,-0.00040467,0.00154315,0.00019724
 ,-0.00030085,0.00096148,-0.09246725,-0.04944301,-0.18539059,0.11172993
 ,0.05357857,0.20374329,0.00007319,0.00007933,-0.00015432,-0.00009508,0
 .00007540,0.00003131,-0.00002705,-0.00004362,-0.00000182,0.00001364,-0
 .00003292,-0.00000147,0.00052325,0.00042209,-0.00069002,0.00039667,-0.
 00003660,0.00010100,0.00002501,0.00001058,-0.00010568,-0.00136742,-0.0
 0071724,0.00103354,-0.00027175,-0.00007161,0.00013603,0.00039771,-0.00
 007391,-0.00005082,-0.09831196,-0.03889807,0.09446535,0.00895818,0.005
 93938,-0.01502497,0.11325045,0.00009186,-0.00005381,-0.00027234,0.0000
 6162,0.00030825,-0.00017504,-0.00004112,-0.00000017,0.00001726,0.00008
 895,-0.00000333,-0.00009020,-0.00159522,0.00134198,0.00106106,0.000992
 86,-0.00006186,-0.00074100,0.00014067,-0.00005248,-0.00004682,-0.01507
 095,-0.01274564,0.02852358,-0.00011528,0.00158656,-0.00049650,-0.00012
 975,-0.00684965,-0.00053183,-0.03692495,-0.07901559,0.06626139,0.00354
 922,0.00330899,-0.00719973,0.04170651,0.08618008,-0.00034107,-0.000013
 36,0.00033241,0.00003104,-0.00018816,-0.00003059,0.00000845,-0.0000190
 3,-0.00001887,-0.00001650,0.00011064,-0.00002073,0.00010437,-0.0001595
 6,-0.00001665,-0.00052732,0.00038249,0.00034226,0.00007851,0.00003485,
 -0.00003154,-0.00130235,-0.00046623,0.00159866,-0.00013664,0.00038927,
 0.00091030,-0.00003188,-0.00065588,0.00159665,0.09304838,0.06809462,-0
 .20932095,0.01135917,0.00913142,-0.02470386,-0.10325139,-0.07576981,0.
 22791235,0.00099345,-0.00039117,-0.00006547,-0.00002842,0.00004346,0.0
 0004663,-0.00003795,0.00010288,-0.00001716,0.00008283,-0.00038905,-0.0
 0000698,-0.00105495,-0.00183472,0.00018610,-0.00010119,0.00018354,-0.0
 0016266,0.00015475,-0.00002152,0.00023396,0.00106079,0.00803330,-0.000
 93707,0.00044493,-0.00147765,-0.00029393,0.00060713,-0.00210668,0.0006
 0091,-0.19524734,0.05267861,0.01862187,-0.02704015,0.00834842,-0.00282
 950,-0.02121547,0.00527675,0.00206157,0.52431795,0.00200223,-0.0000861
 8,-0.00017616,-0.00003506,0.00005712,0.00008680,-0.00004599,0.00004830
 ,-0.00007497,0.00000394,-0.00071970,-0.00002735,-0.00204878,-0.0060186
 8,-0.00014675,0.00007812,0.00007265,-0.00034713,0.00001721,-0.00000207
 ,0.00026212,0.03393317,-0.01862704,-0.00127668,0.00049732,0.00169865,0
 .00023840,0.00072892,0.00134882,-0.00015691,0.05156457,-0.10785629,0.0
 0661876,-0.00208763,0.00423477,0.00356236,-0.01073011,0.00573840,0.000
 76368,0.00120721,0.51000791,-0.00027111,0.00002707,0.00045729,-0.00000
 676,-0.00008878,-0.00002930,0.00000236,0.00011491,0.00003492,-0.000008
 06,0.00012467,0.00001542,0.00031433,0.00089285,0.00001750,-0.00025763,
 -0.00003979,0.00026284,0.00051448,-0.00014667,0.00016430,-0.00129109,-
 0.00044742,-0.00086087,0.00043895,0.00042598,0.00060621,-0.00073119,0.
 00041207,0.00021472,0.02056052,0.00627122,-0.05702833,-0.01947155,0.01
 033380,0.00610962,0.02308059,-0.00989742,0.00092498,-0.13917123,-0.130
 15777,0.18649013,-0.00002362,0.00002180,-0.00002394,-0.00000064,0.0000
 6380,-0.00001894,0.00000112,0.00001735,0.00000691,-0.00001496,0.000025
 05,0.00000013,0.00014133,0.00030120,-0.00022839,0.00028530,-0.00010686
 ,-0.00015401,0.00006387,-0.00006338,0.00004339,0.00097195,-0.00216382,
 0.00026232,0.00004557,0.00034492,0.00015372,0.00019116,0.00114188,-0.0
 0071044,-0.01463992,-0.01318934,0.01592824,-0.00052312,-0.00000229,-0.
 00050531,-0.00416954,0.00205435,-0.00073545,-0.19728266,-0.09578120,0.
 10650088,0.20759697,-0.00007673,-0.00001310,0.00001573,-0.00000060,-0.
 00002995,0.00000850,0.00000006,-0.00001873,-0.00000522,-0.00000134,0.0
 0001849,0.00000599,0.00003864,0.00006650,-0.00008241,-0.00005127,-0.00
 009097,0.00011604,-0.00004898,0.00001466,-0.00004815,0.00052505,0.0016
 5663,-0.00094310,-0.00014773,-0.00003787,-0.00014412,-0.00013415,0.000
 17907,0.00034277,0.00973779,0.00697462,-0.00521769,0.00069471,-0.00004
 134,-0.00006891,0.00296628,-0.00052583,-0.00082072,-0.09524261,-0.1193
 3566,0.07612422,0.10118313,0.12540793,0.00008574,-0.00002117,0.0000013
 2,0.00000695,-0.00000608,0.00000958,0.00000204,-0.00001637,-0.00002027
 ,-0.00000763,-0.00002641,-0.00000255,-0.00027094,-0.00026280,-0.000004
 93,-0.00008641,0.00008175,0.00000059,-0.00011178,0.00002759,-0.0000291
 3,-0.00010833,0.00099520,0.00032746,0.00001862,-0.00032111,-0.00035729
 ,0.00009314,-0.00029152,0.00011478,-0.00070818,0.00073182,0.00337424,0
 .00073117,-0.00001837,-0.00106049,0.00150199,0.00027687,-0.00023546,0.
 11283096,0.08091221,-0.08473958,-0.11735577,-0.08472389,0.08227655,-0.
 00072437,0.00007398,0.00005885,0.00002132,-0.00000299,-0.00003069,0.00
 002680,-0.00000512,0.00002642,-0.00003667,0.00028145,0.00000972,0.0010
 5435,0.00186358,-0.00001177,0.00005481,-0.00009294,0.00006287,0.000040
 64,-0.00006030,-0.00005849,-0.00564636,-0.00023782,0.00020156,0.000096
 24,0.00012765,0.00028407,0.00011611,0.00028207,-0.00043289,0.00102324,
 0.03119253,-0.00225891,0.00094585,-0.00099670,-0.00025487,0.00091656,0
 .00008912,-0.00042386,-0.08911263,0.02222251,0.00717987,0.00502822,-0.
 02028604,0.00207421,0.56926581,0.00001277,-0.00001271,-0.00000692,0.00
 000622,0.00000445,0.00000181,0.00000544,-0.00000128,-0.00000317,-0.000
 02694,0.00002341,-0.00000133,-0.00029102,0.00004451,0.00001026,0.00001
 474,-0.00000441,0.00000065,-0.00000845,0.00001779,0.00000362,0.0008476
 3,0.00022654,0.00041112,0.00001079,-0.00009877,-0.00002685,-0.00003290
 ,-0.00007530,-0.00004739,0.00373887,-0.00985460,0.00088156,-0.00116309
 ,0.00036065,-0.00001066,-0.00160189,0.00078547,0.00038358,0.01983495,-
 0.21963291,0.03773912,0.00468066,-0.00975228,0.00042815,-0.00904067,0.
 47570421,0.00006894,0.00000771,-0.00002766,0.00000355,-0.00000367,0.00
 000801,-0.00001128,-0.00002351,-0.00001276,0.00002271,-0.00005856,-0.0
 0000631,0.00016223,-0.00039835,0.00039239,-0.00006262,0.00001414,-0.00
 002870,-0.00003650,0.00002099,-0.00003890,0.00091046,-0.00054376,-0.00
 019568,0.00003310,0.00007568,0.00006745,-0.00015891,-0.00003939,0.0002
 3123,-0.00053674,0.00099329,0.00169074,0.00082958,-0.00082101,0.000358
 81,0.00026949,-0.00143345,0.00030819,0.00699315,0.03671289,-0.06046421
 ,-0.00158934,0.01630475,0.00212532,-0.01891392,-0.01561088,0.50750244,
 0.00003241,0.00000361,-0.00000241,-0.00000521,-0.00000207,0.00000260,-
 0.00000370,-0.00000034,0.00000061,0.00000767,-0.00001558,0.00000016,-0
 .00005786,-0.00003870,0.00001187,0.00000456,0.00000175,-0.00000103,0.0
 0000873,0.00000271,-0.00000242,0.00013539,0.00006768,-0.00007333,-0.00
 004892,0.00000396,-0.00001522,-0.00001081,-0.00001995,0.00001141,-0.00
 006559,-0.00060048,-0.00046114,0.00001384,-0.00008716,-0.00020721,0.00
 016932,0.00014060,0.00003518,0.00276893,0.00005793,0.00506082,0.000204
 87,-0.00015175,0.00041971,-0.07373302,-0.04089444,-0.06125863,0.076149
 94,0.00006663,0.00002279,-0.00000658,-0.00001477,-0.00000667,0.0000058
 7,-0.00001331,-0.00000298,-0.00000089,0.00002475,-0.00005235,-0.000004
 99,-0.00000270,-0.00008614,0.00008283,0.00001218,-0.00000959,-0.000012
 93,0.00004099,-0.00002279,0.00000662,0.00040156,-0.00011117,0.00021343
 ,-0.00000321,0.00023732,0.00009673,-0.00003761,0.00005007,-0.00001782,
 -0.00127157,0.00146395,0.00072539,0.00157980,-0.00049440,0.00047081,0.
 00017304,-0.00019650,-0.00018806,-0.00917376,-0.02807813,-0.01802646,0
 .00048855,-0.00080604,0.00061164,-0.04709144,-0.11418680,-0.10582747,0
 .05018412,0.13239526,0.00003716,-0.00000105,-0.00000019,-0.00000489,0.
 00000079,0.00000188,-0.00000084,0.00000659,0.00000250,0.00000952,-0.00
 002015,-0.00000145,-0.00007890,-0.00005307,-0.00001873,0.00000067,0.00
 000035,-0.00000695,0.00001563,-0.00000475,0.00001941,0.00021302,-0.000
 03142,0.00006970,-0.00000607,0.00007918,-0.00001019,-0.00000109,0.0000
 0566,0.00000944,-0.00001893,-0.00035882,0.00026394,0.00021991,-0.00028
 779,-0.00012968,-0.00014849,0.00006547,-0.00016904,0.00403885,-0.00019
 620,0.00994281,-0.00015838,-0.00042139,-0.00117098,-0.06165462,-0.0932
 2352,-0.17980107,0.06898541,0.11106954,0.19748438,-0.00009164,-0.00002
 426,0.00000648,0.00001040,0.00000258,-0.00000694,0.00001227,0.00000661
 ,0.00000911,-0.00001723,0.00004700,0.00000345,0.00013634,0.00013884,0.
 00000944,-0.00000932,-0.00000870,0.00000223,0.00000315,-0.00000663,0.0
 0000181,-0.00030365,-0.00037888,-0.00016790,0.00002259,0.00006885,0.00
 004253,0.00001063,0.00009396,-0.00002315,0.00117221,0.00070725,-0.0008
 6562,-0.00007033,-0.00009430,-0.00008048,0.00031392,-0.00009299,-0.000
 18822,-0.00157148,0.00116435,0.00076358,0.00110708,0.00044555,0.000252
 69,-0.29584607,0.05459660,-0.02978219,-0.01139536,0.00152259,-0.001434
 80,0.32021028,0.00026395,0.00000266,-0.00001998,-0.00001381,-0.0000024
 5,0.00001420,-0.00001619,-0.00000622,-0.00001523,0.00002213,-0.0001161
 8,-0.00000508,-0.00035702,-0.00060772,-0.00001715,0.00000226,0.0000242
 5,-0.00002415,-0.00001416,0.00001612,0.00001462,0.00177762,0.00022375,
 0.00000249,-0.00005084,-0.00003055,-0.00009993,-0.00003045,-0.00002975
 ,0.00009856,-0.00165317,-0.00544886,0.00194580,0.00025920,0.00008382,0
 .00027377,-0.00027827,0.00012372,-0.00020693,0.03437963,-0.00884587,0.
 00098302,-0.00078378,0.00138249,-0.00030190,0.05446225,-0.05895580,0.0
 0990376,-0.01822989,0.00431340,-0.00149222,-0.06080797,0.06677136,-0.0
 0005240,-0.00000428,0.00000369,0.00000334,0.00000303,-0.00000528,0.000
 00334,-0.00000144,0.00000074,-0.00000394,0.00002264,-0.00000246,0.0000
 7290,0.00011740,-0.00001613,0.00000327,0.00000036,0.00000755,-0.000004
 99,-0.00000392,-0.00000113,-0.00035631,-0.00011336,0.00047258,0.000004
 41,0.00004628,-0.00000232,0.00001286,-0.00007170,-0.00004205,0.0009059
 0,0.00069577,0.00026896,0.00032737,-0.00021307,0.00008675,-0.00040290,
 0.00001525,0.00033742,-0.00501032,-0.00010492,-0.00085779,-0.00031564,
 -0.00035661,-0.00010675,-0.03019267,0.01020675,-0.05319447,-0.02587875
 ,0.00511281,-0.00347047,0.03411938,-0.00840940,0.05131278,0.00003179,0
 .00000050,0.00001021,-0.00000284,-0.00000321,-0.00000147,-0.00000638,-
 0.00000529,-0.00000490,0.00000696,-0.00001769,-0.00000113,-0.00003482,
 -0.00007301,-0.00001059,-0.00000127,0.00000225,0.00000602,-0.00000370,
 0.00000464,-0.00000141,0.00015870,0.00017782,-0.00009627,-0.00001914,-
 0.00005074,-0.00000998,-0.00009493,0.00005730,0.00003717,0.00045675,0.
 00007638,-0.00137213,-0.00006746,0.00021917,0.00002729,0.00042037,-0.0
 0022223,0.00022800,0.00226149,-0.00274872,-0.00320778,0.00101703,0.000
 54999,0.00063181,-0.11349081,-0.03068927,0.10305691,0.00582481,0.00311
 416,-0.01001314,-0.01369379,-0.00893147,0.02676514,0.11723724,-0.00000
 108,0.00000929,0.00000349,-0.00000431,0.00000960,-0.00000654,-0.000005
 73,-0.00000384,0.00000109,0.00000087,-0.00000119,0.00000137,0.00001977
 ,0.00006817,-0.00004125,0.00007122,-0.00002699,-0.00002590,0.00001257,
 -0.00000724,-0.00000678,-0.00005078,-0.00006881,-0.00022298,-0.0000374
 1,-0.00000111,0.00002213,0.00007494,0.00026288,-0.00017673,-0.00170501
 ,0.00143073,0.00052057,0.00024107,0.00002418,-0.00019287,0.00111163,0.
 00013142,-0.00080282,-0.01945158,-0.01400409,0.02535537,0.00176797,-0.
 00504862,0.00192440,-0.03278110,-0.06459216,0.06072686,0.00957800,0.00
 557078,-0.01513721,0.00261955,0.00110183,-0.00694158,0.03853942,0.0751
 4517,-0.00003113,-0.00000187,0.00000253,0.00000143,-0.00000585,0.00000
 250,0.00000555,0.00000005,-0.00000002,-0.00000595,0.00001813,-0.000001
 43,0.00001913,0.00005988,-0.00003048,-0.00002177,0.00001643,0.00002820
 ,-0.00000296,0.00000708,-0.00000228,-0.00032430,-0.00009069,0.00035540
 ,0.00002036,-0.00004555,-0.00002147,0.00001377,-0.00022456,0.00000487,
 0.00051727,-0.00062089,0.00018628,-0.00018662,0.00012403,-0.00016155,-
 0.00078742,0.00043324,0.00028447,0.00288032,0.00350761,-0.00126065,-0.
 00109998,-0.00008578,-0.00050243,0.10433511,0.05886408,-0.21891484,0.0
 1337236,0.00568953,-0.02301532,-0.00266142,-0.00264425,0.00520839,-0.1
 1604375,-0.06500062,0.23783783\\0.00000011,0.00000009,-0.00000036,0.00
 000029,0.,-0.00000027,-0.00000004,0.00000006,-0.00000024,0.00000012,0.
 00000009,-0.00000054,0.00000012,0.,-0.00000028,-0.00000016,0.00000012,
 -0.00000037,0.00000020,0.00000005,-0.00000039,-0.00000007,0.00000009,-
 0.00000004,-0.00000011,-0.00000003,0.00000009,0.00000023,-0.00000006,0
 .00000006,-0.00000002,-0.00000012,0.00000004,0.00000014,0.00000001,-0.
 00000006,-0.00000021,0.00000005,-0.00000005,-0.00000002,0.00000006,0.0
 0000031,0.00000009,-0.00000011,0.00000044,-0.00000012,-0.00000010,0.00
 000043,-0.00000002,-0.00000009,0.00000034,-0.00000019,-0.00000009,0.00
 000060,-0.00000033,-0.00000001,0.00000030\\\@


 THE MORE PROGRESS PHYSICAL SCIENCES MAKE, THE MORE THEY TEND TO ENTER
 THE DOMAIN OF MATHEMATICS, WHICH IS A KIND OF CENTRE TO WHICH THEY ALL
 CONVERGE.  WE MAY EVEN JUDGE THE DEGREE OF PERFECTION TO WHICH A 
 SCIENCE HAS ARRIVED BY THE FACILITY WITH WHICH IT MAY BE SUBMITTED
 TO CALCULATION.

                               -- ADOLPHE QUETELET, 1796-1874
 Job cpu time:       0 days  0 hours 24 minutes 34.5 seconds.
 File lengths (MBytes):  RWF=     64 Int=      0 D2E=      0 Chk=      3 Scr=      1
 Normal termination of Gaussian 09 at Sat Nov  7 02:11:47 2015.
