 Entering Gaussian System, Link 0=/home/hetanjin/apps/g09D01/g09/g09
 Input=C6H14_2_r014_C1_2_opt_B3L.gjf
 Output=C6H14_2_r014_C1_2_opt_B3L.log
 Initial command:
 /home/hetanjin/apps/g09D01/g09/l1.exe "/state/partition1/Gau-6041.inp" -scrdir="/state/partition1/"
 Entering Link 1 = /home/hetanjin/apps/g09D01/g09/l1.exe PID=      6042.
  
 Copyright (c) 1988,1990,1992,1993,1995,1998,2003,2009,2013,
            Gaussian, Inc.  All Rights Reserved.
  
 This is part of the Gaussian(R) 09 program.  It is based on
 the Gaussian(R) 03 system (copyright 2003, Gaussian, Inc.),
 the Gaussian(R) 98 system (copyright 1998, Gaussian, Inc.),
 the Gaussian(R) 94 system (copyright 1995, Gaussian, Inc.),
 the Gaussian 92(TM) system (copyright 1992, Gaussian, Inc.),
 the Gaussian 90(TM) system (copyright 1990, Gaussian, Inc.),
 the Gaussian 88(TM) system (copyright 1988, Gaussian, Inc.),
 the Gaussian 86(TM) system (copyright 1986, Carnegie Mellon
 University), and the Gaussian 82(TM) system (copyright 1983,
 Carnegie Mellon University). Gaussian is a federally registered
 trademark of Gaussian, Inc.
  
 This software contains proprietary and confidential information,
 including trade secrets, belonging to Gaussian, Inc.
  
 This software is provided under written license and may be
 used, copied, transmitted, or stored only in accord with that
 written license.
  
 The following legend is applicable only to US Government
 contracts under FAR:
  
                    RESTRICTED RIGHTS LEGEND
  
 Use, reproduction and disclosure by the US Government is
 subject to restrictions as set forth in subparagraphs (a)
 and (c) of the Commercial Computer Software - Restricted
 Rights clause in FAR 52.227-19.
  
 Gaussian, Inc.
 340 Quinnipiac St., Bldg. 40, Wallingford CT 06492
  
  
 ---------------------------------------------------------------
 Warning -- This program may not be used in any manner that
 competes with the business of Gaussian, Inc. or will provide
 assistance to any competitor of Gaussian, Inc.  The licensee
 of this program is prohibited from giving any competitor of
 Gaussian, Inc. access to this program.  By using this program,
 the user acknowledges that Gaussian, Inc. is engaged in the
 business of creating and licensing software in the field of
 computational chemistry and represents and warrants to the
 licensee that it is not a competitor of Gaussian, Inc. and that
 it will not use this program in any manner prohibited above.
 ---------------------------------------------------------------
  

 Cite this work as:
 Gaussian 09, Revision D.01,
 M. J. Frisch, G. W. Trucks, H. B. Schlegel, G. E. Scuseria, 
 M. A. Robb, J. R. Cheeseman, G. Scalmani, V. Barone, B. Mennucci, 
 G. A. Petersson, H. Nakatsuji, M. Caricato, X. Li, H. P. Hratchian, 
 A. F. Izmaylov, J. Bloino, G. Zheng, J. L. Sonnenberg, M. Hada, 
 M. Ehara, K. Toyota, R. Fukuda, J. Hasegawa, M. Ishida, T. Nakajima, 
 Y. Honda, O. Kitao, H. Nakai, T. Vreven, J. A. Montgomery, Jr., 
 J. E. Peralta, F. Ogliaro, M. Bearpark, J. J. Heyd, E. Brothers, 
 K. N. Kudin, V. N. Staroverov, T. Keith, R. Kobayashi, J. Normand, 
 K. Raghavachari, A. Rendell, J. C. Burant, S. S. Iyengar, J. Tomasi, 
 M. Cossi, N. Rega, J. M. Millam, M. Klene, J. E. Knox, J. B. Cross, 
 V. Bakken, C. Adamo, J. Jaramillo, R. Gomperts, R. E. Stratmann, 
 O. Yazyev, A. J. Austin, R. Cammi, C. Pomelli, J. W. Ochterski, 
 R. L. Martin, K. Morokuma, V. G. Zakrzewski, G. A. Voth, 
 P. Salvador, J. J. Dannenberg, S. Dapprich, A. D. Daniels, 
 O. Farkas, J. B. Foresman, J. V. Ortiz, J. Cioslowski, 
 and D. J. Fox, Gaussian, Inc., Wallingford CT, 2013.
 
 ******************************************
 Gaussian 09:  ES64L-G09RevD.01 24-Apr-2013
                 7-Nov-2015 
 ******************************************
 %mem=6GB
 %nprocshared=4
 Will use up to    4 processors via shared memory.
 ----------------------------------------------
 #p B3LYP/6-31G(d) opt=tight int=ultrafine freq
 ----------------------------------------------
 1/7=10,14=-1,18=20,19=15,26=4,38=1/1,3;
 2/9=110,12=2,17=6,18=5,40=1/2;
 3/5=1,6=6,7=1,11=2,16=1,25=1,30=1,71=1,74=-5,75=-5/1,2,3;
 4//1;
 5/5=2,38=5/2;
 6/7=2,8=2,9=2,10=2,28=1/1;
 7//1,2,3,16;
 1/7=10,14=-1,18=20,19=15,26=4/3(2);
 2/9=110/2;
 99//99;
 2/9=110/2;
 3/5=1,6=6,7=1,11=2,16=1,25=1,30=1,71=1,74=-5,75=-5/1,2,3;
 4/5=5,16=3,69=1/1;
 5/5=2,38=5/2;
 7//1,2,3,16;
 1/7=10,14=-1,18=20,19=15,26=4/3(-5);
 2/9=110/2;
 6/7=2,8=2,9=2,10=2,19=2,28=1/1;
 99/9=1/99;
 Leave Link    1 at Sat Nov  7 02:03:47 2015, MaxMem=   805306368 cpu:         0.1
 (Enter /home/hetanjin/apps/g09D01/g09/l101.exe)
 ---------------------------------------------
 using B3LYP/6-31G(d) to do opt and freq calc.
 ---------------------------------------------
 Symbolic Z-matrix:
 Charge =  0 Multiplicity = 2
 C                     2.1588   -1.03826   0.03329 
 H                     1.92753  -2.02922  -0.37555 
 H                     3.14007  -0.7364   -0.35209 
 C                     1.07513  -0.01325  -0.33394 
 H                     1.02737   0.04492  -1.43284 
 C                    -0.30521  -0.48286   0.1671 
 H                    -0.29365  -0.5158    1.26793 
 H                    -0.46137  -1.52058  -0.16344 
 C                    -1.49862   0.36099  -0.30192 
 H                    -1.48122   0.43273  -1.39913 
 H                    -1.40332   1.3884    0.07251 
 C                    -2.84619  -0.21322   0.1491 
 H                    -2.90621  -0.27062   1.24305 
 H                    -3.68183   0.40554  -0.19769 
 H                    -2.99673  -1.22689  -0.24256 
 C                     1.45204   1.37934   0.1949 
 H                     0.73689   2.14756  -0.118 
 H                     1.48756   1.38271   1.29264 
 H                     2.44125   1.682    -0.16891 
 
 NAtoms=     19 NQM=       19 NQMF=       0 NMMI=      0 NMMIF=      0
                NMic=       0 NMicF=      0.
                    Isotopes and Nuclear Properties:
 (Nuclear quadrupole moments (NQMom) in fm**2, nuclear magnetic moments (NMagM)
  in nuclear magnetons)

  Atom         1           2           3           4           5           6           7           8           9          10
 IAtWgt=          12           1           1          12           1          12           1           1          12           1
 AtmWgt=  12.0000000   1.0078250   1.0078250  12.0000000   1.0078250  12.0000000   1.0078250   1.0078250  12.0000000   1.0078250
 NucSpn=           0           1           1           0           1           0           1           1           0           1
 AtZEff=   0.0000000   0.0000000   0.0000000   0.0000000   0.0000000   0.0000000   0.0000000   0.0000000   0.0000000   0.0000000
 NQMom=    0.0000000   0.0000000   0.0000000   0.0000000   0.0000000   0.0000000   0.0000000   0.0000000   0.0000000   0.0000000
 NMagM=    0.0000000   2.7928460   2.7928460   0.0000000   2.7928460   0.0000000   2.7928460   2.7928460   0.0000000   2.7928460
 AtZNuc=   6.0000000   1.0000000   1.0000000   6.0000000   1.0000000   6.0000000   1.0000000   1.0000000   6.0000000   1.0000000

  Atom        11          12          13          14          15          16          17          18          19
 IAtWgt=           1          12           1           1           1          12           1           1           1
 AtmWgt=   1.0078250  12.0000000   1.0078250   1.0078250   1.0078250  12.0000000   1.0078250   1.0078250   1.0078250
 NucSpn=           1           0           1           1           1           0           1           1           1
 AtZEff=   0.0000000   0.0000000   0.0000000   0.0000000   0.0000000   0.0000000   0.0000000   0.0000000   0.0000000
 NQMom=    0.0000000   0.0000000   0.0000000   0.0000000   0.0000000   0.0000000   0.0000000   0.0000000   0.0000000
 NMagM=    2.7928460   0.0000000   2.7928460   2.7928460   2.7928460   0.0000000   2.7928460   2.7928460   2.7928460
 AtZNuc=   1.0000000   6.0000000   1.0000000   1.0000000   1.0000000   6.0000000   1.0000000   1.0000000   1.0000000
 Leave Link  101 at Sat Nov  7 02:03:47 2015, MaxMem=   805306368 cpu:         0.7
 (Enter /home/hetanjin/apps/g09D01/g09/l103.exe)

 GradGradGradGradGradGradGradGradGradGradGradGradGradGradGradGradGradGrad
 Berny optimization.
 Initialization pass.
                           ----------------------------
                           !    Initial Parameters    !
                           ! (Angstroms and Degrees)  !
 --------------------------                            --------------------------
 ! Name  Definition              Value          Derivative Info.                !
 --------------------------------------------------------------------------------
 ! R1    R(1,2)                  1.0967         estimate D2E/DX2                !
 ! R2    R(1,3)                  1.0966         estimate D2E/DX2                !
 ! R3    R(1,4)                  1.5362         estimate D2E/DX2                !
 ! R4    R(4,5)                  1.1015         estimate D2E/DX2                !
 ! R5    R(4,6)                  1.5417         estimate D2E/DX2                !
 ! R6    R(4,16)                 1.5366         estimate D2E/DX2                !
 ! R7    R(6,7)                  1.1014         estimate D2E/DX2                !
 ! R8    R(6,8)                  1.1002         estimate D2E/DX2                !
 ! R9    R(6,9)                  1.535          estimate D2E/DX2                !
 ! R10   R(9,10)                 1.0997         estimate D2E/DX2                !
 ! R11   R(9,11)                 1.0977         estimate D2E/DX2                !
 ! R12   R(9,12)                 1.5327         estimate D2E/DX2                !
 ! R13   R(12,13)                1.0971         estimate D2E/DX2                !
 ! R14   R(12,14)                1.0961         estimate D2E/DX2                !
 ! R15   R(12,15)                1.0971         estimate D2E/DX2                !
 ! R16   R(16,17)                1.0952         estimate D2E/DX2                !
 ! R17   R(16,18)                1.0983         estimate D2E/DX2                !
 ! R18   R(16,19)                1.0966         estimate D2E/DX2                !
 ! A1    A(2,1,3)              107.8439         estimate D2E/DX2                !
 ! A2    A(2,1,4)              111.411          estimate D2E/DX2                !
 ! A3    A(3,1,4)              111.3185         estimate D2E/DX2                !
 ! A4    A(1,4,5)              107.7173         estimate D2E/DX2                !
 ! A5    A(1,4,6)              110.5269         estimate D2E/DX2                !
 ! A6    A(1,4,16)             110.4513         estimate D2E/DX2                !
 ! A7    A(5,4,6)              107.5475         estimate D2E/DX2                !
 ! A8    A(5,4,16)             107.8272         estimate D2E/DX2                !
 ! A9    A(6,4,16)             112.5709         estimate D2E/DX2                !
 ! A10   A(4,6,7)              108.9373         estimate D2E/DX2                !
 ! A11   A(4,6,8)              108.4663         estimate D2E/DX2                !
 ! A12   A(4,6,9)              115.4245         estimate D2E/DX2                !
 ! A13   A(7,6,8)              105.8761         estimate D2E/DX2                !
 ! A14   A(7,6,9)              109.2684         estimate D2E/DX2                !
 ! A15   A(8,6,9)              108.4426         estimate D2E/DX2                !
 ! A16   A(6,9,10)             109.1727         estimate D2E/DX2                !
 ! A17   A(6,9,11)             110.049          estimate D2E/DX2                !
 ! A18   A(6,9,12)             112.8109         estimate D2E/DX2                !
 ! A19   A(10,9,11)            106.1361         estimate D2E/DX2                !
 ! A20   A(10,9,12)            109.3876         estimate D2E/DX2                !
 ! A21   A(11,9,12)            109.064          estimate D2E/DX2                !
 ! A22   A(9,12,13)            111.1695         estimate D2E/DX2                !
 ! A23   A(9,12,14)            111.4511         estimate D2E/DX2                !
 ! A24   A(9,12,15)            111.208          estimate D2E/DX2                !
 ! A25   A(13,12,14)           107.6561         estimate D2E/DX2                !
 ! A26   A(13,12,15)           107.4655         estimate D2E/DX2                !
 ! A27   A(14,12,15)           107.7002         estimate D2E/DX2                !
 ! A28   A(4,16,17)            112.1608         estimate D2E/DX2                !
 ! A29   A(4,16,18)            110.7757         estimate D2E/DX2                !
 ! A30   A(4,16,19)            110.9303         estimate D2E/DX2                !
 ! A31   A(17,16,18)           107.7288         estimate D2E/DX2                !
 ! A32   A(17,16,19)           107.4963         estimate D2E/DX2                !
 ! A33   A(18,16,19)           107.5521         estimate D2E/DX2                !
 ! D1    D(2,1,4,5)            -59.9218         estimate D2E/DX2                !
 ! D2    D(2,1,4,6)             57.3095         estimate D2E/DX2                !
 ! D3    D(2,1,4,16)          -177.4475         estimate D2E/DX2                !
 ! D4    D(3,1,4,5)             60.4987         estimate D2E/DX2                !
 ! D5    D(3,1,4,6)            177.7299         estimate D2E/DX2                !
 ! D6    D(3,1,4,16)           -57.027          estimate D2E/DX2                !
 ! D7    D(1,4,6,7)             64.5902         estimate D2E/DX2                !
 ! D8    D(1,4,6,8)            -50.2121         estimate D2E/DX2                !
 ! D9    D(1,4,6,9)           -172.0848         estimate D2E/DX2                !
 ! D10   D(5,4,6,7)           -178.0739         estimate D2E/DX2                !
 ! D11   D(5,4,6,8)             67.1238         estimate D2E/DX2                !
 ! D12   D(5,4,6,9)            -54.749          estimate D2E/DX2                !
 ! D13   D(16,4,6,7)           -59.4435         estimate D2E/DX2                !
 ! D14   D(16,4,6,8)          -174.2457         estimate D2E/DX2                !
 ! D15   D(16,4,6,9)            63.8815         estimate D2E/DX2                !
 ! D16   D(1,4,16,17)          175.5612         estimate D2E/DX2                !
 ! D17   D(1,4,16,18)          -64.0287         estimate D2E/DX2                !
 ! D18   D(1,4,16,19)           55.3403         estimate D2E/DX2                !
 ! D19   D(5,4,16,17)           58.1032         estimate D2E/DX2                !
 ! D20   D(5,4,16,18)          178.5133         estimate D2E/DX2                !
 ! D21   D(5,4,16,19)          -62.1177         estimate D2E/DX2                !
 ! D22   D(6,4,16,17)          -60.3633         estimate D2E/DX2                !
 ! D23   D(6,4,16,18)           60.0468         estimate D2E/DX2                !
 ! D24   D(6,4,16,19)          179.4158         estimate D2E/DX2                !
 ! D25   D(4,6,9,10)            54.1765         estimate D2E/DX2                !
 ! D26   D(4,6,9,11)           -61.9346         estimate D2E/DX2                !
 ! D27   D(4,6,9,12)           176.0138         estimate D2E/DX2                !
 ! D28   D(7,6,9,10)           177.3265         estimate D2E/DX2                !
 ! D29   D(7,6,9,11)            61.2154         estimate D2E/DX2                !
 ! D30   D(7,6,9,12)           -60.8362         estimate D2E/DX2                !
 ! D31   D(8,6,9,10)           -67.709          estimate D2E/DX2                !
 ! D32   D(8,6,9,11)           176.1799         estimate D2E/DX2                !
 ! D33   D(8,6,9,12)            54.1283         estimate D2E/DX2                !
 ! D34   D(6,9,12,13)           59.9145         estimate D2E/DX2                !
 ! D35   D(6,9,12,14)         -179.978          estimate D2E/DX2                !
 ! D36   D(6,9,12,15)          -59.7885         estimate D2E/DX2                !
 ! D37   D(10,9,12,13)        -178.3696         estimate D2E/DX2                !
 ! D38   D(10,9,12,14)         -58.2621         estimate D2E/DX2                !
 ! D39   D(10,9,12,15)          61.9275         estimate D2E/DX2                !
 ! D40   D(11,9,12,13)         -62.6901         estimate D2E/DX2                !
 ! D41   D(11,9,12,14)          57.4174         estimate D2E/DX2                !
 ! D42   D(11,9,12,15)         177.607          estimate D2E/DX2                !
 --------------------------------------------------------------------------------
 Trust Radius=3.00D-01 FncErr=1.00D-07 GrdErr=1.00D-06
 Number of steps in this run=    103 maximum allowed number of steps=    114.
 GradGradGradGradGradGradGradGradGradGradGradGradGradGradGradGradGradGrad

 Leave Link  103 at Sat Nov  7 02:03:47 2015, MaxMem=   805306368 cpu:         0.0
 (Enter /home/hetanjin/apps/g09D01/g09/l202.exe)
                          Input orientation:                          
 ---------------------------------------------------------------------
 Center     Atomic      Atomic             Coordinates (Angstroms)
 Number     Number       Type             X           Y           Z
 ---------------------------------------------------------------------
      1          6           0        2.158797   -1.038262    0.033294
      2          1           0        1.927533   -2.029222   -0.375554
      3          1           0        3.140068   -0.736400   -0.352089
      4          6           0        1.075129   -0.013247   -0.333943
      5          1           0        1.027373    0.044919   -1.432844
      6          6           0       -0.305208   -0.482864    0.167098
      7          1           0       -0.293645   -0.515801    1.267925
      8          1           0       -0.461374   -1.520579   -0.163436
      9          6           0       -1.498621    0.360991   -0.301923
     10          1           0       -1.481223    0.432726   -1.399129
     11          1           0       -1.403322    1.388403    0.072512
     12          6           0       -2.846192   -0.213221    0.149098
     13          1           0       -2.906213   -0.270618    1.243053
     14          1           0       -3.681827    0.405542   -0.197689
     15          1           0       -2.996731   -1.226889   -0.242561
     16          6           0        1.452038    1.379337    0.194904
     17          1           0        0.736890    2.147561   -0.117998
     18          1           0        1.487561    1.382710    1.292643
     19          1           0        2.441246    1.682004   -0.168912
 ---------------------------------------------------------------------
                    Distance matrix (angstroms):
                    1          2          3          4          5
     1  C    0.000000
     2  H    1.096650   0.000000
     3  H    1.096601   1.772620   0.000000
     4  C    1.536182   2.189173   2.187979   0.000000
     5  H    2.145451   2.496039   2.498394   1.101475   0.000000
     6  C    2.529366   2.769626   3.493388   1.541724   2.148055
     7  H    2.794951   3.150412   3.803090   2.166122   3.058374
     8  H    2.671447   2.451650   3.690652   2.159158   2.505703
     9  C    3.930265   4.178166   4.766993   2.601013   2.785593
    10  H    4.179161   4.327645   4.880520   2.805076   2.538619
    11  H    4.310329   4.793279   5.033634   2.876204   3.159007
    12  C    5.073856   5.134352   6.029943   3.956018   4.192098
    13  H    5.263755   5.392372   6.270482   4.290016   4.767923
    14  H    6.020865   6.117567   6.918535   4.777298   4.881826
    15  H    5.166347   4.990972   6.157343   4.249861   4.384938
    16  C    2.523967   3.488523   2.761338   1.536564   2.147225
    17  H    3.492016   4.350802   3.761289   2.197755   2.496859
    18  H    2.810271   3.823315   3.150643   2.182791   3.070788
    19  H    2.742355   3.752306   2.524002   2.183435   2.505316
                    6          7          8          9         10
     6  C    0.000000
     7  H    1.101380   0.000000
     8  H    1.100224   1.756846   0.000000
     9  C    1.535027   2.164522   2.152990   0.000000
    10  H    2.162032   3.069727   2.526347   1.099686   0.000000
    11  H    2.171737   2.507267   3.066776   1.097661   1.756449
    12  C    2.555314   2.803360   2.737557   1.532673   2.162729
    13  H    2.822757   2.624166   3.085102   2.183391   3.083247
    14  H    3.510540   3.804823   3.752657   2.186147   2.507360
    15  H    2.822355   3.177088   2.553537   2.183854   2.527595
    16  C    2.560562   2.791116   3.492716   3.160736   3.470019
    17  H    2.843657   3.174316   3.859165   2.867607   3.082528
    18  H    2.821567   2.603392   3.787823   3.536076   4.118469
    19  H    3.513199   3.791369   4.322241   4.157562   4.296498
                   11         12         13         14         15
    11  H    0.000000
    12  C    2.157067   0.000000
    13  H    2.526103   1.097103   0.000000
    14  H    2.496119   1.096091   1.770454   0.000000
    15  H    3.078632   1.097079   1.769095   1.770932   0.000000
    16  C    2.857996   4.584007   4.776538   5.240131   5.174489
    17  H    2.278842   4.299199   4.579547   4.750373   5.034119
    18  H    3.137827   4.757742   4.694806   5.467954   5.410705
    19  H    3.863313   5.625834   5.865296   6.254775   6.167550
                   16         17         18         19
    16  C    0.000000
    17  H    1.095223   0.000000
    18  H    1.098319   1.771556   0.000000
    19  H    1.096586   1.767531   1.770659   0.000000
 Stoichiometry    C6H13(2)
 Framework group  C1[X(C6H13)]
 Deg. of freedom    51
 Full point group                 C1      NOp   1
 Largest Abelian subgroup         C1      NOp   1
 Largest concise Abelian subgroup C1      NOp   1
                         Standard orientation:                         
 ---------------------------------------------------------------------
 Center     Atomic      Atomic             Coordinates (Angstroms)
 Number     Number       Type             X           Y           Z
 ---------------------------------------------------------------------
      1          6           0        2.181545   -1.100641    0.141686
      2          1           0        1.936898   -2.104495   -0.225828
      3          1           0        3.174813   -0.835819   -0.240177
      4          6           0        1.124909   -0.072489   -0.289917
      5          1           0        1.096075   -0.063501   -1.390977
      6          6           0       -0.272553   -0.491818    0.208255
      7          1           0       -0.279419   -0.474815    1.309483
      8          1           0       -0.444337   -1.540267   -0.077644
      9          6           0       -1.440921    0.352900   -0.318693
     10          1           0       -1.404376    0.374248   -1.417564
     11          1           0       -1.330900    1.394244    0.010485
     12          6           0       -2.806938   -0.173811    0.134803
     13          1           0       -2.885749   -0.180157    1.229053
     14          1           0       -3.624175    0.444685   -0.253784
     15          1           0       -2.971624   -1.201136   -0.213141
     16          6           0        1.521345    1.335121    0.181783
     17          1           0        0.827033    2.102090   -0.177663
     18          1           0        1.539215    1.387782    1.278693
     19          1           0        2.522217    1.601575   -0.178440
 ---------------------------------------------------------------------
 Rotational constants (GHZ):      6.8263676      1.7285394      1.4823970
 Leave Link  202 at Sat Nov  7 02:03:47 2015, MaxMem=   805306368 cpu:         0.1
 (Enter /home/hetanjin/apps/g09D01/g09/l301.exe)
 Standard basis: 6-31G(d) (6D, 7F)
 Ernie: Thresh=  0.10000D-02 Tol=  0.10000D-05 Strict=F.
 There are   116 symmetry adapted cartesian basis functions of A   symmetry.
 There are   116 symmetry adapted basis functions of A   symmetry.
   116 basis functions,   220 primitive gaussians,   116 cartesian basis functions
    25 alpha electrons       24 beta electrons
       nuclear repulsion energy       242.4404861449 Hartrees.
 IExCor=  402 DFT=T Ex+Corr=B3LYP ExCW=0 ScaHFX=  0.200000
 ScaDFX=  0.800000  0.720000  1.000000  0.810000 ScalE2=  1.000000  1.000000
 IRadAn=      5 IRanWt=     -1 IRanGd=            0 ICorTp=0 IEmpDi=  4
 NAtoms=   19 NActive=   19 NUniq=   19 SFac= 1.00D+00 NAtFMM=   60 NAOKFM=F Big=F
 Integral buffers will be    131072 words long.
 Raffenetti 2 integral format.
 Two-electron integral symmetry is turned on.
 Leave Link  301 at Sat Nov  7 02:03:47 2015, MaxMem=   805306368 cpu:         0.2
 (Enter /home/hetanjin/apps/g09D01/g09/l302.exe)
 NPDir=0 NMtPBC=     1 NCelOv=     1 NCel=       1 NClECP=     1 NCelD=      1
         NCelK=      1 NCelE2=     1 NClLst=     1 CellRange=     0.0.
 One-electron integrals computed using PRISM.
 NBasis=   116 RedAO= T EigKep=  3.74D-03  NBF=   116
 NBsUse=   116 1.00D-06 EigRej= -1.00D+00 NBFU=   116
 Precomputing XC quadrature grid using
 IXCGrd= 4 IRadAn=           5 IRanWt=          -1 IRanGd=           0 AccXCQ= 0.00D+00.
 Generated NRdTot=       0 NPtTot=           0 NUsed=           0 NTot=          32
 NSgBfM=   116   116   116   116   116 MxSgAt=    19 MxSgA2=    19.
 Leave Link  302 at Sat Nov  7 02:03:48 2015, MaxMem=   805306368 cpu:         1.9
 (Enter /home/hetanjin/apps/g09D01/g09/l303.exe)
 DipDrv:  MaxL=1.
 Leave Link  303 at Sat Nov  7 02:03:48 2015, MaxMem=   805306368 cpu:         0.3
 (Enter /home/hetanjin/apps/g09D01/g09/l401.exe)
 ExpMin= 1.61D-01 ExpMax= 3.05D+03 ExpMxC= 4.57D+02 IAcc=3 IRadAn=         5 AccDes= 0.00D+00
 Harris functional with IExCor=  402 and IRadAn=       5 diagonalized for initial guess.
 HarFok:  IExCor=  402 AccDes= 0.00D+00 IRadAn=         5 IDoV= 1 UseB2=F ITyADJ=14
 ICtDFT=  3500011 ScaDFX=  1.000000  1.000000  1.000000  1.000000
 FoFCou: FMM=F IPFlag=           0 FMFlag=      100000 FMFlg1=           0
         NFxFlg=           0 DoJE=T BraDBF=F KetDBF=T FulRan=T
         wScrn=  0.000000 ICntrl=     500 IOpCl=  0 I1Cent=   200000004 NGrid=           0
         NMat0=    1 NMatS0=      1 NMatT0=    0 NMatD0=    1 NMtDS0=    0 NMtDT0=    0
 Petite list used in FoFCou.
 Harris En= -236.441330111284    
 JPrj=0 DoOrth=F DoCkMO=F.
 Initial guess <Sx>= 0.0000 <Sy>= 0.0000 <Sz>= 0.5000 <S**2>= 0.7500 S= 0.5000
 Leave Link  401 at Sat Nov  7 02:03:50 2015, MaxMem=   805306368 cpu:         8.3
 (Enter /home/hetanjin/apps/g09D01/g09/l502.exe)
 UHF open shell SCF:
 Using DIIS extrapolation, IDIIS=  1040.
 Integral symmetry usage will be decided dynamically.
 Keep R1 and R2 ints in memory in canonical form, NReq=47059932.
 IVT=       60514 IEndB=       60514 NGot=   805306368 MDV=   759189273
 LenX=   759189273 LenY=   759175376
 Requested convergence on RMS density matrix=1.00D-08 within 128 cycles.
 Requested convergence on MAX density matrix=1.00D-06.
 Requested convergence on             energy=1.00D-06.
 No special actions if energy rises.
 FoFCou: FMM=F IPFlag=           0 FMFlag=           0 FMFlg1=           0
         NFxFlg=           0 DoJE=F BraDBF=F KetDBF=F FulRan=T
         wScrn=  0.000000 ICntrl=     600 IOpCl=  0 I1Cent=           0 NGrid=           0
         NMat0=    1 NMatS0=   6786 NMatT0=    0 NMatD0=    1 NMtDS0=    0 NMtDT0=    0
 Symmetry not used in FoFCou.
 Integral accuracy reduced to 1.0D-05 until final iterations.

 Cycle   1  Pass 0  IDiag  1:
 E= -236.152270728635    
 DIIS: error= 3.77D-02 at cycle   1 NSaved=   1.
 NSaved= 1 IEnMin= 1 EnMin= -236.152270728635     IErMin= 1 ErrMin= 3.77D-02
 ErrMax= 3.77D-02  0.00D+00 EMaxC= 1.00D-01 BMatC= 8.77D-01 BMatP= 8.77D-01
 IDIUse=3 WtCom= 6.23D-01 WtEn= 3.77D-01
 Coeff-Com:  0.100D+01
 Coeff-En:   0.100D+01
 Coeff:      0.100D+01
 Gap=     0.288 Goal=   None    Shift=    0.000
 Gap=     0.240 Goal=   None    Shift=    0.000
 GapD=    0.240 DampG=1.000 DampE=0.500 DampFc=0.5000 IDamp=-1.
 Damping current iteration by 5.00D-01
 RMSDP=9.49D-03 MaxDP=1.41D-01              OVMax= 1.76D-01

 Cycle   2  Pass 0  IDiag  1:
 E= -236.264249756471     Delta-E=       -0.111979027836 Rises=F Damp=T
 DIIS: error= 7.15D-03 at cycle   2 NSaved=   2.
 NSaved= 2 IEnMin= 2 EnMin= -236.264249756471     IErMin= 2 ErrMin= 7.15D-03
 ErrMax= 7.15D-03  0.00D+00 EMaxC= 1.00D-01 BMatC= 3.79D-02 BMatP= 8.77D-01
 IDIUse=3 WtCom= 9.29D-01 WtEn= 7.15D-02
 Coeff-Com:  0.678D-01 0.932D+00
 Coeff-En:   0.109D+00 0.891D+00
 Coeff:      0.707D-01 0.929D+00
 Gap=     0.313 Goal=   None    Shift=    0.000
 Gap=     0.258 Goal=   None    Shift=    0.000
 RMSDP=1.50D-03 MaxDP=2.51D-02 DE=-1.12D-01 OVMax= 9.77D-02

 Cycle   3  Pass 0  IDiag  1:
 E= -236.400380934579     Delta-E=       -0.136131178108 Rises=F Damp=F
 DIIS: error= 2.30D-03 at cycle   3 NSaved=   3.
 NSaved= 3 IEnMin= 3 EnMin= -236.400380934579     IErMin= 3 ErrMin= 2.30D-03
 ErrMax= 2.30D-03  0.00D+00 EMaxC= 1.00D-01 BMatC= 4.34D-03 BMatP= 3.79D-02
 IDIUse=3 WtCom= 9.77D-01 WtEn= 2.30D-02
 Coeff-Com: -0.565D-02 0.189D+00 0.817D+00
 Coeff-En:   0.000D+00 0.000D+00 0.100D+01
 Coeff:     -0.552D-02 0.184D+00 0.821D+00
 Gap=     0.321 Goal=   None    Shift=    0.000
 Gap=     0.239 Goal=   None    Shift=    0.000
 RMSDP=5.15D-04 MaxDP=1.23D-02 DE=-1.36D-01 OVMax= 1.26D-02

 Cycle   4  Pass 0  IDiag  1:
 E= -236.401107661860     Delta-E=       -0.000726727281 Rises=F Damp=F
 DIIS: error= 1.15D-03 at cycle   4 NSaved=   4.
 NSaved= 4 IEnMin= 4 EnMin= -236.401107661860     IErMin= 4 ErrMin= 1.15D-03
 ErrMax= 1.15D-03  0.00D+00 EMaxC= 1.00D-01 BMatC= 1.68D-03 BMatP= 4.34D-03
 IDIUse=3 WtCom= 9.89D-01 WtEn= 1.15D-02
 Coeff-Com: -0.517D-02 0.319D-01 0.396D+00 0.578D+00
 Coeff-En:   0.000D+00 0.000D+00 0.232D+00 0.768D+00
 Coeff:     -0.511D-02 0.316D-01 0.394D+00 0.580D+00
 Gap=     0.315 Goal=   None    Shift=    0.000
 Gap=     0.246 Goal=   None    Shift=    0.000
 RMSDP=1.96D-04 MaxDP=4.63D-03 DE=-7.27D-04 OVMax= 5.15D-03

 Cycle   5  Pass 0  IDiag  1:
 E= -236.401518749477     Delta-E=       -0.000411087617 Rises=F Damp=F
 DIIS: error= 3.25D-04 at cycle   5 NSaved=   5.
 NSaved= 5 IEnMin= 5 EnMin= -236.401518749477     IErMin= 5 ErrMin= 3.25D-04
 ErrMax= 3.25D-04  0.00D+00 EMaxC= 1.00D-01 BMatC= 7.99D-05 BMatP= 1.68D-03
 IDIUse=3 WtCom= 9.97D-01 WtEn= 3.25D-03
 Coeff-Com: -0.127D-02-0.284D-02 0.941D-01 0.234D+00 0.676D+00
 Coeff-En:   0.000D+00 0.000D+00 0.000D+00 0.000D+00 0.100D+01
 Coeff:     -0.126D-02-0.283D-02 0.938D-01 0.233D+00 0.677D+00
 Gap=     0.316 Goal=   None    Shift=    0.000
 Gap=     0.245 Goal=   None    Shift=    0.000
 RMSDP=4.52D-05 MaxDP=1.06D-03 DE=-4.11D-04 OVMax= 1.11D-03

 Cycle   6  Pass 0  IDiag  1:
 E= -236.401539536613     Delta-E=       -0.000020787137 Rises=F Damp=F
 DIIS: error= 8.05D-05 at cycle   6 NSaved=   6.
 NSaved= 6 IEnMin= 6 EnMin= -236.401539536613     IErMin= 6 ErrMin= 8.05D-05
 ErrMax= 8.05D-05  0.00D+00 EMaxC= 1.00D-01 BMatC= 3.02D-06 BMatP= 7.99D-05
 IDIUse=1 WtCom= 1.00D+00 WtEn= 0.00D+00
 Coeff-Com:  0.899D-04-0.245D-02-0.731D-02 0.618D-02 0.120D+00 0.883D+00
 Coeff:      0.899D-04-0.245D-02-0.731D-02 0.618D-02 0.120D+00 0.883D+00
 Gap=     0.317 Goal=   None    Shift=    0.000
 Gap=     0.245 Goal=   None    Shift=    0.000
 RMSDP=1.45D-05 MaxDP=4.13D-04 DE=-2.08D-05 OVMax= 3.62D-04

 Cycle   7  Pass 0  IDiag  1:
 E= -236.401540770058     Delta-E=       -0.000001233445 Rises=F Damp=F
 DIIS: error= 3.74D-05 at cycle   7 NSaved=   7.
 NSaved= 7 IEnMin= 7 EnMin= -236.401540770058     IErMin= 7 ErrMin= 3.74D-05
 ErrMax= 3.74D-05  0.00D+00 EMaxC= 1.00D-01 BMatC= 8.83D-07 BMatP= 3.02D-06
 IDIUse=1 WtCom= 1.00D+00 WtEn= 0.00D+00
 Coeff-Com:  0.229D-03-0.347D-03-0.188D-01-0.387D-01-0.797D-01 0.331D+00
 Coeff-Com:  0.806D+00
 Coeff:      0.229D-03-0.347D-03-0.188D-01-0.387D-01-0.797D-01 0.331D+00
 Coeff:      0.806D+00
 Gap=     0.317 Goal=   None    Shift=    0.000
 Gap=     0.245 Goal=   None    Shift=    0.000
 RMSDP=6.57D-06 MaxDP=2.17D-04 DE=-1.23D-06 OVMax= 1.88D-04

 Initial convergence to 1.0D-05 achieved.  Increase integral accuracy.
 Cycle   8  Pass 1  IDiag  1:
 E= -236.401516478127     Delta-E=        0.000024291932 Rises=F Damp=F
 DIIS: error= 1.27D-05 at cycle   1 NSaved=   1.
 NSaved= 1 IEnMin= 1 EnMin= -236.401516478127     IErMin= 1 ErrMin= 1.27D-05
 ErrMax= 1.27D-05  0.00D+00 EMaxC= 1.00D-01 BMatC= 1.44D-07 BMatP= 1.44D-07
 IDIUse=1 WtCom= 1.00D+00 WtEn= 0.00D+00
 Coeff-Com:  0.100D+01
 Coeff:      0.100D+01
 Gap=     0.317 Goal=   None    Shift=    0.000
 Gap=     0.245 Goal=   None    Shift=    0.000
 RMSDP=6.57D-06 MaxDP=2.17D-04 DE= 2.43D-05 OVMax= 8.73D-05

 Cycle   9  Pass 1  IDiag  1:
 E= -236.401516480561     Delta-E=       -0.000000002434 Rises=F Damp=F
 DIIS: error= 1.29D-05 at cycle   2 NSaved=   2.
 NSaved= 2 IEnMin= 2 EnMin= -236.401516480561     IErMin= 1 ErrMin= 1.27D-05
 ErrMax= 1.29D-05  0.00D+00 EMaxC= 1.00D-01 BMatC= 1.70D-07 BMatP= 1.44D-07
 IDIUse=1 WtCom= 1.00D+00 WtEn= 0.00D+00
 Coeff-Com:  0.523D+00 0.477D+00
 Coeff:      0.523D+00 0.477D+00
 Gap=     0.317 Goal=   None    Shift=    0.000
 Gap=     0.245 Goal=   None    Shift=    0.000
 RMSDP=1.95D-06 MaxDP=3.48D-05 DE=-2.43D-09 OVMax= 4.76D-05

 Cycle  10  Pass 1  IDiag  1:
 E= -236.401516524725     Delta-E=       -0.000000044164 Rises=F Damp=F
 DIIS: error= 1.77D-06 at cycle   3 NSaved=   3.
 NSaved= 3 IEnMin= 3 EnMin= -236.401516524725     IErMin= 3 ErrMin= 1.77D-06
 ErrMax= 1.77D-06  0.00D+00 EMaxC= 1.00D-01 BMatC= 2.81D-09 BMatP= 1.44D-07
 IDIUse=1 WtCom= 1.00D+00 WtEn= 0.00D+00
 Coeff-Com: -0.457D-01 0.348D-01 0.101D+01
 Coeff:     -0.457D-01 0.348D-01 0.101D+01
 Gap=     0.317 Goal=   None    Shift=    0.000
 Gap=     0.245 Goal=   None    Shift=    0.000
 RMSDP=4.53D-07 MaxDP=1.06D-05 DE=-4.42D-08 OVMax= 1.09D-05

 Cycle  11  Pass 1  IDiag  1:
 E= -236.401516525977     Delta-E=       -0.000000001252 Rises=F Damp=F
 DIIS: error= 1.03D-06 at cycle   4 NSaved=   4.
 NSaved= 4 IEnMin= 4 EnMin= -236.401516525977     IErMin= 4 ErrMin= 1.03D-06
 ErrMax= 1.03D-06  0.00D+00 EMaxC= 1.00D-01 BMatC= 8.57D-10 BMatP= 2.81D-09
 IDIUse=1 WtCom= 1.00D+00 WtEn= 0.00D+00
 Coeff-Com: -0.999D-01-0.617D-01 0.398D+00 0.764D+00
 Coeff:     -0.999D-01-0.617D-01 0.398D+00 0.764D+00
 Gap=     0.317 Goal=   None    Shift=    0.000
 Gap=     0.245 Goal=   None    Shift=    0.000
 RMSDP=2.15D-07 MaxDP=6.40D-06 DE=-1.25D-09 OVMax= 5.81D-06

 Cycle  12  Pass 1  IDiag  1:
 E= -236.401516526293     Delta-E=       -0.000000000316 Rises=F Damp=F
 DIIS: error= 3.74D-07 at cycle   5 NSaved=   5.
 NSaved= 5 IEnMin= 5 EnMin= -236.401516526293     IErMin= 5 ErrMin= 3.74D-07
 ErrMax= 3.74D-07  0.00D+00 EMaxC= 1.00D-01 BMatC= 9.79D-11 BMatP= 8.57D-10
 IDIUse=1 WtCom= 1.00D+00 WtEn= 0.00D+00
 Coeff-Com: -0.319D-01-0.287D-01 0.151D-01 0.273D+00 0.773D+00
 Coeff:     -0.319D-01-0.287D-01 0.151D-01 0.273D+00 0.773D+00
 Gap=     0.317 Goal=   None    Shift=    0.000
 Gap=     0.245 Goal=   None    Shift=    0.000
 RMSDP=6.27D-08 MaxDP=2.61D-06 DE=-3.16D-10 OVMax= 2.34D-06

 Cycle  13  Pass 1  IDiag  1:
 E= -236.401516526328     Delta-E=       -0.000000000035 Rises=F Damp=F
 DIIS: error= 1.35D-07 at cycle   6 NSaved=   6.
 NSaved= 6 IEnMin= 6 EnMin= -236.401516526328     IErMin= 6 ErrMin= 1.35D-07
 ErrMax= 1.35D-07  0.00D+00 EMaxC= 1.00D-01 BMatC= 1.30D-11 BMatP= 9.79D-11
 IDIUse=1 WtCom= 1.00D+00 WtEn= 0.00D+00
 Coeff-Com:  0.185D-02-0.254D-02-0.501D-01 0.148D-02 0.308D+00 0.742D+00
 Coeff:      0.185D-02-0.254D-02-0.501D-01 0.148D-02 0.308D+00 0.742D+00
 Gap=     0.317 Goal=   None    Shift=    0.000
 Gap=     0.245 Goal=   None    Shift=    0.000
 RMSDP=2.21D-08 MaxDP=6.64D-07 DE=-3.47D-11 OVMax= 6.70D-07

 Cycle  14  Pass 1  IDiag  1:
 E= -236.401516526331     Delta-E=       -0.000000000003 Rises=F Damp=F
 DIIS: error= 2.33D-08 at cycle   7 NSaved=   7.
 NSaved= 7 IEnMin= 7 EnMin= -236.401516526331     IErMin= 7 ErrMin= 2.33D-08
 ErrMax= 2.33D-08  0.00D+00 EMaxC= 1.00D-01 BMatC= 5.58D-13 BMatP= 1.30D-11
 IDIUse=1 WtCom= 1.00D+00 WtEn= 0.00D+00
 Coeff-Com:  0.181D-02 0.214D-03-0.178D-01-0.102D-01 0.767D-01 0.268D+00
 Coeff-Com:  0.682D+00
 Coeff:      0.181D-02 0.214D-03-0.178D-01-0.102D-01 0.767D-01 0.268D+00
 Coeff:      0.682D+00
 Gap=     0.317 Goal=   None    Shift=    0.000
 Gap=     0.245 Goal=   None    Shift=    0.000
 RMSDP=4.83D-09 MaxDP=9.59D-08 DE=-3.24D-12 OVMax= 9.97D-08

 SCF Done:  E(UB3LYP) =  -236.401516526     A.U. after   14 cycles
            NFock= 14  Conv=0.48D-08     -V/T= 2.0104
 <Sx>= 0.0000 <Sy>= 0.0000 <Sz>= 0.5000 <S**2>= 0.7527 S= 0.5013
 <L.S>= 0.000000000000E+00
 KE= 2.339698742264D+02 PE=-1.030437861173D+03 EE= 3.176259842749D+02
 Annihilation of the first spin contaminant:
 S**2 before annihilation     0.7527,   after     0.7500
 Leave Link  502 at Sat Nov  7 02:04:34 2015, MaxMem=   805306368 cpu:       160.7
 (Enter /home/hetanjin/apps/g09D01/g09/l601.exe)
 Copying SCF densities to generalized density rwf, IOpCl= 1 IROHF=0.

 **********************************************************************

            Population analysis using the SCF density.

 **********************************************************************

 Orbital symmetries:
 Alpha Orbitals:
       Occupied  (A) (A) (A) (A) (A) (A) (A) (A) (A) (A) (A) (A)
                 (A) (A) (A) (A) (A) (A) (A) (A) (A) (A) (A) (A)
                 (A)
       Virtual   (A) (A) (A) (A) (A) (A) (A) (A) (A) (A) (A) (A)
                 (A) (A) (A) (A) (A) (A) (A) (A) (A) (A) (A) (A)
                 (A) (A) (A) (A) (A) (A) (A) (A) (A) (A) (A) (A)
                 (A) (A) (A) (A) (A) (A) (A) (A) (A) (A) (A) (A)
                 (A) (A) (A) (A) (A) (A) (A) (A) (A) (A) (A) (A)
                 (A) (A) (A) (A) (A) (A) (A) (A) (A) (A) (A) (A)
                 (A) (A) (A) (A) (A) (A) (A) (A) (A) (A) (A) (A)
                 (A) (A) (A) (A) (A) (A) (A)
 Beta  Orbitals:
       Occupied  (A) (A) (A) (A) (A) (A) (A) (A) (A) (A) (A) (A)
                 (A) (A) (A) (A) (A) (A) (A) (A) (A) (A) (A) (A)
       Virtual   (A) (A) (A) (A) (A) (A) (A) (A) (A) (A) (A) (A)
                 (A) (A) (A) (A) (A) (A) (A) (A) (A) (A) (A) (A)
                 (A) (A) (A) (A) (A) (A) (A) (A) (A) (A) (A) (A)
                 (A) (A) (A) (A) (A) (A) (A) (A) (A) (A) (A) (A)
                 (A) (A) (A) (A) (A) (A) (A) (A) (A) (A) (A) (A)
                 (A) (A) (A) (A) (A) (A) (A) (A) (A) (A) (A) (A)
                 (A) (A) (A) (A) (A) (A) (A) (A) (A) (A) (A) (A)
                 (A) (A) (A) (A) (A) (A) (A) (A)
 The electronic state is 2-A.
 Alpha  occ. eigenvalues --  -10.19339 -10.19065 -10.17745 -10.17476 -10.17130
 Alpha  occ. eigenvalues --  -10.17039  -0.80863  -0.75674  -0.67560  -0.66818
 Alpha  occ. eigenvalues --   -0.58798  -0.55036  -0.46676  -0.44049  -0.43795
 Alpha  occ. eigenvalues --   -0.41163  -0.39550  -0.37632  -0.36275  -0.35060
 Alpha  occ. eigenvalues --   -0.34399  -0.32329  -0.31535  -0.30935  -0.22881
 Alpha virt. eigenvalues --    0.08796   0.11140   0.12567   0.13379   0.14789
 Alpha virt. eigenvalues --    0.15614   0.16691   0.17331   0.17815   0.18914
 Alpha virt. eigenvalues --    0.19574   0.21204   0.21935   0.23789   0.24797
 Alpha virt. eigenvalues --    0.26482   0.27151   0.28618   0.49499   0.51277
 Alpha virt. eigenvalues --    0.51953   0.52867   0.53630   0.55965   0.57732
 Alpha virt. eigenvalues --    0.59621   0.65700   0.67117   0.68787   0.69668
 Alpha virt. eigenvalues --    0.72065   0.74645   0.80466   0.81435   0.85460
 Alpha virt. eigenvalues --    0.85659   0.87681   0.89296   0.89834   0.91045
 Alpha virt. eigenvalues --    0.91692   0.92913   0.94543   0.95497   0.96086
 Alpha virt. eigenvalues --    0.96821   0.99061   1.00154   1.02731   1.08260
 Alpha virt. eigenvalues --    1.19754   1.28233   1.40482   1.43023   1.45025
 Alpha virt. eigenvalues --    1.54435   1.60879   1.68909   1.72419   1.78099
 Alpha virt. eigenvalues --    1.82377   1.84099   1.87269   1.91460   1.93312
 Alpha virt. eigenvalues --    1.96625   1.98116   2.01626   2.02494   2.07483
 Alpha virt. eigenvalues --    2.10571   2.16384   2.20869   2.24292   2.25043
 Alpha virt. eigenvalues --    2.32829   2.35384   2.37440   2.42768   2.50799
 Alpha virt. eigenvalues --    2.52348   2.59048   2.68446   2.76399   2.79857
 Alpha virt. eigenvalues --    4.10236   4.17275   4.23339   4.33455   4.46330
 Alpha virt. eigenvalues --    4.58471
  Beta  occ. eigenvalues --  -10.19094 -10.17902 -10.17746 -10.17455 -10.17130
  Beta  occ. eigenvalues --  -10.17020  -0.80472  -0.75317  -0.67353  -0.65168
  Beta  occ. eigenvalues --   -0.58385  -0.54226  -0.46484  -0.43718  -0.43368
  Beta  occ. eigenvalues --   -0.40928  -0.39231  -0.37507  -0.36117  -0.34570
  Beta  occ. eigenvalues --   -0.33984  -0.32098  -0.31408  -0.30563
  Beta virt. eigenvalues --   -0.06021   0.09018   0.11338   0.12650   0.13478
  Beta virt. eigenvalues --    0.15277   0.16106   0.16810   0.17508   0.17902
  Beta virt. eigenvalues --    0.19155   0.19715   0.21521   0.22101   0.24317
  Beta virt. eigenvalues --    0.25042   0.26705   0.27591   0.29067   0.49748
  Beta virt. eigenvalues --    0.51457   0.52134   0.53513   0.55675   0.56223
  Beta virt. eigenvalues --    0.59093   0.62276   0.66288   0.67380   0.68965
  Beta virt. eigenvalues --    0.70287   0.72470   0.75298   0.80781   0.81767
  Beta virt. eigenvalues --    0.85748   0.85978   0.87785   0.89559   0.90247
  Beta virt. eigenvalues --    0.91216   0.92136   0.93472   0.94884   0.96144
  Beta virt. eigenvalues --    0.96340   0.97223   0.99403   1.00448   1.02926
  Beta virt. eigenvalues --    1.08692   1.21353   1.28372   1.41225   1.43584
  Beta virt. eigenvalues --    1.45098   1.54878   1.61037   1.69191   1.73313
  Beta virt. eigenvalues --    1.78945   1.83422   1.84450   1.91183   1.93071
  Beta virt. eigenvalues --    1.93980   1.97253   1.98326   2.01952   2.03170
  Beta virt. eigenvalues --    2.09325   2.12465   2.17758   2.21448   2.24421
  Beta virt. eigenvalues --    2.26546   2.33014   2.35592   2.37560   2.43412
  Beta virt. eigenvalues --    2.51527   2.53023   2.59199   2.68638   2.77060
  Beta virt. eigenvalues --    2.80054   4.11417   4.19163   4.23769   4.33478
  Beta virt. eigenvalues --    4.46413   4.58697
          Condensed to atoms (all electrons):
               1          2          3          4          5          6
     1  C    5.367437   0.350409   0.348283   0.368964  -0.044481  -0.046009
     2  H    0.350409   0.598850  -0.044121  -0.038042  -0.000862  -0.006017
     3  H    0.348283  -0.044121   0.601320  -0.037076  -0.000870   0.004715
     4  C    0.368964  -0.038042  -0.037076   4.881178   0.369727   0.381278
     5  H   -0.044481  -0.000862  -0.000870   0.369727   0.636058  -0.048531
     6  C   -0.046009  -0.006017   0.004715   0.381278  -0.048531   5.017535
     7  H   -0.000654  -0.000169  -0.000035  -0.038116   0.006501   0.368716
     8  H   -0.005039   0.005500   0.000024  -0.037662  -0.003380   0.369217
     9  C    0.004047   0.000009  -0.000164  -0.031883  -0.005230   0.379053
    10  H    0.000047  -0.000006   0.000000  -0.003572   0.006324  -0.042045
    11  H    0.000004   0.000001   0.000004  -0.004690  -0.000274  -0.037623
    12  C   -0.000121  -0.000005   0.000002   0.003591   0.000026  -0.041572
    13  H    0.000001   0.000000   0.000000   0.000059   0.000009  -0.004192
    14  H    0.000001   0.000000   0.000000  -0.000127   0.000000   0.004029
    15  H   -0.000004   0.000000   0.000000  -0.000021   0.000002  -0.004691
    16  C   -0.053228   0.005304  -0.005307   0.374489  -0.048239  -0.048050
    17  H    0.004940  -0.000204  -0.000064  -0.028475  -0.003162  -0.005136
    18  H   -0.001813   0.000005  -0.000092  -0.035367   0.005834  -0.005351
    19  H   -0.004714  -0.000014   0.004480  -0.030057  -0.003026   0.004844
               7          8          9         10         11         12
     1  C   -0.000654  -0.005039   0.004047   0.000047   0.000004  -0.000121
     2  H   -0.000169   0.005500   0.000009  -0.000006   0.000001  -0.000005
     3  H   -0.000035   0.000024  -0.000164   0.000000   0.000004   0.000002
     4  C   -0.038116  -0.037662  -0.031883  -0.003572  -0.004690   0.003591
     5  H    0.006501  -0.003380  -0.005230   0.006324  -0.000274   0.000026
     6  C    0.368716   0.369217   0.379053  -0.042045  -0.037623  -0.041572
     7  H    0.612541  -0.038462  -0.040816   0.005997  -0.005664  -0.002676
     8  H   -0.038462   0.620927  -0.042541  -0.004822   0.005880  -0.003870
     9  C   -0.040816  -0.042541   4.968241   0.375598   0.376884   0.371210
    10  H    0.005997  -0.004822   0.375598   0.615973  -0.040451  -0.038590
    11  H   -0.005664   0.005880   0.376884  -0.040451   0.604363  -0.038157
    12  C   -0.002676  -0.003870   0.371210  -0.038590  -0.038157   5.065336
    13  H    0.004609  -0.000397  -0.034934   0.005274  -0.004516   0.377717
    14  H   -0.000051   0.000009  -0.027688  -0.002714  -0.002529   0.371669
    15  H   -0.000373   0.005428  -0.034742  -0.004542   0.005176   0.377247
    16  C   -0.007708   0.005578  -0.004665  -0.000666   0.002457   0.000130
    17  H   -0.000021  -0.000047   0.002318   0.000461   0.003072  -0.000087
    18  H    0.005638   0.000003  -0.000396   0.000078   0.000303  -0.000024
    19  H   -0.000022  -0.000171   0.000098  -0.000029  -0.000090  -0.000001
              13         14         15         16         17         18
     1  C    0.000001   0.000001  -0.000004  -0.053228   0.004940  -0.001813
     2  H    0.000000   0.000000   0.000000   0.005304  -0.000204   0.000005
     3  H    0.000000   0.000000   0.000000  -0.005307  -0.000064  -0.000092
     4  C    0.000059  -0.000127  -0.000021   0.374489  -0.028475  -0.035367
     5  H    0.000009   0.000000   0.000002  -0.048239  -0.003162   0.005834
     6  C   -0.004192   0.004029  -0.004691  -0.048050  -0.005136  -0.005351
     7  H    0.004609  -0.000051  -0.000373  -0.007708  -0.000021   0.005638
     8  H   -0.000397   0.000009   0.005428   0.005578  -0.000047   0.000003
     9  C   -0.034934  -0.027688  -0.034742  -0.004665   0.002318  -0.000396
    10  H    0.005274  -0.002714  -0.004542  -0.000666   0.000461   0.000078
    11  H   -0.004516  -0.002529   0.005176   0.002457   0.003072   0.000303
    12  C    0.377717   0.371669   0.377247   0.000130  -0.000087  -0.000024
    13  H    0.578086  -0.031346  -0.032785  -0.000011   0.000008   0.000001
    14  H   -0.031346   0.578739  -0.031308   0.000004   0.000005   0.000000
    15  H   -0.032785  -0.031308   0.579439   0.000001   0.000001   0.000000
    16  C   -0.000011   0.000004   0.000001   5.112873   0.367371   0.374217
    17  H    0.000008   0.000005   0.000001   0.367371   0.577766  -0.031539
    18  H    0.000001   0.000000   0.000000   0.374217  -0.031539   0.573762
    19  H    0.000000   0.000000   0.000000   0.369819  -0.030746  -0.030823
              19
     1  C   -0.004714
     2  H   -0.000014
     3  H    0.004480
     4  C   -0.030057
     5  H   -0.003026
     6  C    0.004844
     7  H   -0.000022
     8  H   -0.000171
     9  C    0.000098
    10  H   -0.000029
    11  H   -0.000090
    12  C   -0.000001
    13  H    0.000000
    14  H    0.000000
    15  H    0.000000
    16  C    0.369819
    17  H   -0.030746
    18  H   -0.030823
    19  H    0.581385
          Atomic-Atomic Spin Densities.
               1          2          3          4          5          6
     1  C    1.135476  -0.013223  -0.013711  -0.037227  -0.021818  -0.007932
     2  H   -0.013223  -0.025455   0.006362   0.003344  -0.002544   0.001279
     3  H   -0.013711   0.006362  -0.025194   0.003649  -0.002619   0.000278
     4  C   -0.037227   0.003344   0.003649  -0.029389   0.013421   0.001496
     5  H   -0.021818  -0.002544  -0.002619   0.013421   0.072909  -0.009859
     6  C   -0.007932   0.001279   0.000278   0.001496  -0.009859   0.024411
     7  H    0.003930  -0.000251  -0.000066  -0.000283   0.000666  -0.005162
     8  H   -0.000220   0.000028   0.000020   0.000517  -0.000375   0.000263
     9  C    0.000117  -0.000078  -0.000008   0.001034   0.001677  -0.003402
    10  H   -0.000005  -0.000002   0.000000   0.000042   0.000144   0.000068
    11  H    0.000000   0.000000   0.000000   0.000067   0.000040  -0.000364
    12  C   -0.000003   0.000000   0.000000  -0.000022   0.000001  -0.000086
    13  H   -0.000001   0.000000   0.000000  -0.000003  -0.000002   0.000094
    14  H    0.000000   0.000000   0.000000   0.000003   0.000001  -0.000022
    15  H    0.000000   0.000000   0.000000   0.000003   0.000003  -0.000024
    16  C   -0.008224   0.000191   0.001149   0.002985  -0.007953   0.006656
    17  H    0.000146  -0.000003  -0.000057   0.000775   0.001349  -0.000674
    18  H    0.004341  -0.000071  -0.000292  -0.000400   0.000732  -0.001446
    19  H   -0.000192   0.000017   0.000079   0.000466  -0.000465   0.000060
               7          8          9         10         11         12
     1  C    0.003930  -0.000220   0.000117  -0.000005   0.000000  -0.000003
     2  H   -0.000251   0.000028  -0.000078  -0.000002   0.000000   0.000000
     3  H   -0.000066   0.000020  -0.000008   0.000000   0.000000   0.000000
     4  C   -0.000283   0.000517   0.001034   0.000042   0.000067  -0.000022
     5  H    0.000666  -0.000375   0.001677   0.000144   0.000040   0.000001
     6  C   -0.005162   0.000263  -0.003402   0.000068  -0.000364  -0.000086
     7  H    0.001831  -0.000116   0.001561   0.000000   0.000057  -0.000048
     8  H   -0.000116  -0.000910   0.000116   0.000003  -0.000010  -0.000008
     9  C    0.001561   0.000116   0.000054   0.000041   0.000213   0.000292
    10  H    0.000000   0.000003   0.000041  -0.000225   0.000023  -0.000034
    11  H    0.000057  -0.000010   0.000213   0.000023   0.000070   0.000013
    12  C   -0.000048  -0.000008   0.000292  -0.000034   0.000013  -0.000486
    13  H   -0.000082   0.000005  -0.000047  -0.000005  -0.000008  -0.000005
    14  H    0.000008   0.000000  -0.000120   0.000006   0.000008   0.000147
    15  H    0.000013  -0.000013   0.000016   0.000003   0.000001  -0.000017
    16  C   -0.001179   0.000029  -0.000927  -0.000031  -0.000091  -0.000006
    17  H    0.000134   0.000002   0.000070   0.000009   0.000061   0.000007
    18  H    0.000423  -0.000011   0.000217   0.000002   0.000018   0.000000
    19  H   -0.000012   0.000000  -0.000002   0.000000  -0.000001   0.000000
              13         14         15         16         17         18
     1  C   -0.000001   0.000000   0.000000  -0.008224   0.000146   0.004341
     2  H    0.000000   0.000000   0.000000   0.000191  -0.000003  -0.000071
     3  H    0.000000   0.000000   0.000000   0.001149  -0.000057  -0.000292
     4  C   -0.000003   0.000003   0.000003   0.002985   0.000775  -0.000400
     5  H   -0.000002   0.000001   0.000003  -0.007953   0.001349   0.000732
     6  C    0.000094  -0.000022  -0.000024   0.006656  -0.000674  -0.001446
     7  H   -0.000082   0.000008   0.000013  -0.001179   0.000134   0.000423
     8  H    0.000005   0.000000  -0.000013   0.000029   0.000002  -0.000011
     9  C   -0.000047  -0.000120   0.000016  -0.000927   0.000070   0.000217
    10  H   -0.000005   0.000006   0.000003  -0.000031   0.000009   0.000002
    11  H   -0.000008   0.000008   0.000001  -0.000091   0.000061   0.000018
    12  C   -0.000005   0.000147  -0.000017  -0.000006   0.000007   0.000000
    13  H    0.000223  -0.000044  -0.000025   0.000003  -0.000001  -0.000001
    14  H   -0.000044   0.000042   0.000028  -0.000001   0.000000   0.000000
    15  H   -0.000025   0.000028   0.000023   0.000000   0.000000   0.000000
    16  C    0.000003  -0.000001   0.000000   0.019734  -0.002198  -0.005508
    17  H   -0.000001   0.000000   0.000000  -0.002198  -0.001208   0.001282
    18  H   -0.000001   0.000000   0.000000  -0.005508   0.001282   0.003190
    19  H    0.000000   0.000000   0.000000   0.000359   0.000040  -0.000276
              19
     1  C   -0.000192
     2  H    0.000017
     3  H    0.000079
     4  C    0.000466
     5  H   -0.000465
     6  C    0.000060
     7  H   -0.000012
     8  H    0.000000
     9  C   -0.000002
    10  H    0.000000
    11  H   -0.000001
    12  C    0.000000
    13  H    0.000000
    14  H    0.000000
    15  H    0.000000
    16  C    0.000359
    17  H    0.000040
    18  H   -0.000276
    19  H   -0.000684
 Mulliken charges and spin densities:
               1          2
     1  C   -0.288068   1.041455
     2  H    0.129361  -0.030405
     3  H    0.128904  -0.030411
     4  C   -0.094201  -0.039522
     5  H    0.133574   0.045309
     6  C   -0.240171   0.005634
     7  H    0.130763   0.001426
     8  H    0.123828  -0.000679
     9  C   -0.254399   0.000824
    10  H    0.127687   0.000041
    11  H    0.135850   0.000097
    12  C   -0.441825  -0.000256
    13  H    0.142418   0.000100
    14  H    0.141306   0.000059
    15  H    0.141172   0.000011
    16  C   -0.444370   0.004990
    17  H    0.143539  -0.000264
    18  H    0.145561   0.002202
    19  H    0.139068  -0.000610
 Sum of Mulliken charges =   0.00000   1.00000
 Mulliken charges and spin densities with hydrogens summed into heavy atoms:
               1          2
     1  C   -0.029803   0.980638
     4  C    0.039373   0.005787
     6  C    0.014420   0.006380
     9  C    0.009139   0.000961
    12  C   -0.016929  -0.000085
    16  C   -0.016201   0.006319
 Electronic spatial extent (au):  <R**2>=            879.6937
 Charge=              0.0000 electrons
 Dipole moment (field-independent basis, Debye):
    X=             -0.1790    Y=              0.1642    Z=             -0.6101  Tot=              0.6567
 Quadrupole moment (field-independent basis, Debye-Ang):
   XX=            -41.6170   YY=            -40.9647   ZZ=            -40.8793
   XY=              0.2955   XZ=             -1.3625   YZ=              0.8790
 Traceless Quadrupole moment (field-independent basis, Debye-Ang):
   XX=             -0.4634   YY=              0.1890   ZZ=              0.2743
   XY=              0.2955   XZ=             -1.3625   YZ=              0.8790
 Octapole moment (field-independent basis, Debye-Ang**2):
  XXX=              0.2664  YYY=             -0.4707  ZZZ=             -0.3330  XYY=             -1.9184
  XXY=              2.4916  XXZ=             -4.5663  XZZ=             -1.6771  YZZ=              1.0172
  YYZ=             -1.9416  XYZ=              1.3952
 Hexadecapole moment (field-independent basis, Debye-Ang**3):
 XXXX=           -890.2824 YYYY=           -242.2466 ZZZZ=            -90.3981 XXXY=              2.0929
 XXXZ=             -9.0967 YYYX=              0.1584 YYYZ=              3.0208 ZZZX=             -2.7783
 ZZZY=              1.7211 XXYY=           -190.7787 XXZZ=           -166.3226 YYZZ=            -58.2544
 XXYZ=              3.4974 YYXZ=             -2.3395 ZZXY=              2.1624
 N-N= 2.424404861449D+02 E-N=-1.030437866672D+03  KE= 2.339698742264D+02
                          Isotropic Fermi Contact Couplings
        Atom                 a.u.       MegaHertz       Gauss      10(-4) cm-1
     1  C(13)              0.30531     343.22833     122.47240     114.48865
     2  H(1)              -0.00419     -18.72697      -6.68225      -6.24665
     3  H(1)              -0.00426     -19.03260      -6.79130      -6.34859
     4  C(13)             -0.01179     -13.25254      -4.72884      -4.42057
     5  H(1)               0.02441     109.12169      38.93733      36.39908
     6  C(13)              0.00967      10.87437       3.88024       3.62730
     7  H(1)              -0.00028      -1.25911      -0.44928      -0.41999
     8  H(1)              -0.00027      -1.19935      -0.42796      -0.40006
     9  C(13)             -0.00103      -1.15698      -0.41284      -0.38593
    10  H(1)               0.00022       0.97529       0.34801       0.32532
    11  H(1)               0.00005       0.20712       0.07390       0.06909
    12  C(13)             -0.00015      -0.16802      -0.05995      -0.05605
    13  H(1)               0.00006       0.28499       0.10169       0.09506
    14  H(1)               0.00003       0.15176       0.05415       0.05062
    15  H(1)               0.00000      -0.00409      -0.00146      -0.00136
    16  C(13)              0.01000      11.24631       4.01296       3.75136
    17  H(1)              -0.00044      -1.97370      -0.70427      -0.65836
    18  H(1)              -0.00023      -1.03323      -0.36868      -0.34465
    19  H(1)              -0.00024      -1.08996      -0.38892      -0.36357
 --------------------------------------------------------
       Center         ----  Spin Dipole Couplings  ----
                      3XX-RR        3YY-RR        3ZZ-RR
 --------------------------------------------------------
     1   Atom       -0.476215     -0.477282      0.953498
     2   Atom       -0.052790      0.053026     -0.000235
     3   Atom        0.050850     -0.051616      0.000766
     4   Atom       -0.005053     -0.006657      0.011710
     5   Atom       -0.003368     -0.003788      0.007156
     6   Atom        0.020182     -0.009421     -0.010762
     7   Atom        0.010021     -0.006243     -0.003778
     8   Atom        0.010807     -0.005477     -0.005330
     9   Atom        0.002808     -0.002556     -0.000252
    10   Atom        0.002904     -0.001818     -0.001086
    11   Atom        0.001771     -0.000125     -0.001646
    12   Atom        0.001948     -0.001010     -0.000938
    13   Atom        0.001855     -0.000963     -0.000893
    14   Atom        0.001228     -0.000583     -0.000645
    15   Atom        0.002023     -0.001058     -0.000965
    16   Atom       -0.008577      0.018980     -0.010403
    17   Atom       -0.002437      0.005306     -0.002869
    18   Atom       -0.005965      0.010053     -0.004089
    19   Atom       -0.005365      0.010165     -0.004800
 --------------------------------------------------------
                        XY            XZ            YZ
 --------------------------------------------------------
     1   Atom        0.000300      0.056260     -0.038002
     2   Atom        0.028049      0.008728      0.028043
     3   Atom        0.030137     -0.028835     -0.009180
     4   Atom       -0.018477      0.022936     -0.021366
     5   Atom       -0.008106      0.005831     -0.005400
     6   Atom       -0.000892      0.002608     -0.000469
     7   Atom       -0.004407     -0.005791      0.000727
     8   Atom        0.003551      0.002914      0.000279
     9   Atom       -0.001604      0.001191     -0.000619
    10   Atom       -0.001705      0.001544     -0.000651
    11   Atom       -0.002608      0.000125     -0.000131
    12   Atom       -0.000648      0.000170     -0.000075
    13   Atom       -0.000486     -0.000507      0.000072
    14   Atom       -0.000471      0.000148     -0.000040
    15   Atom        0.000144      0.000290     -0.000020
    16   Atom       -0.001821      0.000793     -0.002351
    17   Atom       -0.003385      0.000588     -0.000932
    18   Atom       -0.004456     -0.000717      0.005453
    19   Atom        0.002743     -0.000194     -0.003146
 --------------------------------------------------------


 ---------------------------------------------------------------------------------
              Anisotropic Spin Dipole Couplings in Principal Axis System
 ---------------------------------------------------------------------------------

       Atom             a.u.   MegaHertz   Gauss  10(-4) cm-1        Axes

              Baa    -0.4801   -64.431   -22.991   -21.492  0.7193 -0.6931 -0.0466
     1 C(13)  Bbb    -0.4766   -63.950   -22.819   -21.332  0.6935  0.7204 -0.0081
              Bcc     0.9567   128.382    45.810    42.824  0.0392 -0.0265  0.9989
 
              Baa    -0.0598   -31.918   -11.389   -10.647  0.9718 -0.2335 -0.0325
     2 H(1)   Bbb    -0.0121    -6.455    -2.303    -2.153 -0.0588 -0.3734  0.9258
              Bcc     0.0719    38.373    13.692    12.800  0.2283  0.8978  0.3766
 
              Baa    -0.0599   -31.935   -11.395   -10.652 -0.2567  0.9662  0.0242
     3 H(1)   Bbb    -0.0121    -6.431    -2.295    -2.145  0.3839  0.0790  0.9200
              Bcc     0.0719    38.366    13.690    12.798  0.8870  0.2455 -0.3912
 
              Baa    -0.0244    -3.270    -1.167    -1.091  0.7179  0.6947 -0.0450
     4 C(13)  Bbb    -0.0192    -2.570    -0.917    -0.857 -0.4655  0.5272  0.7109
              Bcc     0.0435     5.840     2.084     1.948  0.5176 -0.4894  0.7019
 
              Baa    -0.0117    -6.237    -2.226    -2.081  0.7025  0.7115 -0.0135
     5 H(1)   Bbb    -0.0022    -1.177    -0.420    -0.393 -0.5366  0.5421  0.6467
              Bcc     0.0139     7.415     2.646     2.473  0.4675 -0.4471  0.7626
 
              Baa    -0.0111    -1.486    -0.530    -0.496 -0.0742  0.2346  0.9693
     6 C(13)  Bbb    -0.0094    -1.255    -0.448    -0.419  0.0498  0.9716 -0.2314
              Bcc     0.0204     2.741     0.978     0.914  0.9960 -0.0311  0.0838
 
              Baa    -0.0076    -4.062    -1.449    -1.355  0.3294  0.8847  0.3298
     7 H(1)   Bbb    -0.0055    -2.942    -1.050    -0.981  0.2141 -0.4102  0.8865
              Bcc     0.0131     7.003     2.499     2.336  0.9196 -0.2214 -0.3245
 
              Baa    -0.0064    -3.411    -1.217    -1.138 -0.2545  0.8413  0.4769
     8 H(1)   Bbb    -0.0056    -3.011    -1.074    -1.004 -0.0444 -0.5028  0.8632
              Bcc     0.0120     6.422     2.291     2.142  0.9661  0.1985  0.1653
 
              Baa    -0.0030    -0.407    -0.145    -0.136  0.2422  0.9639  0.1110
     9 C(13)  Bbb    -0.0007    -0.088    -0.032    -0.029 -0.3348 -0.0244  0.9420
              Bcc     0.0037     0.495     0.177     0.165  0.9106 -0.2653  0.3168
 
              Baa    -0.0024    -1.277    -0.456    -0.426  0.2563  0.9514  0.1709
    10 H(1)   Bbb    -0.0016    -0.858    -0.306    -0.286 -0.3477 -0.0742  0.9347
              Bcc     0.0040     2.136     0.762     0.712  0.9019 -0.2989  0.3118
 
              Baa    -0.0020    -1.044    -0.373    -0.348  0.5669  0.8157  0.1152
    11 H(1)   Bbb    -0.0016    -0.879    -0.314    -0.293 -0.0936 -0.0751  0.9928
              Bcc     0.0036     1.923     0.686     0.641  0.8185 -0.5736  0.0338
 
              Baa    -0.0012    -0.155    -0.055    -0.052  0.1914  0.9642  0.1833
    12 C(13)  Bbb    -0.0009    -0.126    -0.045    -0.042 -0.0954 -0.1676  0.9812
              Bcc     0.0021     0.281     0.100     0.094  0.9769 -0.2053  0.0599
 
              Baa    -0.0010    -0.558    -0.199    -0.186  0.1938  0.9633  0.1857
    13 H(1)   Bbb    -0.0010    -0.523    -0.187    -0.174  0.1363 -0.2139  0.9673
              Bcc     0.0020     1.081     0.386     0.361  0.9715 -0.1622 -0.1728
 
              Baa    -0.0007    -0.373    -0.133    -0.124  0.2311  0.9696  0.0799
    14 H(1)   Bbb    -0.0007    -0.350    -0.125    -0.117 -0.0928 -0.0597  0.9939
              Bcc     0.0014     0.723     0.258     0.241  0.9685 -0.2372  0.0762
 
              Baa    -0.0011    -0.575    -0.205    -0.192 -0.0768  0.9298  0.3599
    15 H(1)   Bbb    -0.0010    -0.523    -0.187    -0.174 -0.0722 -0.3652  0.9281
              Bcc     0.0021     1.098     0.392     0.366  0.9944  0.0453  0.0951
 
              Baa    -0.0108    -1.448    -0.517    -0.483 -0.2949  0.0573  0.9538
    16 C(13)  Bbb    -0.0085    -1.141    -0.407    -0.381  0.9532  0.0879  0.2894
              Bcc     0.0193     2.589     0.924     0.864 -0.0673  0.9945 -0.0805
 
              Baa    -0.0038    -2.012    -0.718    -0.671  0.9106  0.3117 -0.2715
    17 H(1)   Bbb    -0.0029    -1.562    -0.557    -0.521  0.2174  0.1976  0.9559
              Bcc     0.0067     3.574     1.275     1.192 -0.3516  0.9294 -0.1121
 
              Baa    -0.0074    -3.942    -1.407    -1.315  0.8672  0.3363 -0.3671
    18 H(1)   Bbb    -0.0056    -2.972    -1.061    -0.991  0.4420 -0.1806  0.8786
              Bcc     0.0130     6.914     2.467     2.306 -0.2292  0.9243  0.3053
 
              Baa    -0.0060    -3.212    -1.146    -1.071  0.8487 -0.2359 -0.4734
    19 H(1)   Bbb    -0.0052    -2.790    -0.995    -0.931  0.5034  0.0860  0.8597
              Bcc     0.0112     6.001     2.141     2.002  0.1621  0.9680 -0.1917
 

 ---------------------------------------------------------------------------------

 No NMR shielding tensors so no spin-rotation constants.
 Leave Link  601 at Sat Nov  7 02:04:35 2015, MaxMem=   805306368 cpu:         0.9
 (Enter /home/hetanjin/apps/g09D01/g09/l701.exe)
 Compute integral first derivatives.
 ... and contract with generalized density number  0.
 Leave Link  701 at Sat Nov  7 02:04:35 2015, MaxMem=   805306368 cpu:         1.0
 (Enter /home/hetanjin/apps/g09D01/g09/l702.exe)
 L702 exits ... SP integral derivatives will be done elsewhere.
 Leave Link  702 at Sat Nov  7 02:04:35 2015, MaxMem=   805306368 cpu:         0.1
 (Enter /home/hetanjin/apps/g09D01/g09/l703.exe)
 Compute integral first derivatives, UseDBF=F ICtDFT=           0.
 Integral derivatives from FoFJK, PRISM(SPDF).
 Calling FoFJK, ICntrl=      2127 FMM=F ISym2X=0 I1Cent= 0 IOpClX= 1 NMat=1 NMatS=1 NMatT=0.
 FoFJK:  IHMeth= 1 ICntrl=    2127 DoSepK=F KAlg= 0 I1Cent=   0 FoldK=F
 IRaf=         0 NMat=   1 IRICut=       1 DoRegI=T DoRafI=F ISym2E= 0.
 FoFCou: FMM=F IPFlag=           0 FMFlag=      100000 FMFlg1=         800
         NFxFlg=           0 DoJE=F BraDBF=F KetDBF=F FulRan=T
         wScrn=  0.000000 ICntrl=    2127 IOpCl=  1 I1Cent=           0 NGrid=           0
         NMat0=    1 NMatS0=      1 NMatT0=    0 NMatD0=    1 NMtDS0=    0 NMtDT0=    0
 Symmetry not used in FoFCou.
 Leave Link  703 at Sat Nov  7 02:04:44 2015, MaxMem=   805306368 cpu:        31.5
 (Enter /home/hetanjin/apps/g09D01/g09/l716.exe)
 Dipole        =-7.04293475D-02 6.46128740D-02-2.40030555D-01
 ***** Axes restored to original set *****
 -------------------------------------------------------------------
 Center     Atomic                   Forces (Hartrees/Bohr)
 Number     Number              X              Y              Z
 -------------------------------------------------------------------
      1        6          -0.009183035    0.009388386   -0.044863317
      2        1          -0.000922349   -0.005055970    0.013911658
      3        1           0.004716690    0.000935535    0.014065301
      4        6           0.004911858   -0.004791430    0.021079093
      5        1           0.002176083   -0.002044557   -0.002900919
      6        6          -0.002284492   -0.000352339    0.000715995
      7        1           0.000318711    0.000034753   -0.000876479
      8        1           0.000110375    0.000041253   -0.000001039
      9        6           0.000132891    0.000058401   -0.000146508
     10        1          -0.000088745    0.000089377   -0.000219637
     11        1           0.000007933   -0.000016131   -0.000021624
     12        6           0.000042051   -0.000083030    0.000008921
     13        1           0.000041176    0.000013152   -0.000039840
     14        1           0.000054220    0.000008265   -0.000005180
     15        1          -0.000002909    0.000012080    0.000010340
     16        6           0.000028265    0.002221834    0.000528814
     17        1           0.000038170   -0.000042436   -0.000325338
     18        1          -0.000074958   -0.000336476   -0.000918840
     19        1          -0.000021935   -0.000080666   -0.000001401
 -------------------------------------------------------------------
 Cartesian Forces:  Max     0.044863317 RMS     0.007431551
 Leave Link  716 at Sat Nov  7 02:04:44 2015, MaxMem=   805306368 cpu:         0.1
 (Enter /home/hetanjin/apps/g09D01/g09/l103.exe)

 GradGradGradGradGradGradGradGradGradGradGradGradGradGradGradGradGradGrad
 Berny optimization.
 FormGI is forming the generalized inverse of G from B-inverse, IUseBI=4.
 Internal  Forces:  Max     0.013472623 RMS     0.003254370
 Search for a local minimum.
 Step number   1 out of a maximum of  103
 All quantities printed in internal units (Hartrees-Bohrs-Radians)
 RMS Force = .32544D-02 SwitMx=.10000D-02 MixMth= 1
 Mixed Optimization -- RFO/linear search
 Second derivative matrix not updated -- first step.
 ITU=  0
     Eigenvalues ---    0.00230   0.00282   0.00287   0.00303   0.00334
     Eigenvalues ---    0.03185   0.03462   0.03540   0.03685   0.04673
     Eigenvalues ---    0.04696   0.04785   0.05336   0.05430   0.05472
     Eigenvalues ---    0.05490   0.05754   0.08357   0.08767   0.12226
     Eigenvalues ---    0.12525   0.16000   0.16000   0.16000   0.16000
     Eigenvalues ---    0.16000   0.16000   0.16000   0.16000   0.17069
     Eigenvalues ---    0.17989   0.21893   0.21944   0.28367   0.28825
     Eigenvalues ---    0.28860   0.28964   0.29178   0.33520   0.33530
     Eigenvalues ---    0.33657   0.33717   0.33869   0.33942   0.34005
     Eigenvalues ---    0.34007   0.34055   0.34061   0.34062   0.34118
     Eigenvalues ---    0.34216
 RFO step:  Lambda=-1.38937935D-02 EMin= 2.30000000D-03
 Linear search not attempted -- first point.
 Iteration  1 RMS(Cart)=  0.04175951 RMS(Int)=  0.00812157
 Iteration  2 RMS(Cart)=  0.00621355 RMS(Int)=  0.00578557
 Iteration  3 RMS(Cart)=  0.00007433 RMS(Int)=  0.00578529
 Iteration  4 RMS(Cart)=  0.00000166 RMS(Int)=  0.00578528
 Iteration  5 RMS(Cart)=  0.00000005 RMS(Int)=  0.00578528
 ITry= 1 IFail=0 DXMaxC= 1.87D-01 DCOld= 1.00D+10 DXMaxT= 3.00D-01 DXLimC= 3.00D+00 Rises=F
 Variable       Old X    -DE/DX   Delta X   Delta X   Delta X     New X
                                 (Linear)    (Quad)   (Total)
    R1        2.07237  -0.00042   0.00000  -0.00120  -0.00120   2.07117
    R2        2.07228  -0.00046   0.00000  -0.00131  -0.00131   2.07097
    R3        2.90296  -0.01135   0.00000  -0.03753  -0.03753   2.86543
    R4        2.08149   0.00269   0.00000   0.00771   0.00771   2.08920
    R5        2.91344   0.00137   0.00000   0.00459   0.00459   2.91803
    R6        2.90369   0.00134   0.00000   0.00445   0.00445   2.90813
    R7        2.08131  -0.00087   0.00000  -0.00250  -0.00250   2.07881
    R8        2.07912  -0.00005   0.00000  -0.00015  -0.00015   2.07897
    R9        2.90078   0.00002   0.00000   0.00008   0.00008   2.90086
   R10        2.07811   0.00022   0.00000   0.00064   0.00064   2.07874
   R11        2.07428  -0.00002   0.00000  -0.00006  -0.00006   2.07422
   R12        2.89633  -0.00011   0.00000  -0.00035  -0.00035   2.89598
   R13        2.07322  -0.00004   0.00000  -0.00012  -0.00012   2.07310
   R14        2.07131  -0.00004   0.00000  -0.00010  -0.00010   2.07121
   R15        2.07318  -0.00001   0.00000  -0.00004  -0.00004   2.07314
   R16        2.06967   0.00004   0.00000   0.00011   0.00011   2.06978
   R17        2.07552  -0.00092   0.00000  -0.00261  -0.00261   2.07291
   R18        2.07225  -0.00004   0.00000  -0.00012  -0.00012   2.07213
    A1        1.88223  -0.00073   0.00000   0.12210   0.08661   1.96885
    A2        1.94449   0.01341   0.00000   0.14491   0.11646   2.06094
    A3        1.94287   0.01347   0.00000   0.14535   0.11688   2.05976
    A4        1.88002  -0.00239   0.00000  -0.03318  -0.03311   1.84692
    A5        1.92906   0.00106   0.00000   0.01162   0.01143   1.94049
    A6        1.92774   0.00125   0.00000   0.01275   0.01258   1.94032
    A7        1.87706   0.00042   0.00000   0.00007   0.00011   1.87717
    A8        1.88194   0.00037   0.00000   0.00011   0.00017   1.88211
    A9        1.96473  -0.00085   0.00000   0.00591   0.00569   1.97042
   A10        1.90132  -0.00015   0.00000  -0.00149  -0.00148   1.89983
   A11        1.89309   0.00006   0.00000  -0.00056  -0.00056   1.89253
   A12        2.01454  -0.00031   0.00000  -0.00150  -0.00150   2.01304
   A13        1.84789  -0.00003   0.00000   0.00046   0.00046   1.84834
   A14        1.90709   0.00037   0.00000   0.00298   0.00298   1.91007
   A15        1.89268   0.00007   0.00000   0.00025   0.00025   1.89293
   A16        1.90542   0.00015   0.00000   0.00113   0.00113   1.90655
   A17        1.92072   0.00003   0.00000  -0.00002  -0.00002   1.92070
   A18        1.96892  -0.00020   0.00000  -0.00085  -0.00085   1.96808
   A19        1.85242  -0.00005   0.00000  -0.00023  -0.00023   1.85220
   A20        1.90917   0.00000   0.00000  -0.00018  -0.00018   1.90900
   A21        1.90353   0.00008   0.00000   0.00017   0.00017   1.90370
   A22        1.94027  -0.00005   0.00000  -0.00032  -0.00032   1.93995
   A23        1.94519  -0.00005   0.00000  -0.00031  -0.00031   1.94487
   A24        1.94094   0.00003   0.00000   0.00022   0.00022   1.94116
   A25        1.87895   0.00005   0.00000   0.00019   0.00019   1.87914
   A26        1.87563   0.00001   0.00000   0.00010   0.00010   1.87573
   A27        1.87972   0.00002   0.00000   0.00016   0.00016   1.87988
   A28        1.95757  -0.00013   0.00000  -0.00067  -0.00067   1.95690
   A29        1.93340  -0.00040   0.00000  -0.00217  -0.00217   1.93123
   A30        1.93610  -0.00002   0.00000  -0.00035  -0.00035   1.93575
   A31        1.88022   0.00035   0.00000   0.00249   0.00249   1.88271
   A32        1.87616   0.00005   0.00000   0.00001   0.00001   1.87617
   A33        1.87714   0.00019   0.00000   0.00089   0.00089   1.87802
    D1       -1.04583  -0.00869   0.00000  -0.17607  -0.18232  -1.22815
    D2        1.00024  -0.00900   0.00000  -0.18901  -0.19531   0.80493
    D3       -3.09704  -0.00843   0.00000  -0.16380  -0.16997   3.01618
    D4        1.05590   0.00874   0.00000   0.17768   0.18390   1.23981
    D5        3.10197   0.00844   0.00000   0.16474   0.17091  -3.01030
    D6       -0.99531   0.00901   0.00000   0.18995   0.19626  -0.79905
    D7        1.12731   0.00125   0.00000   0.02320   0.02322   1.15053
    D8       -0.87637   0.00133   0.00000   0.02374   0.02376  -0.85261
    D9       -3.00345   0.00140   0.00000   0.02487   0.02489  -2.97856
   D10       -3.10798  -0.00079   0.00000  -0.01023  -0.01023  -3.11821
   D11        1.17153  -0.00071   0.00000  -0.00969  -0.00969   1.16184
   D12       -0.95555  -0.00064   0.00000  -0.00855  -0.00856  -0.96411
   D13       -1.03748  -0.00056   0.00000  -0.00658  -0.00660  -1.04408
   D14       -3.04116  -0.00048   0.00000  -0.00604  -0.00605  -3.04722
   D15        1.11494  -0.00041   0.00000  -0.00490  -0.00492   1.11002
   D16        3.06412  -0.00132   0.00000  -0.02465  -0.02467   3.03945
   D17       -1.11751  -0.00124   0.00000  -0.02343  -0.02346  -1.14097
   D18        0.96587  -0.00128   0.00000  -0.02396  -0.02398   0.94189
   D19        1.01409   0.00064   0.00000   0.00813   0.00813   1.02222
   D20        3.11564   0.00072   0.00000   0.00934   0.00935   3.12499
   D21       -1.08416   0.00069   0.00000   0.00882   0.00882  -1.07534
   D22       -1.05354   0.00038   0.00000   0.00448   0.00450  -1.04903
   D23        1.04801   0.00047   0.00000   0.00570   0.00572   1.05373
   D24        3.13140   0.00043   0.00000   0.00517   0.00519   3.13659
   D25        0.94556   0.00004   0.00000  -0.00035  -0.00035   0.94521
   D26       -1.08096   0.00000   0.00000  -0.00071  -0.00071  -1.08168
   D27        3.07202   0.00001   0.00000  -0.00034  -0.00034   3.07169
   D28        3.09493  -0.00009   0.00000  -0.00103  -0.00104   3.09390
   D29        1.06841  -0.00013   0.00000  -0.00140  -0.00140   1.06701
   D30       -1.06179  -0.00012   0.00000  -0.00102  -0.00103  -1.06282
   D31       -1.18174   0.00012   0.00000   0.00122   0.00123  -1.18052
   D32        3.07492   0.00007   0.00000   0.00086   0.00086   3.07578
   D33        0.94472   0.00009   0.00000   0.00124   0.00124   0.94595
   D34        1.04570  -0.00003   0.00000  -0.00038  -0.00038   1.04532
   D35       -3.14121  -0.00004   0.00000  -0.00057  -0.00057   3.14140
   D36       -1.04351  -0.00003   0.00000  -0.00044  -0.00044  -1.04394
   D37       -3.11314   0.00003   0.00000   0.00037   0.00037  -3.11277
   D38       -1.01687   0.00002   0.00000   0.00017   0.00018  -1.01669
   D39        1.08084   0.00003   0.00000   0.00031   0.00031   1.08115
   D40       -1.09415   0.00001   0.00000   0.00009   0.00009  -1.09406
   D41        1.00212   0.00000   0.00000  -0.00010  -0.00010   1.00202
   D42        3.09983   0.00001   0.00000   0.00003   0.00003   3.09986
         Item               Value     Threshold  Converged?
 Maximum Force            0.013473     0.000015     NO 
 RMS     Force            0.003254     0.000010     NO 
 Maximum Displacement     0.187299     0.000060     NO 
 RMS     Displacement     0.039123     0.000040     NO 
 Predicted change in Energy=-1.005521D-02
 Lowest energy point so far.  Saving SCF results.
 GradGradGradGradGradGradGradGradGradGradGradGradGradGradGradGradGradGrad

 Leave Link  103 at Sat Nov  7 02:04:45 2015, MaxMem=   805306368 cpu:         3.8
 (Enter /home/hetanjin/apps/g09D01/g09/l202.exe)
                          Input orientation:                          
 ---------------------------------------------------------------------
 Center     Atomic      Atomic             Coordinates (Angstroms)
 Number     Number       Type             X           Y           Z
 ---------------------------------------------------------------------
      1          6           0        2.148221   -1.025565   -0.056270
      2          1           0        1.940128   -2.077516   -0.282877
      3          1           0        3.189615   -0.746605   -0.252974
      4          6           0        1.068507   -0.003822   -0.355412
      5          1           0        1.014416    0.063624   -1.457581
      6          6           0       -0.309368   -0.483876    0.149983
      7          1           0       -0.286775   -0.535506    1.248595
      8          1           0       -0.466990   -1.515864   -0.197105
      9          6           0       -1.506099    0.367314   -0.296949
     10          1           0       -1.497458    0.457476   -1.393237
     11          1           0       -1.408352    1.388423    0.093652
     12          6           0       -2.849671   -0.215181    0.154752
     13          1           0       -2.900959   -0.290538    1.247997
     14          1           0       -3.688035    0.408905   -0.175342
     15          1           0       -3.002823   -1.222323   -0.252366
     16          6           0        1.453208    1.385350    0.183546
     17          1           0        0.733779    2.156349   -0.112461
     18          1           0        1.503622    1.374853    1.279272
     19          1           0        2.437314    1.691592   -0.190773
 ---------------------------------------------------------------------
                    Distance matrix (angstroms):
                    1          2          3          4          5
     1  C    0.000000
     2  H    1.096017   0.000000
     3  H    1.095907   1.825770   0.000000
     4  C    1.516320   2.250598   2.249738   0.000000
     5  H    2.106067   2.611772   2.615156   1.105556   0.000000
     6  C    2.525017   2.790572   3.531895   1.544155   2.153236
     7  H    2.805715   3.111639   3.792698   2.166175   3.061935
     8  H    2.664499   2.473263   3.737063   2.160806   2.505623
     9  C    3.918174   4.225384   4.826228   2.601875   2.791467
    10  H    4.156665   4.413172   4.971787   2.806075   2.543378
    11  H    4.301049   4.833924   5.081318   2.876601   3.167210
    12  C    5.067561   5.157712   6.076317   3.956900   4.196251
    13  H    5.266459   5.382656   6.289356   4.290662   4.772394
    14  H    6.011137   6.153867   6.974475   4.777809   4.886349
    15  H    5.158528   5.016478   6.210684   4.251010   4.386845
    16  C    2.520529   3.527901   2.784042   1.538918   2.152393
    17  H    3.482583   4.405671   3.804999   2.199411   2.503519
    18  H    2.821558   3.814407   3.113027   2.182261   3.073924
    19  H    2.735801   3.802874   2.552377   2.185216   2.505937
                    6          7          8          9         10
     6  C    0.000000
     7  H    1.100056   0.000000
[...]
 327344,-0.01271491,0.01828593,-0.00630732,0.46447344,0.06527056,-0.147
 88870,0.01948295,0.01863858,-0.01272236,0.00676740,-0.00910899,0.00785
 575,-0.00381568,-0.00948873,0.47658687,-0.02207580,0.01728117,-0.04944
 893,0.00221273,-0.00358681,0.00327080,0.00141961,0.00009912,0.00315911
 ,0.01297209,-0.00505052,0.49900247,-0.00742549,0.00859451,-0.02163869,
 -0.00015443,0.00014050,0.00017993,-0.00054774,0.00034293,0.00107525,-0
 .04388400,0.00095620,-0.02654213,0.05622401,0.00836080,-0.00655780,0.0
 2030978,0.00024824,-0.00021414,-0.00114389,0.00021668,-0.00034213,0.00
 008397,0.00090462,-0.04580935,0.02946949,-0.00208894,0.05696382,-0.008
 13009,0.00774606,-0.00373099,-0.00057081,0.00037545,-0.00045322,-0.000
 28482,0.00061834,-0.00067652,-0.01433871,0.01723726,-0.26315251,0.0229
 2548,-0.02633293,0.29449843,-0.03334184,-0.00088585,0.00508282,0.00181
 029,-0.00193099,-0.00035020,-0.00173527,0.00154654,0.00089139,-0.13874
 696,-0.02604113,0.03327491,-0.00186492,-0.00161807,0.00085986,0.450136
 63,0.01859961,0.00878080,-0.00626215,0.00156357,0.00024307,-0.00056197
 ,0.00366142,-0.00315056,0.00133203,-0.02517356,-0.09113558,0.00766934,
 -0.00449413,-0.00067975,0.00196908,0.00695484,0.54731457,-0.00629659,-
 0.00317057,0.00149862,0.00022194,0.00005734,0.00045006,-0.00238002,0.0
 0124797,-0.00037050,0.02908380,0.01076720,-0.08875399,0.03116988,0.011
 90031,-0.01549261,0.01343632,0.02900631,0.57210092,0.00173143,-0.00100
 250,0.00020941,-0.00009320,0.00024411,0.00012842,0.00002973,0.00000976
 ,-0.00010311,-0.00144582,-0.00161477,0.03009323,-0.00522323,-0.0018323
 2,0.00245407,-0.04872717,0.00012572,-0.01058696,0.05669347,0.00065350,
 -0.00002842,-0.00030605,-0.00012118,-0.00003383,-0.00013302,-0.0000349
 6,-0.00000719,0.00002103,-0.00090375,-0.00105995,0.01121133,-0.0019583
 7,-0.00025654,0.00150706,0.00038743,-0.05140264,0.01099232,-0.00132302
 ,0.05239482,-0.00090144,0.00049697,0.00086662,0.00018319,-0.00016586,-
 0.00030789,0.00020496,-0.00012370,0.00007799,0.00084199,0.00024386,-0.
 01225621,0.00240759,0.00069117,0.00006314,-0.01053934,0.01104224,-0.29
 817388,0.01080325,-0.01457198,0.32593370,0.00077172,-0.00215745,-0.000
 19601,-0.00045853,0.00092852,-0.00015257,0.00035175,0.00029630,0.00006
 667,-0.00703039,-0.02720970,-0.01138596,0.00100799,0.00056519,0.000058
 93,-0.05212449,-0.03327437,-0.01218152,-0.00052086,-0.00089871,-0.0005
 1560,0.06414301,0.00186020,0.00044015,0.00040385,-0.00040874,0.0008398
 3,-0.00019890,0.00002348,0.00040987,0.00000428,-0.00268746,-0.01140120
 ,-0.00457680,0.00023076,0.00014158,0.00041250,-0.03406858,-0.26347486,
 -0.07953163,0.00038548,0.00201596,0.00004330,0.03529137,0.28947436,-0.
 00039002,-0.00027242,0.00018392,-0.00028925,0.00011342,0.00017159,-0.0
 0008522,0.00023222,-0.00010049,0.00317681,0.01218997,0.00361794,-0.000
 73045,0.00004215,0.00066062,-0.01288569,-0.07926632,-0.08112252,-0.004
 91955,-0.03153703,-0.01127216,0.01338802,0.08659118,0.08260835,-0.0039
 4750,-0.00268171,0.00050629,0.00013710,0.00027519,-0.00000809,-0.00054
 745,0.00111624,0.00009152,-0.02569061,0.01518255,-0.00628545,0.0017894
 6,0.00071875,-0.00144761,-0.13746382,0.04771393,-0.02326395,-0.0024258
 4,0.00185159,-0.00059357,0.00136954,-0.00120852,0.00079708,0.45605180,
 -0.00238264,-0.00190475,0.00090932,-0.00021746,0.00037850,0.00017616,-
 0.00094374,0.00103197,-0.00037482,-0.00662069,0.00980656,-0.00478651,-
 0.00006361,0.00003016,-0.00004965,0.04442772,-0.11944512,0.01819128,0.
 00104416,-0.00170074,0.00061566,0.02585430,-0.02035835,0.00989948,0.01
 285387,0.55417768,0.00243603,0.00175667,-0.00024163,-0.00011039,0.0000
 3774,-0.00024439,0.00092480,-0.00049079,0.00041141,0.00795490,-0.00873
 155,0.00290018,0.00141075,-0.00055177,0.00010050,-0.02387248,0.0185084
 6,-0.09145218,-0.02703455,0.02120470,-0.00965640,0.00960027,-0.0072866
 9,0.00342612,0.00089648,0.02663591,0.57662250,0.00012606,0.00013413,0.
 00040718,0.00004572,-0.00006364,-0.00004313,0.00005266,-0.00008816,-0.
 00004241,0.00157921,0.00001318,-0.00167510,-0.00023293,-0.00014867,0.0
 0096064,-0.00240226,0.00213397,-0.02782016,-0.00410097,0.00350578,-0.0
 0132949,0.00088041,-0.00036544,0.00080102,-0.04787685,-0.00002913,-0.0
 0301693,0.05656078,-0.00016498,-0.00013798,-0.00020228,-0.00000101,0.0
 0000615,0.00004548,-0.00003476,0.00003173,0.00000723,-0.00096727,0.000
 52377,-0.00008281,0.00018389,0.00029431,-0.00048162,0.00140363,-0.0020
 1976,0.02076696,0.00328148,-0.00162196,0.00138297,-0.00087379,0.000566
 84,0.00004113,0.00003592,-0.05386254,0.01857552,-0.00084866,0.05405330
 ,0.00002591,-0.00011347,0.00042692,0.00005356,-0.00004576,-0.00005192,
 -0.00005020,-0.00002632,-0.00002598,0.00090507,-0.00005881,0.00025147,
 -0.00079307,-0.00024139,0.00081202,-0.00110219,0.00097170,-0.01046810,
 -0.00136754,0.00166635,0.00098069,0.00001571,0.00044205,0.00066283,-0.
 00259004,0.01879485,-0.29757445,0.00247707,-0.02340524,0.32500402,0.00
 000574,-0.00003183,-0.00015061,0.00013347,-0.00021493,0.00001431,-0.00
 009930,-0.00014700,-0.00001289,0.00117151,0.00012742,0.00037525,-0.000
 12301,-0.00002058,0.00004790,0.00257927,0.02566696,0.01084184,0.001063
 75,-0.00100136,0.00000464,-0.00425674,0.00332268,-0.00159656,-0.049998
 67,-0.02210140,-0.00972769,-0.00042445,-0.00003078,-0.00012795,0.06025
 741,0.00023113,0.00010713,0.00006718,-0.00007289,0.00021866,-0.0000286
 3,0.00015993,0.00002080,0.00003194,-0.00074364,-0.00045660,0.00011051,
 0.00007057,0.00003627,0.00002265,-0.00081682,-0.01849385,-0.00745032,-
 0.00034536,0.00070793,0.00042107,0.00328676,-0.00115500,0.00163565,-0.
 02182881,-0.26439769,-0.08844652,0.00036195,0.00331081,0.00034146,0.02
 566268,0.28995178,0.00013789,0.00013153,0.00000373,0.00001580,0.000011
 36,-0.00000367,0.00002611,-0.00007119,-0.00000475,0.00010406,-0.000630
 31,-0.00001825,-0.00003064,-0.00008287,0.00006745,0.00110486,0.0100844
 1,0.00359599,0.00081743,0.00007424,0.00076599,-0.00169246,0.00190663,0
 .00065461,-0.00955285,-0.08883233,-0.08925297,-0.00338971,-0.03138911,
 -0.01271871,0.01022405,0.09652214,0.09127114,-0.00062953,-0.00075706,0
 .00031196,0.00000020,0.00002921,0.00004280,-0.00022423,0.00022728,-0.0
 0008849,-0.00181636,0.00295892,-0.00168324,0.00008020,0.00002743,0.000
 17958,-0.03069044,-0.00794778,0.00780082,0.00156900,-0.00096293,0.0006
 2819,0.00170680,-0.00145593,0.00034740,-0.16386237,-0.03914828,0.03046
 973,-0.00123913,-0.00059296,0.00050982,-0.00495209,-0.00214444,0.00169
 200,0.50344896,0.00112138,0.00104917,-0.00027494,-0.00002847,-0.000042
 92,-0.00004009,0.00047222,-0.00035732,0.00014056,0.00329805,-0.0036835
 6,0.00154344,-0.00025951,-0.00006522,0.00002178,0.01654632,0.00932753,
 -0.00739350,-0.00008726,0.00020885,-0.00017984,0.00127685,0.00071304,-
 0.00026104,-0.03998031,-0.09890738,0.01432098,-0.00257997,-0.00148916,
 0.00071748,-0.02908676,-0.01187897,0.01084487,-0.03636251,0.56075428,-
 0.00049423,-0.00035865,0.00040765,0.00005144,0.00003071,0.00002229,-0.
 00019825,0.00014548,-0.00007451,-0.00145856,0.00144005,-0.00127567,0.0
 0005982,-0.00005093,0.00052870,-0.00724674,-0.00514563,0.00382198,-0.0
 0123328,-0.00021711,0.00032144,0.00051275,-0.00008573,0.00011158,0.030
 46233,0.01414740,-0.09250730,0.03165321,0.01400776,-0.00956514,-0.0117
 6263,-0.00470645,0.00412204,0.02761227,0.01021499,0.56307809,-0.000022
 53,0.00005339,-0.00012950,-0.00001446,0.00001022,0.00000943,0.00000597
 ,0.00000074,0.00002052,-0.00006867,-0.00017471,-0.00001817,0.00007533,
 0.00007635,-0.00031720,0.00206009,-0.00023414,0.00141725,-0.00034982,0
 .00015819,-0.00082940,-0.00008861,0.00009625,-0.00006943,-0.00088417,-
 0.00168351,0.03126361,-0.00538560,-0.00253562,0.00190727,0.00129898,0.
 00038451,-0.00072674,-0.04930132,0.00027143,0.00401199,0.05237679,-0.0
 0000382,-0.00000246,-0.00002144,-0.00000144,-0.00000294,-0.00000597,-0
 .00001653,0.00000128,-0.00000088,0.00006014,-0.00008846,0.00000239,0.0
 0006248,-0.00002281,-0.00006772,0.00064212,0.00004833,-0.00048303,-0.0
 0010182,0.00035668,-0.00020878,-0.00005693,0.00004415,-0.00014959,-0.0
 0025931,-0.00159421,0.01442849,-0.00289281,-0.00026484,0.00086745,0.00
 075793,0.00022463,0.00021301,0.00025255,-0.05181634,0.01865634,0.00229
 548,0.05085822,0.00009391,0.00004815,0.00003333,0.00000058,-0.00000854
 ,-0.00001718,0.00003796,-0.00002378,-0.00000289,0.00011038,-0.00005606
 ,0.00040773,-0.00025316,-0.00004159,0.00013264,-0.00098399,0.00000779,
 0.00028598,0.00080711,-0.00037517,0.00053448,0.00006408,-0.00000480,-0
 .00004630,0.00069803,0.00098857,-0.00988672,0.00192044,0.00114862,0.00
 113973,0.00009804,0.00038726,0.00071582,0.00439094,0.01872689,-0.30775
 194,-0.00656999,-0.02206078,0.33477561,-0.00048922,-0.00047902,0.00017
 153,0.00002081,0.00002634,0.00000542,-0.00021339,0.00016611,-0.0000362
 2,-0.00064601,0.00163908,-0.00096180,0.00005470,-0.00001411,0.00008777
 ,-0.00412567,-0.00466800,0.00335560,0.00027042,-0.00018809,-0.00011270
 ,0.00031407,-0.00004822,0.00019552,-0.02130586,0.01785142,-0.00918837,
 0.00111007,0.00028943,0.00043617,0.00101032,-0.00027517,-0.00060234,-0
 .20028834,0.11652176,-0.05772383,0.00111712,-0.00126613,-0.00020366,0.
 21887654,-0.00019755,-0.00016223,0.00005284,-0.00000402,0.00000663,0.0
 0001682,-0.00006118,0.00005739,-0.00002749,-0.00071686,0.00079021,0.00
 003468,0.00006424,0.00000842,-0.00001311,-0.00182702,-0.00116737,0.000
 92215,0.00003709,-0.00014240,0.00000667,-0.00022702,0.00044785,0.00020
 209,-0.01208084,0.00881022,-0.00520189,0.00075340,0.00035297,-0.000323
 19,0.00057656,0.00078549,-0.00039579,0.11707260,-0.13904366,0.04382827
 ,0.00032423,-0.00151554,0.00025218,-0.12688206,0.14760957,0.00014529,0
 .00010209,-0.00003813,-0.00000872,-0.00000525,-0.00000914,0.00005046,-
 0.00003805,0.00001137,0.00053598,-0.00021037,0.00061192,-0.00012348,-0
 .00004259,0.00002726,0.00147475,0.00109982,-0.00054543,0.00037411,-0.0
 0009166,0.00044071,-0.00016282,0.00031419,-0.00011024,0.00893125,-0.00
 764325,0.00255941,-0.00035567,-0.00059159,0.00041644,-0.00064356,-0.00
 005642,0.00014284,-0.05805889,0.04388736,-0.07152386,-0.02589775,0.020
 26759,-0.00836979,0.06223229,-0.04931932,0.07262675,-0.00000057,0.0000
 4890,0.00001003,-0.00003461,0.00004390,-0.00000502,0.00002670,0.000010
 31,0.00000510,0.00010852,0.00006768,0.00026706,0.00001434,-0.00002462,
 -0.00002103,0.00187425,-0.00182791,-0.00068093,-0.00007985,0.00009763,
 0.00001110,-0.00028693,0.00105376,0.00024401,-0.00476245,-0.02786879,-
 0.01260017,0.00128720,0.00079077,-0.00002789,-0.00527552,-0.00232770,0
 .00212603,-0.05387671,-0.03073749,-0.01395519,-0.00084798,0.00054628,-
 0.00025075,0.00436289,0.02302519,0.01146432,0.05753611,-0.00005293,-0.
 00005136,0.00003841,-0.00001292,0.00002995,-0.00000671,-0.00003009,0.0
 0002349,-0.00001066,-0.00008130,0.00031012,0.00015041,0.00000192,-0.00
 003699,0.00000777,0.00120284,0.00049240,0.00013963,-0.00000680,0.00003
 961,0.00002410,-0.00067419,0.00081245,-0.00012715,-0.00217719,-0.01245
 191,-0.00466746,0.00022974,0.00031851,0.00046304,-0.00249438,0.0004099
 2,0.00153052,-0.03115905,-0.26493432,-0.09208977,0.00093054,0.00376844
 ,0.00104250,-0.00272015,-0.01689430,-0.00768649,0.03689756,0.28805378,
 -0.00004090,-0.00005636,-0.00001274,-0.00000769,0.00000787,0.00000965,
 -0.00000692,0.00001965,0.00000104,-0.00014674,0.00023151,0.00002711,0.
 00001266,0.00002156,-0.00004167,-0.00042018,-0.00009391,-0.00006590,0.
 00001391,-0.00013456,0.00000327,-0.00027885,-0.00007074,0.00015416,0.0
 0157598,0.01112011,0.00446573,-0.00078244,0.00024074,0.00067301,0.0024
 6517,0.00117018,0.00040326,-0.01420019,-0.09221747,-0.08985620,-0.0040
 5300,-0.03144741,-0.01192478,0.00229093,0.01000208,0.00378906,0.013449
 44,0.10120796,0.09241085,0.00718825,0.02160765,0.00744216,-0.00312207,
 0.00388190,-0.00129897,0.00056923,0.00105322,0.00058905,-0.08768844,-0
 .02194457,-0.00682768,-0.00031692,-0.00417893,-0.00155926,-0.00893502,
 -0.02865369,-0.01132903,0.00154368,0.00084773,-0.00079833,-0.00553939,
 -0.00201720,0.00163573,0.00043198,-0.00071729,0.00011329,-0.00012528,-
 0.00001492,-0.00033388,-0.00101088,-0.00039809,0.00008587,0.00003173,-
 0.00014855,-0.00016848,0.00007769,0.00000858,-0.00001442,-0.00006337,0
 .00012660,0.00002603,0.00005252,0.00019582,0.00008157,0.57341421,-0.00
 006345,-0.03237847,-0.00639825,0.00189252,-0.00164779,-0.00055124,-0.0
 0179321,0.00182713,0.00027061,-0.02218008,-0.15371231,-0.03847263,-0.0
 0074906,-0.00066540,-0.00016924,-0.00871448,-0.01174498,-0.00193865,0.
 00121996,0.00044124,-0.00052385,-0.00046872,0.00085843,0.00004756,-0.0
 0030213,0.00181777,0.00039772,-0.00008835,-0.00000037,-0.00003493,0.00
 009557,-0.00081918,-0.00062967,0.00051100,-0.00078594,-0.00005953,-0.0
 0005243,0.00000493,0.00005000,0.00020966,0.00009607,-0.00003474,-0.000
 21955,-0.00012341,0.00008542,-0.03156421,0.49249103,0.00231530,0.00544
 676,0.00207159,-0.00116818,0.00217532,-0.00017135,-0.00003689,-0.00014
 832,0.00049070,-0.00926763,-0.03611219,-0.09286737,-0.00910707,-0.0324
 4018,-0.01461871,0.00089034,0.01020929,0.00505583,0.00063656,0.0013887
 4,0.00065909,0.00319946,0.00199350,-0.00051836,0.00017340,0.00004285,-
 0.00045642,0.00011669,0.00000306,0.00013682,-0.00013797,0.00024950,0.0
 0047235,0.00002451,0.00009252,0.00041516,0.00000288,0.00002140,-0.0000
 7148,0.00010486,-0.00005511,-0.00004613,0.00003938,0.00002257,-0.00009
 123,-0.01203699,-0.03920311,0.55841558,-0.00048154,-0.00095983,-0.0003
 3509,0.00050228,-0.00036267,0.00020793,0.00046275,-0.00023882,-0.00008
 188,0.00703462,-0.00732821,0.00267319,0.00034920,0.00065999,0.00054259
 ,0.00027969,0.00041884,0.00048251,-0.00005530,-0.00006815,0.00003045,0
 .00015733,0.00016422,-0.00010590,-0.00102525,-0.00035301,0.00003805,0.
 00002716,0.00007020,-0.00001660,-0.00154499,-0.00100279,-0.00008400,-0
 .00000051,-0.00012591,0.00001698,0.00000314,0.00000815,-0.00001295,0.0
 0005275,-0.00000174,-0.00000399,-0.00001859,-0.00001246,0.00000210,-0.
 16598114,0.12408311,-0.04542161,0.17997927,-0.00343729,-0.00510165,-0.
 00206623,0.00129924,-0.00114317,0.00005465,-0.00001152,0.00021734,-0.0
 0006199,0.02036521,-0.01911246,0.00794500,-0.00000764,0.00155351,-0.00
 007306,0.00133824,0.00043621,0.00034290,-0.00013715,-0.00005644,0.0000
 2048,-0.00004168,0.00016632,-0.00010809,0.00016728,-0.00080044,-0.0004
 4298,-0.00007966,-0.00000279,-0.00004053,-0.00084798,0.00091224,0.0004
 4547,-0.00033308,0.00058441,0.00020206,0.00006240,0.00000440,-0.000074
 73,-0.00004932,-0.00004267,0.00001447,0.00027368,0.00014316,-0.0000643
 4,0.12278476,-0.17916809,0.04780467,-0.13525401,0.19469173,-0.00145392
 ,-0.00240613,0.00009710,0.00048446,-0.00070415,0.00041796,0.00001002,0
 .00006644,-0.00028823,0.01041084,-0.00936617,0.00271089,0.00063003,0.0
 0052823,0.00048502,-0.00013579,0.00071112,0.00008433,-0.00007904,0.000
 03712,0.00002258,0.00016816,-0.00000807,-0.00006478,-0.00024860,0.0004
 7624,0.00054518,-0.00005697,-0.00012133,-0.00023075,0.00016170,-0.0003
 6172,0.00007551,0.00002252,-0.00016192,-0.00017486,0.00003178,0.000036
 35,-0.00001623,0.00000151,0.00001001,0.00000707,-0.00005991,-0.0000537
 9,0.00001791,-0.04569351,0.04858014,-0.06829477,0.05083570,-0.05118451
 ,0.06853817,0.00017635,0.00048764,0.00044794,-0.00005087,-0.00005089,-
 0.00002147,-0.00007755,-0.00007762,0.00015098,-0.00129430,-0.00014962,
 -0.00873353,0.00016198,-0.00196924,-0.00097459,0.00051092,0.00064701,-
 0.00157432,0.00002094,-0.00017606,0.00045053,0.00009081,0.00011091,0.0
 0026627,-0.00020183,-0.00000879,0.00007512,0.00014480,0.00004977,0.000
 17099,-0.00002906,0.00009609,-0.00010965,0.00000299,0.00000988,0.00000
 565,-0.00004654,-0.00002972,0.00003691,0.00000542,-0.00000655,0.000008
 80,0.00000464,-0.00000133,0.00000511,-0.05099458,0.00157713,-0.0133309
 4,-0.00066538,-0.00004362,-0.02309604,0.04925013,-0.00103994,0.0019762
 2,-0.00012364,-0.00002206,0.00011553,0.00011560,0.00032451,-0.00005626
 ,-0.00007567,-0.00151806,0.00025183,-0.03116412,-0.00156315,-0.0055161
 3,-0.00275072,0.00107014,0.00167554,-0.00087614,-0.00024249,0.00001111
 ,0.00085564,0.00037846,0.00016843,0.00027516,-0.00004765,0.00001423,0.
 00006087,0.00011673,-0.00011452,0.00004561,-0.00004487,0.00001013,0.00
 006868,-0.00004583,0.00005329,0.00002326,-0.00001262,0.00000862,-0.000
 00265,-0.00001119,-0.00000912,0.00000757,0.00001114,0.00001055,-0.0000
 0969,0.00138228,-0.04956673,0.01321656,-0.00070164,-0.00061440,0.02351
 499,0.00057465,0.05276851,-0.00050321,0.00098530,0.00088805,0.00014766
 ,-0.00013191,0.00010719,0.00028839,-0.00019459,-0.00028079,-0.00055515
 ,-0.00040124,-0.01244410,-0.00048524,-0.00286800,0.00016859,0.00055692
 ,0.00079157,0.00047153,-0.00079673,-0.00045453,0.00057320,0.00003966,-
 0.00002603,0.00040966,-0.00019984,-0.00018363,0.00008006,0.00014322,0.
 00002804,0.00012409,-0.00008060,0.00005351,-0.00016374,-0.00000544,0.0
 0003726,-0.00003767,-0.00003823,-0.00002945,0.00004222,-0.00003557,-0.
 00000361,0.00000238,-0.00000408,-0.00000040,0.00001133,-0.01311593,0.0
 1277320,-0.30825892,0.00006821,0.00058849,-0.00688107,0.01540710,-0.01
 176263,0.33567238,0.00048996,0.00145128,-0.00029311,0.00027597,-0.0000
 5195,-0.00002676,0.00060358,-0.00028802,0.00021032,-0.00758647,-0.0017
 9372,0.00290079,0.00001546,0.00011742,-0.00047273,0.00090672,-0.001212
 28,-0.00169648,0.00009962,0.00013475,0.00005398,-0.00048748,-0.0002790
 1,0.00022022,0.00021279,0.00010686,0.00036754,-0.00002661,-0.00004034,
 -0.00009221,0.00019426,-0.00029791,-0.00014573,0.00004116,-0.00012116,
 -0.00014525,-0.00000541,-0.00000521,0.00003054,-0.00006323,0.00002494,
 0.00001160,-0.00008395,-0.00003563,0.00004006,-0.25953220,-0.06339329,
 0.08300390,-0.01907548,-0.00604788,0.00806706,0.00299112,0.00139159,-0
 .00083114,0.28103021,-0.00177003,0.00129444,0.00005782,0.00028662,0.00
 037011,-0.00003726,0.00095965,-0.00034184,0.00026994,-0.02709578,-0.00
 905460,0.01220331,0.00053642,0.00113818,0.00002010,0.00038310,-0.00560
 399,-0.00349054,0.00034573,0.00013392,-0.00007014,-0.00199517,-0.00070
 986,0.00045163,0.00065116,-0.00064396,-0.00010742,-0.00006440,0.000055
 52,-0.00002036,-0.00018792,0.00050551,0.00019839,-0.00016916,0.0003142
 3,0.00001748,0.00002930,-0.00001207,-0.00000385,-0.00010233,0.00001250
 ,0.00002663,0.00013927,0.00007989,-0.00001260,-0.06225110,-0.06692392,
 0.02529216,0.02100472,0.00733280,-0.00959286,-0.00103965,-0.00118682,0
 .00079867,0.07033955,0.07323994,0.00026462,0.00048731,0.00020264,-0.00
 022019,0.00007218,-0.00011633,-0.00010405,0.00027995,0.00013913,-0.013
 00981,-0.00392730,0.00425740,-0.00016747,0.00074947,0.00062187,-0.0000
 3558,-0.00207320,-0.00092012,-0.00021675,-0.00028177,0.00042363,-0.000
 54794,-0.00032209,0.00057346,0.00005764,-0.00012764,0.00016136,0.00003
 255,0.00002648,0.00000702,0.00000758,0.00003700,-0.00012864,0.00000370
 ,-0.00001934,-0.00006179,-0.00001533,-0.00001797,0.00001978,-0.0000171
 1,0.00001172,0.00000752,-0.00001150,0.00001550,0.00002615,0.08320277,0
 .02581119,-0.08232237,-0.00883569,-0.00330171,0.00294897,0.03081514,0.
 00858131,-0.01048438,-0.09120259,-0.02600109,0.08464471\\0.00000099,0.
 00000018,0.00000047,0.00000042,0.00000066,0.00000054,0.00000010,0.0000
 0134,0.00000074,-0.00000037,0.00000049,-0.00000020,0.00000028,0.000000
 30,0.00000040,0.00000076,0.,0.00000019,-0.00000016,0.00000002,0.000000
 08,0.00000052,-0.00000016,-0.00000004,-0.00000033,-0.00000015,-0.00000
 033,0.00000015,-0.00000052,-0.00000030,-0.00000028,-0.00000033,-0.0000
 0035,0.00000018,-0.00000100,-0.00000053,-0.00000015,-0.00000080,-0.000
 00051,-0.00000007,-0.00000118,-0.00000067,0.00000035,-0.00000102,-0.00
 000046,-0.00000061,0.00000025,0.00000034,-0.00000072,0.00000041,0.0000
 0006,-0.00000066,0.00000068,0.00000023,-0.00000042,0.00000083,0.000000
 34\\\@


 THE REAL VOYAGE OF DISCOVERY CONSISTS NOT IN SEEKING NEW LANDSCAPES 
 BUT IN HAVING NEW EYES.
                                                    -- MARCEL PROUST
 Job cpu time:       0 days  0 hours 26 minutes 39.5 seconds.
 File lengths (MBytes):  RWF=     64 Int=      0 D2E=      0 Chk=      3 Scr=      1
 Normal termination of Gaussian 09 at Sat Nov  7 02:19:15 2015.
