 Entering Gaussian System, Link 0=/home/hetanjin/apps/g09D01/g09/g09
 Input=C6H14_2_r005_C13_2_opt_B3L.gjf
 Output=C6H14_2_r005_C13_2_opt_B3L.log
 Initial command:
 /home/hetanjin/apps/g09D01/g09/l1.exe "/state/partition1/Gau-4577.inp" -scrdir="/state/partition1/"
 Entering Link 1 = /home/hetanjin/apps/g09D01/g09/l1.exe PID=      4578.
  
 Copyright (c) 1988,1990,1992,1993,1995,1998,2003,2009,2013,
            Gaussian, Inc.  All Rights Reserved.
  
 This is part of the Gaussian(R) 09 program.  It is based on
 the Gaussian(R) 03 system (copyright 2003, Gaussian, Inc.),
 the Gaussian(R) 98 system (copyright 1998, Gaussian, Inc.),
 the Gaussian(R) 94 system (copyright 1995, Gaussian, Inc.),
 the Gaussian 92(TM) system (copyright 1992, Gaussian, Inc.),
 the Gaussian 90(TM) system (copyright 1990, Gaussian, Inc.),
 the Gaussian 88(TM) system (copyright 1988, Gaussian, Inc.),
 the Gaussian 86(TM) system (copyright 1986, Carnegie Mellon
 University), and the Gaussian 82(TM) system (copyright 1983,
 Carnegie Mellon University). Gaussian is a federally registered
 trademark of Gaussian, Inc.
  
 This software contains proprietary and confidential information,
 including trade secrets, belonging to Gaussian, Inc.
  
 This software is provided under written license and may be
 used, copied, transmitted, or stored only in accord with that
 written license.
  
 The following legend is applicable only to US Government
 contracts under FAR:
  
                    RESTRICTED RIGHTS LEGEND
  
 Use, reproduction and disclosure by the US Government is
 subject to restrictions as set forth in subparagraphs (a)
 and (c) of the Commercial Computer Software - Restricted
 Rights clause in FAR 52.227-19.
  
 Gaussian, Inc.
 340 Quinnipiac St., Bldg. 40, Wallingford CT 06492
  
  
 ---------------------------------------------------------------
 Warning -- This program may not be used in any manner that
 competes with the business of Gaussian, Inc. or will provide
 assistance to any competitor of Gaussian, Inc.  The licensee
 of this program is prohibited from giving any competitor of
 Gaussian, Inc. access to this program.  By using this program,
 the user acknowledges that Gaussian, Inc. is engaged in the
 business of creating and licensing software in the field of
 computational chemistry and represents and warrants to the
 licensee that it is not a competitor of Gaussian, Inc. and that
 it will not use this program in any manner prohibited above.
 ---------------------------------------------------------------
  

 Cite this work as:
 Gaussian 09, Revision D.01,
 M. J. Frisch, G. W. Trucks, H. B. Schlegel, G. E. Scuseria, 
 M. A. Robb, J. R. Cheeseman, G. Scalmani, V. Barone, B. Mennucci, 
 G. A. Petersson, H. Nakatsuji, M. Caricato, X. Li, H. P. Hratchian, 
 A. F. Izmaylov, J. Bloino, G. Zheng, J. L. Sonnenberg, M. Hada, 
 M. Ehara, K. Toyota, R. Fukuda, J. Hasegawa, M. Ishida, T. Nakajima, 
 Y. Honda, O. Kitao, H. Nakai, T. Vreven, J. A. Montgomery, Jr., 
 J. E. Peralta, F. Ogliaro, M. Bearpark, J. J. Heyd, E. Brothers, 
 K. N. Kudin, V. N. Staroverov, T. Keith, R. Kobayashi, J. Normand, 
 K. Raghavachari, A. Rendell, J. C. Burant, S. S. Iyengar, J. Tomasi, 
 M. Cossi, N. Rega, J. M. Millam, M. Klene, J. E. Knox, J. B. Cross, 
 V. Bakken, C. Adamo, J. Jaramillo, R. Gomperts, R. E. Stratmann, 
 O. Yazyev, A. J. Austin, R. Cammi, C. Pomelli, J. W. Ochterski, 
 R. L. Martin, K. Morokuma, V. G. Zakrzewski, G. A. Voth, 
 P. Salvador, J. J. Dannenberg, S. Dapprich, A. D. Daniels, 
 O. Farkas, J. B. Foresman, J. V. Ortiz, J. Cioslowski, 
 and D. J. Fox, Gaussian, Inc., Wallingford CT, 2013.
 
 ******************************************
 Gaussian 09:  ES64L-G09RevD.01 24-Apr-2013
                 7-Nov-2015 
 ******************************************
 %mem=6GB
 %nprocshared=4
 Will use up to    4 processors via shared memory.
 ----------------------------------------------
 #p B3LYP/6-31G(d) opt=tight int=ultrafine freq
 ----------------------------------------------
 1/7=10,14=-1,18=20,19=15,26=4,38=1/1,3;
 2/9=110,12=2,17=6,18=5,40=1/2;
 3/5=1,6=6,7=1,11=2,16=1,25=1,30=1,71=1,74=-5,75=-5/1,2,3;
 4//1;
 5/5=2,38=5/2;
 6/7=2,8=2,9=2,10=2,28=1/1;
 7//1,2,3,16;
 1/7=10,14=-1,18=20,19=15,26=4/3(2);
 2/9=110/2;
 99//99;
 2/9=110/2;
 3/5=1,6=6,7=1,11=2,16=1,25=1,30=1,71=1,74=-5,75=-5/1,2,3;
 4/5=5,16=3,69=1/1;
 5/5=2,38=5/2;
 7//1,2,3,16;
 1/7=10,14=-1,18=20,19=15,26=4/3(-5);
 2/9=110/2;
 6/7=2,8=2,9=2,10=2,19=2,28=1/1;
 99/9=1/99;
 Leave Link    1 at Sat Nov  7 02:00:33 2015, MaxMem=   805306368 cpu:         0.3
 (Enter /home/hetanjin/apps/g09D01/g09/l101.exe)
 ---------------------------------------------
 using B3LYP/6-31G(d) to do opt and freq calc.
 ---------------------------------------------
 Symbolic Z-matrix:
 Charge =  0 Multiplicity = 2
 C                     2.1588   -1.03826   0.03329 
 H                     1.92753  -2.02922  -0.37555 
 H                     2.248    -1.14076   1.12291 
 H                     3.14007  -0.7364   -0.35209 
 C                     1.07513  -0.01325  -0.33394 
 H                     1.02737   0.04492  -1.43284 
 C                    -0.30521  -0.48286   0.1671 
 H                    -0.29365  -0.5158    1.26793 
 H                    -0.46137  -1.52058  -0.16344 
 C                    -1.49862   0.36099  -0.30192 
 H                    -1.48122   0.43273  -1.39913 
 H                    -1.40332   1.3884    0.07251 
 C                    -2.84619  -0.21322   0.1491 
 H                    -3.68183   0.40554  -0.19769 
 H                    -2.99673  -1.22689  -0.24256 
 C                     1.45204   1.37934   0.1949 
 H                     0.73689   2.14756  -0.118 
 H                     1.48756   1.38271   1.29264 
 H                     2.44125   1.682    -0.16891 
 
 NAtoms=     19 NQM=       19 NQMF=       0 NMMI=      0 NMMIF=      0
                NMic=       0 NMicF=      0.
                    Isotopes and Nuclear Properties:
 (Nuclear quadrupole moments (NQMom) in fm**2, nuclear magnetic moments (NMagM)
  in nuclear magnetons)

  Atom         1           2           3           4           5           6           7           8           9          10
 IAtWgt=          12           1           1           1          12           1          12           1           1          12
 AtmWgt=  12.0000000   1.0078250   1.0078250   1.0078250  12.0000000   1.0078250  12.0000000   1.0078250   1.0078250  12.0000000
 NucSpn=           0           1           1           1           0           1           0           1           1           0
 AtZEff=   0.0000000   0.0000000   0.0000000   0.0000000   0.0000000   0.0000000   0.0000000   0.0000000   0.0000000   0.0000000
 NQMom=    0.0000000   0.0000000   0.0000000   0.0000000   0.0000000   0.0000000   0.0000000   0.0000000   0.0000000   0.0000000
 NMagM=    0.0000000   2.7928460   2.7928460   2.7928460   0.0000000   2.7928460   0.0000000   2.7928460   2.7928460   0.0000000
 AtZNuc=   6.0000000   1.0000000   1.0000000   1.0000000   6.0000000   1.0000000   6.0000000   1.0000000   1.0000000   6.0000000

  Atom        11          12          13          14          15          16          17          18          19
 IAtWgt=           1           1          12           1           1          12           1           1           1
 AtmWgt=   1.0078250   1.0078250  12.0000000   1.0078250   1.0078250  12.0000000   1.0078250   1.0078250   1.0078250
 NucSpn=           1           1           0           1           1           0           1           1           1
 AtZEff=   0.0000000   0.0000000   0.0000000   0.0000000   0.0000000   0.0000000   0.0000000   0.0000000   0.0000000
 NQMom=    0.0000000   0.0000000   0.0000000   0.0000000   0.0000000   0.0000000   0.0000000   0.0000000   0.0000000
 NMagM=    2.7928460   2.7928460   0.0000000   2.7928460   2.7928460   0.0000000   2.7928460   2.7928460   2.7928460
 AtZNuc=   1.0000000   1.0000000   6.0000000   1.0000000   1.0000000   6.0000000   1.0000000   1.0000000   1.0000000
 Leave Link  101 at Sat Nov  7 02:00:33 2015, MaxMem=   805306368 cpu:         0.5
 (Enter /home/hetanjin/apps/g09D01/g09/l103.exe)

 GradGradGradGradGradGradGradGradGradGradGradGradGradGradGradGradGradGrad
 Berny optimization.
 Initialization pass.
                           ----------------------------
                           !    Initial Parameters    !
                           ! (Angstroms and Degrees)  !
 --------------------------                            --------------------------
 ! Name  Definition              Value          Derivative Info.                !
 --------------------------------------------------------------------------------
 ! R1    R(1,2)                  1.0967         estimate D2E/DX2                !
 ! R2    R(1,3)                  1.0981         estimate D2E/DX2                !
 ! R3    R(1,4)                  1.0966         estimate D2E/DX2                !
 ! R4    R(1,5)                  1.5362         estimate D2E/DX2                !
 ! R5    R(5,6)                  1.1015         estimate D2E/DX2                !
 ! R6    R(5,7)                  1.5417         estimate D2E/DX2                !
 ! R7    R(5,16)                 1.5366         estimate D2E/DX2                !
 ! R8    R(7,8)                  1.1014         estimate D2E/DX2                !
 ! R9    R(7,9)                  1.1002         estimate D2E/DX2                !
 ! R10   R(7,10)                 1.535          estimate D2E/DX2                !
 ! R11   R(10,11)                1.0997         estimate D2E/DX2                !
 ! R12   R(10,12)                1.0977         estimate D2E/DX2                !
 ! R13   R(10,13)                1.5327         estimate D2E/DX2                !
 ! R14   R(13,14)                1.0961         estimate D2E/DX2                !
 ! R15   R(13,15)                1.0971         estimate D2E/DX2                !
 ! R16   R(16,17)                1.0952         estimate D2E/DX2                !
 ! R17   R(16,18)                1.0983         estimate D2E/DX2                !
 ! R18   R(16,19)                1.0966         estimate D2E/DX2                !
 ! A1    A(2,1,3)              107.6218         estimate D2E/DX2                !
 ! A2    A(2,1,4)              107.8439         estimate D2E/DX2                !
 ! A3    A(2,1,5)              111.411          estimate D2E/DX2                !
 ! A4    A(3,1,4)              107.5616         estimate D2E/DX2                !
 ! A5    A(3,1,5)              110.9048         estimate D2E/DX2                !
 ! A6    A(4,1,5)              111.3185         estimate D2E/DX2                !
 ! A7    A(1,5,6)              107.7173         estimate D2E/DX2                !
 ! A8    A(1,5,7)              110.5269         estimate D2E/DX2                !
 ! A9    A(1,5,16)             110.4513         estimate D2E/DX2                !
 ! A10   A(6,5,7)              107.5475         estimate D2E/DX2                !
 ! A11   A(6,5,16)             107.8272         estimate D2E/DX2                !
 ! A12   A(7,5,16)             112.5709         estimate D2E/DX2                !
 ! A13   A(5,7,8)              108.9373         estimate D2E/DX2                !
 ! A14   A(5,7,9)              108.4663         estimate D2E/DX2                !
 ! A15   A(5,7,10)             115.4245         estimate D2E/DX2                !
 ! A16   A(8,7,9)              105.8761         estimate D2E/DX2                !
 ! A17   A(8,7,10)             109.2684         estimate D2E/DX2                !
 ! A18   A(9,7,10)             108.4426         estimate D2E/DX2                !
 ! A19   A(7,10,11)            109.1727         estimate D2E/DX2                !
 ! A20   A(7,10,12)            110.049          estimate D2E/DX2                !
 ! A21   A(7,10,13)            112.8109         estimate D2E/DX2                !
 ! A22   A(11,10,12)           106.1361         estimate D2E/DX2                !
 ! A23   A(11,10,13)           109.3876         estimate D2E/DX2                !
 ! A24   A(12,10,13)           109.064          estimate D2E/DX2                !
 ! A25   A(10,13,14)           111.4511         estimate D2E/DX2                !
 ! A26   A(10,13,15)           111.208          estimate D2E/DX2                !
 ! A27   A(14,13,15)           107.7002         estimate D2E/DX2                !
 ! A28   A(5,16,17)            112.1608         estimate D2E/DX2                !
 ! A29   A(5,16,18)            110.7757         estimate D2E/DX2                !
 ! A30   A(5,16,19)            110.9303         estimate D2E/DX2                !
 ! A31   A(17,16,18)           107.7288         estimate D2E/DX2                !
 ! A32   A(17,16,19)           107.4963         estimate D2E/DX2                !
 ! A33   A(18,16,19)           107.5521         estimate D2E/DX2                !
 ! D1    D(2,1,5,6)            -59.9218         estimate D2E/DX2                !
 ! D2    D(2,1,5,7)             57.3095         estimate D2E/DX2                !
 ! D3    D(2,1,5,16)          -177.4475         estimate D2E/DX2                !
 ! D4    D(3,1,5,6)           -179.7802         estimate D2E/DX2                !
 ! D5    D(3,1,5,7)            -62.549          estimate D2E/DX2                !
 ! D6    D(3,1,5,16)            62.6941         estimate D2E/DX2                !
 ! D7    D(4,1,5,6)             60.4987         estimate D2E/DX2                !
 ! D8    D(4,1,5,7)            177.7299         estimate D2E/DX2                !
 ! D9    D(4,1,5,16)           -57.027          estimate D2E/DX2                !
 ! D10   D(1,5,7,8)             64.5902         estimate D2E/DX2                !
 ! D11   D(1,5,7,9)            -50.2121         estimate D2E/DX2                !
 ! D12   D(1,5,7,10)          -172.0848         estimate D2E/DX2                !
 ! D13   D(6,5,7,8)           -178.0739         estimate D2E/DX2                !
 ! D14   D(6,5,7,9)             67.1238         estimate D2E/DX2                !
 ! D15   D(6,5,7,10)           -54.749          estimate D2E/DX2                !
 ! D16   D(16,5,7,8)           -59.4435         estimate D2E/DX2                !
 ! D17   D(16,5,7,9)          -174.2457         estimate D2E/DX2                !
 ! D18   D(16,5,7,10)           63.8815         estimate D2E/DX2                !
 ! D19   D(1,5,16,17)          175.5612         estimate D2E/DX2                !
 ! D20   D(1,5,16,18)          -64.0287         estimate D2E/DX2                !
 ! D21   D(1,5,16,19)           55.3403         estimate D2E/DX2                !
 ! D22   D(6,5,16,17)           58.1032         estimate D2E/DX2                !
 ! D23   D(6,5,16,18)          178.5133         estimate D2E/DX2                !
 ! D24   D(6,5,16,19)          -62.1177         estimate D2E/DX2                !
 ! D25   D(7,5,16,17)          -60.3633         estimate D2E/DX2                !
 ! D26   D(7,5,16,18)           60.0468         estimate D2E/DX2                !
 ! D27   D(7,5,16,19)          179.4158         estimate D2E/DX2                !
 ! D28   D(5,7,10,11)           54.1765         estimate D2E/DX2                !
 ! D29   D(5,7,10,12)          -61.9346         estimate D2E/DX2                !
 ! D30   D(5,7,10,13)          176.0138         estimate D2E/DX2                !
 ! D31   D(8,7,10,11)          177.3265         estimate D2E/DX2                !
 ! D32   D(8,7,10,12)           61.2154         estimate D2E/DX2                !
 ! D33   D(8,7,10,13)          -60.8362         estimate D2E/DX2                !
 ! D34   D(9,7,10,11)          -67.709          estimate D2E/DX2                !
 ! D35   D(9,7,10,12)          176.1799         estimate D2E/DX2                !
 ! D36   D(9,7,10,13)           54.1283         estimate D2E/DX2                !
 ! D37   D(7,10,13,14)        -179.978          estimate D2E/DX2                !
 ! D38   D(7,10,13,15)         -59.7885         estimate D2E/DX2                !
 ! D39   D(11,10,13,14)        -58.2621         estimate D2E/DX2                !
 ! D40   D(11,10,13,15)         61.9275         estimate D2E/DX2                !
 ! D41   D(12,10,13,14)         57.4174         estimate D2E/DX2                !
 ! D42   D(12,10,13,15)        177.607          estimate D2E/DX2                !
 --------------------------------------------------------------------------------
 Trust Radius=3.00D-01 FncErr=1.00D-07 GrdErr=1.00D-06
 Number of steps in this run=    103 maximum allowed number of steps=    114.
 GradGradGradGradGradGradGradGradGradGradGradGradGradGradGradGradGradGrad

 Leave Link  103 at Sat Nov  7 02:00:34 2015, MaxMem=   805306368 cpu:         0.1
 (Enter /home/hetanjin/apps/g09D01/g09/l202.exe)
                          Input orientation:                          
 ---------------------------------------------------------------------
 Center     Atomic      Atomic             Coordinates (Angstroms)
 Number     Number       Type             X           Y           Z
 ---------------------------------------------------------------------
      1          6           0        2.158797   -1.038262    0.033294
      2          1           0        1.927533   -2.029222   -0.375554
      3          1           0        2.248004   -1.140761    1.122907
      4          1           0        3.140068   -0.736400   -0.352089
      5          6           0        1.075129   -0.013247   -0.333943
      6          1           0        1.027373    0.044919   -1.432844
      7          6           0       -0.305208   -0.482864    0.167098
      8          1           0       -0.293645   -0.515801    1.267925
      9          1           0       -0.461374   -1.520579   -0.163436
     10          6           0       -1.498621    0.360991   -0.301923
     11          1           0       -1.481223    0.432726   -1.399129
     12          1           0       -1.403322    1.388403    0.072512
     13          6           0       -2.846192   -0.213221    0.149098
     14          1           0       -3.681827    0.405542   -0.197689
     15          1           0       -2.996731   -1.226889   -0.242561
     16          6           0        1.452038    1.379337    0.194904
     17          1           0        0.736890    2.147561   -0.117998
     18          1           0        1.487561    1.382710    1.292643
     19          1           0        2.441246    1.682004   -0.168912
 ---------------------------------------------------------------------
                    Distance matrix (angstroms):
                    1          2          3          4          5
     1  C    0.000000
     2  H    1.096650   0.000000
     3  H    1.098053   1.771285   0.000000
     4  H    1.096601   1.772620   1.770565   0.000000
     5  C    1.536182   2.189173   2.183881   2.187979   0.000000
     6  H    2.145451   2.496039   3.070446   2.498394   1.101475
     7  C    2.529366   2.769626   2.804513   3.493388   1.541724
     8  H    2.794951   3.150412   2.621371   3.803090   2.166122
     9  H    2.671447   2.451650   3.023189   3.690652   2.159158
    10  C    3.930265   4.178166   4.280490   4.766993   2.601013
    11  H    4.179161   4.327645   4.769031   4.880520   2.805076
    12  H    4.310329   4.793279   4.564228   5.033634   2.876204
    13  C    5.073856   5.134352   5.268725   6.029943   3.956018
    14  H    6.020865   6.117567   6.268806   6.918535   4.777298
    15  H    5.166347   4.990972   5.420255   6.157343   4.249861
    16  C    2.523967   3.488523   2.801008   2.761338   1.536564
    17  H    3.492016   4.350802   3.825751   3.761289   2.197755
    18  H    2.810271   3.823315   2.641021   3.150643   2.182791
    19  H    2.742355   3.752306   3.110328   2.524002   2.183435
                    6          7          8          9         10
     6  H    0.000000
     7  C    2.148055   0.000000
     8  H    3.058374   1.101380   0.000000
     9  H    2.505703   1.100224   1.756846   0.000000
    10  C    2.785593   1.535027   2.164522   2.152990   0.000000
    11  H    2.538619   2.162032   3.069727   2.526347   1.099686
    12  H    3.159007   2.171737   2.507267   3.066776   1.097661
    13  C    4.192098   2.555314   2.803360   2.737557   1.532673
    14  H    4.881826   3.510540   3.804823   3.752657   2.186147
    15  H    4.384938   2.822355   3.177088   2.553537   2.183854
    16  C    2.147225   2.560562   2.791116   3.492716   3.160736
    17  H    2.496859   2.843657   3.174316   3.859165   2.867607
    18  H    3.070788   2.821567   2.603392   3.787823   3.536076
    19  H    2.505316   3.513199   3.791369   4.322241   4.157562
                   11         12         13         14         15
    11  H    0.000000
    12  H    1.756449   0.000000
    13  C    2.162729   2.157067   0.000000
    14  H    2.507360   2.496119   1.096091   0.000000
    15  H    2.527595   3.078632   1.097079   1.770932   0.000000
    16  C    3.470019   2.857996   4.584007   5.240131   5.174489
    17  H    3.082528   2.278842   4.299199   4.750373   5.034119
    18  H    4.118469   3.137827   4.757742   5.467954   5.410705
    19  H    4.296498   3.863313   5.625834   6.254775   6.167550
                   16         17         18         19
    16  C    0.000000
    17  H    1.095223   0.000000
    18  H    1.098319   1.771556   0.000000
    19  H    1.096586   1.767531   1.770659   0.000000
 Stoichiometry    C6H13(2)
 Framework group  C1[X(C6H13)]
 Deg. of freedom    51
 Full point group                 C1      NOp   1
 Largest Abelian subgroup         C1      NOp   1
 Largest concise Abelian subgroup C1      NOp   1
                         Standard orientation:                         
 ---------------------------------------------------------------------
 Center     Atomic      Atomic             Coordinates (Angstroms)
 Number     Number       Type             X           Y           Z
 ---------------------------------------------------------------------
      1          6           0        2.106957   -1.030088    0.020581
      2          1           0        1.872408   -2.027164   -0.371171
      3          1           0        2.222720   -1.119294    1.108864
      4          1           0        3.076819   -0.726718   -0.391568
      5          6           0        1.008289   -0.016124   -0.332492
      6          1           0        0.934028    0.028899   -1.430538
      7          6           0       -0.356688   -0.488338    0.206733
      8          1           0       -0.318726   -0.508334    1.307277
      9          1           0       -0.513997   -1.530787   -0.107985
     10          6           0       -1.566324    0.342618   -0.243379
     11          1           0       -1.575497    0.401629   -1.341442
     12          1           0       -1.468752    1.374903    0.116796
     13          6           0       -2.899062   -0.234565    0.246269
     14          1           0       -3.746673    0.374948   -0.087593
     15          1           0       -3.052355   -1.253649   -0.129964
     16          6           0        1.388711    1.384839    0.171106
     17          1           0        0.661395    2.144938   -0.133482
     18          1           0        1.450319    1.401261    1.267573
     19          1           0        2.367016    1.689315   -0.219681
 ---------------------------------------------------------------------
 Rotational constants (GHZ):      6.7388782      1.7510536      1.4922599
 Leave Link  202 at Sat Nov  7 02:00:34 2015, MaxMem=   805306368 cpu:         0.0
 (Enter /home/hetanjin/apps/g09D01/g09/l301.exe)
 Standard basis: 6-31G(d) (6D, 7F)
 Ernie: Thresh=  0.10000D-02 Tol=  0.10000D-05 Strict=F.
 There are   116 symmetry adapted cartesian basis functions of A   symmetry.
 There are   116 symmetry adapted basis functions of A   symmetry.
   116 basis functions,   220 primitive gaussians,   116 cartesian basis functions
    25 alpha electrons       24 beta electrons
       nuclear repulsion energy       243.0152106993 Hartrees.
 IExCor=  402 DFT=T Ex+Corr=B3LYP ExCW=0 ScaHFX=  0.200000
 ScaDFX=  0.800000  0.720000  1.000000  0.810000 ScalE2=  1.000000  1.000000
 IRadAn=      5 IRanWt=     -1 IRanGd=            0 ICorTp=0 IEmpDi=  4
 NAtoms=   19 NActive=   19 NUniq=   19 SFac= 1.00D+00 NAtFMM=   60 NAOKFM=F Big=F
 Integral buffers will be    131072 words long.
 Raffenetti 2 integral format.
 Two-electron integral symmetry is turned on.
 Leave Link  301 at Sat Nov  7 02:00:34 2015, MaxMem=   805306368 cpu:         0.3
 (Enter /home/hetanjin/apps/g09D01/g09/l302.exe)
 NPDir=0 NMtPBC=     1 NCelOv=     1 NCel=       1 NClECP=     1 NCelD=      1
         NCelK=      1 NCelE2=     1 NClLst=     1 CellRange=     0.0.
 One-electron integrals computed using PRISM.
 NBasis=   116 RedAO= T EigKep=  3.72D-03  NBF=   116
 NBsUse=   116 1.00D-06 EigRej= -1.00D+00 NBFU=   116
 Precomputing XC quadrature grid using
 IXCGrd= 4 IRadAn=           5 IRanWt=          -1 IRanGd=           0 AccXCQ= 0.00D+00.
 Generated NRdTot=       0 NPtTot=           0 NUsed=           0 NTot=          32
 NSgBfM=   116   116   116   116   116 MxSgAt=    19 MxSgA2=    19.
 Leave Link  302 at Sat Nov  7 02:00:34 2015, MaxMem=   805306368 cpu:         1.8
 (Enter /home/hetanjin/apps/g09D01/g09/l303.exe)
 DipDrv:  MaxL=1.
 Leave Link  303 at Sat Nov  7 02:00:34 2015, MaxMem=   805306368 cpu:         0.1
 (Enter /home/hetanjin/apps/g09D01/g09/l401.exe)
 ExpMin= 1.61D-01 ExpMax= 3.05D+03 ExpMxC= 4.57D+02 IAcc=3 IRadAn=         5 AccDes= 0.00D+00
 Harris functional with IExCor=  402 and IRadAn=       5 diagonalized for initial guess.
 HarFok:  IExCor=  402 AccDes= 0.00D+00 IRadAn=         5 IDoV= 1 UseB2=F ITyADJ=14
 ICtDFT=  3500011 ScaDFX=  1.000000  1.000000  1.000000  1.000000
 FoFCou: FMM=F IPFlag=           0 FMFlag=      100000 FMFlg1=           0
         NFxFlg=           0 DoJE=T BraDBF=F KetDBF=T FulRan=T
         wScrn=  0.000000 ICntrl=     500 IOpCl=  0 I1Cent=   200000004 NGrid=           0
         NMat0=    1 NMatS0=      1 NMatT0=    0 NMatD0=    1 NMtDS0=    0 NMtDT0=    0
 Petite list used in FoFCou.
 Harris En= -236.440653263125    
 JPrj=0 DoOrth=F DoCkMO=F.
 Initial guess <Sx>= 0.0000 <Sy>= 0.0000 <Sz>= 0.5000 <S**2>= 0.7500 S= 0.5000
 Leave Link  401 at Sat Nov  7 02:00:37 2015, MaxMem=   805306368 cpu:         7.8
 (Enter /home/hetanjin/apps/g09D01/g09/l502.exe)
 UHF open shell SCF:
 Using DIIS extrapolation, IDIIS=  1040.
 Integral symmetry usage will be decided dynamically.
 Keep R1 and R2 ints in memory in canonical form, NReq=47059932.
 IVT=       60514 IEndB=       60514 NGot=   805306368 MDV=   759189273
 LenX=   759189273 LenY=   759175376
 Requested convergence on RMS density matrix=1.00D-08 within 128 cycles.
 Requested convergence on MAX density matrix=1.00D-06.
 Requested convergence on             energy=1.00D-06.
 No special actions if energy rises.
 FoFCou: FMM=F IPFlag=           0 FMFlag=           0 FMFlg1=           0
         NFxFlg=           0 DoJE=F BraDBF=F KetDBF=F FulRan=T
         wScrn=  0.000000 ICntrl=     600 IOpCl=  0 I1Cent=           0 NGrid=           0
         NMat0=    1 NMatS0=   6786 NMatT0=    0 NMatD0=    1 NMtDS0=    0 NMtDT0=    0
 Symmetry not used in FoFCou.
 Integral accuracy reduced to 1.0D-05 until final iterations.

 Cycle   1  Pass 0  IDiag  1:
 E= -236.152501854984    
 DIIS: error= 5.22D-02 at cycle   1 NSaved=   1.
 NSaved= 1 IEnMin= 1 EnMin= -236.152501854984     IErMin= 1 ErrMin= 5.22D-02
 ErrMax= 5.22D-02  0.00D+00 EMaxC= 1.00D-01 BMatC= 8.78D-01 BMatP= 8.78D-01
 IDIUse=3 WtCom= 4.78D-01 WtEn= 5.22D-01
 Coeff-Com:  0.100D+01
 Coeff-En:   0.100D+01
 Coeff:      0.100D+01
 Gap=     0.291 Goal=   None    Shift=    0.000
 Gap=     0.232 Goal=   None    Shift=    0.000
 GapD=    0.232 DampG=1.000 DampE=0.500 DampFc=0.5000 IDamp=-1.
 Damping current iteration by 5.00D-01
 RMSDP=9.57D-03 MaxDP=1.41D-01              OVMax= 1.83D-01

 Cycle   2  Pass 0  IDiag  1:
 E= -236.264306205570     Delta-E=       -0.111804350586 Rises=F Damp=T
 DIIS: error= 8.55D-03 at cycle   2 NSaved=   2.
 NSaved= 2 IEnMin= 2 EnMin= -236.264306205570     IErMin= 2 ErrMin= 8.55D-03
 ErrMax= 8.55D-03  0.00D+00 EMaxC= 1.00D-01 BMatC= 3.79D-02 BMatP= 8.78D-01
 IDIUse=3 WtCom= 9.14D-01 WtEn= 8.55D-02
 Coeff-Com:  0.680D-01 0.932D+00
 Coeff-En:   0.110D+00 0.890D+00
 Coeff:      0.716D-01 0.928D+00
 Gap=     0.312 Goal=   None    Shift=    0.000
 Gap=     0.260 Goal=   None    Shift=    0.000
 RMSDP=1.56D-03 MaxDP=2.32D-02 DE=-1.12D-01 OVMax= 9.73D-02

 Cycle   3  Pass 0  IDiag  1:
 E= -236.400412270614     Delta-E=       -0.136106065043 Rises=F Damp=F
 DIIS: error= 2.42D-03 at cycle   3 NSaved=   3.
 NSaved= 3 IEnMin= 3 EnMin= -236.400412270614     IErMin= 3 ErrMin= 2.42D-03
 ErrMax= 2.42D-03  0.00D+00 EMaxC= 1.00D-01 BMatC= 4.92D-03 BMatP= 3.79D-02
 IDIUse=3 WtCom= 9.76D-01 WtEn= 2.42D-02
 Coeff-Com: -0.418D-02 0.200D+00 0.804D+00
 Coeff-En:   0.000D+00 0.000D+00 0.100D+01
 Coeff:     -0.408D-02 0.195D+00 0.809D+00
 Gap=     0.320 Goal=   None    Shift=    0.000
 Gap=     0.240 Goal=   None    Shift=    0.000
 RMSDP=5.58D-04 MaxDP=1.24D-02 DE=-1.36D-01 OVMax= 1.17D-02

 Cycle   4  Pass 0  IDiag  1:
 E= -236.401165619910     Delta-E=       -0.000753349296 Rises=F Damp=F
 DIIS: error= 1.59D-03 at cycle   4 NSaved=   4.
 NSaved= 4 IEnMin= 4 EnMin= -236.401165619910     IErMin= 4 ErrMin= 1.59D-03
 ErrMax= 1.59D-03  0.00D+00 EMaxC= 1.00D-01 BMatC= 2.18D-03 BMatP= 4.92D-03
 IDIUse=3 WtCom= 9.84D-01 WtEn= 1.59D-02
 Coeff-Com: -0.535D-02 0.331D-01 0.410D+00 0.562D+00
 Coeff-En:   0.000D+00 0.000D+00 0.278D+00 0.722D+00
 Coeff:     -0.526D-02 0.326D-01 0.408D+00 0.565D+00
 Gap=     0.314 Goal=   None    Shift=    0.000
 Gap=     0.247 Goal=   None    Shift=    0.000
 RMSDP=2.18D-04 MaxDP=4.38D-03 DE=-7.53D-04 OVMax= 5.14D-03

 Cycle   5  Pass 0  IDiag  1:
 E= -236.401703939658     Delta-E=       -0.000538319748 Rises=F Damp=F
 DIIS: error= 2.69D-04 at cycle   5 NSaved=   5.
 NSaved= 5 IEnMin= 5 EnMin= -236.401703939658     IErMin= 5 ErrMin= 2.69D-04
 ErrMax= 2.69D-04  0.00D+00 EMaxC= 1.00D-01 BMatC= 6.51D-05 BMatP= 2.18D-03
 IDIUse=3 WtCom= 9.97D-01 WtEn= 2.69D-03
 Coeff-Com: -0.116D-02-0.298D-02 0.896D-01 0.203D+00 0.711D+00
 Coeff-En:   0.000D+00 0.000D+00 0.000D+00 0.000D+00 0.100D+01
 Coeff:     -0.116D-02-0.297D-02 0.893D-01 0.203D+00 0.712D+00
 Gap=     0.315 Goal=   None    Shift=    0.000
 Gap=     0.247 Goal=   None    Shift=    0.000
 RMSDP=4.19D-05 MaxDP=8.33D-04 DE=-5.38D-04 OVMax= 9.29D-04

 Cycle   6  Pass 0  IDiag  1:
 E= -236.401721062851     Delta-E=       -0.000017123193 Rises=F Damp=F
 DIIS: error= 6.02D-05 at cycle   6 NSaved=   6.
 NSaved= 6 IEnMin= 6 EnMin= -236.401721062851     IErMin= 6 ErrMin= 6.02D-05
 ErrMax= 6.02D-05  0.00D+00 EMaxC= 1.00D-01 BMatC= 2.85D-06 BMatP= 6.51D-05
 IDIUse=1 WtCom= 1.00D+00 WtEn= 0.00D+00
 Coeff-Com:  0.114D-03-0.247D-02-0.868D-02 0.114D-02 0.121D+00 0.889D+00
 Coeff:      0.114D-03-0.247D-02-0.868D-02 0.114D-02 0.121D+00 0.889D+00
 Gap=     0.316 Goal=   None    Shift=    0.000
 Gap=     0.247 Goal=   None    Shift=    0.000
 RMSDP=1.35D-05 MaxDP=4.20D-04 DE=-1.71D-05 OVMax= 3.50D-04

 Cycle   7  Pass 0  IDiag  1:
 E= -236.401722254040     Delta-E=       -0.000001191189 Rises=F Damp=F
 DIIS: error= 2.93D-05 at cycle   7 NSaved=   7.
 NSaved= 7 IEnMin= 7 EnMin= -236.401722254040     IErMin= 7 ErrMin= 2.93D-05
 ErrMax= 2.93D-05  0.00D+00 EMaxC= 1.00D-01 BMatC= 6.96D-07 BMatP= 2.85D-06
 IDIUse=1 WtCom= 1.00D+00 WtEn= 0.00D+00
 Coeff-Com:  0.215D-03-0.183D-03-0.181D-01-0.352D-01-0.900D-01 0.292D+00
 Coeff-Com:  0.851D+00
 Coeff:      0.215D-03-0.183D-03-0.181D-01-0.352D-01-0.900D-01 0.292D+00
 Coeff:      0.851D+00
 Gap=     0.315 Goal=   None    Shift=    0.000
 Gap=     0.247 Goal=   None    Shift=    0.000
 RMSDP=5.73D-06 MaxDP=2.34D-04 DE=-1.19D-06 OVMax= 2.09D-04

 Initial convergence to 1.0D-05 achieved.  Increase integral accuracy.
 Cycle   8  Pass 1  IDiag  1:
 E= -236.401701106863     Delta-E=        0.000021147177 Rises=F Damp=F
 DIIS: error= 1.08D-05 at cycle   1 NSaved=   1.
 NSaved= 1 IEnMin= 1 EnMin= -236.401701106863     IErMin= 1 ErrMin= 1.08D-05
 ErrMax= 1.08D-05  0.00D+00 EMaxC= 1.00D-01 BMatC= 9.74D-08 BMatP= 9.74D-08
 IDIUse=1 WtCom= 1.00D+00 WtEn= 0.00D+00
 Coeff-Com:  0.100D+01
 Coeff:      0.100D+01
 Gap=     0.316 Goal=   None    Shift=    0.000
 Gap=     0.247 Goal=   None    Shift=    0.000
 RMSDP=5.73D-06 MaxDP=2.34D-04 DE= 2.11D-05 OVMax= 7.79D-05

 Cycle   9  Pass 1  IDiag  1:
 E= -236.401701114766     Delta-E=       -0.000000007903 Rises=F Damp=F
 DIIS: error= 1.18D-05 at cycle   2 NSaved=   2.
 NSaved= 2 IEnMin= 2 EnMin= -236.401701114766     IErMin= 1 ErrMin= 1.08D-05
 ErrMax= 1.18D-05  0.00D+00 EMaxC= 1.00D-01 BMatC= 9.78D-08 BMatP= 9.74D-08
 IDIUse=1 WtCom= 1.00D+00 WtEn= 0.00D+00
 Coeff-Com:  0.501D+00 0.499D+00
 Coeff:      0.501D+00 0.499D+00
 Gap=     0.316 Goal=   None    Shift=    0.000
 Gap=     0.247 Goal=   None    Shift=    0.000
 RMSDP=1.34D-06 MaxDP=3.70D-05 DE=-7.90D-09 OVMax= 3.46D-05

 Cycle  10  Pass 1  IDiag  1:
 E= -236.401701139781     Delta-E=       -0.000000025015 Rises=F Damp=F
 DIIS: error= 1.52D-06 at cycle   3 NSaved=   3.
 NSaved= 3 IEnMin= 3 EnMin= -236.401701139781     IErMin= 3 ErrMin= 1.52D-06
 ErrMax= 1.52D-06  0.00D+00 EMaxC= 1.00D-01 BMatC= 1.88D-09 BMatP= 9.74D-08
 IDIUse=1 WtCom= 1.00D+00 WtEn= 0.00D+00
 Coeff-Com: -0.783D-01 0.140D-01 0.106D+01
 Coeff:     -0.783D-01 0.140D-01 0.106D+01
 Gap=     0.316 Goal=   None    Shift=    0.000
 Gap=     0.247 Goal=   None    Shift=    0.000
 RMSDP=3.64D-07 MaxDP=1.17D-05 DE=-2.50D-08 OVMax= 9.84D-06

 Cycle  11  Pass 1  IDiag  1:
 E= -236.401701140733     Delta-E=       -0.000000000952 Rises=F Damp=F
 DIIS: error= 7.33D-07 at cycle   4 NSaved=   4.
 NSaved= 4 IEnMin= 4 EnMin= -236.401701140733     IErMin= 4 ErrMin= 7.33D-07
 ErrMax= 7.33D-07  0.00D+00 EMaxC= 1.00D-01 BMatC= 4.64D-10 BMatP= 1.88D-09
 IDIUse=1 WtCom= 1.00D+00 WtEn= 0.00D+00
 Coeff-Com: -0.880D-01-0.562D-01 0.366D+00 0.778D+00
 Coeff:     -0.880D-01-0.562D-01 0.366D+00 0.778D+00
 Gap=     0.316 Goal=   None    Shift=    0.000
 Gap=     0.247 Goal=   None    Shift=    0.000
 RMSDP=1.56D-07 MaxDP=4.19D-06 DE=-9.52D-10 OVMax= 4.02D-06

 Cycle  12  Pass 1  IDiag  1:
 E= -236.401701140905     Delta-E=       -0.000000000171 Rises=F Damp=F
 DIIS: error= 2.74D-07 at cycle   5 NSaved=   5.
 NSaved= 5 IEnMin= 5 EnMin= -236.401701140905     IErMin= 5 ErrMin= 2.74D-07
 ErrMax= 2.74D-07  0.00D+00 EMaxC= 1.00D-01 BMatC= 6.24D-11 BMatP= 4.64D-10
 IDIUse=1 WtCom= 1.00D+00 WtEn= 0.00D+00
 Coeff-Com: -0.179D-01-0.212D-01-0.368D-01 0.261D+00 0.815D+00
 Coeff:     -0.179D-01-0.212D-01-0.368D-01 0.261D+00 0.815D+00
 Gap=     0.316 Goal=   None    Shift=    0.000
 Gap=     0.247 Goal=   None    Shift=    0.000
 RMSDP=5.51D-08 MaxDP=2.01D-06 DE=-1.71D-10 OVMax= 1.58D-06

 Cycle  13  Pass 1  IDiag  1:
 E= -236.401701140926     Delta-E=       -0.000000000022 Rises=F Damp=F
 DIIS: error= 1.40D-07 at cycle   6 NSaved=   6.
 NSaved= 6 IEnMin= 6 EnMin= -236.401701140926     IErMin= 6 ErrMin= 1.40D-07
 ErrMax= 1.40D-07  0.00D+00 EMaxC= 1.00D-01 BMatC= 9.02D-12 BMatP= 6.24D-11
 IDIUse=1 WtCom= 1.00D+00 WtEn= 0.00D+00
 Coeff-Com:  0.327D-02-0.210D-02-0.602D-01 0.148D-01 0.346D+00 0.698D+00
 Coeff:      0.327D-02-0.210D-02-0.602D-01 0.148D-01 0.346D+00 0.698D+00
 Gap=     0.316 Goal=   None    Shift=    0.000
 Gap=     0.247 Goal=   None    Shift=    0.000
 RMSDP=1.83D-08 MaxDP=5.32D-07 DE=-2.15D-11 OVMax= 4.98D-07

 Cycle  14  Pass 1  IDiag  1:
 E= -236.401701140928     Delta-E=       -0.000000000002 Rises=F Damp=F
 DIIS: error= 1.75D-08 at cycle   7 NSaved=   7.
 NSaved= 7 IEnMin= 7 EnMin= -236.401701140928     IErMin= 7 ErrMin= 1.75D-08
 ErrMax= 1.75D-08  0.00D+00 EMaxC= 1.00D-01 BMatC= 2.71D-13 BMatP= 9.02D-12
 IDIUse=1 WtCom= 1.00D+00 WtEn= 0.00D+00
 Coeff-Com:  0.161D-02 0.208D-04-0.184D-01-0.400D-02 0.866D-01 0.234D+00
 Coeff-Com:  0.700D+00
 Coeff:      0.161D-02 0.208D-04-0.184D-01-0.400D-02 0.866D-01 0.234D+00
 Coeff:      0.700D+00
 Gap=     0.316 Goal=   None    Shift=    0.000
 Gap=     0.247 Goal=   None    Shift=    0.000
 RMSDP=3.34D-09 MaxDP=5.11D-08 DE=-1.53D-12 OVMax= 7.15D-08

 SCF Done:  E(UB3LYP) =  -236.401701141     A.U. after   14 cycles
            NFock= 14  Conv=0.33D-08     -V/T= 2.0104
 <Sx>= 0.0000 <Sy>= 0.0000 <Sz>= 0.5000 <S**2>= 0.7527 S= 0.5013
 <L.S>= 0.000000000000E+00
 KE= 2.339670036084D+02 PE=-1.031578684322D+03 EE= 3.181947688735D+02
 Annihilation of the first spin contaminant:
 S**2 before annihilation     0.7527,   after     0.7500
 Leave Link  502 at Sat Nov  7 02:01:22 2015, MaxMem=   805306368 cpu:       161.0
 (Enter /home/hetanjin/apps/g09D01/g09/l601.exe)
 Copying SCF densities to generalized density rwf, IOpCl= 1 IROHF=0.

 **********************************************************************

            Population analysis using the SCF density.

 **********************************************************************

 Orbital symmetries:
 Alpha Orbitals:
       Occupied  (A) (A) (A) (A) (A) (A) (A) (A) (A) (A) (A) (A)
                 (A) (A) (A) (A) (A) (A) (A) (A) (A) (A) (A) (A)
                 (A)
       Virtual   (A) (A) (A) (A) (A) (A) (A) (A) (A) (A) (A) (A)
                 (A) (A) (A) (A) (A) (A) (A) (A) (A) (A) (A) (A)
                 (A) (A) (A) (A) (A) (A) (A) (A) (A) (A) (A) (A)
                 (A) (A) (A) (A) (A) (A) (A) (A) (A) (A) (A) (A)
                 (A) (A) (A) (A) (A) (A) (A) (A) (A) (A) (A) (A)
                 (A) (A) (A) (A) (A) (A) (A) (A) (A) (A) (A) (A)
                 (A) (A) (A) (A) (A) (A) (A) (A) (A) (A) (A) (A)
                 (A) (A) (A) (A) (A) (A) (A)
 Beta  Orbitals:
       Occupied  (A) (A) (A) (A) (A) (A) (A) (A) (A) (A) (A) (A)
                 (A) (A) (A) (A) (A) (A) (A) (A) (A) (A) (A) (A)
       Virtual   (A) (A) (A) (A) (A) (A) (A) (A) (A) (A) (A) (A)
                 (A) (A) (A) (A) (A) (A) (A) (A) (A) (A) (A) (A)
                 (A) (A) (A) (A) (A) (A) (A) (A) (A) (A) (A) (A)
                 (A) (A) (A) (A) (A) (A) (A) (A) (A) (A) (A) (A)
                 (A) (A) (A) (A) (A) (A) (A) (A) (A) (A) (A) (A)
                 (A) (A) (A) (A) (A) (A) (A) (A) (A) (A) (A) (A)
                 (A) (A) (A) (A) (A) (A) (A) (A) (A) (A) (A) (A)
                 (A) (A) (A) (A) (A) (A) (A) (A)
 The electronic state is 2-A.
 Alpha  occ. eigenvalues --  -10.19551 -10.18490 -10.18381 -10.17494 -10.16954
 Alpha  occ. eigenvalues --  -10.16940  -0.80809  -0.75717  -0.67764  -0.66729
 Alpha  occ. eigenvalues --   -0.58534  -0.55345  -0.46793  -0.43877  -0.43233
 Alpha  occ. eigenvalues --   -0.41631  -0.39357  -0.37902  -0.36393  -0.35778
 Alpha  occ. eigenvalues --   -0.34525  -0.31783  -0.31432  -0.30832  -0.22908
 Alpha virt. eigenvalues --    0.08646   0.11208   0.12721   0.13133   0.14779
 Alpha virt. eigenvalues --    0.15743   0.16487   0.17226   0.18098   0.18783
 Alpha virt. eigenvalues --    0.19597   0.21097   0.21934   0.23700   0.25057
 Alpha virt. eigenvalues --    0.26530   0.27293   0.28347   0.49556   0.51003
 Alpha virt. eigenvalues --    0.52061   0.52483   0.53542   0.55049   0.58566
 Alpha virt. eigenvalues --    0.62949   0.64049   0.66335   0.68297   0.71770
 Alpha virt. eigenvalues --    0.72910   0.74136   0.78301   0.81712   0.84643
 Alpha virt. eigenvalues --    0.85840   0.87812   0.89544   0.90022   0.90971
 Alpha virt. eigenvalues --    0.91850   0.93047   0.94064   0.94711   0.95924
 Alpha virt. eigenvalues --    0.96624   0.98991   1.00503   1.03108   1.07411
 Alpha virt. eigenvalues --    1.15363   1.35910   1.40457   1.43059   1.45707
 Alpha virt. eigenvalues --    1.54091   1.60723   1.68612   1.72212   1.78673
 Alpha virt. eigenvalues --    1.81374   1.83730   1.86835   1.90833   1.93029
 Alpha virt. eigenvalues --    1.96396   2.00002   2.01702   2.03105   2.07319
 Alpha virt. eigenvalues --    2.10708   2.15776   2.21047   2.24697   2.26061
 Alpha virt. eigenvalues --    2.31899   2.33855   2.35285   2.44151   2.51612
 Alpha virt. eigenvalues --    2.52976   2.58677   2.68451   2.76534   2.79881
 Alpha virt. eigenvalues --    4.08581   4.17252   4.28868   4.30154   4.45944
 Alpha virt. eigenvalues --    4.58974
  Beta  occ. eigenvalues --  -10.18491 -10.18411 -10.18104 -10.17474 -10.16953
  Beta  occ. eigenvalues --  -10.16940  -0.80650  -0.74846  -0.67763  -0.65486
  Beta  occ. eigenvalues --   -0.57224  -0.55205  -0.46600  -0.43624  -0.42739
  Beta  occ. eigenvalues --   -0.41299  -0.38741  -0.37851  -0.36009  -0.35272
  Beta  occ. eigenvalues --   -0.34248  -0.31716  -0.31348  -0.30581
  Beta virt. eigenvalues --   -0.05886   0.08723   0.11601   0.12804   0.13338
  Beta virt. eigenvalues --    0.15010   0.15883   0.16634   0.17347   0.18825
  Beta virt. eigenvalues --    0.19142   0.19792   0.21320   0.22086   0.23877
  Beta virt. eigenvalues --    0.25175   0.26942   0.27667   0.28826   0.49836
  Beta virt. eigenvalues --    0.51139   0.52252   0.52679   0.53740   0.58904
  Beta virt. eigenvalues --    0.60869   0.63218   0.65019   0.66600   0.69311
  Beta virt. eigenvalues --    0.72103   0.72983   0.74327   0.78960   0.81870
  Beta virt. eigenvalues --    0.85052   0.85983   0.88219   0.89732   0.90490
  Beta virt. eigenvalues --    0.91104   0.91930   0.93657   0.94249   0.95539
  Beta virt. eigenvalues --    0.96125   0.96901   0.99267   1.00828   1.03404
  Beta virt. eigenvalues --    1.07930   1.16606   1.36356   1.41079   1.43273
  Beta virt. eigenvalues --    1.45710   1.55352   1.60827   1.69249   1.72827
  Beta virt. eigenvalues --    1.78996   1.82991   1.84863   1.90291   1.91540
  Beta virt. eigenvalues --    1.94285   1.96978   2.00074   2.02347   2.03969
  Beta virt. eigenvalues --    2.08631   2.11391   2.17645   2.22255   2.24815
  Beta virt. eigenvalues --    2.26153   2.32990   2.35050   2.35817   2.44331
  Beta virt. eigenvalues --    2.51669   2.53082   2.59694   2.68616   2.76808
  Beta virt. eigenvalues --    2.80171   4.10419   4.18358   4.28910   4.30666
  Beta virt. eigenvalues --    4.46206   4.59027
          Condensed to atoms (all electrons):
               1          2          3          4          5          6
     1  C    5.108752   0.369594   0.372124   0.368167   0.379308  -0.045887
     2  H    0.369594   0.580583  -0.031537  -0.030266  -0.029722  -0.003359
     3  H    0.372124  -0.031537   0.582836  -0.031964  -0.034064   0.005881
     4  H    0.368167  -0.030266  -0.031964   0.582296  -0.028473  -0.003431
     5  C    0.379308  -0.029722  -0.034064  -0.028473   4.843983   0.377822
     6  H   -0.045887  -0.003359   0.005881  -0.003431   0.377822   0.646724
     7  C   -0.046430  -0.004292  -0.005929   0.004667   0.382968  -0.049179
     8  H   -0.003784  -0.000266   0.004780  -0.000088  -0.037911   0.006527
     9  H   -0.004880   0.005314  -0.000290   0.000027  -0.037627  -0.003473
    10  C    0.004021   0.000003   0.000019  -0.000142  -0.032452  -0.005531
    11  H    0.000071  -0.000004   0.000009   0.000000  -0.003202   0.006370
    12  H    0.000004   0.000000   0.000002   0.000003  -0.004589  -0.000253
    13  C   -0.000119  -0.000003   0.000000   0.000001   0.003587   0.000001
    14  H    0.000002   0.000000   0.000000   0.000000  -0.000148   0.000000
    15  H   -0.000007   0.000000   0.000000   0.000000   0.000002   0.000001
    16  C   -0.054462   0.005280  -0.005491  -0.003678   0.380918  -0.048842
    17  H    0.005114  -0.000186  -0.000038  -0.000042  -0.029064  -0.003375
    18  H   -0.005156  -0.000047   0.004843  -0.000226  -0.034878   0.005948
    19  H   -0.004486  -0.000016  -0.000226   0.004365  -0.029843  -0.003237
               7          8          9         10         11         12
     1  C   -0.046430  -0.003784  -0.004880   0.004021   0.000071   0.000004
     2  H   -0.004292  -0.000266   0.005314   0.000003  -0.000004   0.000000
     3  H   -0.005929   0.004780  -0.000290   0.000019   0.000009   0.000002
     4  H    0.004667  -0.000088   0.000027  -0.000142   0.000000   0.000003
     5  C    0.382968  -0.037911  -0.037627  -0.032452  -0.003202  -0.004589
     6  H   -0.049179   0.006527  -0.003473  -0.005531   0.006370  -0.000253
     7  C    5.020117   0.367947   0.369458   0.376845  -0.042285  -0.037568
     8  H    0.367947   0.611570  -0.038359  -0.040048   0.006007  -0.005492
     9  H    0.369458  -0.038359   0.620164  -0.042423  -0.004721   0.005755
    10  C    0.376845  -0.040048  -0.042423   5.002436   0.365334   0.373664
    11  H   -0.042285   0.006007  -0.004721   0.365334   0.609003  -0.039529
    12  H   -0.037568  -0.005492   0.005755   0.373664  -0.039529   0.594821
    13  C   -0.040612   0.000474  -0.004089   0.366820  -0.037855  -0.038541
    14  H    0.004118   0.000000   0.000000  -0.036617  -0.000289  -0.003799
    15  H   -0.006075  -0.000283   0.005532  -0.044259  -0.002241   0.005250
    16  C   -0.048145  -0.008054   0.005660  -0.004378  -0.000697   0.002525
    17  H   -0.004700  -0.000023  -0.000045   0.001912   0.000435   0.003166
    18  H   -0.005777   0.005643  -0.000007  -0.000374   0.000080   0.000313
    19  H    0.004886  -0.000037  -0.000170   0.000109  -0.000032  -0.000095
              13         14         15         16         17         18
     1  C   -0.000119   0.000002  -0.000007  -0.054462   0.005114  -0.005156
     2  H   -0.000003   0.000000   0.000000   0.005280  -0.000186  -0.000047
     3  H    0.000000   0.000000   0.000000  -0.005491  -0.000038   0.004843
     4  H    0.000001   0.000000   0.000000  -0.003678  -0.000042  -0.000226
     5  C    0.003587  -0.000148   0.000002   0.380918  -0.029064  -0.034878
     6  H    0.000001   0.000000   0.000001  -0.048842  -0.003375   0.005948
     7  C   -0.040612   0.004118  -0.006075  -0.048145  -0.004700  -0.005777
     8  H    0.000474   0.000000  -0.000283  -0.008054  -0.000023   0.005643
     9  H   -0.004089   0.000000   0.005532   0.005660  -0.000045  -0.000007
    10  C    0.366820  -0.036617  -0.044259  -0.004378   0.001912  -0.000374
    11  H   -0.037855  -0.000289  -0.002241  -0.000697   0.000435   0.000080
    12  H   -0.038541  -0.003799   0.005250   0.002525   0.003166   0.000313
    13  C    5.322116   0.353109   0.360272   0.000119  -0.000066  -0.000024
    14  H    0.353109   0.597095  -0.045291   0.000004   0.000006   0.000000
    15  H    0.360272  -0.045291   0.594873   0.000002   0.000001   0.000000
    16  C    0.000119   0.000004   0.000002   5.111429   0.370287   0.371732
    17  H   -0.000066   0.000006   0.000001   0.370287   0.575530  -0.031719
    18  H   -0.000024   0.000000   0.000000   0.371732  -0.031719   0.582607
    19  H    0.000000   0.000000   0.000000   0.370175  -0.030428  -0.031717
              19
     1  C   -0.004486
     2  H   -0.000016
     3  H   -0.000226
     4  H    0.004365
     5  C   -0.029843
     6  H   -0.003237
     7  C    0.004886
     8  H   -0.000037
     9  H   -0.000170
    10  C    0.000109
    11  H   -0.000032
    12  H   -0.000095
    13  C    0.000000
    14  H    0.000000
    15  H    0.000000
    16  C    0.370175
    17  H   -0.030428
    18  H   -0.031717
    19  H    0.581207
          Atomic-Atomic Spin Densities.
               1          2          3          4          5          6
     1  C   -0.000448  -0.000003  -0.000028   0.000181   0.000265  -0.000029
     2  H   -0.000003   0.000011  -0.000016   0.000024   0.000005   0.000004
     3  H   -0.000028  -0.000016   0.000214  -0.000047  -0.000030  -0.000007
     4  H    0.000181   0.000024  -0.000047   0.000074  -0.000181   0.000013
     5  C    0.000265   0.000005  -0.000030  -0.000181   0.001210   0.000052
     6  H   -0.000029   0.000004  -0.000007   0.000013   0.000052  -0.000300
     7  C   -0.000149  -0.000014   0.000097  -0.000026  -0.003965   0.000033
     8  H   -0.000008   0.000009  -0.000086   0.000010   0.001758   0.000009
     9  H   -0.000014  -0.000013   0.000008  -0.000001  -0.000019  -0.000005
    10  C   -0.000023   0.000000   0.000000   0.000002   0.000656   0.000039
    11  H    0.000016   0.000002  -0.000002   0.000002   0.001869   0.000218
    12  H   -0.000007   0.000000   0.000001   0.000000  -0.000682  -0.000024
    13  C   -0.000003   0.000000  -0.000001   0.000000   0.000154  -0.000011
    14  H    0.000000   0.000000   0.000000   0.000000  -0.000010   0.000000
    15  H    0.000000   0.000000   0.000000   0.000000  -0.000078  -0.000002
    16  C    0.000006   0.000000  -0.000011   0.000037  -0.000097   0.000028
    17  H   -0.000003   0.000000  -0.000001   0.000002   0.000102  -0.000001
    18  H   -0.000016   0.000000   0.000005  -0.000001  -0.000040  -0.000006
    19  H   -0.000013   0.000000   0.000005  -0.000012   0.000016   0.000001
               7          8          9         10         11         12
     1  C   -0.000149  -0.000008  -0.000014  -0.000023   0.000016  -0.000007
     2  H   -0.000014   0.000009  -0.000013   0.000000   0.000002   0.000000
     3  H    0.000097  -0.000086   0.000008   0.000000  -0.000002   0.000001
     4  H   -0.000026   0.000010  -0.000001   0.000002   0.000002   0.000000
     5  C   -0.003965   0.001758  -0.000019   0.000656   0.001869  -0.000682
     6  H    0.000033   0.000009  -0.000005   0.000039   0.000218  -0.000024
     7  C    0.020321  -0.005279   0.000501   0.004920  -0.008512   0.003958
     8  H   -0.005279   0.002545  -0.000204  -0.000893   0.000743  -0.000702
     9  H    0.000501  -0.000204  -0.000866   0.000502  -0.000480   0.000033
    10  C    0.004920  -0.000893   0.000502  -0.037873   0.012054   0.004034
    11  H   -0.008512   0.000743  -0.000480   0.012054   0.078836  -0.007292
    12  H    0.003958  -0.000702   0.000033   0.004034  -0.007292   0.011119
    13  C   -0.006773   0.004056  -0.000220  -0.037137  -0.022967  -0.005025
    14  H    0.000182  -0.000070   0.000026   0.002814  -0.002619   0.001243
    15  H    0.001085  -0.000248   0.000034   0.003137  -0.002476   0.000185
    16  C    0.000079  -0.000048  -0.000008   0.000052  -0.000065   0.000139
    17  H   -0.000106   0.000011  -0.000002  -0.000042   0.000051  -0.000124
    18  H    0.000090  -0.000047   0.000000  -0.000002  -0.000005   0.000013
    19  H    0.000039  -0.000006   0.000000  -0.000004  -0.000006   0.000006
              13         14         15         16         17         18
     1  C   -0.000003   0.000000   0.000000   0.000006  -0.000003  -0.000016
     2  H    0.000000   0.000000   0.000000   0.000000   0.000000   0.000000
     3  H   -0.000001   0.000000   0.000000  -0.000011  -0.000001   0.000005
     4  H    0.000000   0.000000   0.000000   0.000037   0.000002  -0.000001
     5  C    0.000154  -0.000010  -0.000078  -0.000097   0.000102  -0.000040
     6  H   -0.000011   0.000000  -0.000002   0.000028  -0.000001  -0.000006
     7  C   -0.006773   0.000182   0.001085   0.000079  -0.000106   0.000090
     8  H    0.004056  -0.000070  -0.000248  -0.000048   0.000011  -0.000047
     9  H   -0.000220   0.000026   0.000034  -0.000008  -0.000002   0.000000
    10  C   -0.037137   0.002814   0.003137   0.000052  -0.000042  -0.000002
    11  H   -0.022967  -0.002619  -0.002476  -0.000065   0.000051  -0.000005
    12  H   -0.005025   0.001243   0.000185   0.000139  -0.000124   0.000013
    13  C    1.138367  -0.012818  -0.013598  -0.000014   0.000001  -0.000003
    14  H   -0.012818  -0.026043   0.006322   0.000001  -0.000001   0.000000
    15  H   -0.013598   0.006322  -0.024103   0.000001   0.000000   0.000000
    16  C   -0.000014   0.000001   0.000001  -0.000009   0.000068   0.000011
    17  H    0.000001  -0.000001   0.000000   0.000068  -0.000029  -0.000019
    18  H   -0.000003   0.000000   0.000000   0.000011  -0.000019   0.000005
    19  H    0.000000   0.000000   0.000000  -0.000078  -0.000011   0.000020
              19
     1  C   -0.000013
     2  H    0.000000
     3  H    0.000005
     4  H   -0.000012
     5  C    0.000016
     6  H    0.000001
     7  C    0.000039
     8  H   -0.000006
     9  H    0.000000
    10  C   -0.000004
    11  H   -0.000006
    12  H    0.000006
    13  C    0.000000
    14  H    0.000000
    15  H    0.000000
    16  C   -0.000078
    17  H   -0.000011
    18  H    0.000020
    19  H    0.000067
 Mulliken charges and spin densities:
               1          2
     1  C   -0.441949  -0.000275
     2  H    0.138923   0.000008
     3  H    0.139044   0.000103
     4  H    0.138783   0.000075
     5  C   -0.066617   0.000985
     6  H    0.117293   0.000013
     7  C   -0.240017   0.006482
     8  H    0.131397   0.001550
     9  H    0.124173  -0.000726
    10  C   -0.284939  -0.047765
    11  H    0.143548   0.049368
    12  H    0.144363   0.006875
    13  C   -0.285189   1.044006
    14  H    0.131809  -0.030975
    15  H    0.132221  -0.029742
    16  C   -0.444382   0.000092
    17  H    0.143235  -0.000105
    18  H    0.138758   0.000008
    19  H    0.139545   0.000023
 Sum of Mulliken charges =   0.00000   1.00000
 Mulliken charges and spin densities with hydrogens summed into heavy atoms:
               1          2
     1  C   -0.025199  -0.000089
     5  C    0.050676   0.000999
     7  C    0.015553   0.007305
    10  C    0.002972   0.008477
    13  C   -0.021159   0.983290
    16  C   -0.022844   0.000018
 Electronic spatial extent (au):  <R**2>=            870.9929
 Charge=              0.0000 electrons
 Dipole moment (field-independent basis, Debye):
    X=              0.1917    Y=              0.1055    Z=             -0.6701  Tot=              0.7049
 Quadrupole moment (field-independent basis, Debye-Ang):
   XX=            -41.8889   YY=            -40.8032   ZZ=            -41.0676
   XY=             -0.2095   XZ=              1.8399   YZ=              0.2939
 Traceless Quadrupole moment (field-independent basis, Debye-Ang):
   XX=             -0.6356   YY=              0.4500   ZZ=              0.1856
   XY=             -0.2095   XZ=              1.8399   YZ=              0.2939
 Octapole moment (field-independent basis, Debye-Ang**2):
  XXX=              4.1167  YYY=             -0.7101  ZZZ=             -0.7983  XYY=             -1.4618
  XXY=              2.2144  XXZ=             -7.0643  XZZ=              2.7087  YZZ=              0.2599
  YYZ=             -1.2548  XYZ=             -0.8868
 Hexadecapole moment (field-independent basis, Debye-Ang**3):
 XXXX=           -878.1010 YYYY=           -248.1717 ZZZZ=            -90.1506 XXXY=             -1.0467
 XXXZ=             16.8877 YYYX=             -1.1094 YYYZ=              1.6081 ZZZX=              5.8052
 ZZZY=              0.1379 XXYY=           -187.9935 XXZZ=           -167.4906 YYZZ=            -58.0017
 XXYZ=              1.1172 YYXZ=              0.5469 ZZXY=             -0.9960
 N-N= 2.430152106993D+02 E-N=-1.031578686891D+03  KE= 2.339670036084D+02
                          Isotropic Fermi Contact Couplings
        Atom                 a.u.       MegaHertz       Gauss      10(-4) cm-1
     1  C(13)             -0.00013      -0.14680      -0.05238      -0.04897
     2  H(1)               0.00000      -0.00491      -0.00175      -0.00164
     3  H(1)               0.00006       0.28534       0.10182       0.09518
     4  H(1)               0.00004       0.18645       0.06653       0.06219
     5  C(13)             -0.00119      -1.33443      -0.47616      -0.44512
     6  H(1)               0.00019       0.86599       0.30901       0.28886
     7  C(13)              0.00920      10.34551       3.69154       3.45089
     8  H(1)              -0.00030      -1.32341      -0.47223      -0.44144
     9  H(1)              -0.00027      -1.20674      -0.43059      -0.40252
    10  C(13)             -0.01191     -13.39273      -4.77886      -4.46733
    11  H(1)               0.02615     116.87386      41.70350      38.98492
    12  H(1)               0.00454      20.30933       7.24687       6.77446
    13  C(13)              0.31133     349.99897     124.88833     116.74709
    14  H(1)              -0.00454     -20.27266      -7.23379      -6.76223
    15  H(1)              -0.00378     -16.89495      -6.02854      -5.63555
    16  C(13)              0.00010       0.11797       0.04209       0.03935
    17  H(1)               0.00001       0.03362       0.01200       0.01121
    18  H(1)               0.00000       0.01257       0.00448       0.00419
    19  H(1)               0.00000       0.01084       0.00387       0.00361
 --------------------------------------------------------
       Center         ----  Spin Dipole Couplings  ----
                      3XX-RR        3YY-RR        3ZZ-RR
 --------------------------------------------------------
     1   Atom        0.002037     -0.001107     -0.000930
     2   Atom        0.001584     -0.000639     -0.000945
     3   Atom        0.001871     -0.000944     -0.000927
     4   Atom        0.001302     -0.000674     -0.000627
     5   Atom        0.002983     -0.002889     -0.000093
     6   Atom        0.003366     -0.002365     -0.001001
     7   Atom        0.017598     -0.007015     -0.010582
     8   Atom        0.011394     -0.007101     -0.004293
     9   Atom        0.006196     -0.001442     -0.004754
    10   Atom        0.005698     -0.020393      0.014695
    11   Atom        0.000874     -0.008860      0.007986
    12   Atom        0.001278      0.007124     -0.008402
    13   Atom       -0.481032     -0.477733      0.958765
    14   Atom        0.019200     -0.017488     -0.001711
    15   Atom       -0.057590      0.057494      0.000096
    16   Atom        0.002434     -0.001028     -0.001406
    17   Atom        0.001807     -0.000173     -0.001634
    18   Atom        0.002124     -0.000940     -0.001184
    19   Atom        0.001365     -0.000576     -0.000790
 --------------------------------------------------------
                        XY            XZ            YZ
 --------------------------------------------------------
     1   Atom       -0.000429     -0.000329      0.000012
     2   Atom       -0.001089     -0.000427      0.000135
     3   Atom       -0.000541      0.000382     -0.000088
     4   Atom       -0.000202     -0.000228      0.000019
     5   Atom       -0.000220     -0.001451     -0.000217
     6   Atom       -0.000029     -0.001740     -0.000150
     7   Atom       -0.008468     -0.003567      0.000533
     8   Atom       -0.001963      0.005009     -0.001225
     9   Atom       -0.007264     -0.003096      0.001517
    10   Atom        0.011320     -0.028817     -0.010636
    11   Atom        0.005218     -0.006926     -0.004333
    12   Atom        0.015179     -0.003100     -0.003430
    13   Atom       -0.001728      0.006663     -0.032273
    14   Atom       -0.057987      0.022370     -0.016654
    15   Atom        0.016334      0.005188      0.029366
    16   Atom        0.001648     -0.000071      0.000016
    17   Atom        0.002584     -0.000413     -0.000222
    18   Atom        0.001349      0.000702      0.000263
    19   Atom        0.000824     -0.000199     -0.000071
 --------------------------------------------------------


 ---------------------------------------------------------------------------------
              Anisotropic Spin Dipole Couplings in Principal Axis System
 ---------------------------------------------------------------------------------

       Atom             a.u.   MegaHertz   Gauss  10(-4) cm-1        Axes

              Baa    -0.0012    -0.157    -0.056    -0.052  0.1466  0.9772  0.1539
     1 C(13)  Bbb    -0.0010    -0.129    -0.046    -0.043  0.0838 -0.1672  0.9824
              Bcc     0.0021     0.286     0.102     0.095  0.9856 -0.1311 -0.1064
 
              Baa    -0.0011    -0.586    -0.209    -0.196  0.3992  0.8366  0.3751
     2 H(1)   Bbb    -0.0010    -0.531    -0.189    -0.177 -0.0182 -0.4018  0.9156
              Bcc     0.0021     1.117     0.399     0.373  0.9167 -0.3723 -0.1452
 
              Baa    -0.0010    -0.559    -0.200    -0.187  0.1477  0.9614  0.2320
     3 H(1)   Bbb    -0.0010    -0.520    -0.186    -0.174 -0.1686 -0.2067  0.9638
              Bcc     0.0020     1.079     0.385     0.360  0.9745 -0.1815  0.1316
 
              Baa    -0.0007    -0.371    -0.132    -0.124  0.1105  0.9898  0.0899
     4 H(1)   Bbb    -0.0007    -0.349    -0.124    -0.116  0.1051 -0.1016  0.9893
              Bcc     0.0013     0.720     0.257     0.240  0.9883 -0.0999 -0.1153
 
              Baa    -0.0029    -0.393    -0.140    -0.131  0.0636  0.9920  0.1086
     5 C(13)  Bbb    -0.0006    -0.085    -0.030    -0.028  0.3629 -0.1244  0.9235
              Bcc     0.0036     0.478     0.171     0.159  0.9297 -0.0193 -0.3679
 
              Baa    -0.0024    -1.278    -0.456    -0.426  0.0590  0.9820  0.1794
     6 H(1)   Bbb    -0.0016    -0.843    -0.301    -0.281  0.3249 -0.1888  0.9267
              Bcc     0.0040     2.121     0.757     0.707  0.9439  0.0036 -0.3302
 
              Baa    -0.0112    -1.501    -0.536    -0.501  0.2009  0.2886  0.9361
     7 C(13)  Bbb    -0.0095    -1.269    -0.453    -0.423  0.2415  0.9116 -0.3328
              Bcc     0.0206     2.769     0.988     0.924  0.9494 -0.2929 -0.1135
 
              Baa    -0.0076    -4.034    -1.440    -1.346  0.0071  0.9399  0.3414
     8 H(1)   Bbb    -0.0055    -2.957    -1.055    -0.986 -0.3026 -0.3234  0.8966
              Bcc     0.0131     6.991     2.495     2.332  0.9531 -0.1097  0.2821
 
              Baa    -0.0060    -3.202    -1.142    -1.068  0.5346  0.6889  0.4895
     9 H(1)   Bbb    -0.0053    -2.837    -1.012    -0.946 -0.1020 -0.5224  0.8466
              Bcc     0.0113     6.039     2.155     2.014  0.8389 -0.5025 -0.2090
 
              Baa    -0.0246    -3.304    -1.179    -1.102 -0.3578  0.9338 -0.0096
    10 C(13)  Bbb    -0.0185    -2.482    -0.886    -0.828  0.6831  0.2687  0.6791
              Bcc     0.0431     5.786     2.065     1.930 -0.6367 -0.2364  0.7340
 
              Baa    -0.0112    -5.991    -2.138    -1.998 -0.3545  0.9314  0.0823
    11 H(1)   Bbb    -0.0028    -1.498    -0.535    -0.500  0.7700  0.2409  0.5908
              Bcc     0.0140     7.489     2.672     2.498 -0.5305 -0.2728  0.8026
 
              Baa    -0.0113    -6.016    -2.147    -2.007  0.7765 -0.6230  0.0940
    12 H(1)   Bbb    -0.0091    -4.868    -1.737    -1.624  0.0272  0.1821  0.9829
              Bcc     0.0204    10.884     3.884     3.631  0.6295  0.7607 -0.1583
 
              Baa    -0.4818   -64.654   -23.070   -21.566  0.9046  0.4261  0.0054
    13 C(13)  Bbb    -0.4777   -64.105   -22.874   -21.383 -0.4261  0.9044  0.0223
              Bcc     0.9595   128.759    45.944    42.949  0.0047 -0.0225  0.9997
 
              Baa    -0.0600   -31.994   -11.416   -10.672  0.5901  0.8073  0.0042
    14 H(1)   Bbb    -0.0122    -6.527    -2.329    -2.177 -0.2873  0.2052  0.9356
              Bcc     0.0722    38.522    13.745    12.849  0.7544 -0.5533  0.3530
 
              Baa    -0.0599   -31.952   -11.401   -10.658  0.9909 -0.1327 -0.0207
    15 H(1)   Bbb    -0.0122    -6.518    -2.326    -2.174 -0.0318 -0.3817  0.9237
              Bcc     0.0721    38.470    13.727    12.832  0.1305  0.9147  0.3824
 
              Baa    -0.0017    -0.227    -0.081    -0.076 -0.3692  0.9184 -0.1426
    16 C(13)  Bbb    -0.0014    -0.188    -0.067    -0.063 -0.0406  0.1374  0.9897
              Bcc     0.0031     0.415     0.148     0.138  0.9285  0.3712 -0.0135
 
              Baa    -0.0020    -1.045    -0.373    -0.349 -0.5700  0.8028 -0.1751
    17 H(1)   Bbb    -0.0017    -0.889    -0.317    -0.297 -0.0278  0.1942  0.9806
              Bcc     0.0036     1.934     0.690     0.645  0.8212  0.5638 -0.0884
 
              Baa    -0.0014    -0.773    -0.276    -0.258 -0.3565  0.9341  0.0192
    18 H(1)   Bbb    -0.0013    -0.708    -0.253    -0.236 -0.1672 -0.0839  0.9823
              Bcc     0.0028     1.481     0.528     0.494  0.9192  0.3470  0.1861
 
              Baa    -0.0009    -0.469    -0.167    -0.156 -0.3469  0.9374 -0.0297
    19 H(1)   Bbb    -0.0008    -0.431    -0.154    -0.144  0.0696  0.0573  0.9959
              Bcc     0.0017     0.900     0.321     0.300  0.9353  0.3434 -0.0851
 

 ---------------------------------------------------------------------------------

 No NMR shielding tensors so no spin-rotation constants.
 Leave Link  601 at Sat Nov  7 02:01:22 2015, MaxMem=   805306368 cpu:         0.9
 (Enter /home/hetanjin/apps/g09D01/g09/l701.exe)
 Compute integral first derivatives.
 ... and contract with generalized density number  0.
 Leave Link  701 at Sat Nov  7 02:01:22 2015, MaxMem=   805306368 cpu:         0.6
 (Enter /home/hetanjin/apps/g09D01/g09/l702.exe)
 L702 exits ... SP integral derivatives will be done elsewhere.
 Leave Link  702 at Sat Nov  7 02:01:22 2015, MaxMem=   805306368 cpu:         0.1
 (Enter /home/hetanjin/apps/g09D01/g09/l703.exe)
 Compute integral first derivatives, UseDBF=F ICtDFT=           0.
 Integral derivatives from FoFJK, PRISM(SPDF).
 Calling FoFJK, ICntrl=      2127 FMM=F ISym2X=0 I1Cent= 0 IOpClX= 1 NMat=1 NMatS=1 NMatT=0.
 FoFJK:  IHMeth= 1 ICntrl=    2127 DoSepK=F KAlg= 0 I1Cent=   0 FoldK=F
 IRaf=         0 NMat=   1 IRICut=       1 DoRegI=T DoRafI=F ISym2E= 0.
 FoFCou: FMM=F IPFlag=           0 FMFlag=      100000 FMFlg1=         800
         NFxFlg=           0 DoJE=F BraDBF=F KetDBF=F FulRan=T
         wScrn=  0.000000 ICntrl=    2127 IOpCl=  1 I1Cent=           0 NGrid=           0
         NMat0=    1 NMatS0=      1 NMatT0=    0 NMatD0=    1 NMtDS0=    0 NMtDT0=    0
 Symmetry not used in FoFCou.
 Leave Link  703 at Sat Nov  7 02:01:29 2015, MaxMem=   805306368 cpu:        26.3
 (Enter /home/hetanjin/apps/g09D01/g09/l716.exe)
 Dipole        = 7.54023942D-02 4.15264816D-02-2.63623886D-01
 ***** Axes restored to original set *****
 -------------------------------------------------------------------
 Center     Atomic                   Forces (Hartrees/Bohr)
 Number     Number              X              Y              Z
 -------------------------------------------------------------------
      1        6          -0.000079877   -0.000065034    0.000009811
      2        1           0.000008306    0.000002586    0.000010116
      3        1          -0.000037911    0.000019229   -0.000041197
      4        1          -0.000053273    0.000020862   -0.000006818
      5        6          -0.000035978    0.000067895   -0.000148732
      6        1           0.000099336    0.000042867   -0.000242727
      7        6           0.002188129   -0.001068066    0.000625636
      8        1          -0.000390770    0.000206273   -0.000927465
      9        1          -0.000095285    0.000093020   -0.000011879
     10        6          -0.005849380   -0.002931909    0.021857186
     11        1          -0.002644978   -0.000583870   -0.003015333
     12        1           0.000410033    0.000711075   -0.001047110
     13        6           0.009767484    0.005739755   -0.045576588
     14        1          -0.003194316    0.002642931    0.014200883
     15        1          -0.000046870   -0.004953165    0.014320815
     16        6           0.000033957   -0.000036178    0.000077530
     17        1           0.000021017    0.000107406    0.000016691
     18        1          -0.000046188   -0.000010296   -0.000073391
     19        1          -0.000053436   -0.000005380   -0.000027428
 -------------------------------------------------------------------
 Cartesian Forces:  Max     0.045576588 RMS     0.007493083
 Leave Link  716 at Sat Nov  7 02:01:29 2015, MaxMem=   805306368 cpu:         0.1
 (Enter /home/hetanjin/apps/g09D01/g09/l103.exe)

 GradGradGradGradGradGradGradGradGradGradGradGradGradGradGradGradGradGrad
 Berny optimization.
 FormGI is forming the generalized inverse of G from B-inverse, IUseBI=4.
 Internal  Forces:  Max     0.013656782 RMS     0.003311160
 Search for a local minimum.
 Step number   1 out of a maximum of  103
 All quantities printed in internal units (Hartrees-Bohrs-Radians)
 RMS Force = .33112D-02 SwitMx=.10000D-02 MixMth= 1
 Mixed Optimization -- RFO/linear search
 Second derivative matrix not updated -- first step.
 ITU=  0
     Eigenvalues ---    0.00230   0.00282   0.00287   0.00303   0.00334
     Eigenvalues ---    0.03185   0.03394   0.03596   0.03931   0.04648
     Eigenvalues ---    0.04696   0.04879   0.05301   0.05336   0.05398
     Eigenvalues ---    0.05465   0.05490   0.08767   0.09335   0.12525
     Eigenvalues ---    0.12839   0.16000   0.16000   0.16000   0.16000
     Eigenvalues ---    0.16000   0.16000   0.16000   0.16000   0.16671
     Eigenvalues ---    0.17068   0.21923   0.21944   0.28367   0.28825
     Eigenvalues ---    0.28860   0.28964   0.29178   0.33520   0.33530
     Eigenvalues ---    0.33657   0.33717   0.33869   0.33898   0.33942
     Eigenvalues ---    0.34007   0.34055   0.34061   0.34062   0.34118
     Eigenvalues ---    0.34216
 RFO step:  Lambda=-1.39431570D-02 EMin= 2.30000000D-03
 Linear search not attempted -- first point.
 Iteration  1 RMS(Cart)=  0.04191265 RMS(Int)=  0.00825166
 Iteration  2 RMS(Cart)=  0.00634227 RMS(Int)=  0.00574619
 Iteration  3 RMS(Cart)=  0.00007915 RMS(Int)=  0.00574587
 Iteration  4 RMS(Cart)=  0.00000173 RMS(Int)=  0.00574587
 Iteration  5 RMS(Cart)=  0.00000005 RMS(Int)=  0.00574587
 ITry= 1 IFail=0 DXMaxC= 2.07D-01 DCOld= 1.00D+10 DXMaxT= 3.00D-01 DXLimC= 3.00D+00 Rises=F
 Variable       Old X    -DE/DX   Delta X   Delta X   Delta X     New X
                                 (Linear)    (Quad)   (Total)
    R1        2.07237  -0.00001   0.00000  -0.00002  -0.00002   2.07234
    R2        2.07502  -0.00005   0.00000  -0.00013  -0.00013   2.07489
    R3        2.07228  -0.00004   0.00000  -0.00011  -0.00011   2.07216
    R4        2.90296  -0.00011   0.00000  -0.00035  -0.00035   2.90261
    R5        2.08149   0.00024   0.00000   0.00069   0.00069   2.08217
    R6        2.91344   0.00005   0.00000   0.00018   0.00018   2.91361
    R7        2.90369   0.00004   0.00000   0.00013   0.00013   2.90381
    R8        2.08131  -0.00094   0.00000  -0.00268  -0.00268   2.07862
    R9        2.07912  -0.00007   0.00000  -0.00020  -0.00020   2.07892
   R10        2.90078   0.00133   0.00000   0.00437   0.00437   2.90515
   R11        2.07811   0.00293   0.00000   0.00834   0.00834   2.08645
   R12        2.07428   0.00034   0.00000   0.00097   0.00097   2.07525
   R13        2.89633  -0.01204   0.00000  -0.03939  -0.03939   2.85694
   R14        2.07131  -0.00057   0.00000  -0.00159  -0.00159   2.06972
   R15        2.07318  -0.00053   0.00000  -0.00149  -0.00149   2.07169
   R16        2.06967   0.00006   0.00000   0.00016   0.00016   2.06983
   R17        2.07552  -0.00007   0.00000  -0.00021  -0.00021   2.07531
   R18        2.07225  -0.00004   0.00000  -0.00012  -0.00012   2.07213
    A1        1.87835   0.00001   0.00000   0.00006   0.00006   1.87841
    A2        1.88223   0.00002   0.00000   0.00012   0.00012   1.88235
    A3        1.94449   0.00003   0.00000   0.00022   0.00022   1.94471
    A4        1.87730   0.00005   0.00000   0.00022   0.00022   1.87753
    A5        1.93565  -0.00005   0.00000  -0.00028  -0.00028   1.93538
    A6        1.94287  -0.00005   0.00000  -0.00032  -0.00032   1.94255
    A7        1.88002  -0.00001   0.00000  -0.00022  -0.00022   1.87980
    A8        1.92906  -0.00014   0.00000  -0.00094  -0.00094   1.92812
    A9        1.92774   0.00009   0.00000   0.00022   0.00022   1.92796
   A10        1.87706   0.00010   0.00000   0.00109   0.00109   1.87815
   A11        1.88194  -0.00005   0.00000  -0.00007  -0.00007   1.88187
   A12        1.96473   0.00001   0.00000  -0.00003  -0.00003   1.96470
   A13        1.90132   0.00040   0.00000   0.00314   0.00314   1.90446
   A14        1.89309   0.00005   0.00000   0.00033   0.00033   1.89342
   A15        2.01454  -0.00024   0.00000  -0.00125  -0.00125   2.01329
   A16        1.84789   0.00001   0.00000   0.00079   0.00079   1.84867
   A17        1.90709  -0.00024   0.00000  -0.00224  -0.00224   1.90486
   A18        1.89268   0.00004   0.00000  -0.00061  -0.00061   1.89207
   A19        1.90542   0.00061   0.00000   0.00094   0.00099   1.90641
   A20        1.92072  -0.00063   0.00000   0.00757   0.00733   1.92804
   A21        1.96892   0.00287   0.00000   0.01329   0.01314   1.98206
   A22        1.85242   0.00019   0.00000  -0.00276  -0.00272   1.84971
   A23        1.90917  -0.00347   0.00000  -0.03191  -0.03185   1.87732
   A24        1.90353   0.00023   0.00000   0.01159   0.01136   1.91489
   A25        1.94519   0.01345   0.00000   0.14439   0.11620   2.06139
   A26        1.94094   0.01366   0.00000   0.14585   0.11763   2.05858
   A27        1.87972  -0.00067   0.00000   0.12189   0.08660   1.96632
   A28        1.95757   0.00014   0.00000   0.00079   0.00079   1.95836
   A29        1.93340  -0.00005   0.00000  -0.00025  -0.00025   1.93315
   A30        1.93610  -0.00004   0.00000  -0.00021  -0.00021   1.93589
   A31        1.88022  -0.00005   0.00000  -0.00025  -0.00025   1.87998
   A32        1.87616  -0.00006   0.00000  -0.00037  -0.00037   1.87579
   A33        1.87714   0.00004   0.00000   0.00027   0.00027   1.87740
    D1       -1.04583  -0.00002   0.00000  -0.00020  -0.00020  -1.04603
    D2        1.00024   0.00002   0.00000   0.00046   0.00046   1.00070
    D3       -3.09704   0.00000   0.00000  -0.00011  -0.00011  -3.09715
    D4       -3.13776  -0.00002   0.00000  -0.00023  -0.00023  -3.13799
    D5       -1.09169   0.00002   0.00000   0.00043   0.00043  -1.09126
    D6        1.09422  -0.00001   0.00000  -0.00014  -0.00014   1.09408
    D7        1.05590  -0.00001   0.00000  -0.00012  -0.00012   1.05578
    D8        3.10197   0.00002   0.00000   0.00054   0.00054   3.10251
    D9       -0.99531   0.00000   0.00000  -0.00003  -0.00003  -0.99533
   D10        1.12731   0.00017   0.00000   0.00192   0.00192   1.12923
   D11       -0.87637  -0.00007   0.00000  -0.00084  -0.00084  -0.87721
   D12       -3.00345  -0.00001   0.00000   0.00055   0.00055  -3.00289
   D13       -3.10798   0.00014   0.00000   0.00177   0.00177  -3.10620
   D14        1.17153  -0.00011   0.00000  -0.00099  -0.00099   1.17054
   D15       -0.95555  -0.00004   0.00000   0.00040   0.00040  -0.95515
   D16       -1.03748   0.00015   0.00000   0.00237   0.00237  -1.03511
   D17       -3.04116  -0.00010   0.00000  -0.00039  -0.00039  -3.04155
   D18        1.11494  -0.00003   0.00000   0.00100   0.00100   1.11595
   D19        3.06412   0.00003   0.00000   0.00009   0.00009   3.06421
   D20       -1.11751   0.00004   0.00000   0.00014   0.00014  -1.11737
   D21        0.96587   0.00004   0.00000   0.00017   0.00017   0.96604
   D22        1.01409   0.00002   0.00000   0.00028   0.00028   1.01437
   D23        3.11564   0.00003   0.00000   0.00033   0.00033   3.11597
   D24       -1.08416   0.00003   0.00000   0.00036   0.00036  -1.08380
   D25       -1.05354  -0.00007   0.00000  -0.00101  -0.00101  -1.05454
   D26        1.04801  -0.00007   0.00000  -0.00096  -0.00096   1.04706
   D27        3.13140  -0.00007   0.00000  -0.00092  -0.00092   3.13048
   D28        0.94556   0.00065   0.00000   0.00753   0.00754   0.95310
   D29       -1.08096   0.00042   0.00000   0.00604   0.00608  -1.07488
   D30        3.07202  -0.00142   0.00000  -0.02359  -0.02363   3.04839
   D31        3.09493   0.00080   0.00000   0.00900   0.00901   3.10394
   D32        1.06841   0.00058   0.00000   0.00751   0.00755   1.07596
   D33       -1.06179  -0.00126   0.00000  -0.02212  -0.02216  -1.08395
   D34       -1.18174   0.00071   0.00000   0.00843   0.00843  -1.17331
   D35        3.07492   0.00048   0.00000   0.00693   0.00697   3.08189
   D36        0.94472  -0.00135   0.00000  -0.02269  -0.02274   0.92198
   D37       -3.14121  -0.00830   0.00000  -0.15544  -0.16161   2.98037
   D38       -1.04351   0.00926   0.00000   0.19644   0.20275  -0.84075
   D39       -1.01687  -0.00805   0.00000  -0.16801  -0.17425  -1.19111
   D40        1.08084   0.00951   0.00000   0.18387   0.19011   1.27095
   D41        1.00212  -0.00961   0.00000  -0.18250  -0.18882   0.81331
   D42        3.09983   0.00795   0.00000   0.16938   0.17555  -3.00781
         Item               Value     Threshold  Converged?
 Maximum Force            0.013657     0.000015     NO 
 RMS     Force            0.003311     0.000010     NO 
 Maximum Displacement     0.206775     0.000060     NO 
 RMS     Displacement     0.039260     0.000040     NO 
 Predicted change in Energy=-1.004372D-02
 Lowest energy point so far.  Saving SCF results.
 GradGradGradGradGradGradGradGradGradGradGradGradGradGradGradGradGradGrad

 Leave Link  103 at Sat Nov  7 02:01:29 2015, MaxMem=   805306368 cpu:         0.2
 (Enter /home/hetanjin/apps/g09D01/g09/l202.exe)
                          Input orientation:                          
 ---------------------------------------------------------------------
 Center     Atomic      Atomic             Coordinates (Angstroms)
 Number     Number       Type             X           Y           Z
 ---------------------------------------------------------------------
      1          6           0        2.161218   -1.038626    0.037416
      2          1           0        1.933824   -2.027243   -0.379168
      3          1           0        2.237679   -1.146725    1.127387
      4          1           0        3.146951   -0.735485   -0.335198
      5          6           0        1.082991   -0.010643   -0.336694
      6          1           0        1.048149    0.053369   -1.436119
      7          6           0       -0.302840   -0.482323    0.147240
      8          1           0       -0.306926   -0.519996    1.246547
      9          1           0       -0.456477   -1.517890   -0.190778
     10          6           0       -1.491572    0.366336   -0.332461
     11          1           0       -1.466603    0.437397   -1.433989
     12          1           0       -1.403042    1.395977    0.039010
     13          6           0       -2.836830   -0.202669    0.057594
     14          1           0       -3.726104    0.414634   -0.108823
     15          1           0       -3.019506   -1.266670   -0.133140
     16          6           0        1.454924    1.378883    0.203790
     17          1           0        0.744403    2.149999   -0.112815
     18          1           0        1.477862    1.376175    1.301754
     19          1           0        2.448396    1.682447   -0.147251
 ---------------------------------------------------------------------
                    Distance matrix (angstroms):
                    1          2          3          4          5
     1  C    0.000000
     2  H    1.096637   0.000000
     3  H    1.097985   1.771256   0.000000
     4  H    1.096542   1.772639   1.770607   0.000000
     5  C    1.535995   2.189154   2.183465   2.187540   0.000000
     6  H    2.145385   2.496099   3.070305   2.497857   1.101839
     7  C    2.528462   2.768854   2.802920   3.492549   1.541817
     8  H    2.796911   3.152095   2.623357   3.804947   2.167477
     9  H    2.670972   2.451218   3.022218   3.690218   2.159408
    10  C    3.931107   4.179083   4.281100   4.767590   2.602019
    11  H    4.183869   4.330127   4.774075   4.885476   2.811623
    12  H    4.316393   4.798748   4.572171   5.038413   2.880988
    13  C    5.067516   5.126302   5.271275   6.020284   3.944278
    14  H    6.065799   6.170141   6.287509   6.972296   4.833237
    15  H    5.188545   5.017417   5.407524   6.192591   4.295290
    16  C    2.524060   3.488678   2.800791   2.761162   1.536632
    17  H    3.492458   4.351438   3.825750   3.761344   2.198440
    18  H    2.810122   3.823173   2.640596   3.150330   2.182590
    19  H    2.742409   3.752381   3.110195   2.523826   2.183294
                    6          7          8          9         10
     6  H    0.000000
     7  C    2.149224   0.000000
[...]
 86,0.33152630,-0.25953527,-0.06801565,0.07776532,-0.00530114,-0.001832
 23,0.00174852,0.00260670,0.00083605,-0.00038216,0.28338308,-0.06886857
 ,-0.07133337,0.02478552,-0.02647755,-0.00772264,0.01130047,-0.00184178
 ,-0.00160422,0.00037146,0.07326504,0.07504280,0.07796929,0.02450393,-0
 .07816493,-0.01322211,-0.00327662,0.00453138,0.03067800,0.01013240,-0.
 00987942,-0.08476543,-0.02845508,0.07986088,-0.12889472,0.04843999,-0.
 02014469,0.00468144,-0.00587082,0.00240891,-0.00169252,0.00068964,-0.0
 0096740,-0.02074609,0.02068804,-0.00934640,0.46882106,0.04892017,-0.12
 467400,0.01971958,0.02079401,-0.01964835,0.00927733,0.00194297,-0.0028
 1893,0.00118123,-0.00778587,0.00616141,-0.00319744,0.00022590,0.476319
 46,-0.02003405,0.01953574,-0.08937401,0.01088826,-0.00933236,0.0030718
 5,-0.02490503,0.02366652,-0.00979453,0.00824914,-0.00904802,0.00240480
 ,0.00591117,-0.00769482,0.58708549,-0.00199937,0.00307741,-0.02504642,
 0.00085326,-0.00039705,0.00071604,-0.00308724,0.00364286,-0.00155148,0
 .00074132,-0.00090755,0.00008870,-0.04892235,-0.00030628,-0.00303162,0
 .05764828,0.00182516,-0.00301362,0.02394682,-0.00087524,0.00064894,-0.
 00008352,0.00361025,-0.00278063,0.00144680,-0.00036349,0.00079109,-0.0
 0072046,-0.00025548,-0.04980410,0.01440379,-0.00002251,0.05870701,-0.0
 0069229,0.00118090,-0.00889101,0.00008408,0.00053934,0.00054619,-0.001
 27163,0.00125214,0.00115039,-0.00051270,-0.00017765,0.00048230,-0.0033
 7772,0.01414264,-0.29146393,0.00369314,-0.01576436,0.31911426,-0.03101
 270,-0.00271796,0.00724569,0.00132226,-0.00167238,0.00010734,0.0016792
 8,-0.00123409,0.00089635,-0.00222607,0.00216544,-0.00097482,-0.1520022
 2,-0.02544415,0.02803181,-0.00296433,-0.00090086,0.00119986,0.45187805
 ,0.02034082,0.00732521,-0.00744906,0.00140780,0.00009654,-0.00030888,-
 0.00023916,0.00033983,-0.00021603,0.00474358,-0.00357359,0.00110658,-0
 .02934917,-0.08971104,0.01032644,-0.00212577,-0.00081876,0.00106436,0.
 01296218,0.54687353,-0.00788089,-0.00372025,0.00347815,0.00055574,-0.0
 0021271,-0.00010922,-0.00153681,0.00007136,0.00027180,-0.00286883,0.00
 139806,-0.00017005,0.02760437,0.01084208,-0.09222442,0.03207301,0.0111
 8771,-0.01255066,0.00398999,0.03024805,0.57198730,0.00160818,-0.000523
 79,0.00106980,-0.00008959,0.00002538,-0.00002709,-0.00031126,0.0002509
 0,-0.00077864,0.00022882,-0.00010957,-0.00041869,-0.00238916,-0.000923
 55,0.03124678,-0.00541819,-0.00197194,0.00204253,-0.04862014,-0.000914
 88,0.00590076,0.05637420,0.00039962,-0.00003903,-0.00059444,-0.0000567
 2,0.00006829,-0.00012958,0.00013239,0.00031574,-0.00008669,0.00003361,
 -0.00011830,0.00004163,-0.00093776,-0.00114665,0.01167091,-0.00199430,
 -0.00016484,0.00119318,-0.00102635,-0.05080031,0.00509620,-0.00064889,
 0.05193448,-0.00071620,0.00011550,0.00015851,0.00000582,0.00006670,0.0
 0001017,0.00069123,-0.00044620,0.00058507,0.00016767,-0.00003028,0.000
 45718,0.00089264,0.00043854,-0.01217419,0.00219509,0.00074433,0.000643
 85,0.00503612,0.00537113,-0.29918625,-0.00636227,-0.00822696,0.3270499
 8,0.00092496,-0.00184557,-0.00069313,-0.00048310,0.00087524,0.00030734
 ,-0.00008517,0.00010171,-0.00006571,0.00044778,0.00020173,0.00015873,-
 0.00635564,-0.02828993,-0.01133038,0.00103163,0.00056677,0.00019106,-0
 .05145937,-0.03186590,-0.01082494,-0.00025497,0.00081398,0.00018657,0.
 06339242,0.00156996,0.00053117,-0.00020033,-0.00042790,0.00099932,0.00
 000973,-0.00007312,0.00003338,0.00004259,0.00013146,0.00035250,0.00032
 323,-0.00209791,-0.01142677,-0.00443674,0.00014198,0.00017327,0.000469
 40,-0.03222676,-0.26639265,-0.07721443,0.00020716,0.00135438,-0.000236
 20,0.03334265,0.29265891,-0.00040842,-0.00007302,0.00017543,-0.0001848
 7,0.00000873,0.00024671,-0.00000207,-0.00018492,-0.00006218,-0.0001230
 9,0.00026973,-0.00013449,0.00266770,0.01081397,0.00307002,-0.00072323,
 0.00010460,0.00054244,-0.01122612,-0.07701221,-0.07903228,-0.00466303,
 -0.03180000,-0.01082049,0.01244977,0.08386468,0.08035186,-0.00393991,-
 0.00311286,0.00169379,0.00020474,0.00019158,0.00020708,-0.00007860,-0.
 00004295,-0.00015254,-0.00076649,0.00125066,-0.00052439,-0.02520422,0.
 01652360,-0.00956285,0.00177683,0.00057580,-0.00094851,-0.12739986,0.0
 3941254,-0.02618110,-0.00139481,0.00141681,-0.00073802,0.00060820,-0.0
 0040434,0.00068553,0.46126428,-0.00271773,-0.00149396,0.00103740,-0.00
 011159,0.00036349,0.00020722,0.00007349,-0.00009927,-0.00005088,-0.001
 09780,0.00104960,0.00004396,-0.00490812,0.00907463,-0.00656173,-0.0002
 6063,0.00006617,0.00005868,0.04027925,-0.11762198,0.01980933,0.0007413
 6,-0.00123248,0.00012317,0.02545685,-0.02015167,0.01203424,0.01787967,
 0.54998621,0.00216577,0.00096867,-0.00125396,-0.00017261,0.00026330,0.
 00002312,0.00006449,-0.00000786,0.00041292,0.00097889,-0.00029869,0.00
 059406,0.00547632,-0.00650770,0.00319734,0.00134653,-0.00060680,0.0003
 6342,-0.03073669,0.01899326,-0.08867877,-0.02622170,0.02013715,-0.0101
 5904,0.00883013,-0.00675842,0.00378217,-0.01031577,0.02962202,0.488912
 82,0.00015021,0.00021733,-0.00005898,0.00000340,-0.00001298,-0.0000130
 7,0.00004184,-0.00007666,0.00023355,0.00003231,-0.00007518,0.00011291,
 0.00151757,-0.00021207,-0.00175000,-0.00018851,-0.00003876,0.00078752,
 -0.00062179,0.00340169,-0.02699622,-0.00402675,0.00337406,-0.00167399,
 0.00082358,-0.00042476,0.00078528,-0.04182954,-0.00132587,0.02407580,0
 .05425784,-0.00013781,-0.00013254,-0.00003863,0.00001492,-0.00006100,0
 .00002542,-0.00009694,0.00003431,-0.00012475,-0.00001375,0.00002892,-0
 .00008360,-0.00108987,0.00063776,0.00002554,0.00027434,0.00024106,-0.0
 0051062,0.00140400,-0.00215229,0.02079430,0.00302684,-0.00160249,0.001
 49055,-0.00087988,0.00051747,-0.00001935,-0.00037291,-0.04757637,0.019
 45310,0.00104645,0.05018536,-0.00011795,-0.00001920,0.00052233,0.00002
 004,-0.00000211,-0.00004685,0.00027071,-0.00014253,0.00010262,-0.00009
 544,0.00002113,0.00003726,0.00139430,-0.00021665,-0.00001797,-0.000987
 36,-0.00015308,0.00082651,-0.00076855,0.00123419,-0.01395018,-0.001794
 04,0.00219242,0.00035603,0.00016617,0.00034561,0.00077345,0.00926030,0
 .01365090,-0.26905924,-0.01964573,-0.02173953,0.30078309,-0.00007588,-
 0.00009733,-0.00009996,0.00013050,-0.00024802,-0.00003996,0.00003644,0
 .00001157,-0.00000669,-0.00011053,-0.00011150,-0.00002015,0.00111469,0
 .00039159,0.00044666,-0.00013142,-0.00001273,0.00002440,0.00223057,0.0
 2407184,0.01060487,0.00106439,-0.00102949,0.00007224,-0.00409811,0.003
 10999,-0.00185894,-0.05068444,-0.01501997,-0.00914960,0.00091504,0.002
 63505,0.00069125,0.05825836,0.00022085,0.00011987,-0.00004095,-0.00007
 287,0.00022954,0.00005179,-0.00002120,-0.00002845,0.00001434,0.0001835
 0,0.00002099,0.00002048,-0.00074832,-0.00055440,0.00012051,0.00006507,
 0.00005984,0.00003744,-0.00064073,-0.01710580,-0.00679696,-0.00042294,
 0.00070753,0.00045646,0.00306592,-0.00103517,0.00177962,-0.01299402,-0
 .26433965,-0.08752241,0.00038879,0.00185479,-0.00041720,0.01854362,0.2
 9123628,0.00014405,0.00010881,0.00005231,0.00002615,0.00000366,-0.0000
 3383,0.00000330,0.00000509,0.00000063,0.00001559,-0.00009148,-0.000015
 43,0.00025547,-0.00064638,-0.00001098,-0.00003030,-0.00006924,0.000073
 04,0.00167866,0.01183019,0.00427724,0.00081214,0.00013450,0.00067549,-
 0.00205495,0.00216093,0.00025217,-0.00847347,-0.08788719,-0.08182656,-
 0.00207842,-0.03155250,-0.01456580,0.00654585,0.09428590,0.08789403,-0
 .00058531,-0.00058027,0.00036796,0.00000624,0.00001248,0.00002068,-0.0
 0003022,0.00001105,-0.00006257,-0.00026567,0.00022599,-0.00009213,-0.0
 0205448,0.00247124,-0.00169750,0.00007262,0.00005484,0.00001071,-0.032
 82373,-0.00519611,0.00679404,0.00179199,-0.00121727,0.00094803,0.00159
 137,-0.00172380,0.00035860,-0.19930649,-0.04990142,0.03617107,-0.01006
 427,-0.00545299,0.01087680,-0.00309869,-0.00341614,0.00230160,0.548956
 77,0.00128664,0.00098496,-0.00047500,-0.00007337,-0.00000245,-0.000068
 17,-0.00002466,0.00000615,0.00008878,0.00053036,-0.00037374,0.00010980
 ,0.00281852,-0.00370886,0.00244675,-0.00020167,-0.00011091,-0.00001763
 ,0.01565999,0.01026315,-0.00663923,0.00033226,0.00012801,0.00017527,0.
 00160502,0.00064012,-0.00048316,-0.05031729,-0.11120064,0.01398213,-0.
 00581953,-0.00163486,0.00482215,-0.03009092,-0.01320491,0.01064740,-0.
 03796928,0.61709739,-0.00040732,-0.00019271,0.00043635,0.00001299,0.00
 004496,-0.00001091,0.00011474,-0.00006643,0.00002324,-0.00015305,0.000
 12721,-0.00003335,-0.00043257,0.00103683,-0.00045722,-0.00041208,-0.00
 004360,0.00046474,-0.00542212,-0.00479519,0.00205940,-0.00022163,-0.00
 026967,0.00085011,0.00005491,0.00043158,0.00017182,0.03998863,0.015667
 95,-0.05288382,0.02727286,0.01271216,-0.00469858,-0.00764309,-0.001975
 38,0.00277102,-0.08868279,-0.02059668,0.07344351,-0.00043662,-0.000422
 59,0.00023131,0.00003381,0.00001755,0.00001341,0.00000210,0.00001300,-
 0.00004731,-0.00022401,0.00014187,-0.00004848,-0.00044293,0.00137839,-
 0.00102540,0.00008995,-0.00000494,0.00002207,-0.00321505,-0.00360324,0
 .00291649,0.00005519,-0.00001501,-0.00019777,0.00021365,0.00008834,0.0
 0014514,-0.01302305,0.01641129,-0.00146519,-0.00067912,-0.00001585,0.0
 0048980,0.00117041,-0.00005160,-0.00047442,-0.24385318,0.13907816,0.02
 656694,0.25401838,-0.00022246,-0.00015567,0.00005895,0.00000199,0.0000
 0798,0.00001808,-0.00000526,-0.00000047,-0.00001272,-0.00008593,0.0000
 6377,-0.00001989,-0.00065140,0.00075382,-0.00016070,0.00006897,0.00000
 945,-0.00004506,-0.00148148,-0.00126487,0.00098610,0.00000924,-0.00005
 527,-0.00007453,-0.00025686,0.00048278,0.00018375,-0.01172784,0.009838
 70,0.00048424,-0.00020145,-0.00009022,0.00052630,0.00072380,0.00117752
 ,-0.00036739,0.13899512,-0.15908333,-0.01133271,-0.14832540,0.15945355
 ,0.00015878,0.00012838,-0.00009476,-0.00001120,-0.00000819,0.00000014,
 -0.00001967,0.00000686,-0.00000158,0.00003794,-0.00004438,0.00001332,-
 0.00010771,-0.00042059,0.00047544,0.00003449,-0.00000572,-0.00003944,-
 0.00037507,0.00185745,-0.00049846,0.00006490,0.00000509,0.00009046,-0.
 00003673,0.00000961,-0.00011285,0.00582168,-0.00729304,0.00293482,-0.0
 0098460,0.00060805,-0.00056434,-0.00037047,0.00096400,0.00015107,0.022
 91375,-0.00757456,-0.01146814,-0.02665968,0.01157975,0.00642542,-0.000
 02242,0.00001297,-0.00002782,-0.00002971,0.00004963,0.00001577,-0.0000
 1810,0.00000433,-0.00000533,0.00001476,0.00001093,0.00000205,0.0000862
 6,0.00016745,0.00010951,0.00007571,-0.00000688,-0.00007767,0.00239046,
 -0.00204254,-0.00023592,-0.00017383,0.00013011,-0.00025308,-0.00024184
 ,0.00092919,0.00032339,0.00040961,-0.02445614,-0.00162967,-0.00040684,
 -0.00046111,0.00051861,-0.00436731,-0.00247188,0.00169734,-0.06049292,
 -0.03638318,0.00942115,0.00636603,0.02301945,-0.00047172,0.05646202,-0
 .00007194,-0.00006263,0.00004747,-0.00000409,0.00002453,0.00000750,-0.
 00000292,-0.00000282,-0.00000913,-0.00003550,0.00002130,-0.00000877,-0
 .00013545,0.00032918,-0.00004955,0.00005101,-0.00000250,-0.00001890,0.
 00142521,0.00063054,0.00031862,-0.00025211,0.00001463,-0.00015096,-0.0
 0079049,0.00068645,-0.00007993,0.00124152,-0.00705651,-0.00224667,-0.0
 0009527,-0.00018563,0.00004903,-0.00174517,0.00024646,0.00139677,-0.03
 629813,-0.33996620,0.00908845,-0.00474699,-0.01121410,0.00017823,0.041
 29804,0.35644392,-0.00004828,-0.00001961,0.00002962,0.00000549,-0.0000
 1577,0.00000779,-0.00000879,-0.00000578,-0.00001659,-0.00000021,0.0000
 1608,-0.00001039,0.00002970,0.00015335,-0.00022518,0.00003830,0.000031
 22,-0.00004935,0.00005000,-0.00059977,0.00040462,-0.00015198,-0.000090
 79,-0.00026008,0.00012972,-0.00034073,0.00009471,-0.00055012,0.0094014
 7,0.00330211,-0.00029329,-0.00095942,-0.00055423,0.00092450,-0.0008805
 8,0.00007417,0.00970871,0.00367620,-0.01070782,-0.00051071,-0.00180146
 ,0.00270129,-0.00933752,-0.00850944,0.00521576,0.00542177,0.02230907,0
 .00896074,-0.00359220,0.00470825,-0.00111905,0.00054112,-0.00052067,0.
 00030104,0.00049130,0.00102410,0.00039093,-0.08536992,-0.02225811,-0.0
 0903772,-0.00027159,-0.00103645,-0.00037099,-0.00911233,-0.03070881,-0
 .01128728,0.00146188,0.00070556,-0.00075836,-0.00581482,-0.00214419,0.
 00147075,0.00043341,-0.00069860,0.00018559,-0.00007139,-0.00000837,-0.
 00036461,-0.00102210,-0.00041449,0.00003646,0.00004895,-0.00019367,-0.
 00006101,-0.00005125,0.00013431,0.00002351,0.00005766,0.00020560,-0.00
 001225,0.57453912,-0.00076486,-0.03009680,-0.00852173,0.00231099,-0.00
 213943,0.00098744,-0.00126709,0.00146133,-0.00072066,-0.00152737,0.001
 38201,-0.00017807,-0.01928207,-0.16229784,-0.03476198,-0.00006858,-0.0
 0081296,-0.00042884,-0.00936347,-0.01238994,-0.00236020,0.00124489,0.0
 0057237,-0.00064421,-0.00041804,0.00093884,0.00006123,-0.00034999,0.00
 161303,0.00048336,-0.00011435,0.00010270,-0.00009092,0.00009139,-0.000
 73724,-0.00063672,0.00054366,-0.00074263,0.00003660,0.00013626,0.00008
 112,-0.00004062,-0.00020137,-0.00008239,0.00003069,-0.02721241,0.49511
 161,0.00277193,0.00687853,0.00404862,-0.00146261,0.00269186,0.00001188
 ,0.00000076,0.00143755,0.00060767,0.00022390,-0.00038843,-0.00007666,-
 0.00926318,-0.03602591,-0.09678070,-0.00814171,-0.03287961,-0.01291106
 ,0.00066369,0.00886893,0.00417005,0.00064114,0.00141627,0.00065757,0.0
 0292590,0.00186979,-0.00022213,0.00033220,-0.00004170,-0.00041782,0.00
 006060,-0.00004429,0.00013647,-0.00019414,0.00025055,0.00048576,-0.000
 01038,0.00010669,0.00011477,0.00010138,-0.00003996,0.00000424,0.000045
 56,0.00002430,-0.00000848,-0.01035795,-0.03764460,0.55555140,-0.000083
 03,-0.00102837,-0.00009768,0.00049743,-0.00028799,-0.00015885,-0.00012
 046,-0.00005771,-0.00003738,0.00043651,-0.00021700,-0.00018028,0.00628
 902,-0.00619213,0.00388174,0.00029475,0.00060832,0.00041359,0.00023481
 ,0.00036731,0.00051528,-0.00005743,-0.00007241,0.00002143,0.00016757,0
 .00016280,-0.00010640,-0.00104245,-0.00041915,-0.00002582,0.00002542,0
 .00010071,-0.00000250,-0.00152182,-0.00102081,-0.00015168,0.00003731,-
 0.00012705,0.00000725,0.00004872,0.00000559,-0.00001731,-0.00001807,-0
 .00001794,0.00001816,-0.16075102,0.11936839,-0.05299758,0.17425578,-0.
 00343844,-0.00506491,-0.00351874,0.00149193,-0.00150859,0.00047519,-0.
 00025222,0.00026350,0.00007903,-0.00001892,0.00031234,-0.00016037,0.02
 053764,-0.01893963,0.01084088,0.00002267,0.00131255,-0.00032448,0.0012
 1810,0.00051142,0.00039727,-0.00013512,-0.00005583,-0.00000945,-0.0000
 1492,0.00017026,-0.00014401,0.00021017,-0.00066096,-0.00041147,-0.0000
 9737,-0.00007498,-0.00008774,-0.00096191,0.00085574,0.00043130,-0.0003
 4998,0.00055412,0.00007296,0.00000326,-0.00001208,0.00002481,0.0002656
 6,0.00010228,-0.00005242,0.11838654,-0.17590100,0.05627895,-0.13054865
 ,0.19113572,-0.00091523,-0.00217016,-0.00064614,0.00034044,-0.00076645
 ,0.00061270,0.00012032,-0.00038655,0.00039030,-0.00031125,0.00012762,-
 0.00011481,0.01006781,-0.00890609,0.00348736,0.00056644,0.00057754,0.0
 0058893,-0.00017406,0.00074248,0.00009489,-0.00007085,0.00004538,0.000
 02194,0.00017572,0.00000099,-0.00006335,-0.00037699,0.00044069,0.00053
 323,-0.00002125,-0.00010381,-0.00025569,0.00010423,-0.00040756,0.00009
 133,0.00006134,-0.00015700,-0.00014437,0.00001458,0.00001258,0.0000107
 8,-0.00005242,-0.00004624,0.00000933,-0.05273223,0.05672875,-0.0749761
 7,0.05897317,-0.06056105,0.07628049,0.00000506,0.00022186,0.00085759,-
 0.00014369,0.00001049,-0.00011294,0.00030172,0.00013354,0.00003842,0.0
 0003367,-0.00003796,0.00013717,-0.00111941,-0.00001798,-0.00872332,0.0
 0027773,-0.00177460,-0.00071887,0.00066192,0.00050384,-0.00154773,0.00
 003651,-0.00015763,0.00043128,0.00006299,0.00011293,0.00024239,-0.0001
 7089,0.00000277,0.00003869,0.00012126,0.00004796,0.00018565,-0.0000132
 1,0.00009784,-0.00012320,-0.00000398,-0.00000368,0.00007314,-0.0000095
 0,-0.00000821,-0.00001367,-0.00000600,-0.00000868,-0.00000809,-0.05005
 142,0.00060330,0.00064866,0.00041399,-0.00058072,-0.02279616,0.0482583
 6,-0.00048205,0.00188895,-0.00105234,-0.00016030,0.00026499,0.00039716
 ,0.00021841,-0.00022500,0.00081282,0.00007461,-0.00011280,0.00005826,0
 .00007166,0.00003455,-0.03215583,-0.00158024,-0.00568078,-0.00253773,0
 .00110605,0.00159575,-0.00084954,-0.00027473,0.00001266,0.00085895,0.0
 0036046,0.00017984,0.00031080,-0.00004332,0.00001286,0.00005130,0.0001
 2174,-0.00012353,0.00005276,-0.00005128,0.00000982,0.00007404,-0.00005
 212,0.00006057,0.00001541,-0.00000611,-0.00000787,0.00000417,0.0000077
 2,0.00000782,-0.00000786,0.00049900,-0.04932423,0.00534739,-0.00180986
 ,-0.00006607,0.02337052,0.00108825,0.05245703,-0.00017406,0.00090880,0
 .00046909,0.00000209,-0.00011840,0.00042943,0.00050937,-0.00074430,0.0
 0054450,-0.00002777,-0.00002231,-0.00002513,-0.00036998,-0.00033440,-0
 .01383182,-0.00062614,-0.00286441,0.00060450,0.00076375,0.00081303,0.0
 0043783,-0.00080926,-0.00045962,0.00061991,-0.00001654,-0.00003950,0.0
 0042299,-0.00020601,-0.00016176,0.00004778,0.00014574,0.00003226,0.000
 16697,-0.00006321,0.00005392,-0.00019613,-0.00000856,0.00001287,0.0000
 5736,-0.00004959,-0.00000648,-0.00001670,-0.00001874,-0.00000737,-0.00
 001043,0.00071892,0.00540576,-0.30566277,0.00042891,0.00039173,-0.0090
 3312,-0.00003099,-0.00337654,0.33413356,0.00056306,0.00117465,0.000133
 92,0.00026434,0.00004791,-0.00023392,0.00001172,-0.00002383,-0.0000324
 9,0.00075902,-0.00032714,0.00005510,-0.00731639,-0.00138525,0.00233280
 ,0.00012092,0.00002272,-0.00049859,0.00106024,-0.00116603,-0.00159483,
 0.00011499,0.00014969,0.00005156,-0.00047113,-0.00027370,0.00016763,0.
 00014365,0.00007235,0.00038376,-0.00000026,-0.00002079,-0.00009745,0.0
 0020312,-0.00029058,-0.00013016,0.00007367,-0.00010667,-0.00007695,-0.
 00006353,0.00000781,0.00001277,-0.00008548,-0.00001670,0.00001664,-0.2
 6688718,-0.06372929,0.07401184,-0.01910704,-0.00573774,0.00702640,0.00
 134488,0.00091210,-0.00016792,0.28927139,-0.00161514,0.00126932,0.0007
 3232,0.00020358,0.00048776,-0.00019164,0.00010169,-0.00010850,0.000027
 65,0.00097829,-0.00038809,-0.00023997,-0.02814501,-0.00858023,0.011164
 63,0.00052028,0.00117971,-0.00011280,0.00048799,-0.00580474,-0.0033557
 5,0.00033948,0.00010711,-0.00002181,-0.00202875,-0.00071243,0.00036525
 ,0.00066317,-0.00057120,-0.00007852,-0.00005583,0.00003153,-0.00002553
 ,-0.00021054,0.00048725,0.00017233,-0.00015689,0.00029407,0.00003827,-
 0.00007640,0.00001519,0.00002069,0.00012763,0.00006565,-0.00002538,-0.
 06277665,-0.06673856,0.02189368,0.02118594,0.00706613,-0.00854165,-0.0
 0023334,-0.00098456,0.00051671,0.07069049,0.07288459,0.00001811,0.0005
 0291,0.00013140,-0.00023044,0.00012047,-0.00014329,0.00017788,0.000025
 22,-0.00004502,0.00005293,0.00013905,0.00024349,-0.01269873,-0.0036555
 8,0.00356265,-0.00020141,0.00074798,0.00050488,0.00001418,-0.00207497,
 -0.00078099,-0.00025887,-0.00027494,0.00042379,-0.00055362,-0.00030181
 ,0.00056399,0.00004057,-0.00010072,0.00017543,0.00004132,0.00003514,0.
 00000815,0.00003219,0.00000603,-0.00014953,0.00002064,-0.00005662,0.00
 001190,-0.00002257,0.00001117,-0.00001073,-0.00002348,0.00001656,0.000
 00316,0.07401350,0.02229473,-0.07473265,-0.01048406,-0.00372241,0.0031
 1237,0.03142199,0.00862628,-0.00915783,-0.08136011,-0.02233849,0.07627
 883\\0.00000017,0.00000061,0.00000008,0.00000101,0.00000084,-0.0000004
 9,0.00000011,0.00000010,0.00000010,0.00000040,0.00000127,0.00000064,0.
 00000082,0.00000080,0.00000017,0.00000036,0.00000110,0.00000027,-0.000
 00090,0.00000023,-0.00000037,-0.00000003,-0.00000093,-0.00000049,0.000
 00065,-0.00000022,-0.00000110,0.00000022,-0.00000086,-0.00000100,0.000
 00050,0.00000009,0.00000024,-0.00000055,-0.00000038,0.00000039,-0.0000
 0043,-0.00000164,-0.00000111,0.00000012,-0.00000123,-0.00000107,0.0000
 0075,-0.00000114,-0.00000176,-0.00000074,0.00000031,0.00000104,-0.0000
 0080,0.00000035,0.00000146,-0.00000098,-0.00000021,0.00000127,-0.00000
 067,0.00000093,0.00000171\\\@


 IT'S WHAT YOU LEARN AFTER YOU KNOW IT ALL
 THAT COUNTS.
 Job cpu time:       0 days  0 hours 27 minutes 10.5 seconds.
 File lengths (MBytes):  RWF=     64 Int=      0 D2E=      0 Chk=      3 Scr=      1
 Normal termination of Gaussian 09 at Sat Nov  7 02:16:54 2015.
