using PM6 to do opt and freq calc.                                      
FOpt      RPM6                                                        ZDO                 
Number of atoms                            I               20
Info1-9                                    I   N=           9
          33          29           0           0           0         110
           2           8         302
Charge                                     I                0
Multiplicity                               I                1
Number of electrons                        I               38
Number of alpha electrons                  I               19
Number of beta electrons                   I               19
Number of basis functions                  I               38
Number of independent functions            I               38
Number of point charges in /Mol/           I                0
Number of translation vectors              I                0
Atomic numbers                             I   N=          20
           6           1           1           1           6           1
           6           1           6           1           1           1
           6           1           1           1           6           1
           1           1
Nuclear charges                            R   N=          20
  4.00000000E+00  1.00000000E+00  1.00000000E+00  1.00000000E+00  4.00000000E+00
  1.00000000E+00  4.00000000E+00  1.00000000E+00  4.00000000E+00  1.00000000E+00
  1.00000000E+00  1.00000000E+00  4.00000000E+00  1.00000000E+00  1.00000000E+00
  1.00000000E+00  4.00000000E+00  1.00000000E+00  1.00000000E+00  1.00000000E+00
Current cartesian coordinates              R   N=          60
 -1.81778956E+00  2.21858291E+00  1.65068291E+00 -3.00045236E-01  3.58861734E+00
  1.97132294E+00 -1.95325767E+00  1.03415224E+00  3.34250224E+00 -3.59112907E+00
  3.27225385E+00  1.49113496E+00 -1.32370804E+00  6.38159562E-01 -7.26112976E-01
 -1.38629955E+00  1.94221192E+00 -2.39277524E+00  1.32370719E+00 -6.38159348E-01
 -7.26113112E-01  1.38629819E+00 -1.94221208E+00 -2.39277498E+00  3.41515423E+00
  1.34151936E+00 -1.07677214E+00  3.45776044E+00  2.69154852E+00  4.92121303E-01
  5.27961195E+00  4.48637178E-01 -1.16997488E+00  3.15479252E+00  2.42230075E+00
 -2.82112297E+00 -3.41515414E+00 -1.34152022E+00 -1.07677162E+00 -3.15481620E+00
 -2.42226996E+00 -2.82114552E+00 -3.45773033E+00 -2.69157593E+00  4.92099961E-01
 -5.27961694E+00 -4.48643923E-01 -1.16992905E+00  1.81779003E+00 -2.21858214E+00
  1.65068341E+00  1.95326799E+00 -1.03415048E+00  3.34250125E+00  3.00040911E-01
 -3.58860998E+00  1.97133046E+00  3.59112482E+00 -3.27226018E+00  1.49113065E+00
Force Field                                I                0
Int Atom Types                             I   N=          20
           0           0           0           0           0           0
           0           0           0           0           0           0
           0           0           0           0           0           0
           0           0
MM charges                                 R   N=          20
  0.00000000E+00  0.00000000E+00  0.00000000E+00  0.00000000E+00  0.00000000E+00
  0.00000000E+00  0.00000000E+00  0.00000000E+00  0.00000000E+00  0.00000000E+00
  0.00000000E+00  0.00000000E+00  0.00000000E+00  0.00000000E+00  0.00000000E+00
  0.00000000E+00  0.00000000E+00  0.00000000E+00  0.00000000E+00  0.00000000E+00
Integer atomic weights                     I   N=          20
          12           1           1           1          12           1
          12           1          12           1           1           1
          12           1           1           1          12           1
           1           1
Real atomic weights                        R   N=          20
  1.20000000E+01  1.00782504E+00  1.00782504E+00  1.00782504E+00  1.20000000E+01
  1.00782504E+00  1.20000000E+01  1.00782504E+00  1.20000000E+01  1.00782504E+00
  1.00782504E+00  1.00782504E+00  1.20000000E+01  1.00782504E+00  1.00782504E+00
  1.00782504E+00  1.20000000E+01  1.00782504E+00  1.00782504E+00  1.00782504E+00
Atom fragment info                         I   N=          20
           0           0           0           0           0           0
           0           0           0           0           0           0
           0           0           0           0           0           0
           0           0
Atom residue num                           I   N=          20
           0           0           0           0           0           0
           0           0           0           0           0           0
           0           0           0           0           0           0
           0           0
Nuclear spins                              I   N=          20
           0           1           1           1           0           1
           0           1           0           1           1           1
           0           1           1           1           0           1
           1           1
Nuclear ZEff                               R   N=          20
 -3.90000000E+00 -1.00000000E+00 -1.00000000E+00 -1.00000000E+00 -3.90000000E+00
 -1.00000000E+00 -3.90000000E+00 -1.00000000E+00 -3.90000000E+00 -1.00000000E+00
 -1.00000000E+00 -1.00000000E+00 -3.90000000E+00 -1.00000000E+00 -1.00000000E+00
 -1.00000000E+00 -3.90000000E+00 -1.00000000E+00 -1.00000000E+00 -1.00000000E+00
Nuclear QMom                               R   N=          20
  0.00000000E+00  0.00000000E+00  0.00000000E+00  0.00000000E+00  0.00000000E+00
  0.00000000E+00  0.00000000E+00  0.00000000E+00  0.00000000E+00  0.00000000E+00
  0.00000000E+00  0.00000000E+00  0.00000000E+00  0.00000000E+00  0.00000000E+00
  0.00000000E+00  0.00000000E+00  0.00000000E+00  0.00000000E+00  0.00000000E+00
Nuclear GFac                               R   N=          20
  0.00000000E+00  2.79284600E+00  2.79284600E+00  2.79284600E+00  0.00000000E+00
  2.79284600E+00  0.00000000E+00  2.79284600E+00  0.00000000E+00  2.79284600E+00
  2.79284600E+00  2.79284600E+00  0.00000000E+00  2.79284600E+00  2.79284600E+00
  2.79284600E+00  0.00000000E+00  2.79284600E+00  2.79284600E+00  2.79284600E+00
MicOpt                                     I   N=          20
          -1          -1          -1          -1          -1          -1
          -1          -1          -1          -1          -1          -1
          -1          -1          -1          -1          -1          -1
          -1          -1
Number of contracted shells                I               20
Number of primitive shells                 I              120
Pure/Cartesian d shells                    I                0
Pure/Cartesian f shells                    I                0
Highest angular momentum                   I                1
Largest degree of contraction              I                6
Shell types                                I   N=          20
          -1           0           0           0          -1           0
          -1           0          -1           0           0           0
          -1           0           0           0          -1           0
           0           0
Number of primitives per shell             I   N=          20
           6           6           6           6           6           6
           6           6           6           6           6           6
           6           6           6           6           6           6
           6           6
Shell to atom map                          I   N=          20
           1           2           3           4           5           6
           7           8           9          10          11          12
          13          14          15          16          17          18
          19          20
Primitive exponents                        R   N=         120
  1.14476344E+01  3.29633588E+00  1.29653143E+00  5.92558930E-01  2.94896438E-01
  1.51447622E-01  4.39461478E+00  1.26542531E+00  4.97723458E-01  2.27476537E-01
  1.13207340E-01  5.81389949E-02  4.39461478E+00  1.26542531E+00  4.97723458E-01
  2.27476537E-01  1.13207340E-01  5.81389949E-02  4.39461478E+00  1.26542531E+00
  4.97723458E-01  2.27476537E-01  1.13207340E-01  5.81389949E-02  1.14476344E+01
  3.29633588E+00  1.29653143E+00  5.92558930E-01  2.94896438E-01  1.51447622E-01
  4.39461478E+00  1.26542531E+00  4.97723458E-01  2.27476537E-01  1.13207340E-01
  5.81389949E-02  1.14476344E+01  3.29633588E+00  1.29653143E+00  5.92558930E-01
  2.94896438E-01  1.51447622E-01  4.39461478E+00  1.26542531E+00  4.97723458E-01
  2.27476537E-01  1.13207340E-01  5.81389949E-02  1.14476344E+01  3.29633588E+00
  1.29653143E+00  5.92558930E-01  2.94896438E-01  1.51447622E-01  4.39461478E+00
  1.26542531E+00  4.97723458E-01  2.27476537E-01  1.13207340E-01  5.81389949E-02
  4.39461478E+00  1.26542531E+00  4.97723458E-01  2.27476537E-01  1.13207340E-01
  5.81389949E-02  4.39461478E+00  1.26542531E+00  4.97723458E-01  2.27476537E-01
  1.13207340E-01  5.81389949E-02  1.14476344E+01  3.29633588E+00  1.29653143E+00
  5.92558930E-01  2.94896438E-01  1.51447622E-01  4.39461478E+00  1.26542531E+00
  4.97723458E-01  2.27476537E-01  1.13207340E-01  5.81389949E-02  4.39461478E+00
  1.26542531E+00  4.97723458E-01  2.27476537E-01  1.13207340E-01  5.81389949E-02
  4.39461478E+00  1.26542531E+00  4.97723458E-01  2.27476537E-01  1.13207340E-01
  5.81389949E-02  1.14476344E+01  3.29633588E+00  1.29653143E+00  5.92558930E-01
  2.94896438E-01  1.51447622E-01  4.39461478E+00  1.26542531E+00  4.97723458E-01
  2.27476537E-01  1.13207340E-01  5.81389949E-02  4.39461478E+00  1.26542531E+00
  4.97723458E-01  2.27476537E-01  1.13207340E-01  5.81389949E-02  4.39461478E+00
  1.26542531E+00  4.97723458E-01  2.27476537E-01  1.13207340E-01  5.81389949E-02
Contraction coefficients                   R   N=         120
 -9.73739553E-03 -7.26587678E-02 -1.71615520E-01  1.28977624E-01  7.28861451E-01
  3.01331742E-01 -9.73739553E-03 -7.26587678E-02 -1.71615520E-01  1.28977624E-01
  7.28861451E-01  3.01331742E-01 -9.73739553E-03 -7.26587678E-02 -1.71615520E-01
  1.28977624E-01  7.28861451E-01  3.01331742E-01 -9.73739553E-03 -7.26587678E-02
 -1.71615520E-01  1.28977624E-01  7.28861451E-01  3.01331742E-01 -9.73739553E-03
 -7.26587678E-02 -1.71615520E-01  1.28977624E-01  7.28861451E-01  3.01331742E-01
 -9.73739553E-03 -7.26587678E-02 -1.71615520E-01  1.28977624E-01  7.28861451E-01
  3.01331742E-01 -9.73739553E-03 -7.26587678E-02 -1.71615520E-01  1.28977624E-01
  7.28861451E-01  3.01331742E-01 -9.73739553E-03 -7.26587678E-02 -1.71615520E-01
  1.28977624E-01  7.28861451E-01  3.01331742E-01 -9.73739553E-03 -7.26587678E-02
 -1.71615520E-01  1.28977624E-01  7.28861451E-01  3.01331742E-01 -9.73739553E-03
 -7.26587678E-02 -1.71615520E-01  1.28977624E-01  7.28861451E-01  3.01331742E-01
 -9.73739553E-03 -7.26587678E-02 -1.71615520E-01  1.28977624E-01  7.28861451E-01
  3.01331742E-01 -9.73739553E-03 -7.26587678E-02 -1.71615520E-01  1.28977624E-01
  7.28861451E-01  3.01331742E-01 -9.73739553E-03 -7.26587678E-02 -1.71615520E-01
  1.28977624E-01  7.28861451E-01  3.01331742E-01 -9.73739553E-03 -7.26587678E-02
 -1.71615520E-01  1.28977624E-01  7.28861451E-01  3.01331742E-01 -9.73739553E-03
 -7.26587678E-02 -1.71615520E-01  1.28977624E-01  7.28861451E-01  3.01331742E-01
 -9.73739553E-03 -7.26587678E-02 -1.71615520E-01  1.28977624E-01  7.28861451E-01
  3.01331742E-01 -9.73739553E-03 -7.26587678E-02 -1.71615520E-01  1.28977624E-01
  7.28861451E-01  3.01331742E-01 -9.73739553E-03 -7.26587678E-02 -1.71615520E-01
  1.28977624E-01  7.28861451E-01  3.01331742E-01 -9.73739553E-03 -7.26587678E-02
 -1.71615520E-01  1.28977624E-01  7.28861451E-01  3.01331742E-01 -9.73739553E-03
 -7.26587678E-02 -1.71615520E-01  1.28977624E-01  7.28861451E-01  3.01331742E-01
P(S=P) Contraction coefficients            R   N=         120
 -8.10494336E-03 -1.71547892E-02  7.36978576E-02  3.96514999E-01  4.97808488E-01
  1.17482582E-01  0.00000000E+00  0.00000000E+00  0.00000000E+00  0.00000000E+00
  0.00000000E+00  0.00000000E+00  0.00000000E+00  0.00000000E+00  0.00000000E+00
  0.00000000E+00  0.00000000E+00  0.00000000E+00  0.00000000E+00  0.00000000E+00
  0.00000000E+00  0.00000000E+00  0.00000000E+00  0.00000000E+00 -8.10494336E-03
 -1.71547892E-02  7.36978576E-02  3.96514999E-01  4.97808488E-01  1.17482582E-01
  0.00000000E+00  0.00000000E+00  0.00000000E+00  0.00000000E+00  0.00000000E+00
  0.00000000E+00 -8.10494336E-03 -1.71547892E-02  7.36978576E-02  3.96514999E-01
  4.97808488E-01  1.17482582E-01  0.00000000E+00  0.00000000E+00  0.00000000E+00
  0.00000000E+00  0.00000000E+00  0.00000000E+00 -8.10494336E-03 -1.71547892E-02
  7.36978576E-02  3.96514999E-01  4.97808488E-01  1.17482582E-01  0.00000000E+00
  0.00000000E+00  0.00000000E+00  0.00000000E+00  0.00000000E+00  0.00000000E+00
  0.00000000E+00  0.00000000E+00  0.00000000E+00  0.00000000E+00  0.00000000E+00
  0.00000000E+00  0.00000000E+00  0.00000000E+00  0.00000000E+00  0.00000000E+00
  0.00000000E+00  0.00000000E+00 -8.10494336E-03 -1.71547892E-02  7.36978576E-02
  3.96514999E-01  4.97808488E-01  1.17482582E-01  0.00000000E+00  0.00000000E+00
  0.00000000E+00  0.00000000E+00  0.00000000E+00  0.00000000E+00  0.00000000E+00
  0.00000000E+00  0.00000000E+00  0.00000000E+00  0.00000000E+00  0.00000000E+00
  0.00000000E+00  0.00000000E+00  0.00000000E+00  0.00000000E+00  0.00000000E+00
  0.00000000E+00 -8.10494336E-03 -1.71547892E-02  7.36978576E-02  3.96514999E-01
  4.97808488E-01  1.17482582E-01  0.00000000E+00  0.00000000E+00  0.00000000E+00
  0.00000000E+00  0.00000000E+00  0.00000000E+00  0.00000000E+00  0.00000000E+00
  0.00000000E+00  0.00000000E+00  0.00000000E+00  0.00000000E+00  0.00000000E+00
  0.00000000E+00  0.00000000E+00  0.00000000E+00  0.00000000E+00  0.00000000E+00
Coordinates of each shell                  R   N=          60
 -1.81778956E+00  2.21858291E+00  1.65068291E+00 -3.00045236E-01  3.58861734E+00
  1.97132294E+00 -1.95325767E+00  1.03415224E+00  3.34250224E+00 -3.59112907E+00
  3.27225385E+00  1.49113496E+00 -1.32370804E+00  6.38159562E-01 -7.26112976E-01
 -1.38629955E+00  1.94221192E+00 -2.39277524E+00  1.32370719E+00 -6.38159348E-01
 -7.26113112E-01  1.38629819E+00 -1.94221208E+00 -2.39277498E+00  3.41515423E+00
  1.34151936E+00 -1.07677214E+00  3.45776044E+00  2.69154852E+00  4.92121303E-01
  5.27961195E+00  4.48637178E-01 -1.16997488E+00  3.15479252E+00  2.42230075E+00
 -2.82112297E+00 -3.41515414E+00 -1.34152022E+00 -1.07677162E+00 -3.15481620E+00
 -2.42226996E+00 -2.82114552E+00 -3.45773033E+00 -2.69157593E+00  4.92099961E-01
 -5.27961694E+00 -4.48643923E-01 -1.16992905E+00  1.81779003E+00 -2.21858214E+00
  1.65068341E+00  1.95326799E+00 -1.03415048E+00  3.34250125E+00  3.00040911E-01
 -3.58860998E+00  1.97133046E+00  3.59112482E+00 -3.27226018E+00  1.49113065E+00
Constraint Structure                       R   N=          60
 -1.97376210E+00  2.26084982E+00  1.57949902E+00 -6.01923352E-01  3.84667295E+00
  1.72463872E+00 -1.93929214E+00  1.16020387E+00  3.37187875E+00 -3.89186327E+00
  3.10026180E+00  1.35824534E+00 -1.36059265E+00  5.63683995E-01 -7.00147613E-01
 -1.51921220E+00  1.78403919E+00 -2.41342919E+00  1.36064609E+00 -5.63698036E-01
 -7.00259033E-01  1.51911740E+00 -1.78396219E+00 -2.41339708E+00  3.41245083E+00
  1.47184795E+00 -1.00638860E+00  3.55694573E+00  2.67081324E+00  7.16247930E-01
  5.28487078E+00  5.67279181E-01 -1.33613561E+00  2.98904709E+00  2.70420442E+00
 -2.65942166E+00 -3.41259097E+00 -1.47192767E+00 -1.00633491E+00 -2.98912185E+00
 -2.70438219E+00 -2.65931259E+00 -3.55695120E+00 -2.67080659E+00  7.16257466E-01
 -5.28500184E+00 -5.67107767E-01 -1.33595025E+00  1.97386413E+00 -2.26081165E+00
  1.57954150E+00  1.93946111E+00 -1.16006903E+00  3.37193502E+00  6.01928430E-01
 -3.84652694E+00  1.72479372E+00  3.89190335E+00 -3.10028639E+00  1.35818724E+00
Num ILSW                                   I              100
ILSW                                       I   N=         100
           0           0           0           0           2           0
           0           0           0           0           0          -1
           0           0           0           0           0           0
           0           0           0           0           1           0
           1           0           0           0           0           0
           0           0      100000           0          -1           0
           0           0           0           0           0           0
           0           0           0          40           0           0
           0           0           1           0           0           0
           0           0           4          40           0           0
           0           0           0           0           0           0
           0           0           0           0           0           0
           0           0           0           0           0           0
           0           0           0           0           0           0
           0           0           0           0           0           0
           0           0           0           0           0           0
           0           0           0           0
Num RLSW                                   I               40
RLSW                                       R   N=          40
  1.00000000E+00  1.00000000E+00  1.00000000E+00  1.00000000E+00  1.00000000E+00
  0.00000000E+00  0.00000000E+00  1.00000000E+00  0.00000000E+00  0.00000000E+00
  0.00000000E+00  0.00000000E+00  1.00000000E+00  0.00000000E+00  0.00000000E+00
  0.00000000E+00  0.00000000E+00  1.00000000E+00  0.00000000E+00  0.00000000E+00
  0.00000000E+00  0.00000000E+00  1.00000000E+00  0.00000000E+00  0.00000000E+00
  0.00000000E+00  0.00000000E+00  1.00000000E+00  0.00000000E+00  0.00000000E+00
  0.00000000E+00  0.00000000E+00  0.00000000E+00  0.00000000E+00  0.00000000E+00
  0.00000000E+00  0.00000000E+00  0.00000000E+00  1.00000000E+00  1.00000000E+00
MxBond                                     I                4
NBond                                      I   N=          20
           4           1           1           1           4           1
           4           1           4           1           1           1
           4           1           1           1           4           1
           1           1
IBond                                      I   N=          80
           2           3           4           5           1           0
           0           0           1           0           0           0
           1           0           0           0           1           6
           7          13           5           0           0           0
           5           8           9          17           7           0
           0           0           7          10          11          12
           9           0           0           0           9           0
           0           0           9           0           0           0
           5          14          15          16          13           0
           0           0          13           0           0           0
          13           0           0           0           7          18
          19          20          17           0           0           0
          17           0           0           0          17           0
           0           0
RBond                                      R   N=          80
  1.00000000E+00  1.00000000E+00  1.00000000E+00  1.00000000E+00  1.00000000E+00
  0.00000000E+00  0.00000000E+00  0.00000000E+00  1.00000000E+00  0.00000000E+00
  0.00000000E+00  0.00000000E+00  1.00000000E+00  0.00000000E+00  0.00000000E+00
  0.00000000E+00  1.00000000E+00  1.00000000E+00  1.00000000E+00  1.00000000E+00
  1.00000000E+00  0.00000000E+00  0.00000000E+00  0.00000000E+00  1.00000000E+00
  1.00000000E+00  1.00000000E+00  1.00000000E+00  1.00000000E+00  0.00000000E+00
  0.00000000E+00  0.00000000E+00  1.00000000E+00  1.00000000E+00  1.00000000E+00
  1.00000000E+00  1.00000000E+00  0.00000000E+00  0.00000000E+00  0.00000000E+00
  1.00000000E+00  0.00000000E+00  0.00000000E+00  0.00000000E+00  1.00000000E+00
  0.00000000E+00  0.00000000E+00  0.00000000E+00  1.00000000E+00  1.00000000E+00
  1.00000000E+00  1.00000000E+00  1.00000000E+00  0.00000000E+00  0.00000000E+00
  0.00000000E+00  1.00000000E+00  0.00000000E+00  0.00000000E+00  0.00000000E+00
  1.00000000E+00  0.00000000E+00  0.00000000E+00  0.00000000E+00  1.00000000E+00
  1.00000000E+00  1.00000000E+00  1.00000000E+00  1.00000000E+00  0.00000000E+00
  0.00000000E+00  0.00000000E+00  1.00000000E+00  0.00000000E+00  0.00000000E+00
  0.00000000E+00  1.00000000E+00  0.00000000E+00  0.00000000E+00  0.00000000E+00
Virial Ratio                               R      9.989780409376941E-01
SCF Energy                                 R     -5.760668375296518E-02
Total Energy                               R     -5.760668375296518E-02
RMS Force                                  R      2.194602602259685E-06
RMS Density                                R      6.364770564959272E-09
External E-field                           R   N=          35
  0.00000000E+00  0.00000000E+00  0.00000000E+00  0.00000000E+00  0.00000000E+00
  0.00000000E+00  0.00000000E+00  0.00000000E+00  0.00000000E+00  0.00000000E+00
  0.00000000E+00  0.00000000E+00  0.00000000E+00  0.00000000E+00  0.00000000E+00
  0.00000000E+00  0.00000000E+00  0.00000000E+00  0.00000000E+00  0.00000000E+00
  0.00000000E+00  0.00000000E+00  0.00000000E+00  0.00000000E+00  0.00000000E+00
  0.00000000E+00  0.00000000E+00  0.00000000E+00  0.00000000E+00  0.00000000E+00
  0.00000000E+00  0.00000000E+00  0.00000000E+00  0.00000000E+00  0.00000000E+00
IOpCl                                      I                0
IROHF                                      I                0
Alpha Orbital Energies                     R   N=          38
 -1.06873149E+00 -9.63157110E-01 -8.91203142E-01 -8.74904887E-01 -7.78396904E-01
 -6.72306794E-01 -5.87169852E-01 -5.56024915E-01 -5.50428122E-01 -5.08002467E-01
 -4.99857742E-01 -4.84386277E-01 -4.73368671E-01 -4.71245392E-01 -4.43359697E-01
 -4.41551058E-01 -4.11720664E-01 -4.06722191E-01 -3.97108034E-01  1.54903521E-01
  1.61314326E-01  1.63366732E-01  1.81770766E-01  1.84103024E-01  2.16856793E-01
  2.18718206E-01  2.23033329E-01  2.23529229E-01  2.24494341E-01  2.26179288E-01
  2.27006705E-01  2.30770797E-01  2.35891003E-01  2.39380916E-01  2.54085440E-01
  2.58561251E-01  2.65245854E-01  2.65506744E-01
Alpha MO coefficients                      R   N=        1444
  2.90187614E-01  2.93028292E-02 -6.16386236E-02 -7.02219179E-02  1.27662281E-01
  1.29757998E-01  1.12787905E-01  4.41112280E-01  4.08661869E-02 -3.73811366E-02
  3.37080110E-02  1.79184642E-01  4.41112205E-01 -4.08662155E-02  3.73810928E-02
  3.37080308E-02  1.79184611E-01  2.79957303E-01 -7.79499153E-02 -5.47752175E-02
  2.02176287E-02  1.26188989E-01  1.09844588E-01  1.16637997E-01  2.79957469E-01
  7.79499301E-02  5.47752323E-02  2.02176459E-02  1.16637822E-01  1.26189292E-01
  1.09844753E-01  2.90187651E-01 -2.93029244E-02  6.16385502E-02 -7.02218690E-02
  1.29757969E-01  1.27662459E-01  1.12787889E-01 -2.99665608E-01  4.06227531E-02
  3.44911417E-02  5.34654274E-02 -9.95850186E-02 -1.24669885E-01 -1.51401726E-01
 -2.83506578E-01  1.78420013E-01 -1.16693128E-02 -3.40522857E-02 -1.16578056E-01
  2.83506599E-01  1.78420182E-01 -1.16692200E-02  3.40521509E-02  1.16578108E-01
  3.79359507E-01 -1.49620184E-02 -6.12154408E-02  1.61409545E-02  1.56926540E-01
  1.82819462E-01  1.51096392E-01 -3.79359055E-01 -1.49619756E-02 -6.12155128E-02
 -1.61408737E-02 -1.51096596E-01 -1.56925656E-01 -1.82819445E-01  2.99665396E-01
  4.06227787E-02  3.44912272E-02 -5.34654372E-02  1.24670038E-01  9.95847006E-02
  1.51401549E-01  3.88178787E-01  2.09643715E-02  5.14850766E-02 -5.30190957E-04
  2.10536901E-01  1.51926676E-01  1.80894228E-01  5.69705369E-02  5.66256278E-02
  1.97237774E-01  8.35523345E-02  5.90385954E-02 -5.69701336E-02  5.66255220E-02
  1.97237564E-01 -8.35522948E-02 -5.90383758E-02  3.29130944E-01  3.47959809E-03
  5.84049626E-02 -1.66466694E-02  1.70357860E-01  1.36767017E-01  1.74701250E-01
 -3.29131370E-01  3.47961614E-03  5.84052157E-02  1.66465502E-02 -1.74701006E-01
 -1.70359041E-01 -1.36766936E-01 -3.88178422E-01  2.09644407E-02  5.14851906E-02
  5.30037944E-04 -1.51926486E-01 -2.10536847E-01 -1.80894200E-01  3.90989309E-01
  7.15735541E-03  2.54250254E-02  5.87382806E-02  1.90366589E-01  2.02513991E-01
  1.78964321E-01 -6.05415722E-02  2.46161799E-02  1.17140355E-01  1.69601109E-01
 -6.48202567E-02 -6.05412097E-02 -2.46159904E-02 -1.17140447E-01  1.69601144E-01
 -6.48200056E-02 -3.29073694E-01 -8.35127595E-03 -2.00481752E-02  5.35830417E-02
 -1.26052029E-01 -1.49424711E-01 -1.81359216E-01 -3.29073743E-01  8.35123420E-03
  2.00479102E-02  5.35830491E-02 -1.81359423E-01 -1.26052201E-01 -1.49424081E-01
  3.90989878E-01 -7.15724472E-03 -2.54250288E-02  5.87382205E-02  2.02514101E-01
  1.90366817E-01  1.78964661E-01 -1.49521925E-01  6.80379012E-02 -5.77742663E-02
 -1.28663459E-01 -8.15292077E-02 -1.17794991E-01 -1.14904849E-01  3.39134198E-01
  2.12333452E-01 -1.12678827E-02 -1.02054138E-01  1.85756540E-01  3.39134461E-01
 -2.12333425E-01  1.12676288E-02 -1.02054069E-01  1.85756757E-01 -2.83980631E-01
 -1.79814948E-01 -9.88076439E-02 -2.15118365E-02 -1.82423885E-01 -1.99347876E-01
 -1.34272205E-01 -2.83980427E-01  1.79814925E-01  9.88075911E-02 -2.15118160E-02
 -1.34272404E-01 -1.82422794E-01 -1.99348534E-01 -1.49521537E-01 -6.80377418E-02
  5.77741387E-02 -1.28663543E-01 -1.17795042E-01 -8.15292183E-02 -1.14904345E-01
 -1.67018705E-01  3.46041580E-02 -9.10605945E-02 -2.59112410E-01 -1.18209023E-01
 -1.72417907E-01 -1.14336235E-01  3.46964155E-01 -1.08328058E-01  1.62244970E-01
 -1.09501507E-01  2.79779596E-01 -3.46964166E-01 -1.08328331E-01  1.62245082E-01
  1.09501484E-01 -2.79779596E-01  8.93579799E-02  9.85025449E-02  2.08183475E-01
  1.09884117E-02  1.28791023E-01  4.37734050E-02  1.01686976E-01 -8.93582554E-02
  9.85028396E-02  2.08182969E-01 -1.09884929E-02 -1.01685321E-01 -1.28791524E-01
 -4.37746469E-02  1.67018804E-01  3.46042863E-02 -9.10603484E-02  2.59112624E-01
  1.72418212E-01  1.18209114E-01  1.14336002E-01 -4.82589439E-02  2.27210186E-01
 -2.36027085E-01  8.09131441E-02  3.30259037E-03  1.07787157E-01 -2.37884047E-01
  2.21053733E-02  2.00571417E-01 -1.90341457E-01  2.70507047E-01 -2.20813751E-01
  2.21054297E-02 -2.00571649E-01  1.90340949E-01  2.70506732E-01 -2.20813335E-01
  2.49658013E-02 -7.76296159E-02  1.68555821E-01  1.95065229E-01  1.83256749E-01
 -9.25074975E-02 -3.79581310E-02  2.49655876E-02  7.76305806E-02 -1.68555862E-01
  1.95065490E-01 -3.79618273E-02  1.83257570E-01 -9.25052711E-02 -4.82594737E-02
 -2.27211112E-01  2.36026799E-01  8.09128824E-02  1.07785971E-01  3.30418106E-03
 -2.37885051E-01  1.91541746E-02 -1.97072059E-01 -2.43551873E-01  7.02545337E-02
 -2.00123694E-01  1.50269178E-01  3.22480706E-02  7.02440768E-02 -1.47208102E-01
 -2.30178711E-01  1.31353754E-01 -1.31908344E-01 -7.02444859E-02 -1.47208532E-01
 -2.30179521E-01 -1.31355047E-01  1.31909289E-01  5.50464449E-02  2.73565174E-01
  7.63334781E-02 -2.56646791E-01 -7.96931493E-02  1.79318616E-01  1.74820078E-01
 -5.50466027E-02  2.73565015E-01  7.63328474E-02  2.56646016E-01 -1.74823053E-01
  7.96934213E-02 -1.79315341E-01 -1.91540528E-02 -1.97072706E-01 -2.43554072E-01
 -7.02544401E-02 -1.50270739E-01  2.00124851E-01 -3.22466688E-02 -2.69977573E-02
 -1.73331385E-01 -2.38970341E-01 -1.88245354E-01 -2.29372313E-01 -2.08561424E-02
  1.80047885E-02  7.30590369E-02 -2.28997768E-01  3.61404112E-02  2.09756892E-01
 -7.08940756E-02  7.30584053E-02  2.28996836E-01 -3.61415182E-02  2.09756302E-01
 -7.08934020E-02  4.77346630E-03  1.01479473E-01 -2.77296456E-01  2.25711426E-01
 -1.39971532E-02  1.40868746E-01 -2.38760268E-01  4.77336176E-03 -1.01478710E-01
  2.77297532E-01  2.25712087E-01 -2.38758953E-01 -1.40027722E-02  1.40871619E-01
 -2.69975223E-02  1.73330436E-01  2.38969193E-01 -1.88245468E-01 -2.08557607E-02
 -2.29371515E-01  1.80041284E-02  1.28496238E-02  2.79749297E-02  9.28404852E-02
  1.34299594E-01  8.59291216E-02  3.84833952E-02  1.09741591E-02  4.96766610E-02
 -7.85665822E-02 -1.80089495E-01 -1.38959906E-01  1.46886439E-02 -4.96767614E-02
 -7.85653705E-02 -1.80086120E-01  1.38957433E-01 -1.46886854E-02 -8.05215984E-03
  3.68484274E-01 -6.66490079E-03  3.45267375E-01  1.87104271E-01  2.25205789E-01
 -2.48968866E-01  8.05231907E-03  3.68486087E-01 -6.66090538E-03 -3.45272627E-01
  2.48970448E-01 -1.87102565E-01 -2.25211503E-01 -1.28495730E-02  2.79776260E-02
  9.28461839E-02 -1.34291947E-01 -3.84759666E-02 -8.59327338E-02 -1.09751764E-02
 -4.84048882E-03 -1.59192430E-01 -2.61422560E-01  3.48808252E-01 -1.78314991E-01
  3.22698430E-01 -1.92178350E-02 -2.77383806E-03 -3.91054489E-02 -1.64413667E-01
 -1.12794370E-01 -7.26941932E-03 -2.77204862E-03  3.91062305E-02  1.64415954E-01
 -1.12797624E-01 -7.26801284E-03  6.61798425E-03 -1.04380107E-01 -1.35079607E-01
 -2.00010961E-01 -1.74767551E-01 -1.60019937E-02  8.36397118E-02  6.61774364E-03
  1.04370043E-01  1.35083880E-01 -2.00004684E-01  8.36356464E-02 -1.74765320E-01
 -1.59978188E-02 -4.84000425E-03  1.59189563E-01  2.61418753E-01  3.48809176E-01
  3.22697819E-01 -1.78310304E-01 -1.92196302E-02  3.91801340E-02  4.05552680E-01
 -1.18376439E-01 -4.65525271E-02  1.63097158E-01  1.91492086E-02 -2.83733768E-01
  8.74752875E-02  5.26437731E-02  7.31578464E-02  1.20145616E-01  2.20368352E-03
 -8.74754013E-02  5.26439838E-02  7.31575302E-02 -1.20144973E-01 -2.20406086E-03
 -2.40765269E-02  1.48111625E-01 -2.57085114E-01 -1.36797236E-01 -1.96397145E-01
  1.80400554E-01 -4.11756566E-02  2.40768557E-02  1.48106730E-01 -2.57078865E-01
  1.36791777E-01  4.11711676E-02  1.96394135E-01 -1.80392805E-01 -3.91800950E-02
  4.05546311E-01 -1.18372565E-01  4.65554797E-02 -1.91447647E-02 -1.63096095E-01