 Entering Gaussian System, Link 0=/share/apps/g09/g09
 Input=C6H14_4_02_1_opt_PM6.gjf
 Output=C6H14_4_02_1_opt_PM6.log
 Initial command:
 /share/apps/g09/l1.exe /state/partition1/Gau-19418.inp -scrdir=/state/partition1/
 Entering Link 1 = /share/apps/g09/l1.exe PID=     19425.
  
 Copyright (c) 1988,1990,1992,1993,1995,1998,2003,2009, Gaussian, Inc.
                  All Rights Reserved.
  
 This is part of the Gaussian(R) 09 program.  It is based on
 the Gaussian(R) 03 system (copyright 2003, Gaussian, Inc.),
 the Gaussian(R) 98 system (copyright 1998, Gaussian, Inc.),
 the Gaussian(R) 94 system (copyright 1995, Gaussian, Inc.),
 the Gaussian 92(TM) system (copyright 1992, Gaussian, Inc.),
 the Gaussian 90(TM) system (copyright 1990, Gaussian, Inc.),
 the Gaussian 88(TM) system (copyright 1988, Gaussian, Inc.),
 the Gaussian 86(TM) system (copyright 1986, Carnegie Mellon
 University), and the Gaussian 82(TM) system (copyright 1983,
 Carnegie Mellon University). Gaussian is a federally registered
 trademark of Gaussian, Inc.
  
 This software contains proprietary and confidential information,
 including trade secrets, belonging to Gaussian, Inc.
  
 This software is provided under written license and may be
 used, copied, transmitted, or stored only in accord with that
 written license.
  
 The following legend is applicable only to US Government
 contracts under FAR:
  
                    RESTRICTED RIGHTS LEGEND
  
 Use, reproduction and disclosure by the US Government is
 subject to restrictions as set forth in subparagraphs (a)
 and (c) of the Commercial Computer Software - Restricted
 Rights clause in FAR 52.227-19.
  
 Gaussian, Inc.
 340 Quinnipiac St., Bldg. 40, Wallingford CT 06492
  
  
 ---------------------------------------------------------------
 Warning -- This program may not be used in any manner that
 competes with the business of Gaussian, Inc. or will provide
 assistance to any competitor of Gaussian, Inc.  The licensee
 of this program is prohibited from giving any competitor of
 Gaussian, Inc. access to this program.  By using this program,
 the user acknowledges that Gaussian, Inc. is engaged in the
 business of creating and licensing software in the field of
 computational chemistry and represents and warrants to the
 licensee that it is not a competitor of Gaussian, Inc. and that
 it will not use this program in any manner prohibited above.
 ---------------------------------------------------------------
  

 Cite this work as:
 Gaussian 09, Revision A.01,
 M. J. Frisch, G. W. Trucks, H. B. Schlegel, G. E. Scuseria, 
 M. A. Robb, J. R. Cheeseman, G. Scalmani, V. Barone, B. Mennucci, 
 G. A. Petersson, H. Nakatsuji, M. Caricato, X. Li, H. P. Hratchian, 
 A. F. Izmaylov, J. Bloino, G. Zheng, J. L. Sonnenberg, M. Hada, 
 M. Ehara, K. Toyota, R. Fukuda, J. Hasegawa, M. Ishida, T. Nakajima, 
 Y. Honda, O. Kitao, H. Nakai, T. Vreven, J. A. Montgomery, Jr., 
 J. E. Peralta, F. Ogliaro, M. Bearpark, J. J. Heyd, E. Brothers, 
 K. N. Kudin, V. N. Staroverov, R. Kobayashi, J. Normand, 
 K. Raghavachari, A. Rendell, J. C. Burant, S. S. Iyengar, J. Tomasi, 
 M. Cossi, N. Rega, J. M. Millam, M. Klene, J. E. Knox, J. B. Cross, 
 V. Bakken, C. Adamo, J. Jaramillo, R. Gomperts, R. E. Stratmann, 
 O. Yazyev, A. J. Austin, R. Cammi, C. Pomelli, J. W. Ochterski, 
 R. L. Martin, K. Morokuma, V. G. Zakrzewski, G. A. Voth, 
 P. Salvador, J. J. Dannenberg, S. Dapprich, A. D. Daniels, 
 O. Farkas, J. B. Foresman, J. V. Ortiz, J. Cioslowski, 
 and D. J. Fox, Gaussian, Inc., Wallingford CT, 2009.
 
 ******************************************
 Gaussian 09:  EM64L-G09RevA.01  8-May-2009
                14-Sep-2015 
 ******************************************
 %mem=3GB
 %nprocshared=2
 Will use up to    2 processors via shared memory.
 %chk=C6H14_4_02_1_opt_PM6.chk
 ----------
 #p PM6 opt
 ----------
 1/14=-1,18=20,19=15,26=1,38=1/1,3;
 2/9=110,12=2,17=6,18=5,40=1/2;
 3/5=2,16=1,25=1,41=3900000,71=1/1,2,3;
 4/35=1/1;
 5/5=2,35=1,38=5/2;
 6/7=2,8=2,9=2,10=2,28=1/1;
 7//1,2,3,16;
 1/14=-1,18=20,19=15/3(2);
 2/9=110/2;
 99//99;
 2/9=110/2;
 3/5=2,16=1,25=1,41=3900000,71=1,135=20/1,2,3;
 4/5=5,16=3,35=1/1;
 5/5=2,35=1,38=5/2;
 7//1,2,3,16;
 1/14=-1,18=20,19=15/3(-5);
 2/9=110/2;
 6/7=2,8=2,9=2,10=2,19=2,28=1/1;
 99/9=1/99;
 Leave Link    1 at Mon Sep 14 19:12:19 2015, MaxMem=  402653184 cpu:       0.0
 (Enter /share/apps/g09/l101.exe)
 ----------------------------------
 using PM6 to do opt and freq calc.
 ----------------------------------
 Symbolic Z-matrix:
 Charge =  0 Multiplicity = 1
 C                    -1.7375   -1.0483   -0.4709 
 H                    -1.3031   -2.0698   -0.5413 
 H                    -1.9978   -0.6943   -1.4937 
 H                    -2.6778   -1.1238    0.1219 
 C                    -0.7578   -0.0811    0.216 
 H                    -0.5863   -0.4817    1.2437 
 C                     0.6389    0.0267   -0.4675 
 H                     1.2277    0.7761    0.1135 
 C                     1.4418   -1.2822   -0.3806 
 H                     0.9949   -2.0719   -1.0256 
 H                     2.4902   -1.111    -0.7166 
 H                     1.4748   -1.6513    0.6698 
 C                    -1.4249    1.2902    0.4166 
 H                    -0.7242    1.9959    0.9183 
 H                    -1.7425    1.7291   -0.5559 
 H                    -2.327     1.186     1.0622 
 C                     0.6068    0.5297   -1.9212 
 H                     0.0716   -0.1893   -2.5814 
 H                     0.1079    1.5216   -1.9871 
 H                     1.6453    0.6503   -2.3062 
 
 NAtoms=     20 NQM=     20 NQMF=      0 NMic=      0 NMicF=      0 NTot=     20.
                    Isotopes and Nuclear Properties:
 (Nuclear quadrupole moments (NQMom) in fm**2, nuclear magnetic moments (NMagM)
  in nuclear magnetons)

  Atom         1           2           3           4           5           6           7           8           9          10
 IAtWgt=          12           1           1           1          12           1          12           1          12           1
 AtmWgt=  12.0000000   1.0078250   1.0078250   1.0078250  12.0000000   1.0078250  12.0000000   1.0078250  12.0000000   1.0078250
 NucSpn=           0           1           1           1           0           1           0           1           0           1
 AtZEff=   0.0000000   0.0000000   0.0000000   0.0000000   0.0000000   0.0000000   0.0000000   0.0000000   0.0000000   0.0000000
 NQMom=    0.0000000   0.0000000   0.0000000   0.0000000   0.0000000   0.0000000   0.0000000   0.0000000   0.0000000   0.0000000
 NMagM=    0.0000000   2.7928460   2.7928460   2.7928460   0.0000000   2.7928460   0.0000000   2.7928460   0.0000000   2.7928460

  Atom        11          12          13          14          15          16          17          18          19          20
 IAtWgt=           1           1          12           1           1           1          12           1           1           1
 AtmWgt=   1.0078250   1.0078250  12.0000000   1.0078250   1.0078250   1.0078250  12.0000000   1.0078250   1.0078250   1.0078250
 NucSpn=           1           1           0           1           1           1           0           1           1           1
 AtZEff=   0.0000000   0.0000000   0.0000000   0.0000000   0.0000000   0.0000000   0.0000000   0.0000000   0.0000000   0.0000000
 NQMom=    0.0000000   0.0000000   0.0000000   0.0000000   0.0000000   0.0000000   0.0000000   0.0000000   0.0000000   0.0000000
 NMagM=    2.7928460   2.7928460   0.0000000   2.7928460   2.7928460   2.7928460   0.0000000   2.7928460   2.7928460   2.7928460
 Leave Link  101 at Mon Sep 14 19:12:19 2015, MaxMem=  402653184 cpu:       0.1
 (Enter /share/apps/g09/l103.exe)

 GradGradGradGradGradGradGradGradGradGradGradGradGradGradGradGradGradGrad
 Berny optimization.
 Initialization pass.
                           ----------------------------
                           !    Initial Parameters    !
                           ! (Angstroms and Degrees)  !
 --------------------------                            --------------------------
 ! Name  Definition              Value          Derivative Info.                !
 --------------------------------------------------------------------------------
 ! R1    R(1,2)                  1.1123         estimate D2E/DX2                !
 ! R2    R(1,3)                  1.1132         estimate D2E/DX2                !
 ! R3    R(1,4)                  1.1141         estimate D2E/DX2                !
 ! R4    R(1,5)                  1.5385         estimate D2E/DX2                !
 ! R5    R(5,6)                  1.1163         estimate D2E/DX2                !
 ! R6    R(5,7)                  1.5587         estimate D2E/DX2                !
 ! R7    R(5,13)                 1.5381         estimate D2E/DX2                !
 ! R8    R(7,8)                  1.1162         estimate D2E/DX2                !
 ! R9    R(7,9)                  1.538          estimate D2E/DX2                !
 ! R10   R(7,17)                 1.5386         estimate D2E/DX2                !
 ! R11   R(9,10)                 1.1133         estimate D2E/DX2                !
 ! R12   R(9,11)                 1.1142         estimate D2E/DX2                !
 ! R13   R(9,12)                 1.1139         estimate D2E/DX2                !
 ! R14   R(13,14)                1.1139         estimate D2E/DX2                !
 ! R15   R(13,15)                1.1132         estimate D2E/DX2                !
 ! R16   R(13,16)                1.1142         estimate D2E/DX2                !
 ! R17   R(17,18)                1.1132         estimate D2E/DX2                !
 ! R18   R(17,19)                1.1123         estimate D2E/DX2                !
 ! R19   R(17,20)                1.1141         estimate D2E/DX2                !
 ! A1    A(2,1,3)              108.9792         estimate D2E/DX2                !
 ! A2    A(2,1,4)              107.5214         estimate D2E/DX2                !
 ! A3    A(2,1,5)              110.9107         estimate D2E/DX2                !
 ! A4    A(3,1,4)              108.2445         estimate D2E/DX2                !
 ! A5    A(3,1,5)              111.0507         estimate D2E/DX2                !
 ! A6    A(4,1,5)              110.0275         estimate D2E/DX2                !
 ! A7    A(1,5,6)              106.4551         estimate D2E/DX2                !
 ! A8    A(1,5,7)              114.7266         estimate D2E/DX2                !
 ! A9    A(1,5,13)             110.0307         estimate D2E/DX2                !
 ! A10   A(6,5,7)              106.9096         estimate D2E/DX2                !
 ! A11   A(6,5,13)             105.4572         estimate D2E/DX2                !
 ! A12   A(7,5,13)             112.5922         estimate D2E/DX2                !
 ! A13   A(5,7,8)              106.9099         estimate D2E/DX2                !
 ! A14   A(5,7,9)              112.591          estimate D2E/DX2                !
 ! A15   A(5,7,17)             114.7225         estimate D2E/DX2                !
 ! A16   A(8,7,9)              105.4617         estimate D2E/DX2                !
 ! A17   A(8,7,17)             106.4582         estimate D2E/DX2                !
 ! A18   A(9,7,17)             110.0293         estimate D2E/DX2                !
 ! A19   A(7,9,10)             111.1856         estimate D2E/DX2                !
 ! A20   A(7,9,11)             110.0856         estimate D2E/DX2                !
 ! A21   A(7,9,12)             110.534          estimate D2E/DX2                !
 ! A22   A(10,9,11)            108.1805         estimate D2E/DX2                !
 ! A23   A(10,9,12)            108.8567         estimate D2E/DX2                !
 ! A24   A(11,9,12)            107.9046         estimate D2E/DX2                !
 ! A25   A(5,13,14)            110.5338         estimate D2E/DX2                !
 ! A26   A(5,13,15)            111.1808         estimate D2E/DX2                !
 ! A27   A(5,13,16)            110.0809         estimate D2E/DX2                !
 ! A28   A(14,13,15)           108.8543         estimate D2E/DX2                !
 ! A29   A(14,13,16)           107.9139         estimate D2E/DX2                !
 ! A30   A(15,13,16)           108.1838         estimate D2E/DX2                !
 ! A31   A(7,17,18)            111.0517         estimate D2E/DX2                !
 ! A32   A(7,17,19)            110.9089         estimate D2E/DX2                !
 ! A33   A(7,17,20)            110.0256         estimate D2E/DX2                !
 ! A34   A(18,17,19)           108.9777         estimate D2E/DX2                !
 ! A35   A(18,17,20)           108.2469         estimate D2E/DX2                !
 ! A36   A(19,17,20)           107.5235         estimate D2E/DX2                !
 ! D1    D(2,1,5,6)            -61.1395         estimate D2E/DX2                !
 ! D2    D(2,1,5,7)             56.8893         estimate D2E/DX2                !
 ! D3    D(2,1,5,13)          -174.9351         estimate D2E/DX2                !
 ! D4    D(3,1,5,6)            177.5212         estimate D2E/DX2                !
 ! D5    D(3,1,5,7)            -64.45           estimate D2E/DX2                !
 ! D6    D(3,1,5,13)            63.7255         estimate D2E/DX2                !
 ! D7    D(4,1,5,6)             57.6966         estimate D2E/DX2                !
 ! D8    D(4,1,5,7)            175.7255         estimate D2E/DX2                !
 ! D9    D(4,1,5,13)           -56.099          estimate D2E/DX2                !
 ! D10   D(1,5,7,8)            178.4127         estimate D2E/DX2                !
 ! D11   D(1,5,7,9)            -66.2282         estimate D2E/DX2                !
 ! D12   D(1,5,7,17)            60.6394         estimate D2E/DX2                !
 ! D13   D(6,5,7,8)            -63.8158         estimate D2E/DX2                !
 ! D14   D(6,5,7,9)             51.5433         estimate D2E/DX2                !
 ! D15   D(6,5,7,17)           178.4109         estimate D2E/DX2                !
 ! D16   D(13,5,7,8)            51.5385         estimate D2E/DX2                !
 ! D17   D(13,5,7,9)           166.8976         estimate D2E/DX2                !
 ! D18   D(13,5,7,17)          -66.2348         estimate D2E/DX2                !
 ! D19   D(1,5,13,14)          179.7137         estimate D2E/DX2                !
 ! D20   D(1,5,13,15)          -59.2738         estimate D2E/DX2                !
 ! D21   D(1,5,13,16)           60.5935         estimate D2E/DX2                !
 ! D22   D(6,5,13,14)           65.2807         estimate D2E/DX2                !
 ! D23   D(6,5,13,15)         -173.7068         estimate D2E/DX2                !
 ! D24   D(6,5,13,16)          -53.8395         estimate D2E/DX2                !
 ! D25   D(7,5,13,14)          -50.9459         estimate D2E/DX2                !
 ! D26   D(7,5,13,15)           70.0666         estimate D2E/DX2                !
 ! D27   D(7,5,13,16)         -170.066          estimate D2E/DX2                !
 ! D28   D(5,7,9,10)            70.0637         estimate D2E/DX2                !
 ! D29   D(5,7,9,11)          -170.067          estimate D2E/DX2                !
 ! D30   D(5,7,9,12)           -50.9553         estimate D2E/DX2                !
 ! D31   D(8,7,9,10)          -173.7073         estimate D2E/DX2                !
 ! D32   D(8,7,9,11)           -53.8381         estimate D2E/DX2                !
 ! D33   D(8,7,9,12)            65.2737         estimate D2E/DX2                !
 ! D34   D(17,7,9,10)          -59.2689         estimate D2E/DX2                !
 ! D35   D(17,7,9,11)           60.6003         estimate D2E/DX2                !
 ! D36   D(17,7,9,12)          179.7121         estimate D2E/DX2                !
 ! D37   D(5,7,17,18)          -64.4485         estimate D2E/DX2                !
 ! D38   D(5,7,17,19)           56.8883         estimate D2E/DX2                !
 ! D39   D(5,7,17,20)          175.7246         estimate D2E/DX2                !
 ! D40   D(8,7,17,18)          177.5225         estimate D2E/DX2                !
 ! D41   D(8,7,17,19)          -61.1406         estimate D2E/DX2                !
 ! D42   D(8,7,17,20)           57.6956         estimate D2E/DX2                !
 ! D43   D(9,7,17,18)           63.7207         estimate D2E/DX2                !
 ! D44   D(9,7,17,19)         -174.9425         estimate D2E/DX2                !
 ! D45   D(9,7,17,20)          -56.1062         estimate D2E/DX2                !
 --------------------------------------------------------------------------------
 Trust Radius=3.00D-01 FncErr=1.00D-07 GrdErr=1.00D-07
 Number of steps in this run= 110 maximum allowed number of steps= 120.
 GradGradGradGradGradGradGradGradGradGradGradGradGradGradGradGradGradGrad

 Leave Link  103 at Mon Sep 14 19:12:21 2015, MaxMem=  402653184 cpu:       0.0
 (Enter /share/apps/g09/l202.exe)
                          Input orientation:                          
 ---------------------------------------------------------------------
 Center     Atomic      Atomic             Coordinates (Angstroms)
 Number     Number       Type             X           Y           Z
 ---------------------------------------------------------------------
      1          6           0       -1.737500   -1.048300   -0.470900
      2          1           0       -1.303100   -2.069800   -0.541300
      3          1           0       -1.997800   -0.694300   -1.493700
      4          1           0       -2.677800   -1.123800    0.121900
      5          6           0       -0.757800   -0.081100    0.216000
      6          1           0       -0.586300   -0.481700    1.243700
      7          6           0        0.638900    0.026700   -0.467500
      8          1           0        1.227700    0.776100    0.113500
      9          6           0        1.441800   -1.282200   -0.380600
     10          1           0        0.994900   -2.071900   -1.025600
     11          1           0        2.490200   -1.111000   -0.716600
     12          1           0        1.474800   -1.651300    0.669800
     13          6           0       -1.424900    1.290200    0.416600
     14          1           0       -0.724200    1.995900    0.918300
     15          1           0       -1.742500    1.729100   -0.555900
     16          1           0       -2.327000    1.186000    1.062200
     17          6           0        0.606800    0.529700   -1.921200
     18          1           0        0.071600   -0.189300   -2.581400
     19          1           0        0.107900    1.521600   -1.987100
     20          1           0        1.645300    0.650300   -2.306200
 ---------------------------------------------------------------------
                    Distance matrix (angstroms):
                    1          2          3          4          5
     1  C    0.000000
     2  H    1.112260   0.000000
     3  H    1.113190   1.811539   0.000000
     4  H    1.114126   1.795703   1.804725   0.000000
     5  C    1.538545   2.196767   2.199247   2.186888   0.000000
     6  H    2.141530   2.494412   3.087214   2.458678   1.116271
     7  C    2.608240   2.858692   2.919780   3.559711   1.558706
     8  H    3.530208   3.864306   3.892174   4.343112   2.165065
     9  C    3.189171   2.860177   3.662713   4.153156   2.576201
    10  H    2.970094   2.348479   3.327635   3.962875   2.928620
    11  H    4.235298   3.916523   4.573802   5.235596   3.532696
    12  H    3.461745   3.059188   4.201849   4.221675   2.766941
    13  C    2.520706   3.495999   2.813486   2.735690   1.538092
    14  H    3.496256   4.358380   3.831054   3.766077   2.192780
    15  H    2.778705   3.824255   2.611037   3.077862   2.200520
    16  H    2.773085   3.770917   3.190067   2.518412   2.187232
    17  C    3.176350   3.508453   2.909446   4.206770   2.608224
    18  H    2.909456   3.096464   2.391764   3.967407   2.919770
    19  H    3.508383   4.120608   3.096390   4.382482   2.858624
    20  H    4.206769   4.382565   3.967403   5.266146   3.559681
                    6          7          8          9         10
     6  H    0.000000
     7  C    2.165131   0.000000
     8  H    2.479921   1.116175   0.000000
     9  C    2.718886   1.537992   2.127574   0.000000
    10  H    3.190400   2.200530   3.076174   1.113270   0.000000
    11  H    3.701844   2.187173   2.417461   1.114158   1.804088
    12  H    2.438331   2.192684   2.502558   1.113851   1.811516
    13  C    2.127669   2.576303   2.718907   3.933286   4.386239
    14  H    2.502679   2.766990   2.438345   4.138192   4.825044
    15  H    3.076198   2.928659   3.190359   4.386163   4.707609
    16  H    2.417478   3.532778   3.701884   4.730490   5.099788
    17  C    3.530299   1.538598   2.141549   2.520646   2.778677
    18  H    3.892264   2.199331   3.087240   2.813432   2.610973
    19  H    3.864349   2.196787   2.494442   3.495916   3.824198
    20  H    4.343185   2.186901   2.458691   2.735672   3.077877
                   11         12         13         14         15
    11  H    0.000000
    12  H    1.801407   0.000000
    13  C    4.730530   4.138211   0.000000
    14  H    4.760052   4.266078   1.113865   0.000000
    15  H    5.099779   4.824983   1.113220   1.811459   0.000000
    16  H    5.625456   4.760035   1.114200   1.801559   1.804119
    17  C    2.773113   3.496207   3.189275   3.461801   2.970154
    18  H    3.190084   3.831020   3.662845   4.201940   3.327742
    19  H    3.770956   4.358306   2.860209   3.059199   2.348482
    20  H    2.518504   3.766034   4.153220   4.221679   3.962896
                   16         17         18         19         20
    16  H    0.000000
    17  C    4.235397   0.000000
    18  H    4.573899   1.113222   0.000000
    19  H    3.916580   1.112254   1.811543   0.000000
    20  H    5.235672   1.114115   1.804770   1.795714   0.000000
 Stoichiometry    C6H14
 Framework group  C1[X(C6H14)]
 Deg. of freedom    54
 Full point group                 C1      NOp   1
 Largest Abelian subgroup         C1      NOp   1
 Largest concise Abelian subgroup C1      NOp   1
                         Standard orientation:                         
 ---------------------------------------------------------------------
 Center     Atomic      Atomic             Coordinates (Angstroms)
 Number     Number       Type             X           Y           Z
 ---------------------------------------------------------------------
      1          6           0       -1.044470    1.196390    0.835835
      2          1           0       -0.318524    2.035572    0.912640
      3          1           0       -1.026229    0.613953    1.784321
      4          1           0       -2.059485    1.640588    0.718752
      5          6           0       -0.719995    0.298289   -0.370502
      6          1           0       -0.803932    0.944073   -1.277132
      7          6           0        0.720023   -0.298296   -0.370561
      8          1           0        0.803882   -0.944032   -1.277115
      9          6           0        1.805791    0.778868   -0.532558
     10          1           0        1.882255    1.413333    0.379022
     11          1           0        2.796633    0.300191   -0.707053
     12          1           0        1.581736    1.431003   -1.407305
     13          6           0       -1.805865   -0.778911   -0.532530
     14          1           0       -1.581775   -1.431097   -1.407248
     15          1           0       -1.882258   -1.413330    0.379027
     16          1           0       -2.796703   -0.300101   -0.706954
     17          6           0        1.044524   -1.196370    0.835857
     18          1           0        1.026319   -0.613882    1.784351
     19          1           0        0.318527   -2.035494    0.912722
     20          1           0        2.059507   -1.640601    0.718722
 ---------------------------------------------------------------------
 Rotational constants (GHZ):      4.2014798      2.5068381      2.1714820
 Leave Link  202 at Mon Sep 14 19:12:22 2015, MaxMem=  402653184 cpu:       0.0
 (Enter /share/apps/g09/l301.exe)
 Standard basis: VSTO-6G (5D, 7F)
 Ernie: Thresh=  0.10000D-02 Tol=  0.10000D-05 Strict=F.
  NNHCO=     0 NNPyr=     0 NCTC=     0               EPep=         0.000000000
    EC=       132.083669927  ECS=         3.127323152   EG=         0.302820439
   EHC=         0.000406669  EAt=       -31.187935768  AtH=         2.796400831
 EPDDG=         0.000000000  ECC=       135.514220186 EAtT=        33.984336599
 There are    38 symmetry adapted basis functions of A   symmetry.
 Integral buffers will be    131072 words long.
 Regular integral format.
 Two-electron integral symmetry is turned off.
    38 basis functions,   228 primitive gaussians,    38 cartesian basis functions
    19 alpha electrons       19 beta electrons
       nuclear repulsion energy       169.4985567854 Hartrees.
 IExCor=    0 DFT=F Ex=HF Corr=None ExCW=0 ScaHFX=  1.000000
 ScaDFX=  1.000000  1.000000  1.000000  1.000000 ScalE2=  1.000000  1.000000
 IRadAn=      0 IRanWt=     -1 IRanGd=            0 ICorTp=0
 Leave Link  301 at Mon Sep 14 19:12:22 2015, MaxMem=  402653184 cpu:       0.1
 (Enter /share/apps/g09/l302.exe)
 Do NDO integrals.
 NPDir=0 NMtPBC=     1 NCelOv=     1 NCel=       1 NClECP=     1 NCelD=      1
         NCelK=      1 NCelE2=     1 NClLst=     1 CellRange=     0.0.
 One-electron integrals computed using PRISM.
 NBasis=    38 RedAO= F  NBF=    38
 NBsUse=    38 1.00D-04 NBFU=    38
 Leave Link  302 at Mon Sep 14 19:12:24 2015, MaxMem=  402653184 cpu:       0.1
 (Enter /share/apps/g09/l303.exe)
 DipDrv:  MaxL=1.
 Leave Link  303 at Mon Sep 14 19:12:24 2015, MaxMem=  402653184 cpu:       0.1
 (Enter /share/apps/g09/l401.exe)
 Simple Huckel Guess.
 Initial guess orbital symmetries:
       Occupied  (A) (A) (A) (A) (A) (A) (A) (A) (A) (A) (A) (A)
                 (A) (A) (A) (A) (A) (A) (A)
       Virtual   (A) (A) (A) (A) (A) (A) (A) (A) (A) (A) (A) (A)
                 (A) (A) (A) (A) (A) (A) (A)
 The electronic state of the initial guess is 1-A.
 Leave Link  401 at Mon Sep 14 19:12:25 2015, MaxMem=  402653184 cpu:       0.1
 (Enter /share/apps/g09/l502.exe)
 Closed shell SCF:
 Requested convergence on RMS density matrix=1.00D-08 within 128 cycles.
 Requested convergence on MAX density matrix=1.00D-06.
 Requested convergence on             energy=1.00D-06.
 No special actions if energy rises.
 Using DIIS extrapolation, IDIIS=  1040.
 Overlap will be assumed to be unity.
 Two-electron integral symmetry not used.
 Keep J ints in memory in canonical form, NReq=884654.
 IEnd=       81865 IEndB=       81865 NGot=   402653184 MDV=   402586639
 LenX=   402586639 LenY=   402584754
 Symmetry not used in FoFDir.
 MinBra= 0 MaxBra= 1 Meth=40.
 IRaf=       0 NMat=   1 IRICut=       1 DoRegI=T DoRafI=F ISym2E= 0 JSym2E=0.

 Cycle   1  Pass 1  IDiag  1:
 E= 0.731379986536069E-01
 DIIS: error= 2.19D-02 at cycle   1 NSaved=   1.
 NSaved= 1 IEnMin= 1 EnMin= 0.731379986536069E-01 IErMin= 1 ErrMin= 2.19D-02
 ErrMax= 2.19D-02 EMaxC= 1.00D-01 BMatC= 4.34D-02 BMatP= 4.34D-02
 IDIUse=3 WtCom= 7.81D-01 WtEn= 2.19D-01
 Coeff-Com:  0.100D+01
 Coeff-En:   0.100D+01
 Coeff:      0.100D+01
 GapD=    2.000 DampG=2.000 DampE=0.500 DampFc=1.0000 IDamp=-1.
 RMSDP=8.39D-03 MaxDP=6.89D-02              OVMax= 0.00D+00

 Cycle   2  Pass 1  IDiag  1:
 E=-0.419317706772233E-01 Delta-E=       -0.115069769331 Rises=F Damp=F
 DIIS: error= 5.37D-03 at cycle   2 NSaved=   2.
 NSaved= 2 IEnMin= 2 EnMin=-0.419317706772233E-01 IErMin= 2 ErrMin= 5.37D-03
 ErrMax= 5.37D-03 EMaxC= 1.00D-01 BMatC= 3.00D-03 BMatP= 4.34D-02
 IDIUse=3 WtCom= 9.46D-01 WtEn= 5.37D-02
 Coeff-Com: -0.309D+00 0.131D+01
 Coeff-En:   0.000D+00 0.100D+01
 Coeff:     -0.292D+00 0.129D+01
 RMSDP=3.08D-03 MaxDP=2.12D-02 DE=-1.15D-01 OVMax= 0.00D+00

 Cycle   3  Pass 1  IDiag  3:
 E=-0.522956146047022E-01 Delta-E=       -0.010363843927 Rises=F Damp=F
 DIIS: error= 1.48D-03 at cycle   3 NSaved=   3.
 NSaved= 3 IEnMin= 3 EnMin=-0.522956146047022E-01 IErMin= 3 ErrMin= 1.48D-03
 ErrMax= 1.48D-03 EMaxC= 1.00D-01 BMatC= 1.84D-04 BMatP= 3.00D-03
 IDIUse=3 WtCom= 9.85D-01 WtEn= 1.48D-02
 Coeff-Com:  0.229D+00-0.105D+01 0.182D+01
 Coeff-En:   0.000D+00 0.000D+00 0.100D+01
 Coeff:      0.226D+00-0.103D+01 0.181D+01
 Gap=     0.551 Goal=   None    Shift=    0.000
 RMSDP=1.38D-03 MaxDP=1.19D-02 DE=-1.04D-02 OVMax= 0.00D+00

 Cycle   4  Pass 1  IDiag  3:
 E=-0.535665945205324E-01 Delta-E=       -0.001270979916 Rises=F Damp=F
 DIIS: error= 4.60D-04 at cycle   4 NSaved=   4.
 NSaved= 4 IEnMin= 4 EnMin=-0.535665945205324E-01 IErMin= 4 ErrMin= 4.60D-04
 ErrMax= 4.60D-04 EMaxC= 1.00D-01 BMatC= 1.84D-05 BMatP= 1.84D-04
 IDIUse=3 WtCom= 9.95D-01 WtEn= 4.60D-03
 Coeff-Com: -0.122D+00 0.574D+00-0.129D+01 0.184D+01
 Coeff-En:   0.000D+00 0.000D+00 0.000D+00 0.100D+01
 Coeff:     -0.121D+00 0.571D+00-0.128D+01 0.184D+01
 Gap=     0.552 Goal=   None    Shift=    0.000
 RMSDP=5.93D-04 MaxDP=4.62D-03 DE=-1.27D-03 OVMax= 0.00D+00

 Cycle   5  Pass 1  IDiag  3:
 E=-0.537094757451371E-01 Delta-E=       -0.000142881225 Rises=F Damp=F
 DIIS: error= 7.83D-05 at cycle   5 NSaved=   5.
 NSaved= 5 IEnMin= 5 EnMin=-0.537094757451371E-01 IErMin= 5 ErrMin= 7.83D-05
 ErrMax= 7.83D-05 EMaxC= 1.00D-01 BMatC= 3.98D-07 BMatP= 1.84D-05
 IDIUse=1 WtCom= 1.00D+00 WtEn= 0.00D+00
 Coeff-Com:  0.478D-01-0.227D+00 0.537D+00-0.858D+00 0.150D+01
 Coeff:      0.478D-01-0.227D+00 0.537D+00-0.858D+00 0.150D+01
 Gap=     0.551 Goal=   None    Shift=    0.000
 RMSDP=6.21D-05 MaxDP=5.16D-04 DE=-1.43D-04 OVMax= 0.00D+00

 Cycle   6  Pass 1  IDiag  3:
 E=-0.537118143480200E-01 Delta-E=       -0.000002338603 Rises=F Damp=F
 DIIS: error= 2.20D-05 at cycle   6 NSaved=   6.
 NSaved= 6 IEnMin= 6 EnMin=-0.537118143480200E-01 IErMin= 6 ErrMin= 2.20D-05
 ErrMax= 2.20D-05 EMaxC= 1.00D-01 BMatC= 1.92D-08 BMatP= 3.98D-07
 IDIUse=1 WtCom= 1.00D+00 WtEn= 0.00D+00
 Coeff-Com: -0.686D-02 0.329D-01-0.808D-01 0.137D+00-0.390D+00 0.131D+01
 Coeff:     -0.686D-02 0.329D-01-0.808D-01 0.137D+00-0.390D+00 0.131D+01
 Gap=     0.551 Goal=   None    Shift=    0.000
 RMSDP=1.24D-05 MaxDP=1.31D-04 DE=-2.34D-06 OVMax= 0.00D+00

 Cycle   7  Pass 1  IDiag  3:
 E=-0.537119194121942E-01 Delta-E=       -0.000000105064 Rises=F Damp=F
 DIIS: error= 4.88D-06 at cycle   7 NSaved=   7.
 NSaved= 7 IEnMin= 7 EnMin=-0.537119194121942E-01 IErMin= 7 ErrMin= 4.88D-06
 ErrMax= 4.88D-06 EMaxC= 1.00D-01 BMatC= 1.10D-09 BMatP= 1.92D-08
 IDIUse=1 WtCom= 1.00D+00 WtEn= 0.00D+00
 Coeff-Com:  0.122D-02-0.602D-02 0.160D-01-0.297D-01 0.108D+00-0.582D+00
 Coeff-Com:  0.149D+01
 Coeff:      0.122D-02-0.602D-02 0.160D-01-0.297D-01 0.108D+00-0.582D+00
 Coeff:      0.149D+01
 Gap=     0.551 Goal=   None    Shift=    0.000
 RMSDP=3.18D-06 MaxDP=3.05D-05 DE=-1.05D-07 OVMax= 0.00D+00

 Cycle   8  Pass 1  IDiag  3:
 E=-0.537119250664375E-01 Delta-E=       -0.000000005654 Rises=F Damp=F
 DIIS: error= 2.90D-07 at cycle   8 NSaved=   8.
 NSaved= 8 IEnMin= 8 EnMin=-0.537119250664375E-01 IErMin= 8 ErrMin= 2.90D-07
 ErrMax= 2.90D-07 EMaxC= 1.00D-01 BMatC= 1.60D-11 BMatP= 1.10D-09
 IDIUse=1 WtCom= 1.00D+00 WtEn= 0.00D+00
 Coeff-Com:  0.907D-04-0.348D-03 0.168D-03 0.121D-02-0.174D-01 0.148D+00
 Coeff-Com: -0.465D+00 0.133D+01
 Coeff:      0.907D-04-0.348D-03 0.168D-03 0.121D-02-0.174D-01 0.148D+00
 Coeff:     -0.465D+00 0.133D+01
 Gap=     0.551 Goal=   None    Shift=    0.000
 RMSDP=3.03D-07 MaxDP=1.35D-06 DE=-5.65D-09 OVMax= 0.00D+00

 Cycle   9  Pass 1  IDiag  3:
 E=-0.537119251398792E-01 Delta-E=       -0.000000000073 Rises=F Damp=F
 DIIS: error= 9.03D-08 at cycle   9 NSaved=   9.
 NSaved= 9 IEnMin= 9 EnMin=-0.537119251398792E-01 IErMin= 9 ErrMin= 9.03D-08
 ErrMax= 9.03D-08 EMaxC= 1.00D-01 BMatC= 7.54D-13 BMatP= 1.60D-11
 IDIUse=1 WtCom= 1.00D+00 WtEn= 0.00D+00
 Coeff-Com: -0.143D-04 0.301D-04 0.224D-03-0.103D-02 0.902D-02-0.708D-01
 Coeff-Com:  0.220D+00-0.713D+00 0.156D+01
 Coeff:     -0.143D-04 0.301D-04 0.224D-03-0.103D-02 0.902D-02-0.708D-01
 Coeff:      0.220D+00-0.713D+00 0.156D+01
 Gap=     0.551 Goal=   None    Shift=    0.000
 RMSDP=7.91D-08 MaxDP=3.52D-07 DE=-7.34D-11 OVMax= 0.00D+00

 Cycle  10  Pass 1  IDiag  3:
 E=-0.537119251439435E-01 Delta-E=       -0.000000000004 Rises=F Damp=F
 DIIS: error= 1.68D-08 at cycle  10 NSaved=  10.
 NSaved=10 IEnMin=10 EnMin=-0.537119251439435E-01 IErMin=10 ErrMin= 1.68D-08
 ErrMax= 1.68D-08 EMaxC= 1.00D-01 BMatC= 2.51D-14 BMatP= 7.54D-13
 IDIUse=1 WtCom= 1.00D+00 WtEn= 0.00D+00
 Coeff-Com: -0.612D-05 0.445D-04-0.225D-03 0.631D-03-0.411D-02 0.299D-01
 Coeff-Com: -0.910D-01 0.294D+00-0.743D+00 0.151D+01
 Coeff:     -0.612D-05 0.445D-04-0.225D-03 0.631D-03-0.411D-02 0.299D-01
 Coeff:     -0.910D-01 0.294D+00-0.743D+00 0.151D+01
 Gap=     0.551 Goal=   None    Shift=    0.000
 RMSDP=1.49D-08 MaxDP=9.51D-08 DE=-4.06D-12 OVMax= 0.00D+00

 Cycle  11  Pass 1  IDiag  3:
 E=-0.537119251440856E-01 Delta-E=        0.000000000000 Rises=F Damp=F
 DIIS: error= 3.80D-09 at cycle  11 NSaved=  11.
 NSaved=11 IEnMin=11 EnMin=-0.537119251440856E-01 IErMin=11 ErrMin= 3.80D-09
 ErrMax= 3.80D-09 EMaxC= 1.00D-01 BMatC= 8.56D-16 BMatP= 2.51D-14
 IDIUse=1 WtCom= 1.00D+00 WtEn= 0.00D+00
 Coeff-Com:  0.596D-06-0.941D-05 0.736D-04-0.233D-03 0.168D-02-0.125D-01
 Coeff-Com:  0.385D-01-0.126D+00 0.326D+00-0.738D+00 0.151D+01
 Coeff:      0.596D-06-0.941D-05 0.736D-04-0.233D-03 0.168D-02-0.125D-01
 Coeff:      0.385D-01-0.126D+00 0.326D+00-0.738D+00 0.151D+01
 Gap=     0.551 Goal=   None    Shift=    0.000
 RMSDP=2.57D-09 MaxDP=2.69D-08 DE=-1.42D-13 OVMax= 0.00D+00

 Cycle  12  Pass 2  IDiag  1:
 RMSDP=2.57D-09 MaxDP=2.69D-08 DE=-1.42D-13 OVMax= 0.00D+00

 SCF Done:  E(RPM6) = -0.537119251441E-01 A.U. after   12 cycles
             Convg  =    0.2573D-08             -V/T =  0.9990
 KE=-5.624862061165D+01 PE=-2.600858945608D+02 EE= 1.467822464619D+02
 Leave Link  502 at Mon Sep 14 19:12:28 2015, MaxMem=  402653184 cpu:       0.1
 (Enter /share/apps/g09/l601.exe)
 Copying SCF densities to generalized density rwf, IOpCl= 0 IROHF=0.

 **********************************************************************

            Population analysis using the SCF density.

 **********************************************************************

 Orbital symmetries:
       Occupied  (A) (A) (A) (A) (A) (A) (A) (A) (A) (A) (A) (A)
                 (A) (A) (A) (A) (A) (A) (A)
       Virtual   (A) (A) (A) (A) (A) (A) (A) (A) (A) (A) (A) (A)
                 (A) (A) (A) (A) (A) (A) (A)
 The electronic state is 1-A.
 Alpha  occ. eigenvalues --   -1.05658  -0.95879  -0.87824  -0.85958  -0.77113
 Alpha  occ. eigenvalues --   -0.66641  -0.58525  -0.54909  -0.54714  -0.50555
 Alpha  occ. eigenvalues --   -0.49491  -0.48456  -0.47065  -0.46890  -0.43959
 Alpha  occ. eigenvalues --   -0.43866  -0.41067  -0.40226  -0.39705
 Alpha virt. eigenvalues --    0.15424   0.16148   0.16359   0.18111   0.18134
 Alpha virt. eigenvalues --    0.21506   0.21839   0.22038   0.22108   0.22167
 Alpha virt. eigenvalues --    0.22302   0.22466   0.22727   0.23730   0.23848
 Alpha virt. eigenvalues --    0.24871   0.25211   0.25889   0.25894
          Condensed to atoms (all electrons):
              1          2          3          4          5          6
     1  C    4.482579   0.000000   0.000000   0.000000   0.000000   0.000000
     2  H    0.000000   0.852795   0.000000   0.000000   0.000000   0.000000
     3  H    0.000000   0.000000   0.849013   0.000000   0.000000   0.000000
     4  H    0.000000   0.000000   0.000000   0.855899   0.000000   0.000000
     5  C    0.000000   0.000000   0.000000   0.000000   4.020639   0.000000
     6  H    0.000000   0.000000   0.000000   0.000000   0.000000   0.892300
     7  C    0.000000   0.000000   0.000000   0.000000   0.000000   0.000000
     8  H    0.000000   0.000000   0.000000   0.000000   0.000000   0.000000
     9  C    0.000000   0.000000   0.000000   0.000000   0.000000   0.000000
    10  H    0.000000   0.000000   0.000000   0.000000   0.000000   0.000000
    11  H    0.000000   0.000000   0.000000   0.000000   0.000000   0.000000
    12  H    0.000000   0.000000   0.000000   0.000000   0.000000   0.000000
    13  C    0.000000   0.000000   0.000000   0.000000   0.000000   0.000000
    14  H    0.000000   0.000000   0.000000   0.000000   0.000000   0.000000
    15  H    0.000000   0.000000   0.000000   0.000000   0.000000   0.000000
    16  H    0.000000   0.000000   0.000000   0.000000   0.000000   0.000000
    17  C    0.000000   0.000000   0.000000   0.000000   0.000000   0.000000
    18  H    0.000000   0.000000   0.000000   0.000000   0.000000   0.000000
    19  H    0.000000   0.000000   0.000000   0.000000   0.000000   0.000000
    20  H    0.000000   0.000000   0.000000   0.000000   0.000000   0.000000
              7          8          9         10         11         12
     1  C    0.000000   0.000000   0.000000   0.000000   0.000000   0.000000
     2  H    0.000000   0.000000   0.000000   0.000000   0.000000   0.000000
     3  H    0.000000   0.000000   0.000000   0.000000   0.000000   0.000000
     4  H    0.000000   0.000000   0.000000   0.000000   0.000000   0.000000
     5  C    0.000000   0.000000   0.000000   0.000000   0.000000   0.000000
     6  H    0.000000   0.000000   0.000000   0.000000   0.000000   0.000000
     7  C    4.020626   0.000000   0.000000   0.000000   0.000000   0.000000
     8  H    0.000000   0.892300   0.000000   0.000000   0.000000   0.000000
     9  C    0.000000   0.000000   4.492706   0.000000   0.000000   0.000000
    10  H    0.000000   0.000000   0.000000   0.847753   0.000000   0.000000
    11  H    0.000000   0.000000   0.000000   0.000000   0.852701   0.000000
    12  H    0.000000   0.000000   0.000000   0.000000   0.000000   0.853621
    13  C    0.000000   0.000000   0.000000   0.000000   0.000000   0.000000
    14  H    0.000000   0.000000   0.000000   0.000000   0.000000   0.000000
    15  H    0.000000   0.000000   0.000000   0.000000   0.000000   0.000000
    16  H    0.000000   0.000000   0.000000   0.000000   0.000000   0.000000
    17  C    0.000000   0.000000   0.000000   0.000000   0.000000   0.000000
    18  H    0.000000   0.000000   0.000000   0.000000   0.000000   0.000000
    19  H    0.000000   0.000000   0.000000   0.000000   0.000000   0.000000
    20  H    0.000000   0.000000   0.000000   0.000000   0.000000   0.000000
             13         14         15         16         17         18
     1  C    0.000000   0.000000   0.000000   0.000000   0.000000   0.000000
     2  H    0.000000   0.000000   0.000000   0.000000   0.000000   0.000000
     3  H    0.000000   0.000000   0.000000   0.000000   0.000000   0.000000
     4  H    0.000000   0.000000   0.000000   0.000000   0.000000   0.000000
     5  C    0.000000   0.000000   0.000000   0.000000   0.000000   0.000000
     6  H    0.000000   0.000000   0.000000   0.000000   0.000000   0.000000
     7  C    0.000000   0.000000   0.000000   0.000000   0.000000   0.000000
     8  H    0.000000   0.000000   0.000000   0.000000   0.000000   0.000000
     9  C    0.000000   0.000000   0.000000   0.000000   0.000000   0.000000
    10  H    0.000000   0.000000   0.000000   0.000000   0.000000   0.000000
    11  H    0.000000   0.000000   0.000000   0.000000   0.000000   0.000000
    12  H    0.000000   0.000000   0.000000   0.000000   0.000000   0.000000
    13  C    4.492698   0.000000   0.000000   0.000000   0.000000   0.000000
    14  H    0.000000   0.853621   0.000000   0.000000   0.000000   0.000000
    15  H    0.000000   0.000000   0.847765   0.000000   0.000000   0.000000
    16  H    0.000000   0.000000   0.000000   0.852697   0.000000   0.000000
    17  C    0.000000   0.000000   0.000000   0.000000   4.482573   0.000000
    18  H    0.000000   0.000000   0.000000   0.000000   0.000000   0.849013
    19  H    0.000000   0.000000   0.000000   0.000000   0.000000   0.000000
    20  H    0.000000   0.000000   0.000000   0.000000   0.000000   0.000000
             19         20
     1  C    0.000000   0.000000
     2  H    0.000000   0.000000
     3  H    0.000000   0.000000
     4  H    0.000000   0.000000
     5  C    0.000000   0.000000
     6  H    0.000000   0.000000
     7  C    0.000000   0.000000
     8  H    0.000000   0.000000
     9  C    0.000000   0.000000
    10  H    0.000000   0.000000
    11  H    0.000000   0.000000
    12  H    0.000000   0.000000
    13  C    0.000000   0.000000
    14  H    0.000000   0.000000
    15  H    0.000000   0.000000
    16  H    0.000000   0.000000
    17  C    0.000000   0.000000
    18  H    0.000000   0.000000
    19  H    0.852799   0.000000
    20  H    0.000000   0.855902
 Mulliken atomic charges:
              1
     1  C   -0.482579
     2  H    0.147205
     3  H    0.150987
     4  H    0.144101
     5  C   -0.020639
     6  H    0.107700
     7  C   -0.020626
     8  H    0.107700
     9  C   -0.492706
    10  H    0.152247
    11  H    0.147299
    12  H    0.146379
    13  C   -0.492698
    14  H    0.146379
    15  H    0.152235
    16  H    0.147303
    17  C   -0.482573
    18  H    0.150987
    19  H    0.147201
    20  H    0.144098
 Sum of Mulliken atomic charges =   0.00000
 Mulliken charges with hydrogens summed into heavy atoms:
              1
     1  C   -0.040286
     5  C    0.087061
     7  C    0.087073
     9  C   -0.046780
    13  C   -0.046781
    17  C   -0.040287
 Sum of Mulliken charges with hydrogens summed into heavy atoms =   0.00000
 Charge=              0.0000 electrons
 Dipole moment (field-independent basis, Debye):
    X=              0.0001    Y=              0.0002    Z=             -0.0037  Tot=              0.0037
 N-N= 1.694985567854D+02 E-N=-2.600858946068D+02  KE=-5.624862061165D+01
 Leave Link  601 at Mon Sep 14 19:12:28 2015, MaxMem=  402653184 cpu:       0.0
 (Enter /share/apps/g09/l701.exe)
 Compute integral first derivatives.
 ... and contract with generalized density number  0.
 Leave Link  701 at Mon Sep 14 19:12:28 2015, MaxMem=  402653184 cpu:       0.1
 (Enter /share/apps/g09/l702.exe)
 L702 exits ... SP integral derivatives will be done elsewhere.
 Leave Link  702 at Mon Sep 14 19:12:29 2015, MaxMem=  402653184 cpu:       0.0
 (Enter /share/apps/g09/l703.exe)
 Compute integral first derivatives, UseDBF=F ICtDFT=           0.
 Integral derivatives from FoFDir, PRISM(SPDF).
 Calling FoFJK, ICntrl=      2127 FMM=F ISym2X=0 I1Cent= 0 IOpClX= 0 NMat=1 NMatS=1 NMatT=0.
 FoFCou: FMM=F IPFlag=           0 FMFlag=      100000 FMFlg1=         800
         NFxFlg=           0 DoJE=F BraDBF=F KetDBF=F FulRan=T
         Omega=  0.000000  0.000000  1.000000  0.000000  0.000000 ICntrl=    2127 IOpCl=  0
         NMat0=    1 NMatS0=    1 NMatT0=    0 NMatD0=    1 NMtDS0=    0 NMtDT0=    0
         I1Cent=           0 NGrid=           0.
 Symmetry not used in FoFCou.
 Leave Link  703 at Mon Sep 14 19:12:30 2015, MaxMem=  402653184 cpu:       0.1
 (Enter /share/apps/g09/l716.exe)
 Dipole        = 3.39420984D-05 9.35697632D-05-1.46176021D-03
 ***** Axes restored to original set *****
 -------------------------------------------------------------------
 Center     Atomic                   Forces (Hartrees/Bohr)
 Number     Number              X              Y              Z
 -------------------------------------------------------------------
      1        6          -0.000244074   -0.000642615   -0.002645519
      2        1          -0.004055086    0.009051532   -0.001045218
      3        1           0.002119832   -0.004750599    0.009093797
      4        1           0.007661942    0.000074706   -0.006834045
      5        6          -0.001991998   -0.002795148   -0.001316238
      6        1           0.003287415   -0.002688508    0.002371611
      7        6          -0.000204876    0.001829497   -0.003247001
      8        1          -0.000776379    0.003861963    0.002908406
      9        6          -0.000952333   -0.004732375    0.000996631
     10        1           0.004931264    0.006140635    0.006768314
     11        1          -0.009437942   -0.003426334    0.002927808
     12        1           0.000188903    0.001387166   -0.010495568
     13        6           0.000618287    0.004508718   -0.001744264
     14        1          -0.007719625   -0.004849091   -0.005409791
     15        1           0.002818867   -0.002569833    0.009635957
     16        1           0.007767242    0.002659050   -0.006521187
     17        6          -0.001922065   -0.000356220   -0.001904385
     18        1           0.004636248    0.007854309    0.005190588
     19        1           0.003313417   -0.009390514   -0.000528609
     20        1          -0.010039039   -0.001166340    0.001798712
 -------------------------------------------------------------------
 Cartesian Forces:  Max     0.010495568 RMS     0.004876258
 Leave Link  716 at Mon Sep 14 19:12:33 2015, MaxMem=  402653184 cpu:       0.0
 (Enter /share/apps/g09/l103.exe)

 GradGradGradGradGradGradGradGradGradGradGradGradGradGradGradGradGradGrad
 Berny optimization.
 Internal  Forces:  Max     0.010993636 RMS     0.004114719
 Search for a local minimum.
 Step number   1 out of a maximum of  110
 All quantities printed in internal units (Hartrees-Bohrs-Radians)
 RMS Force = .41147D-02 SwitMx=.10000D-02 MixMth= 1
 Mixed Optimization -- RFO/linear search
 Second derivative matrix not updated -- first step.
     Eigenvalues ---    0.00230   0.00255   0.00256   0.00262   0.00263
     Eigenvalues ---    0.02983   0.02984   0.04585   0.04585   0.05136
     Eigenvalues ---    0.05136   0.05425   0.05425   0.05452   0.05452
     Eigenvalues ---    0.05596   0.05596   0.05601   0.05602   0.16000
     Eigenvalues ---    0.16000   0.16000   0.16000   0.16000   0.16000
     Eigenvalues ---    0.16000   0.16000   0.16000   0.16000   0.16000
     Eigenvalues ---    0.16000   0.17153   0.17154   0.17913   0.17915
     Eigenvalues ---    0.26924   0.28644   0.28648   0.28689   0.28698
     Eigenvalues ---    0.31945   0.31955   0.32159   0.32164   0.32167
     Eigenvalues ---    0.32168   0.32194   0.32196   0.32256   0.32261
     Eigenvalues ---    0.32261   0.32265   0.32362   0.323631000.00000
     Eigenvalues --- 1000.000001000.000001000.000001000.000001000.00000
     Eigenvalues --- 1000.000001000.000001000.000001000.000001000.00000
     Eigenvalues --- 1000.000001000.000001000.000001000.000001000.00000
     Eigenvalues --- 1000.000001000.000001000.000001000.000001000.00000
     Eigenvalues --- 1000.000001000.000001000.000001000.000001000.00000
     Eigenvalues --- 1000.000001000.000001000.000001000.000001000.00000
     Eigenvalues --- 1000.000001000.000001000.000001000.000001000.00000
     Eigenvalues --- 1000.000001000.000001000.000001000.000001000.00000
     Eigenvalues --- 1000.000001000.000001000.000001000.000001000.00000
 RFO step:  Lambda=-7.56662852D-03 EMin= 2.30000000D-03
 Linear search not attempted -- first point.
 Iteration  1 RMS(Cart)=  0.06392836 RMS(Int)=  0.00110621
 Iteration  2 RMS(Cart)=  0.00163709 RMS(Int)=  0.00036110
 Iteration  3 RMS(Cart)=  0.00000072 RMS(Int)=  0.00036110
 Variable       Old X    -DE/DX   Delta X   Delta X   Delta X     New X
                                 (Linear)    (Quad)   (Total)
    R1        2.10187  -0.00983   0.00000  -0.02968  -0.02968   2.07218
    R2        2.10362  -0.01036   0.00000  -0.03138  -0.03138   2.07225
    R3        2.10539  -0.01011   0.00000  -0.03070  -0.03070   2.07469
    R4        2.90743  -0.00520   0.00000  -0.01768  -0.01768   2.88975
    R5        2.10945   0.00365   0.00000   0.01117   0.01117   2.12062
    R6        2.94553  -0.01099   0.00000  -0.03972  -0.03972   2.90581
    R7        2.90657  -0.00226   0.00000  -0.00768  -0.00768   2.89889
    R8        2.10927   0.00370   0.00000   0.01130   0.01130   2.12057
    R9        2.90638  -0.00220   0.00000  -0.00748  -0.00748   2.89890
   R10        2.90753  -0.00522   0.00000  -0.01776  -0.01776   2.88977
   R11        2.10378  -0.01026   0.00000  -0.03107  -0.03107   2.07271
   R12        2.10545  -0.01029   0.00000  -0.03126  -0.03126   2.07420
   R13        2.10487  -0.01035   0.00000  -0.03141  -0.03141   2.07346
   R14        2.10490  -0.01037   0.00000  -0.03146  -0.03146   2.07344
   R15        2.10368  -0.01024   0.00000  -0.03100  -0.03100   2.07268
   R16        2.10553  -0.01032   0.00000  -0.03134  -0.03134   2.07419
   R17        2.10369  -0.01038   0.00000  -0.03144  -0.03144   2.07225
   R18        2.10186  -0.00983   0.00000  -0.02968  -0.02968   2.07218
   R19        2.10537  -0.01011   0.00000  -0.03069  -0.03069   2.07468
    A1        1.90205  -0.00178   0.00000  -0.01725  -0.01724   1.88480
    A2        1.87660  -0.00079   0.00000   0.00075   0.00064   1.87725
    A3        1.93576   0.00060   0.00000   0.00274   0.00269   1.93845
    A4        1.88922  -0.00162   0.00000  -0.00820  -0.00826   1.88096
    A5        1.93820   0.00114   0.00000   0.00400   0.00397   1.94217
    A6        1.92034   0.00230   0.00000   0.01732   0.01723   1.93758
    A7        1.85799   0.00078   0.00000   0.02658   0.02624   1.88423
    A8        2.00236  -0.00325   0.00000  -0.03796  -0.03848   1.96388
    A9        1.92040   0.00317   0.00000   0.00471   0.00285   1.92325
   A10        1.86593   0.00081   0.00000   0.00513   0.00592   1.87184
   A11        1.84058   0.00140   0.00000   0.04235   0.04217   1.88275
   A12        1.96511  -0.00239   0.00000  -0.02981  -0.03043   1.93467
   A13        1.86593   0.00081   0.00000   0.00513   0.00591   1.87184
   A14        1.96508  -0.00239   0.00000  -0.02978  -0.03040   1.93468
   A15        2.00229  -0.00325   0.00000  -0.03794  -0.03846   1.96383
   A16        1.84065   0.00139   0.00000   0.04233   0.04216   1.88281
   A17        1.85805   0.00077   0.00000   0.02651   0.02617   1.88421
   A18        1.92037   0.00317   0.00000   0.00473   0.00288   1.92325
   A19        1.94055   0.00113   0.00000   0.00460   0.00459   1.94515
   A20        1.92136   0.00202   0.00000   0.01383   0.01373   1.93509
   A21        1.92918   0.00233   0.00000   0.01425   0.01416   1.94335
   A22        1.88811  -0.00175   0.00000  -0.01115  -0.01117   1.87693
   A23        1.89991  -0.00228   0.00000  -0.01700  -0.01700   1.88291
   A24        1.88329  -0.00167   0.00000  -0.00568  -0.00585   1.87744
   A25        1.92918   0.00233   0.00000   0.01422   0.01413   1.94331
   A26        1.94047   0.00114   0.00000   0.00467   0.00466   1.94513
   A27        1.92127   0.00202   0.00000   0.01385   0.01375   1.93502
   A28        1.89987  -0.00228   0.00000  -0.01696  -0.01696   1.88290
   A29        1.88345  -0.00167   0.00000  -0.00576  -0.00593   1.87752
   A30        1.88816  -0.00175   0.00000  -0.01116  -0.01119   1.87698
   A31        1.93822   0.00114   0.00000   0.00396   0.00393   1.94215
   A32        1.93573   0.00060   0.00000   0.00276   0.00271   1.93844
   A33        1.92031   0.00231   0.00000   0.01734   0.01725   1.93756
   A34        1.90202  -0.00177   0.00000  -0.01723  -0.01723   1.88479
   A35        1.88926  -0.00162   0.00000  -0.00821  -0.00827   1.88099
   A36        1.87664  -0.00079   0.00000   0.00074   0.00064   1.87728
    D1       -1.06709   0.00065   0.00000   0.00879   0.00890  -1.05818
    D2        0.99291   0.00029   0.00000   0.01121   0.01109   1.00400
    D3       -3.05319  -0.00293   0.00000  -0.05705  -0.05714  -3.11033
    D4        3.09833   0.00172   0.00000   0.02610   0.02626   3.12459
    D5       -1.12487   0.00136   0.00000   0.02852   0.02845  -1.09642
    D6        1.11222  -0.00186   0.00000  -0.03974  -0.03978   1.07244
    D7        1.00700   0.00151   0.00000   0.02246   0.02262   1.02962
    D8        3.06699   0.00115   0.00000   0.02489   0.02481   3.09180
    D9       -0.97911  -0.00207   0.00000  -0.04337  -0.04342  -1.02253
   D10        3.11389  -0.00052   0.00000  -0.03613  -0.03568   3.07821
   D11       -1.15590   0.00037   0.00000   0.00220   0.00219  -1.15371
   D12        1.05836  -0.00013   0.00000  -0.05044  -0.04956   1.00880
   D13       -1.11380  -0.00092   0.00000  -0.02173  -0.02172  -1.13552
   D14        0.89960  -0.00002   0.00000   0.01660   0.01615   0.91576
   D15        3.11386  -0.00052   0.00000  -0.03604  -0.03559   3.07826
   D16        0.89952  -0.00002   0.00000   0.01660   0.01616   0.91567
   D17        2.91291   0.00087   0.00000   0.05492   0.05403   2.96694
   D18       -1.15602   0.00037   0.00000   0.00229   0.00228  -1.15373
   D19        3.13660   0.00262   0.00000   0.04346   0.04370  -3.10289
   D20       -1.03452   0.00208   0.00000   0.03477   0.03496  -0.99956
   D21        1.05756   0.00196   0.00000   0.03291   0.03307   1.09062
   D22        1.13936  -0.00050   0.00000  -0.01195  -0.01214   1.12722
   D23       -3.03176  -0.00104   0.00000  -0.02064  -0.02088  -3.05264
   D24       -0.93968  -0.00117   0.00000  -0.02250  -0.02277  -0.96245
   D25       -0.88917  -0.00108   0.00000  -0.02821  -0.02812  -0.91729
   D26        1.22289  -0.00162   0.00000  -0.03690  -0.03686   1.18603
   D27       -2.96821  -0.00174   0.00000  -0.03876  -0.03875  -3.00696
   D28        1.22284  -0.00162   0.00000  -0.03688  -0.03684   1.18600
   D29       -2.96823  -0.00175   0.00000  -0.03878  -0.03877  -3.00700
   D30       -0.88934  -0.00107   0.00000  -0.02812  -0.02803  -0.91737
   D31       -3.03176  -0.00104   0.00000  -0.02062  -0.02086  -3.05263
   D32       -0.93965  -0.00117   0.00000  -0.02252  -0.02279  -0.96244
   D33        1.13924  -0.00049   0.00000  -0.01186  -0.01205   1.12719
   D34       -1.03444   0.00208   0.00000   0.03471   0.03490  -0.99954
   D35        1.05768   0.00195   0.00000   0.03282   0.03297   1.09064
   D36        3.13657   0.00263   0.00000   0.04347   0.04371  -3.10291
   D37       -1.12484   0.00136   0.00000   0.02846   0.02839  -1.09645
   D38        0.99289   0.00029   0.00000   0.01117   0.01105   1.00393
   D39        3.06697   0.00115   0.00000   0.02486   0.02479   3.09176
   D40        3.09835   0.00172   0.00000   0.02609   0.02625   3.12460
   D41       -1.06711   0.00065   0.00000   0.00879   0.00891  -1.05820
   D42        1.00698   0.00151   0.00000   0.02249   0.02265   1.02963
   D43        1.11214  -0.00185   0.00000  -0.03971  -0.03975   1.07238
   D44       -3.05332  -0.00293   0.00000  -0.05701  -0.05710  -3.11042
   D45       -0.97924  -0.00207   0.00000  -0.04331  -0.04336  -1.02260
         Item               Value     Threshold  Converged?
 Maximum Force            0.010994     0.000450     NO 
 RMS     Force            0.004115     0.000300     NO 
 Maximum Displacement     0.211476     0.001800     NO 
 RMS     Displacement     0.064549     0.001200     NO 
 Predicted change in Energy=-4.046865D-03
 GradGradGradGradGradGradGradGradGradGradGradGradGradGradGradGradGradGrad

 Leave Link  103 at Mon Sep 14 19:12:36 2015, MaxMem=  402653184 cpu:       0.1
 (Enter /share/apps/g09/l202.exe)
                          Input orientation:                          
 ---------------------------------------------------------------------
 Center     Atomic      Atomic             Coordinates (Angstroms)
 Number     Number       Type             X           Y           Z
 ---------------------------------------------------------------------
      1          6           0       -1.666324   -1.037502   -0.500930
      2          1           0       -1.220370   -2.035124   -0.592051
      3          1           0       -1.885892   -0.671113   -1.510904
      4          1           0       -2.620792   -1.148620    0.030091
      5          6           0       -0.731887   -0.083742    0.244447
      6          1           0       -0.559472   -0.500849    1.271865
      7          6           0        0.642801    0.043040   -0.432788
      8          1           0        1.228163    0.807861    0.143090
      9          6           0        1.408803   -1.284383   -0.366080
     10          1           0        0.933118   -2.053569   -0.986653
     11          1           0        2.438639   -1.160071   -0.724893
     12          1           0        1.459852   -1.664814    0.661818
     13          6           0       -1.393012    1.291788    0.399583
     14          1           0       -0.722588    2.003166    0.897944
     15          1           0       -1.670499    1.715409   -0.573326
     16          1           0       -2.307566    1.220303    1.002279
     17          6           0        0.540014    0.520962   -1.881745
     18          1           0       -0.010013   -0.198559   -2.500017
     19          1           0        0.022047    1.485537   -1.942788
     20          1           0        1.535978    0.651183   -2.324943
 ---------------------------------------------------------------------
                    Distance matrix (angstroms):
                    1          2          3          4          5
     1  C    0.000000
     2  H    1.096552   0.000000
     3  H    1.096585   1.774186   0.000000
     4  H    1.097880   1.770348   1.772782   0.000000
     5  C    1.529188   2.178585   2.181281   2.178962   0.000000
     6  H    2.157758   2.502992   3.087423   2.492118   1.122182
     7  C    2.550348   2.795628   2.840183   3.505047   1.537689
     8  H    3.492590   3.823389   3.823662   4.319149   2.155696
     9  C    3.087967   2.743579   3.541431   4.051299   2.529196
    10  H    2.832917   2.189420   3.183213   3.805651   2.857983
    11  H    4.112895   3.764533   4.422495   5.115464   3.485734
    12  H    3.393888   2.982097   4.111224   4.161393   2.734539
    13  C    2.512213   3.475843   2.783140   2.756730   1.534026
    14  H    3.477520   4.333088   3.782537   3.780225   2.186854
    15  H    2.753866   3.777494   2.573117   3.077310   2.187851
    16  H    2.787205   3.784401   3.173539   2.579740   2.181194
    17  C    3.033709   3.360928   2.728294   4.053803   2.550312
    18  H    2.728286   2.911747   2.172688   3.757689   2.840135
    19  H    3.360845   3.970282   2.911682   4.220857   2.795541
    20  H    4.053815   4.220973   3.757701   5.105312   3.505009
                    6          7          8          9         10
     6  H    0.000000
     7  C    2.155717   0.000000
     8  H    2.486462   1.122156   0.000000
     9  C    2.677853   1.534034   2.160872   0.000000
    10  H    3.120844   2.187880   3.090494   1.096829   0.000000
    11  H    3.662006   2.181246   2.468077   1.097617   1.770155
    12  H    2.409283   2.186892   2.537101   1.097227   1.773707
    13  C    2.160836   2.529180   2.677785   3.882405   4.303945
    14  H    2.537028   2.734452   2.409147   4.116863   4.769713
    15  H    3.090454   2.857959   3.120759   4.303929   4.599441
    16  H    2.467969   3.485689   3.661925   4.685857   5.017581
    17  C    3.492596   1.529200   2.157734   2.512231   2.753894
    18  H    3.823661   2.181278   3.087390   2.783117   2.573097
    19  H    3.823335   2.178586   2.502968   3.475854   3.777501
    20  H    4.319157   2.178957   2.492084   2.756761   3.077360
                   11         12         13         14         15
    11  H    0.000000
    12  H    1.770807   0.000000
    13  C    4.685895   4.116928   0.000000
    14  H    4.757418   4.274679   1.097219   0.000000
    15  H    5.017606   4.769757   1.096816   1.773689   0.000000
    16  H    5.583526   4.757442   1.097615   1.770851   1.770173
    17  C    2.787285   3.477561   3.087915   3.393783   2.832848
    18  H    3.173557   3.782540   3.541398   4.111143   3.183179
    19  H    3.784498   4.333124   2.743472   2.981976   2.189288
    20  H    2.579845   3.780261   4.051222   4.161247   3.805552
                   16         17         18         19         20
    16  H    0.000000
    17  C    4.112831   0.000000
    18  H    4.422442   1.096586   0.000000
    19  H    3.764421   1.096549   1.774179   0.000000
    20  H    5.115381   1.097873   1.772794   1.770360   0.000000
 Stoichiometry    C6H14
 Framework group  C1[X(C6H14)]
 Deg. of freedom    54
 Full point group                 C1      NOp   1
 Largest Abelian subgroup         C1      NOp   1
 Largest concise Abelian subgroup C1      NOp   1
                         Standard orientation:                         
 ---------------------------------------------------------------------
 Center     Atomic      Atomic             Coordinates (Angstroms)
 Number     Number       Type             X           Y           Z
 ---------------------------------------------------------------------
      1          6           0       -0.908818    1.214474    0.838430
      2          1           0       -0.129354    1.980963    0.924202
      3          1           0       -0.896049    0.614248    1.756070
      4          1           0       -1.876653    1.730406    0.788928
      5          6           0       -0.688387    0.342391   -0.398218
      6          1           0       -0.729685    1.006559   -1.301805
      7          6           0        0.688404   -0.342396   -0.398223
      8          1           0        0.729670   -1.006593   -1.301758
      9          6           0        1.813247    0.693152   -0.523234
     10          1           0        1.883952    1.318903    0.374803
     11          1           0        2.784568    0.200798   -0.660659
     12          1           0        1.652845    1.355178   -1.383408
     13          6           0       -1.813211   -0.693164   -0.523263
     14          1           0       -1.652724   -1.355189   -1.383413
     15          1           0       -1.883921   -1.318898    0.374769
     16          1           0       -2.784500   -0.200759   -0.660718
     17          6           0        0.908769   -1.214469    0.838459
     18          1           0        0.896012   -0.614202    1.756074
     19          1           0        0.129243   -1.980889    0.924244
     20          1           0        1.876570   -1.730450    0.788967
 ---------------------------------------------------------------------
 Rotational constants (GHZ):      4.2600067      2.6172778      2.2765316
 Leave Link  202 at Mon Sep 14 19:12:36 2015, MaxMem=  402653184 cpu:       0.0
 (Enter /share/apps/g09/l301.exe)
 Standard basis: VSTO-6G (5D, 7F)
 Ernie: Thresh=  0.10000D-02 Tol=  0.10000D-05 Strict=F.
  NNHCO=     0 NNPyr=     0 NCTC=     0               EPep=         0.000000000
    EC=       133.630752187  ECS=         3.245039647   EG=         0.307540148
   EHC=         0.000466726  EAt=       -31.187935768  AtH=         2.796400831
 EPDDG=         0.000000000  ECC=       137.183798708 EAtT=        33.984336599
 There are    38 symmetry adapted basis functions of A   symmetry.
 Integral buffers will be    131072 words long.
 Regular integral format.
 Two-electron integral symmetry is turned off.
    38 basis functions,   228 primitive gaussians,    38 cartesian basis functions
    19 alpha electrons       19 beta electrons
       nuclear repulsion energy       171.1681353070 Hartrees.
 IExCor=    0 DFT=F Ex=HF Corr=None ExCW=0 ScaHFX=  1.000000
 ScaDFX=  1.000000  1.000000  1.000000  1.000000 ScalE2=  1.000000  1.000000
 IRadAn=      0 IRanWt=     -1 IRanGd=            0 ICorTp=0
 Leave Link  301 at Mon Sep 14 19:12:37 2015, MaxMem=  402653184 cpu:       0.1
 (Enter /share/apps/g09/l302.exe)
 Do NDO integrals.
 NPDir=0 NMtPBC=     1 NCelOv=     1 NCel=       1 NClECP=     1 NCelD=      1
         NCelK=      1 NCelE2=     1 NClLst=     1 CellRange=     0.0.
 One-electron integrals computed using PRISM.
 NBasis=    38 RedAO= F  NBF=    38
 NBsUse=    38 1.00D-04 NBFU=    38
 Leave Link  302 at Mon Sep 14 19:12:39 2015, MaxMem=  402653184 cpu:       0.1
 (Enter /share/apps/g09/l303.exe)
 DipDrv:  MaxL=1.
 Leave Link  303 at Mon Sep 14 19:12:41 2015, MaxMem=  402653184 cpu:       0.0
 (Enter /share/apps/g09/l401.exe)
 Initial guess read from the read-write file.
 B after Tr=     0.000000    0.000000    0.000000
         Rot=    1.000000    0.000000    0.000000    0.000000 Ang=   0.00 deg.
 Guess basis will be translated and rotated to current coordinates.
 Initial guess orbital symmetries:
       Occupied  (A) (A) (A) (A) (A) (A) (A) (A) (A) (A) (A) (A)
                 (A) (A) (A) (A) (A) (A) (A)
       Virtual   (A) (A) (A) (A) (A) (A) (A) (A) (A) (A) (A) (A)
                 (A) (A) (A) (A) (A) (A) (A)
 The electronic state of the initial guess is 1-A.
 Leave Link  401 at Mon Sep 14 19:12:41 2015, MaxMem=  402653184 cpu:       0.2
 (Enter /share/apps/g09/l502.exe)
 Closed shell SCF:
 Requested convergence on RMS density matrix=1.00D-08 within 128 cycles.
 Requested convergence on MAX density matrix=1.00D-06.
 Requested convergence on             energy=1.00D-06.
 No special actions if energy rises.
 Using DIIS extrapolation, IDIIS=  1040.
 Overlap will be assumed to be unity.
 Two-electron integral symmetry not used.
 Keep J ints in memory in canonical form, NReq=884654.
 IEnd=       81865 IEndB=       81865 NGot=   402653184 MDV=   402586639
 LenX=   402586639 LenY=   402584754
 Symmetry not used in FoFDir.
 MinBra= 0 MaxBra= 1 Meth=40.
 IRaf=       0 NMat=   1 IRICut=       1 DoRegI=T DoRafI=F ISym2E= 0 JSym2E=0.

 Cycle   1  Pass 1  IDiag  1:
 E=-0.433697310128593E-01
 DIIS: error= 7.71D-03 at cycle   1 NSaved=   1.
 NSaved= 1 IEnMin= 1 EnMin=-0.433697310128593E-01 IErMin= 1 ErrMin= 7.71D-03
 ErrMax= 7.71D-03 EMaxC= 1.00D-01 BMatC= 3.12D-03 BMatP= 3.12D-03
 IDIUse=3 WtCom= 9.23D-01 WtEn= 7.71D-02
 Coeff-Com:  0.100D+01
 Coeff-En:   0.100D+01
 Coeff:      0.100D+01
 GapD=    2.000 DampG=2.000 DampE=1.000 DampFc=2.0000 IDamp=-1.
 RMSDP=2.71D-03 MaxDP=1.70D-02              OVMax= 0.00D+00

 Cycle   2  Pass 1  IDiag  3:
 E=-0.546319352870910E-01 Delta-E=       -0.011262204274 Rises=F Damp=F
 DIIS: error= 3.31D-03 at cycle   2 NSaved=   2.
 NSaved= 2 IEnMin= 2 EnMin=-0.546319352870910E-01 IErMin= 2 ErrMin= 3.31D-03
 ErrMax= 3.31D-03 EMaxC= 1.00D-01 BMatC= 5.12D-04 BMatP= 3.12D-03
 IDIUse=3 WtCom= 9.67D-01 WtEn= 3.31D-02
 Coeff-Com: -0.621D+00 0.162D+01
 Coeff-En:   0.000D+00 0.100D+01
 Coeff:     -0.600D+00 0.160D+01
 Gap=     0.553 Goal=   None    Shift=    0.000
 RMSDP=1.86D-03 MaxDP=1.19D-02 DE=-1.13D-02 OVMax= 0.00D+00

 Cycle   3  Pass 1  IDiag  3:
 E=-0.570897994289510E-01 Delta-E=       -0.002457864142 Rises=F Damp=F
 DIIS: error= 4.00D-04 at cycle   3 NSaved=   3.
 NSaved= 3 IEnMin= 3 EnMin=-0.570897994289510E-01 IErMin= 3 ErrMin= 4.00D-04
 ErrMax= 4.00D-04 EMaxC= 1.00D-01 BMatC= 7.41D-06 BMatP= 5.12D-04
 IDIUse=3 WtCom= 9.96D-01 WtEn= 4.00D-03
 Coeff-Com:  0.211D+00-0.628D+00 0.142D+01
 Coeff-En:   0.000D+00 0.000D+00 0.100D+01
 Coeff:      0.210D+00-0.625D+00 0.142D+01
 Gap=     0.553 Goal=   None    Shift=    0.000
 RMSDP=2.49D-04 MaxDP=1.59D-03 DE=-2.46D-03 OVMax= 0.00D+00

 Cycle   4  Pass 1  IDiag  3:
 E=-0.571269003428654E-01 Delta-E=       -0.000037100914 Rises=F Damp=F
 DIIS: error= 2.77D-05 at cycle   4 NSaved=   4.
 NSaved= 4 IEnMin= 4 EnMin=-0.571269003428654E-01 IErMin= 4 ErrMin= 2.77D-05
 ErrMax= 2.77D-05 EMaxC= 1.00D-01 BMatC= 8.74D-08 BMatP= 7.41D-06
 IDIUse=1 WtCom= 1.00D+00 WtEn= 0.00D+00
 Coeff-Com: -0.860D-01 0.258D+00-0.619D+00 0.145D+01
 Coeff:     -0.860D-01 0.258D+00-0.619D+00 0.145D+01
 Gap=     0.553 Goal=   None    Shift=    0.000
 RMSDP=2.46D-05 MaxDP=1.12D-04 DE=-3.71D-05 OVMax= 0.00D+00

 Cycle   5  Pass 1  IDiag  3:
 E=-0.571273683875688E-01 Delta-E=       -0.000000468045 Rises=F Damp=F
 DIIS: error= 8.06D-06 at cycle   5 NSaved=   5.
 NSaved= 5 IEnMin= 5 EnMin=-0.571273683875688E-01 IErMin= 5 ErrMin= 8.06D-06
 ErrMax= 8.06D-06 EMaxC= 1.00D-01 BMatC= 7.15D-09 BMatP= 8.74D-08
 IDIUse=1 WtCom= 1.00D+00 WtEn= 0.00D+00
 Coeff-Com:  0.397D-01-0.119D+00 0.290D+00-0.842D+00 0.163D+01
 Coeff:      0.397D-01-0.119D+00 0.290D+00-0.842D+00 0.163D+01
 Gap=     0.553 Goal=   None    Shift=    0.000
 RMSDP=8.85D-06 MaxDP=4.82D-05 DE=-4.68D-07 OVMax= 0.00D+00

 Cycle   6  Pass 1  IDiag  3:
 E=-0.571274160759003E-01 Delta-E=       -0.000000047688 Rises=F Damp=F
 DIIS: error= 2.20D-06 at cycle   6 NSaved=   6.
 NSaved= 6 IEnMin= 6 EnMin=-0.571274160759003E-01 IErMin= 6 ErrMin= 2.20D-06
 ErrMax= 2.20D-06 EMaxC= 1.00D-01 BMatC= 5.94D-10 BMatP= 7.15D-09
 IDIUse=1 WtCom= 1.00D+00 WtEn= 0.00D+00
 Coeff-Com: -0.166D-01 0.497D-01-0.122D+00 0.377D+00-0.929D+00 0.164D+01
 Coeff:     -0.166D-01 0.497D-01-0.122D+00 0.377D+00-0.929D+00 0.164D+01
 Gap=     0.553 Goal=   None    Shift=    0.000
 RMSDP=2.73D-06 MaxDP=2.01D-05 DE=-4.77D-08 OVMax= 0.00D+00

 Cycle   7  Pass 1  IDiag  3:
 E=-0.571274203315397E-01 Delta-E=       -0.000000004256 Rises=F Damp=F
 DIIS: error= 7.47D-07 at cycle   7 NSaved=   7.
 NSaved= 7 IEnMin= 7 EnMin=-0.571274203315397E-01 IErMin= 7 ErrMin= 7.47D-07
 ErrMax= 7.47D-07 EMaxC= 1.00D-01 BMatC= 5.20D-11 BMatP= 5.94D-10
 IDIUse=1 WtCom= 1.00D+00 WtEn= 0.00D+00
 Coeff-Com:  0.344D-02-0.103D-01 0.254D-01-0.832D-01 0.249D+00-0.729D+00
 Coeff-Com:  0.154D+01
 Coeff:      0.344D-02-0.103D-01 0.254D-01-0.832D-01 0.249D+00-0.729D+00
 Coeff:      0.154D+01
 Gap=     0.553 Goal=   None    Shift=    0.000
 RMSDP=8.49D-07 MaxDP=6.51D-06 DE=-4.26D-09 OVMax= 0.00D+00

 Cycle   8  Pass 1  IDiag  3:
 E=-0.571274207043473E-01 Delta-E=       -0.000000000373 Rises=F Damp=F
 DIIS: error= 1.86D-07 at cycle   8 NSaved=   8.
 NSaved= 8 IEnMin= 8 EnMin=-0.571274207043473E-01 IErMin= 8 ErrMin= 1.86D-07
 ErrMax= 1.86D-07 EMaxC= 1.00D-01 BMatC= 2.74D-12 BMatP= 5.20D-11
 IDIUse=1 WtCom= 1.00D+00 WtEn= 0.00D+00
 Coeff-Com: -0.211D-03 0.621D-03-0.155D-02 0.700D-02-0.358D-01 0.177D+00
 Coeff-Com: -0.618D+00 0.147D+01
 Coeff:     -0.211D-03 0.621D-03-0.155D-02 0.700D-02-0.358D-01 0.177D+00
 Coeff:     -0.618D+00 0.147D+01
 Gap=     0.553 Goal=   None    Shift=    0.000
 RMSDP=1.90D-07 MaxDP=1.33D-06 DE=-3.73D-10 OVMax= 0.00D+00

 Cycle   9  Pass 1  IDiag  3:
 E=-0.571274207223382E-01 Delta-E=       -0.000000000018 Rises=F Damp=F
 DIIS: error= 4.15D-08 at cycle   9 NSaved=   9.
 NSaved= 9 IEnMin= 9 EnMin=-0.571274207223382E-01 IErMin= 9 ErrMin= 4.15D-08
 ErrMax= 4.15D-08 EMaxC= 1.00D-01 BMatC= 9.75D-14 BMatP= 2.74D-12
 IDIUse=1 WtCom= 1.00D+00 WtEn= 0.00D+00
 Coeff-Com:  0.109D-04-0.276D-04 0.812D-04-0.114D-02 0.100D-01-0.610D-01
 Coeff-Com:  0.238D+00-0.679D+00 0.149D+01
 Coeff:      0.109D-04-0.276D-04 0.812D-04-0.114D-02 0.100D-01-0.610D-01
 Coeff:      0.238D+00-0.679D+00 0.149D+01
 Gap=     0.553 Goal=   None    Shift=    0.000
 RMSDP=3.08D-08 MaxDP=2.03D-07 DE=-1.80D-11 OVMax= 0.00D+00

 Cycle  10  Pass 1  IDiag  3:
 E=-0.571274207230488E-01 Delta-E=       -0.000000000001 Rises=F Damp=F
 DIIS: error= 7.54D-09 at cycle  10 NSaved=  10.
 NSaved=10 IEnMin=10 EnMin=-0.571274207230488E-01 IErMin=10 ErrMin= 7.54D-09
 ErrMax= 7.54D-09 EMaxC= 1.00D-01 BMatC= 3.77D-15 BMatP= 9.75D-14
 IDIUse=1 WtCom= 1.00D+00 WtEn= 0.00D+00
 Coeff-Com:  0.108D-05-0.525D-05 0.767D-05 0.318D-03-0.355D-02 0.227D-01
 Coeff-Com: -0.901D-01 0.265D+00-0.699D+00 0.151D+01
 Coeff:      0.108D-05-0.525D-05 0.767D-05 0.318D-03-0.355D-02 0.227D-01
 Coeff:     -0.901D-01 0.265D+00-0.699D+00 0.151D+01
 Gap=     0.553 Goal=   None    Shift=    0.000
 RMSDP=6.04D-09 MaxDP=4.24D-08 DE=-7.11D-13 OVMax= 0.00D+00

 Cycle  11  Pass 2  IDiag  1:
 RMSDP=6.04D-09 MaxDP=4.24D-08 DE=-7.11D-13 OVMax= 0.00D+00

 SCF Done:  E(RPM6) = -0.571274207230E-01 A.U. after   11 cycles
             Convg  =    0.6040D-08             -V/T =  0.9990
 KE=-5.638192188411D+01 PE=-2.631080645856D+02 EE= 1.482647237420D+02
 Leave Link  502 at Mon Sep 14 19:12:43 2015, MaxMem=  402653184 cpu:       0.4
 (Enter /share/apps/g09/l701.exe)
 Compute integral first derivatives.
 ... and contract with generalized density number  0.
 Leave Link  701 at Mon Sep 14 19:12:43 2015, MaxMem=  402653184 cpu:       0.1
 (Enter /share/apps/g09/l702.exe)
 L702 exits ... SP integral derivatives will be done elsewhere.
 Leave Link  702 at Mon Sep 14 19:12:46 2015, MaxMem=  402653184 cpu:       0.0
 (Enter /share/apps/g09/l703.exe)
 Compute integral first derivatives, UseDBF=F ICtDFT=           0.
 Integral derivatives from FoFDir, PRISM(SPDF).
 Calling FoFJK, ICntrl=      2127 FMM=F ISym2X=0 I1Cent= 0 IOpClX= 0 NMat=1 NMatS=1 NMatT=0.
 FoFCou: FMM=F IPFlag=           0 FMFlag=      100000 FMFlg1=         800
         NFxFlg=           0 DoJE=F BraDBF=F KetDBF=F FulRan=T
         Omega=  0.000000  0.000000  1.000000  0.000000  0.000000 ICntrl=    2127 IOpCl=  0
         NMat0=    1 NMatS0=    1 NMatT0=    0 NMatD0=    1 NMtDS0=    0 NMtDT0=    0
         I1Cent=           0 NGrid=           0.
 Symmetry not used in FoFCou.
 Leave Link  703 at Mon Sep 14 19:12:47 2015, MaxMem=  402653184 cpu:       0.1
 (Enter /share/apps/g09/l716.exe)
 Dipole        = 7.02074089D-06 3.83714379D-05 3.81083908D-02
 ***** Axes restored to original set *****
 -------------------------------------------------------------------
 Center     Atomic                   Forces (Hartrees/Bohr)
 Number     Number              X              Y              Z
 -------------------------------------------------------------------
      1        6          -0.003427438   -0.002394229    0.000513354
      2        1          -0.000837971    0.000404797   -0.000628494
      3        1          -0.000589086   -0.001101263    0.000442574
      4        1           0.000924401   -0.000030772   -0.001249307
      5        6          -0.005984704   -0.000446001    0.005315191
      6        1          -0.000663984    0.000297488   -0.000059092
      7        6           0.007754527    0.001247414   -0.001567132
      8        1           0.000444201   -0.000400435   -0.000419068
      9        6           0.002447403   -0.000751094    0.001023223
     10        1           0.000754287    0.000154571    0.000764053
     11        1          -0.001216655   -0.000720920    0.000325169
     12        1           0.000208934   -0.000125509   -0.001457652
     13        6          -0.000946497    0.001435847    0.002152055
     14        1          -0.001242750   -0.000342170   -0.000719831
     15        1           0.000099683    0.000244212    0.001048249
     16        1           0.000913339    0.000589799   -0.000963839
     17        6           0.002217778    0.001832625   -0.003068001
     18        1           0.000535147    0.001076334   -0.000561324
     19        1           0.000141982   -0.000722602   -0.000847388
     20        1          -0.001532595   -0.000248091   -0.000042740
 -------------------------------------------------------------------
 Cartesian Forces:  Max     0.007754527 RMS     0.001834354
 Leave Link  716 at Mon Sep 14 19:12:49 2015, MaxMem=  402653184 cpu:       0.0
 (Enter /share/apps/g09/l103.exe)

 GradGradGradGradGradGradGradGradGradGradGradGradGradGradGradGradGradGrad
 Berny optimization.
 Using GEDIIS/GDIIS optimizer.
 Internal  Forces:  Max     0.013196460 RMS     0.001669227
 Search for a local minimum.
 Step number   2 out of a maximum of  110
 All quantities printed in internal units (Hartrees-Bohrs-Radians)
 RMS Force = .16692D-02 SwitMx=.10000D-02 MixMth= 1
 Mixed Optimization -- RFO/linear search
 Update second derivatives using D2CorX and points    1    2
 DE= -3.42D-03 DEPred=-4.05D-03 R= 8.44D-01
 SS=  1.41D+00  RLast= 2.70D-01 DXNew= 5.0454D-01 8.1018D-01
 Trust test= 8.44D-01 RLast= 2.70D-01 DXMaxT set to 5.05D-01
 Use linear search instead of GDIIS.
     Eigenvalues ---    0.00230   0.00255   0.00256   0.00262   0.00263
     Eigenvalues ---    0.03378   0.03721   0.04652   0.04747   0.04850
     Eigenvalues ---    0.05070   0.05371   0.05374   0.05404   0.05417
     Eigenvalues ---    0.05436   0.05451   0.05452   0.05452   0.14922
     Eigenvalues ---    0.16000   0.16000   0.16000   0.16000   0.16000
     Eigenvalues ---    0.16000   0.16000   0.16000   0.16000   0.16000
     Eigenvalues ---    0.16022   0.16669   0.16777   0.17065   0.17248
     Eigenvalues ---    0.25447   0.28249   0.28646   0.28683   0.28695
     Eigenvalues ---    0.31932   0.31951   0.32161   0.32165   0.32168
     Eigenvalues ---    0.32178   0.32195   0.32206   0.32257   0.32261
     Eigenvalues ---    0.32263   0.32338   0.32362   0.373581000.00000
     Eigenvalues --- 1000.000001000.000001000.000001000.000001000.00000
     Eigenvalues --- 1000.000001000.000001000.000001000.000001000.00000
     Eigenvalues --- 1000.000001000.000001000.000001000.000001000.00000
     Eigenvalues --- 1000.000001000.000001000.000001000.000001000.00000
     Eigenvalues --- 1000.000001000.000001000.000001000.000001000.00000
     Eigenvalues --- 1000.000001000.000001000.000001000.000001000.00000
     Eigenvalues --- 1000.000001000.000001000.000001000.000001000.00000
     Eigenvalues --- 1000.000001000.000001000.000001000.000001000.00000
     Eigenvalues --- 1000.000001000.000001000.000001000.000001000.00000
 RFO step:  Lambda=-9.58038466D-04 EMin= 2.29822171D-03
 Quartic linear search produced a step of -0.10336.
 Iteration  1 RMS(Cart)=  0.03077467 RMS(Int)=  0.00022483
 Iteration  2 RMS(Cart)=  0.00032218 RMS(Int)=  0.00003115
 Iteration  3 RMS(Cart)=  0.00000003 RMS(Int)=  0.00003115
 Variable       Old X    -DE/DX   Delta X   Delta X   Delta X     New X
                                 (Linear)    (Quad)   (Total)
    R1        2.07218  -0.00066   0.00307  -0.00885  -0.00578   2.06640
    R2        2.07225  -0.00066   0.00324  -0.00926  -0.00602   2.06623
    R3        2.07469  -0.00140   0.00317  -0.01118  -0.00801   2.06668
    R4        2.88975   0.00480   0.00183   0.01077   0.01259   2.90234
    R5        2.12062  -0.00027  -0.00115   0.00190   0.00075   2.12137
    R6        2.90581   0.01320   0.00410   0.03434   0.03845   2.94426
    R7        2.89889   0.00239   0.00079   0.00562   0.00641   2.90530
    R8        2.12057  -0.00026  -0.00117   0.00196   0.00079   2.12136
    R9        2.89890   0.00237   0.00077   0.00561   0.00638   2.90529
   R10        2.88977   0.00480   0.00184   0.01075   0.01258   2.90235
   R11        2.07271  -0.00087   0.00321  -0.00977  -0.00656   2.06615
   R12        2.07420  -0.00133   0.00323  -0.01111  -0.00787   2.06632
   R13        2.07346  -0.00131   0.00325  -0.01109  -0.00784   2.06561
   R14        2.07344  -0.00131   0.00325  -0.01109  -0.00784   2.06561
   R15        2.07268  -0.00086   0.00320  -0.00973  -0.00653   2.06615
   R16        2.07419  -0.00133   0.00324  -0.01112  -0.00788   2.06631
   R17        2.07225  -0.00066   0.00325  -0.00928  -0.00603   2.06622
   R18        2.07218  -0.00066   0.00307  -0.00885  -0.00578   2.06640
   R19        2.07468  -0.00140   0.00317  -0.01117  -0.00800   2.06668
    A1        1.88480  -0.00112   0.00178  -0.01044  -0.00867   1.87613
    A2        1.87725  -0.00058  -0.00007  -0.00218  -0.00225   1.87499
    A3        1.93845   0.00088  -0.00028   0.00601   0.00572   1.94416
    A4        1.88096  -0.00100   0.00085  -0.00849  -0.00764   1.87332
    A5        1.94217   0.00125  -0.00041   0.00744   0.00702   1.94919
    A6        1.93758   0.00042  -0.00178   0.00651   0.00472   1.94229
    A7        1.88423  -0.00052  -0.00271  -0.00204  -0.00471   1.87953
    A8        1.96388   0.00166   0.00398   0.00602   0.01005   1.97393
    A9        1.92325  -0.00060  -0.00029   0.00180   0.00166   1.92491
   A10        1.87184  -0.00030  -0.00061  -0.00183  -0.00252   1.86933
   A11        1.88275  -0.00014  -0.00436  -0.00120  -0.00555   1.87719
   A12        1.93467  -0.00016   0.00315  -0.00313   0.00004   1.93471
   A13        1.87184  -0.00030  -0.00061  -0.00181  -0.00250   1.86934
   A14        1.93468  -0.00017   0.00314  -0.00315   0.00002   1.93470
   A15        1.96383   0.00167   0.00397   0.00607   0.01010   1.97392
   A16        1.88281  -0.00015  -0.00436  -0.00126  -0.00561   1.87720
   A17        1.88421  -0.00052  -0.00270  -0.00203  -0.00469   1.87952
   A18        1.92325  -0.00060  -0.00030   0.00179   0.00165   1.92490
   A19        1.94515   0.00059  -0.00047   0.00388   0.00340   1.94855
[...]
 ! D10   D(1,5,7,8)            172.4148         -DE/DX =    0.0                 !
 ! D11   D(1,5,7,9)            -70.4608         -DE/DX =    0.0                 !
 ! D12   D(1,5,7,17)            53.9241         -DE/DX =    0.0                 !
 ! D13   D(6,5,7,8)            -69.0944         -DE/DX =    0.0                 !
 ! D14   D(6,5,7,9)             48.0299         -DE/DX =    0.0                 !
 ! D15   D(6,5,7,17)           172.4148         -DE/DX =    0.0                 !
 ! D16   D(13,5,7,8)            48.0299         -DE/DX =    0.0                 !
 ! D17   D(13,5,7,9)           165.1543         -DE/DX =    0.0                 !
 ! D18   D(13,5,7,17)          -70.4608         -DE/DX =    0.0                 !
 ! D19   D(1,5,13,14)          176.8531         -DE/DX =    0.0                 !
 ! D20   D(1,5,13,15)          -62.8352         -DE/DX =    0.0                 !
 ! D21   D(1,5,13,16)           56.8705         -DE/DX =    0.0                 !
 ! D22   D(6,5,13,14)           59.4692         -DE/DX =    0.0                 !
 ! D23   D(6,5,13,15)          179.7808         -DE/DX =    0.0                 !
 ! D24   D(6,5,13,16)          -60.5135         -DE/DX =    0.0                 !
 ! D25   D(7,5,13,14)          -57.2948         -DE/DX =    0.0                 !
 ! D26   D(7,5,13,15)           63.0168         -DE/DX =    0.0                 !
 ! D27   D(7,5,13,16)         -177.2775         -DE/DX =    0.0                 !
 ! D28   D(5,7,9,10)            63.0182         -DE/DX =    0.0                 !
 ! D29   D(5,7,9,11)          -177.2761         -DE/DX =    0.0                 !
 ! D30   D(5,7,9,12)           -57.2934         -DE/DX =    0.0                 !
 ! D31   D(8,7,9,10)           179.7822         -DE/DX =    0.0                 !
 ! D32   D(8,7,9,11)           -60.5121         -DE/DX =    0.0                 !
 ! D33   D(8,7,9,12)            59.4705         -DE/DX =    0.0                 !
 ! D34   D(17,7,9,10)          -62.8339         -DE/DX =    0.0                 !
 ! D35   D(17,7,9,11)           56.8718         -DE/DX =    0.0                 !
 ! D36   D(17,7,9,12)          176.8545         -DE/DX =    0.0                 !
 ! D37   D(5,7,17,18)          -67.0205         -DE/DX =    0.0                 !
 ! D38   D(5,7,17,19)           53.1011         -DE/DX =    0.0                 !
 ! D39   D(5,7,17,20)          173.0969         -DE/DX =    0.0                 !
 ! D40   D(8,7,17,18)          174.8636         -DE/DX =    0.0                 !
 ! D41   D(8,7,17,19)          -65.0148         -DE/DX =    0.0                 !
 ! D42   D(8,7,17,20)           54.981          -DE/DX =    0.0                 !
 ! D43   D(9,7,17,18)           57.5157         -DE/DX =    0.0                 !
 ! D44   D(9,7,17,19)          177.6374         -DE/DX =    0.0                 !
 ! D45   D(9,7,17,20)          -62.3668         -DE/DX =    0.0                 !
 --------------------------------------------------------------------------------
 GradGradGradGradGradGradGradGradGradGradGradGradGradGradGradGradGradGrad

 Largest change from initial coordinates is atom    2       0.196 Angstoms.
 Leave Link  103 at Mon Sep 14 19:14:17 2015, MaxMem=  402653184 cpu:       0.0
 (Enter /share/apps/g09/l202.exe)
                          Input orientation:                          
 ---------------------------------------------------------------------
 Center     Atomic      Atomic             Coordinates (Angstroms)
 Number     Number       Type             X           Y           Z
 ---------------------------------------------------------------------
      1          6           0       -1.704539   -1.009658   -0.529812
      2          1           0       -1.248809   -1.986283   -0.724684
      3          1           0       -1.990742   -0.581639   -1.496448
      4          1           0       -2.625280   -1.180028    0.037504
      5          6           0       -0.745612   -0.090506    0.235263
      6          1           0       -0.572030   -0.542871    1.245406
      7          6           0        0.643754    0.043945   -0.450606
      8          1           0        1.209879    0.835679    0.104203
      9          6           0        1.435841   -1.265742   -0.331836
     10          1           0        0.934215   -2.089154   -0.851947
     11          1           0        2.434226   -1.164467   -0.770114
     12          1           0        1.563748   -1.565452    0.713130
     13          6           0       -1.382067    1.290582    0.445753
     14          1           0       -0.735796    1.945472    1.038707
     15          1           0       -1.576733    1.794543   -0.507285
     16          1           0       -2.339098    1.208285    0.971525
     17          6           0        0.547800    0.479129   -1.917279
     18          1           0        0.083135   -0.293384   -2.539218
     19          1           0       -0.050243    1.390461   -2.023481
     20          1           0        1.539352    0.681991   -2.334782
 ---------------------------------------------------------------------
                    Distance matrix (angstroms):
                    1          2          3          4          5
     1  C    0.000000
     2  H    1.095199   0.000000
     3  H    1.095215   1.766100   0.000000
     4  H    1.094823   1.767951   1.764573   0.000000
     5  C    1.532881   2.183730   2.188695   2.181587   0.000000
     6  H    2.156819   2.534309   3.087395   2.465934   1.120336
     7  C    2.575041   2.789039   2.902707   3.524620   1.555259
     8  H    3.507289   3.833493   3.849006   4.333124   2.167703
     9  C    3.157018   2.807286   3.683176   4.078782   2.541951
    10  H    2.869165   2.189149   3.353111   3.779900   2.828151
    11  H    4.148625   3.773883   4.521901   5.123582   3.503647
    12  H    3.540552   3.186672   4.299362   4.260631   2.781540
    13  C    2.519290   3.482173   2.765473   2.795740   1.535183
    14  H    3.483032   4.339519   3.793176   3.786992   2.188795
    15  H    2.807203   3.801242   2.606931   3.200675   2.189875
    16  H    2.752444   3.777713   3.068561   2.580374   2.183607
    17  C    3.035553   3.275415   2.783257   4.079512   2.575041
    18  H    2.783261   2.816472   2.339108   3.842024   2.902710
    19  H    3.275411   3.811277   2.816466   4.181613   2.789037
    20  H    4.079513   4.181619   3.842021   5.141888   3.524620
                    6          7          8          9         10
     6  H    0.000000
     7  C    2.167704   0.000000
     8  H    2.525459   1.120336   0.000000
     9  C    2.653635   1.535183   2.158045   0.000000
    10  H    3.009760   2.189875   3.089476   1.095514   0.000000
    11  H    3.672367   2.183606   2.502806   1.095042   1.764023
    12  H    2.427043   2.188796   2.502288   1.094596   1.766364
    13  C    2.158045   2.541951   2.653635   3.883303   4.297884
    14  H    2.502278   2.781549   2.427054   4.111726   4.758332
    15  H    3.089476   2.828139   3.009742   4.297876   4.637538
    16  H    2.502816   3.503648   3.672372   4.697842   4.991266
    17  C    3.507290   1.532881   2.156819   2.519290   2.807192
    18  H    3.849008   2.188695   3.087395   2.765471   2.606916
    19  H    3.833492   2.183730   2.534311   3.482172   3.801233
    20  H    4.333124   2.181587   2.465932   2.795742   3.200661
                   11         12         13         14         15
    11  H    0.000000
    12  H    1.765938   0.000000
    13  C    4.697839   4.111721   0.000000
    14  H    4.795060   4.209572   1.094596   0.000000
    15  H    4.991254   4.758320   1.095515   1.766365   0.000000
    16  H    5.607841   4.795059   1.095042   1.765938   1.764023
    17  C    2.752453   3.483032   3.157018   3.540569   2.869153
    18  H    3.068574   3.793170   3.683180   4.299380   3.353111
    19  H    3.777721   4.339520   2.807284   3.186693   2.189134
    20  H    2.580386   3.786999   4.078780   4.260647   3.779882
                   16         17         18         19         20
    16  H    0.000000
    17  C    4.148618   0.000000
    18  H    4.521895   1.095215   0.000000
    19  H    3.773871   1.095199   1.766099   0.000000
    20  H    5.123575   1.094823   1.764573   1.767951   0.000000
 Stoichiometry    C6H14
 Framework group  C1[X(C6H14)]
 Deg. of freedom    54
 Full point group                 C1      NOp   1
 Largest Abelian subgroup         C1      NOp   1
 Largest concise Abelian subgroup C1      NOp   1
                         Standard orientation:                         
 ---------------------------------------------------------------------
 Center     Atomic      Atomic             Coordinates (Angstroms)
 Number     Number       Type             X           Y           Z
 ---------------------------------------------------------------------
      1          6           0       -0.961933    1.174024    0.873504
      2          1           0       -0.158777    1.899015    1.043179
      3          1           0       -1.033619    0.547250    1.768776
      4          1           0       -1.900344    1.731602    0.789075
      5          6           0       -0.700476    0.337699   -0.384242
      6          1           0       -0.733598    1.027774   -1.266202
      7          6           0        0.700476   -0.337699   -0.384243
      8          1           0        0.733597   -1.027774   -1.266202
      9          6           0        1.807222    0.709901   -0.569803
     10          1           0        1.829768    1.424306    0.260419
     11          1           0        2.793850    0.237409   -0.619124
     12          1           0        1.669444    1.281826   -1.492874
     13          6           0       -1.807222   -0.709902   -0.569803
     14          1           0       -1.669457   -1.281810   -1.492886
     15          1           0       -1.829752   -1.424321    0.260408
     16          1           0       -2.793853   -0.237412   -0.619100
     17          6           0        0.961933   -1.174023    0.873504
     18          1           0        1.033625   -0.547249    1.768775
     19          1           0        0.158775   -1.899011    1.043183
     20          1           0        1.900341   -1.731606    0.789072
 ---------------------------------------------------------------------
 Rotational constants (GHZ):      4.2296519      2.5386530      2.2712789
 Leave Link  202 at Mon Sep 14 19:14:18 2015, MaxMem=  402653184 cpu:       0.0
 (Enter /share/apps/g09/l601.exe)
 Copying SCF densities to generalized density rwf, IOpCl= 0 IROHF=0.

 **********************************************************************

            Population analysis using the SCF density.

 **********************************************************************

 Orbital symmetries:
       Occupied  (A) (A) (A) (A) (A) (A) (A) (A) (A) (A) (A) (A)
                 (A) (A) (A) (A) (A) (A) (A)
       Virtual   (A) (A) (A) (A) (A) (A) (A) (A) (A) (A) (A) (A)
                 (A) (A) (A) (A) (A) (A) (A)
 The electronic state is 1-A.
 Alpha  occ. eigenvalues --   -1.06873  -0.96316  -0.89120  -0.87490  -0.77840
 Alpha  occ. eigenvalues --   -0.67231  -0.58717  -0.55602  -0.55043  -0.50800
 Alpha  occ. eigenvalues --   -0.49986  -0.48439  -0.47337  -0.47125  -0.44336
 Alpha  occ. eigenvalues --   -0.44155  -0.41172  -0.40672  -0.39711
 Alpha virt. eigenvalues --    0.15490   0.16131   0.16337   0.18177   0.18410
 Alpha virt. eigenvalues --    0.21686   0.21872   0.22303   0.22353   0.22449
 Alpha virt. eigenvalues --    0.22618   0.22701   0.23077   0.23589   0.23938
 Alpha virt. eigenvalues --    0.25409   0.25856   0.26525   0.26551
          Condensed to atoms (all electrons):
              1          2          3          4          5          6
     1  C    4.486098   0.000000   0.000000   0.000000   0.000000   0.000000
     2  H    0.000000   0.852562   0.000000   0.000000   0.000000   0.000000
     3  H    0.000000   0.000000   0.849345   0.000000   0.000000   0.000000
     4  H    0.000000   0.000000   0.000000   0.856177   0.000000   0.000000
     5  C    0.000000   0.000000   0.000000   0.000000   4.014435   0.000000
     6  H    0.000000   0.000000   0.000000   0.000000   0.000000   0.889653
     7  C    0.000000   0.000000   0.000000   0.000000   0.000000   0.000000
     8  H    0.000000   0.000000   0.000000   0.000000   0.000000   0.000000
     9  C    0.000000   0.000000   0.000000   0.000000   0.000000   0.000000
    10  H    0.000000   0.000000   0.000000   0.000000   0.000000   0.000000
    11  H    0.000000   0.000000   0.000000   0.000000   0.000000   0.000000
    12  H    0.000000   0.000000   0.000000   0.000000   0.000000   0.000000
    13  C    0.000000   0.000000   0.000000   0.000000   0.000000   0.000000
    14  H    0.000000   0.000000   0.000000   0.000000   0.000000   0.000000
    15  H    0.000000   0.000000   0.000000   0.000000   0.000000   0.000000
    16  H    0.000000   0.000000   0.000000   0.000000   0.000000   0.000000
    17  C    0.000000   0.000000   0.000000   0.000000   0.000000   0.000000
    18  H    0.000000   0.000000   0.000000   0.000000   0.000000   0.000000
    19  H    0.000000   0.000000   0.000000   0.000000   0.000000   0.000000
    20  H    0.000000   0.000000   0.000000   0.000000   0.000000   0.000000
              7          8          9         10         11         12
     1  C    0.000000   0.000000   0.000000   0.000000   0.000000   0.000000
     2  H    0.000000   0.000000   0.000000   0.000000   0.000000   0.000000
     3  H    0.000000   0.000000   0.000000   0.000000   0.000000   0.000000
     4  H    0.000000   0.000000   0.000000   0.000000   0.000000   0.000000
     5  C    0.000000   0.000000   0.000000   0.000000   0.000000   0.000000
     6  H    0.000000   0.000000   0.000000   0.000000   0.000000   0.000000
     7  C    4.014435   0.000000   0.000000   0.000000   0.000000   0.000000
     8  H    0.000000   0.889653   0.000000   0.000000   0.000000   0.000000
     9  C    0.000000   0.000000   4.496857   0.000000   0.000000   0.000000
    10  H    0.000000   0.000000   0.000000   0.848725   0.000000   0.000000
    11  H    0.000000   0.000000   0.000000   0.000000   0.852075   0.000000
    12  H    0.000000   0.000000   0.000000   0.000000   0.000000   0.854072
    13  C    0.000000   0.000000   0.000000   0.000000   0.000000   0.000000
    14  H    0.000000   0.000000   0.000000   0.000000   0.000000   0.000000
    15  H    0.000000   0.000000   0.000000   0.000000   0.000000   0.000000
    16  H    0.000000   0.000000   0.000000   0.000000   0.000000   0.000000
    17  C    0.000000   0.000000   0.000000   0.000000   0.000000   0.000000
    18  H    0.000000   0.000000   0.000000   0.000000   0.000000   0.000000
    19  H    0.000000   0.000000   0.000000   0.000000   0.000000   0.000000
    20  H    0.000000   0.000000   0.000000   0.000000   0.000000   0.000000
             13         14         15         16         17         18
     1  C    0.000000   0.000000   0.000000   0.000000   0.000000   0.000000
     2  H    0.000000   0.000000   0.000000   0.000000   0.000000   0.000000
     3  H    0.000000   0.000000   0.000000   0.000000   0.000000   0.000000
     4  H    0.000000   0.000000   0.000000   0.000000   0.000000   0.000000
     5  C    0.000000   0.000000   0.000000   0.000000   0.000000   0.000000
     6  H    0.000000   0.000000   0.000000   0.000000   0.000000   0.000000
     7  C    0.000000   0.000000   0.000000   0.000000   0.000000   0.000000
     8  H    0.000000   0.000000   0.000000   0.000000   0.000000   0.000000
     9  C    0.000000   0.000000   0.000000   0.000000   0.000000   0.000000
    10  H    0.000000   0.000000   0.000000   0.000000   0.000000   0.000000
    11  H    0.000000   0.000000   0.000000   0.000000   0.000000   0.000000
    12  H    0.000000   0.000000   0.000000   0.000000   0.000000   0.000000
    13  C    4.496857   0.000000   0.000000   0.000000   0.000000   0.000000
    14  H    0.000000   0.854072   0.000000   0.000000   0.000000   0.000000
    15  H    0.000000   0.000000   0.848725   0.000000   0.000000   0.000000
    16  H    0.000000   0.000000   0.000000   0.852075   0.000000   0.000000
    17  C    0.000000   0.000000   0.000000   0.000000   4.486098   0.000000
    18  H    0.000000   0.000000   0.000000   0.000000   0.000000   0.849345
    19  H    0.000000   0.000000   0.000000   0.000000   0.000000   0.000000
    20  H    0.000000   0.000000   0.000000   0.000000   0.000000   0.000000
             19         20
     1  C    0.000000   0.000000
     2  H    0.000000   0.000000
     3  H    0.000000   0.000000
     4  H    0.000000   0.000000
     5  C    0.000000   0.000000
     6  H    0.000000   0.000000
     7  C    0.000000   0.000000
     8  H    0.000000   0.000000
     9  C    0.000000   0.000000
    10  H    0.000000   0.000000
    11  H    0.000000   0.000000
    12  H    0.000000   0.000000
    13  C    0.000000   0.000000
    14  H    0.000000   0.000000
    15  H    0.000000   0.000000
    16  H    0.000000   0.000000
    17  C    0.000000   0.000000
    18  H    0.000000   0.000000
    19  H    0.852562   0.000000
    20  H    0.000000   0.856177
 Mulliken atomic charges:
              1
     1  C   -0.486098
     2  H    0.147438
     3  H    0.150655
     4  H    0.143823
     5  C   -0.014435
     6  H    0.110347
     7  C   -0.014435
     8  H    0.110347
     9  C   -0.496857
    10  H    0.151275
    11  H    0.147925
    12  H    0.145928
    13  C   -0.496857
    14  H    0.145928
    15  H    0.151275
    16  H    0.147925
    17  C   -0.486098
    18  H    0.150655
    19  H    0.147438
    20  H    0.143823
 Sum of Mulliken atomic charges =   0.00000
 Mulliken charges with hydrogens summed into heavy atoms:
              1
     1  C   -0.044183
     5  C    0.095912
     7  C    0.095912
     9  C   -0.051729
    13  C   -0.051729
    17  C   -0.044183
 Sum of Mulliken charges with hydrogens summed into heavy atoms =   0.00000
 Charge=              0.0000 electrons
 Dipole moment (field-independent basis, Debye):
    X=              0.0000    Y=              0.0000    Z=              0.1084  Tot=              0.1084
 N-N= 1.706563536868D+02 E-N=-2.620997538009D+02  KE=-5.636887609077D+01
 Leave Link  601 at Mon Sep 14 19:14:20 2015, MaxMem=  402653184 cpu:       0.0
 (Enter /share/apps/g09/l9999.exe)
 1\1\GINC-COMPUTE-0-11\FOpt\RPM6\ZDO\C6H14\HETANJIN\14-Sep-2015\0\\#p P
 M6 opt\\using PM6 to do opt and freq calc.\\0,1\C,-1.7045392706,-1.009
 6583344,-0.5298119026\H,-1.2488089405,-1.9862829649,-0.7246835796\H,-1
 .9907419809,-0.5816394259,-1.4964475336\H,-2.6252799765,-1.1800280673,
 0.0375044569\C,-0.7456115365,-0.0905063244,0.2352633718\H,-0.572029842
 7,-0.5428713268,1.2454061663\C,0.6437539356,0.0439446034,-0.450605513\
 H,1.2098789845,0.8356785821,0.1042032706\C,1.4358410127,-1.2657420587,
 -0.3318359888\H,0.9342151167,-2.0891542127,-0.8519474151\H,2.434226399
 8,-1.1644668971,-0.770114326\H,1.5637475944,-1.5654524815,0.7131299397
 \C,-1.3820667466,1.2905824627,0.4457528613\H,-0.7357961019,1.945472045
 7,1.0387065146\H,-1.5767334286,1.7945433583,-0.5072846293\H,-2.3390980
 427,1.208284587,0.9715247662\C,0.5477997249,0.4791286219,-1.9172790857
 \H,0.0831348426,-0.293383692,-2.5392179051\H,-0.050243407,1.390460923,
 -2.0234812511\H,1.5393516633,0.6819906017,-2.3347822175\\Version=EM64L
 -G09RevA.01\State=1-A\HF=-0.0576067\RMSD=6.365e-09\RMSF=2.195e-06\Dipo
 le=-0.0178779,-0.0082023,-0.0378236\PG=C01 [X(C6H14)]\\@


 TOWERING GENIUS DISDAINS A BEATEN PATH.  IT SEEKS 
 REGIONS HITHERTO UNEXPLORED.

                                -- ABRAHAM LINCOLN
 Job cpu time:  0 days  0 hours  0 minutes 14.6 seconds.
 File lengths (MBytes):  RWF=      5 Int=      0 D2E=      0 Chk=      3 Scr=      1
 Normal termination of Gaussian 09 at Mon Sep 14 19:14:21 2015.
