 Entering Gaussian System, Link 0=/share/apps/g09/g09
 Input=C6H14_3_2_opt_B3L.gjf
 Output=C6H14_3_2_opt_B3L.log
 Initial command:
 /share/apps/g09/l1.exe /state/partition1/Gau-15956.inp -scrdir=/state/partition1/
 Entering Link 1 = /share/apps/g09/l1.exe PID=     15957.
  
 Copyright (c) 1988,1990,1992,1993,1995,1998,2003,2009, Gaussian, Inc.
                  All Rights Reserved.
  
 This is part of the Gaussian(R) 09 program.  It is based on
 the Gaussian(R) 03 system (copyright 2003, Gaussian, Inc.),
 the Gaussian(R) 98 system (copyright 1998, Gaussian, Inc.),
 the Gaussian(R) 94 system (copyright 1995, Gaussian, Inc.),
 the Gaussian 92(TM) system (copyright 1992, Gaussian, Inc.),
 the Gaussian 90(TM) system (copyright 1990, Gaussian, Inc.),
 the Gaussian 88(TM) system (copyright 1988, Gaussian, Inc.),
 the Gaussian 86(TM) system (copyright 1986, Carnegie Mellon
 University), and the Gaussian 82(TM) system (copyright 1983,
 Carnegie Mellon University). Gaussian is a federally registered
 trademark of Gaussian, Inc.
  
 This software contains proprietary and confidential information,
 including trade secrets, belonging to Gaussian, Inc.
  
 This software is provided under written license and may be
 used, copied, transmitted, or stored only in accord with that
 written license.
  
 The following legend is applicable only to US Government
 contracts under FAR:
  
                    RESTRICTED RIGHTS LEGEND
  
 Use, reproduction and disclosure by the US Government is
 subject to restrictions as set forth in subparagraphs (a)
 and (c) of the Commercial Computer Software - Restricted
 Rights clause in FAR 52.227-19.
  
 Gaussian, Inc.
 340 Quinnipiac St., Bldg. 40, Wallingford CT 06492
  
  
 ---------------------------------------------------------------
 Warning -- This program may not be used in any manner that
 competes with the business of Gaussian, Inc. or will provide
 assistance to any competitor of Gaussian, Inc.  The licensee
 of this program is prohibited from giving any competitor of
 Gaussian, Inc. access to this program.  By using this program,
 the user acknowledges that Gaussian, Inc. is engaged in the
 business of creating and licensing software in the field of
 computational chemistry and represents and warrants to the
 licensee that it is not a competitor of Gaussian, Inc. and that
 it will not use this program in any manner prohibited above.
 ---------------------------------------------------------------
  

 Cite this work as:
 Gaussian 09, Revision A.01,
 M. J. Frisch, G. W. Trucks, H. B. Schlegel, G. E. Scuseria, 
 M. A. Robb, J. R. Cheeseman, G. Scalmani, V. Barone, B. Mennucci, 
 G. A. Petersson, H. Nakatsuji, M. Caricato, X. Li, H. P. Hratchian, 
 A. F. Izmaylov, J. Bloino, G. Zheng, J. L. Sonnenberg, M. Hada, 
 M. Ehara, K. Toyota, R. Fukuda, J. Hasegawa, M. Ishida, T. Nakajima, 
 Y. Honda, O. Kitao, H. Nakai, T. Vreven, J. A. Montgomery, Jr., 
 J. E. Peralta, F. Ogliaro, M. Bearpark, J. J. Heyd, E. Brothers, 
 K. N. Kudin, V. N. Staroverov, R. Kobayashi, J. Normand, 
 K. Raghavachari, A. Rendell, J. C. Burant, S. S. Iyengar, J. Tomasi, 
 M. Cossi, N. Rega, J. M. Millam, M. Klene, J. E. Knox, J. B. Cross, 
 V. Bakken, C. Adamo, J. Jaramillo, R. Gomperts, R. E. Stratmann, 
 O. Yazyev, A. J. Austin, R. Cammi, C. Pomelli, J. W. Ochterski, 
 R. L. Martin, K. Morokuma, V. G. Zakrzewski, G. A. Voth, 
 P. Salvador, J. J. Dannenberg, S. Dapprich, A. D. Daniels, 
 O. Farkas, J. B. Foresman, J. V. Ortiz, J. Cioslowski, 
 and D. J. Fox, Gaussian, Inc., Wallingford CT, 2009.
 
 ******************************************
 Gaussian 09:  EM64L-G09RevA.01  8-May-2009
                 4-Oct-2015 
 ******************************************
 %mem=6GB
 %nprocshared=4
 Will use up to    4 processors via shared memory.
 ----------------------------------------------
 #p B3LYP/6-31G(d) opt=tight int=ultrafine freq
 ----------------------------------------------
 1/7=10,14=-1,18=20,19=15,26=3,38=1/1,3;
 2/9=110,12=2,17=6,18=5,40=1/2;
 3/5=1,6=6,7=1,11=2,16=1,25=1,30=1,71=1,74=-5,75=-5/1,2,3;
 4//1;
 5/5=2,38=5/2;
 6/7=2,8=2,9=2,10=2,28=1/1;
 7//1,2,3,16;
 1/7=10,14=-1,18=20,19=15/3(2);
 2/9=110/2;
 99//99;
 2/9=110/2;
 3/5=1,6=6,7=1,11=2,16=1,25=1,30=1,71=1,74=-5,75=-5/1,2,3;
 4/5=5,16=3/1;
 5/5=2,38=5/2;
 7//1,2,3,16;
 1/7=10,14=-1,18=20,19=15/3(-5);
 2/9=110/2;
 6/7=2,8=2,9=2,10=2,19=2,28=1/1;
 99/9=1/99;
 Leave Link    1 at Sun Oct  4 11:28:17 2015, MaxMem=  805306368 cpu:       0.1
 (Enter /share/apps/g09/l101.exe)
 ---------------------------------------------
 using B3LYP/6-31G(d) to do opt and freq calc.
 ---------------------------------------------
 Symbolic Z-matrix:
 Charge =  0 Multiplicity = 1
 C                    -2.58657  -0.16944  -0.28747 
 H                    -2.57359  -0.19597  -1.38444 
 H                    -2.79858   0.86121   0.0169 
 H                    -3.42675  -0.78803   0.04847 
 C                    -1.26404  -0.6838    0.29346 
 H                    -1.30116  -0.62927   1.39191 
 H                    -1.16406  -1.75032   0.04761 
 C                     0.00001   0.05016  -0.20102 
 H                     0.00004   0.00261  -1.30265 
 C                     1.26408  -0.6837    0.29355 
 H                     1.16411  -1.75027   0.04787 
 H                     1.30123  -0.62901   1.39199 
 C                     2.58659  -0.16942  -0.2875 
 H                     2.7986    0.86128   0.01669 
 H                     3.42679  -0.78795   0.04852 
 H                     2.57359  -0.19614  -1.38447 
 C                    -0.00007   1.53168   0.20746 
 H                    -0.88084   2.05771  -0.17535 
 H                    -0.00019   1.63348   1.30122 
 H                     0.88077   2.05775  -0.17516 
 
 NAtoms=     20 NQM=     20 NQMF=      0 NMic=      0 NMicF=      0 NTot=     20.
                    Isotopes and Nuclear Properties:
 (Nuclear quadrupole moments (NQMom) in fm**2, nuclear magnetic moments (NMagM)
  in nuclear magnetons)

  Atom         1           2           3           4           5           6           7           8           9          10
 IAtWgt=          12           1           1           1          12           1           1          12           1          12
 AtmWgt=  12.0000000   1.0078250   1.0078250   1.0078250  12.0000000   1.0078250   1.0078250  12.0000000   1.0078250  12.0000000
 NucSpn=           0           1           1           1           0           1           1           0           1           0
 AtZEff=   0.0000000   0.0000000   0.0000000   0.0000000   0.0000000   0.0000000   0.0000000   0.0000000   0.0000000   0.0000000
 NQMom=    0.0000000   0.0000000   0.0000000   0.0000000   0.0000000   0.0000000   0.0000000   0.0000000   0.0000000   0.0000000
 NMagM=    0.0000000   2.7928460   2.7928460   2.7928460   0.0000000   2.7928460   2.7928460   0.0000000   2.7928460   0.0000000

  Atom        11          12          13          14          15          16          17          18          19          20
 IAtWgt=           1           1          12           1           1           1          12           1           1           1
 AtmWgt=   1.0078250   1.0078250  12.0000000   1.0078250   1.0078250   1.0078250  12.0000000   1.0078250   1.0078250   1.0078250
 NucSpn=           1           1           0           1           1           1           0           1           1           1
 AtZEff=   0.0000000   0.0000000   0.0000000   0.0000000   0.0000000   0.0000000   0.0000000   0.0000000   0.0000000   0.0000000
 NQMom=    0.0000000   0.0000000   0.0000000   0.0000000   0.0000000   0.0000000   0.0000000   0.0000000   0.0000000   0.0000000
 NMagM=    2.7928460   2.7928460   0.0000000   2.7928460   2.7928460   2.7928460   0.0000000   2.7928460   2.7928460   2.7928460
 Leave Link  101 at Sun Oct  4 11:28:18 2015, MaxMem=  805306368 cpu:       0.3
 (Enter /share/apps/g09/l103.exe)

 GradGradGradGradGradGradGradGradGradGradGradGradGradGradGradGradGradGrad
 Berny optimization.
 Initialization pass.
                           ----------------------------
                           !    Initial Parameters    !
                           ! (Angstroms and Degrees)  !
 --------------------------                            --------------------------
 ! Name  Definition              Value          Derivative Info.                !
 --------------------------------------------------------------------------------
 ! R1    R(1,2)                  1.0974         estimate D2E/DX2                !
 ! R2    R(1,3)                  1.0954         estimate D2E/DX2                !
 ! R3    R(1,4)                  1.0961         estimate D2E/DX2                !
 ! R4    R(1,5)                  1.5333         estimate D2E/DX2                !
 ! R5    R(5,6)                  1.1004         estimate D2E/DX2                !
 ! R6    R(5,7)                  1.0991         estimate D2E/DX2                !
 ! R7    R(5,8)                  1.5431         estimate D2E/DX2                !
 ! R8    R(8,9)                  1.1027         estimate D2E/DX2                !
 ! R9    R(8,10)                 1.5431         estimate D2E/DX2                !
 ! R10   R(8,17)                 1.5368         estimate D2E/DX2                !
 ! R11   R(10,11)                1.0991         estimate D2E/DX2                !
 ! R12   R(10,12)                1.1004         estimate D2E/DX2                !
 ! R13   R(10,13)                1.5333         estimate D2E/DX2                !
 ! R14   R(13,14)                1.0954         estimate D2E/DX2                !
 ! R15   R(13,15)                1.0961         estimate D2E/DX2                !
 ! R16   R(13,16)                1.0974         estimate D2E/DX2                !
 ! R17   R(17,18)                1.095          estimate D2E/DX2                !
 ! R18   R(17,19)                1.0985         estimate D2E/DX2                !
 ! R19   R(17,20)                1.095          estimate D2E/DX2                !
 ! A1    A(2,1,3)              107.6264         estimate D2E/DX2                !
 ! A2    A(2,1,4)              107.5656         estimate D2E/DX2                !
 ! A3    A(2,1,5)              111.126          estimate D2E/DX2                !
 ! A4    A(3,1,4)              107.3068         estimate D2E/DX2                !
 ! A5    A(3,1,5)              112.1664         estimate D2E/DX2                !
 ! A6    A(4,1,5)              110.8366         estimate D2E/DX2                !
 ! A7    A(1,5,6)              109.4185         estimate D2E/DX2                !
 ! A8    A(1,5,7)              108.6169         estimate D2E/DX2                !
 ! A9    A(1,5,8)              115.188          estimate D2E/DX2                !
 ! A10   A(6,5,7)              105.9287         estimate D2E/DX2                !
 ! A11   A(6,5,8)              108.9018         estimate D2E/DX2                !
 ! A12   A(7,5,8)              108.3832         estimate D2E/DX2                !
 ! A13   A(5,8,9)              107.438          estimate D2E/DX2                !
 ! A14   A(5,8,10)             110.0077         estimate D2E/DX2                !
 ! A15   A(5,8,17)             111.9209         estimate D2E/DX2                !
 ! A16   A(9,8,10)             107.4384         estimate D2E/DX2                !
 ! A17   A(9,8,17)             107.886          estimate D2E/DX2                !
 ! A18   A(10,8,17)            111.9211         estimate D2E/DX2                !
 ! A19   A(8,10,11)            108.3834         estimate D2E/DX2                !
 ! A20   A(8,10,12)            108.902          estimate D2E/DX2                !
 ! A21   A(8,10,13)            115.1881         estimate D2E/DX2                !
 ! A22   A(11,10,12)           105.9286         estimate D2E/DX2                !
 ! A23   A(11,10,13)           108.6161         estimate D2E/DX2                !
 ! A24   A(12,10,13)           109.419          estimate D2E/DX2                !
 ! A25   A(10,13,14)           112.1669         estimate D2E/DX2                !
 ! A26   A(10,13,15)           110.8368         estimate D2E/DX2                !
 ! A27   A(10,13,16)           111.1258         estimate D2E/DX2                !
 ! A28   A(14,13,15)           107.3065         estimate D2E/DX2                !
 ! A29   A(14,13,16)           107.6263         estimate D2E/DX2                !
 ! A30   A(15,13,16)           107.5656         estimate D2E/DX2                !
 ! A31   A(8,17,18)            111.7296         estimate D2E/DX2                !
 ! A32   A(8,17,19)            110.7315         estimate D2E/DX2                !
 ! A33   A(8,17,20)            111.7298         estimate D2E/DX2                !
 ! A34   A(18,17,19)           107.6671         estimate D2E/DX2                !
 ! A35   A(18,17,20)           107.1036         estimate D2E/DX2                !
 ! A36   A(19,17,20)           107.6673         estimate D2E/DX2                !
 ! D1    D(2,1,5,6)            179.0577         estimate D2E/DX2                !
 ! D2    D(2,1,5,7)            -65.7402         estimate D2E/DX2                !
 ! D3    D(2,1,5,8)             56.0076         estimate D2E/DX2                !
 ! D4    D(3,1,5,6)             58.5301         estimate D2E/DX2                !
 ! D5    D(3,1,5,7)            173.7322         estimate D2E/DX2                !
 ! D6    D(3,1,5,8)            -64.52           estimate D2E/DX2                !
 ! D7    D(4,1,5,6)            -61.3884         estimate D2E/DX2                !
 ! D8    D(4,1,5,7)             53.8137         estimate D2E/DX2                !
 ! D9    D(4,1,5,8)            175.5616         estimate D2E/DX2                !
 ! D10   D(1,5,8,9)            -55.2933         estimate D2E/DX2                !
 ! D11   D(1,5,8,10)          -171.9514         estimate D2E/DX2                !
 ! D12   D(1,5,8,17)            62.9627         estimate D2E/DX2                !
 ! D13   D(6,5,8,9)           -178.6178         estimate D2E/DX2                !
 ! D14   D(6,5,8,10)            64.7241         estimate D2E/DX2                !
 ! D15   D(6,5,8,17)           -60.3618         estimate D2E/DX2                !
 ! D16   D(7,5,8,9)             66.5806         estimate D2E/DX2                !
 ! D17   D(7,5,8,10)           -50.0775         estimate D2E/DX2                !
 ! D18   D(7,5,8,17)          -175.1634         estimate D2E/DX2                !
 ! D19   D(5,8,10,11)           50.0668         estimate D2E/DX2                !
 ! D20   D(5,8,10,12)          -64.7349         estimate D2E/DX2                !
 ! D21   D(5,8,10,13)          171.9398         estimate D2E/DX2                !
 ! D22   D(9,8,10,11)          -66.5911         estimate D2E/DX2                !
 ! D23   D(9,8,10,12)          178.6073         estimate D2E/DX2                !
 ! D24   D(9,8,10,13)           55.282          estimate D2E/DX2                !
 ! D25   D(17,8,10,11)         175.1525         estimate D2E/DX2                !
 ! D26   D(17,8,10,12)          60.3509         estimate D2E/DX2                !
 ! D27   D(17,8,10,13)         -62.9744         estimate D2E/DX2                !
 ! D28   D(5,8,17,18)          -58.005          estimate D2E/DX2                !
 ! D29   D(5,8,17,19)           62.0062         estimate D2E/DX2                !
 ! D30   D(5,8,17,20)         -177.9823         estimate D2E/DX2                !
 ! D31   D(9,8,17,18)           59.984          estimate D2E/DX2                !
 ! D32   D(9,8,17,19)          179.9953         estimate D2E/DX2                !
 ! D33   D(9,8,17,20)          -59.9933         estimate D2E/DX2                !
 ! D34   D(10,8,17,18)         177.9738         estimate D2E/DX2                !
 ! D35   D(10,8,17,19)         -62.015          estimate D2E/DX2                !
 ! D36   D(10,8,17,20)          57.9965         estimate D2E/DX2                !
 ! D37   D(8,10,13,14)          64.5195         estimate D2E/DX2                !
 ! D38   D(8,10,13,15)        -175.562          estimate D2E/DX2                !
 ! D39   D(8,10,13,16)         -56.0081         estimate D2E/DX2                !
 ! D40   D(11,10,13,14)       -173.733          estimate D2E/DX2                !
 ! D41   D(11,10,13,15)        -53.8145         estimate D2E/DX2                !
 ! D42   D(11,10,13,16)         65.7394         estimate D2E/DX2                !
 ! D43   D(12,10,13,14)        -58.5311         estimate D2E/DX2                !
 ! D44   D(12,10,13,15)         61.3874         estimate D2E/DX2                !
 ! D45   D(12,10,13,16)       -179.0588         estimate D2E/DX2                !
 --------------------------------------------------------------------------------
 Trust Radius=3.00D-01 FncErr=1.00D-07 GrdErr=1.00D-06
 Number of steps in this run= 110 maximum allowed number of steps= 120.
 GradGradGradGradGradGradGradGradGradGradGradGradGradGradGradGradGradGrad

 Leave Link  103 at Sun Oct  4 11:28:18 2015, MaxMem=  805306368 cpu:       0.0
 (Enter /share/apps/g09/l202.exe)
                          Input orientation:                          
 ---------------------------------------------------------------------
 Center     Atomic      Atomic             Coordinates (Angstroms)
 Number     Number       Type             X           Y           Z
 ---------------------------------------------------------------------
      1          6           0       -2.586569   -0.169437   -0.287469
      2          1           0       -2.573593   -0.195967   -1.384439
      3          1           0       -2.798582    0.861209    0.016904
      4          1           0       -3.426750   -0.788031    0.048471
      5          6           0       -1.264039   -0.683797    0.293462
      6          1           0       -1.301162   -0.629270    1.391910
      7          1           0       -1.164057   -1.750324    0.047614
      8          6           0        0.000009    0.050163   -0.201022
      9          1           0        0.000044    0.002612   -1.302648
     10          6           0        1.264081   -0.683702    0.293550
     11          1           0        1.164114   -1.750270    0.047869
     12          1           0        1.301228   -0.629007    1.391988
     13          6           0        2.586590   -0.169423   -0.287501
     14          1           0        2.798604    0.861278    0.016685
     15          1           0        3.426790   -0.787946    0.048524
     16          1           0        2.573585   -0.196144   -1.384465
     17          6           0       -0.000065    1.531684    0.207458
     18          1           0       -0.880838    2.057707   -0.175347
     19          1           0       -0.000187    1.633479    1.301223
     20          1           0        0.880767    2.057745   -0.175156
 ---------------------------------------------------------------------
                    Distance matrix (angstroms):
                    1          2          3          4          5
     1  C    0.000000
     2  H    1.097367   0.000000
     3  H    1.095365   1.769747   0.000000
     4  H    1.096092   1.769646   1.765102   0.000000
     5  C    1.533340   2.183635   2.195074   2.179037   0.000000
     6  H    2.164262   3.084631   2.520801   2.519555   1.100427
     7  H    2.152911   2.540392   3.081026   2.458818   1.099053
     8  C    2.597322   2.843323   2.921883   3.536593   1.543058
     9  H    2.784018   2.582582   3.211030   3.767434   2.148635
    10  C    3.928047   4.216785   4.355286   4.698387   2.528120
    11  H    4.084006   4.293928   4.745918   4.690622   2.663383
    12  H    4.259900   4.786471   4.573843   4.917733   2.791121
    13  C    5.173159   5.275554   5.491352   6.054404   3.928033
    14  H    5.491354   5.651674   5.597186   6.440207   4.355334
    15  H    6.054414   6.197453   6.440184   6.853540   4.698374
    16  H    5.275538   5.147178   5.651726   6.197391   4.216705
    17  C    3.135087   3.484532   2.884015   4.141078   2.552133
    18  H    2.807536   3.066981   2.268548   3.824917   2.807574
    19  H    3.530414   4.145126   3.174412   4.378862   2.825362
    20  H    4.122544   4.298161   3.873783   5.167509   3.512243
                    6          7          8          9         10
     6  H    0.000000
     7  H    1.755760   0.000000
     8  C    2.166127   2.158384   0.000000
     9  H    3.058276   2.500225   1.102652   0.000000
    10  C    2.791027   2.663460   1.543061   2.148642   0.000000
    11  H    3.023355   2.328171   2.158390   2.500310   1.099054
    12  H    2.602390   3.023628   2.166131   3.058281   1.100426
    13  C    4.259870   4.083981   2.597325   2.783943   1.533341
    14  H    4.573954   4.745957   2.921889   3.210901   2.195080
    15  H    4.917661   4.690634   3.536598   3.767391   2.179040
    16  H    4.786389   4.293751   2.843325   2.582501   2.183632
    17  C    2.786665   3.485972   1.536802   2.149065   2.552139
    18  H    3.138919   3.825052   2.192438   2.504032   3.512245
    19  H    2.611665   3.791603   2.182574   3.072437   2.825439
    20  H    3.799547   4.328085   2.192439   2.504093   2.807516
                   11         12         13         14         15
    11  H    0.000000
    12  H    1.755758   0.000000
    13  C    2.152902   2.164268   0.000000
    14  H    3.081025   2.520822   1.095365   0.000000
    15  H    2.458815   2.519558   1.096093   1.765098   0.000000
    16  H    2.540373   3.084632   1.097366   1.769745   1.769646
    17  C    3.485972   2.786586   3.135209   2.884161   4.141169
    18  H    4.328088   3.799524   4.122589   3.873837   5.167545
    19  H    3.791603   2.611659   3.530710   3.174833   4.379124
    20  H    3.825050   3.138688   2.807620   2.268576   3.824947
                   16         17         18         19         20
    16  H    0.000000
    17  C    3.484721   0.000000
    18  H    4.298238   1.094989   0.000000
    19  H    4.145448   1.098492   1.770812   0.000000
    20  H    3.067259   1.094988   1.761605   1.770812   0.000000
 Stoichiometry    C6H14
 Framework group  C1[X(C6H14)]
 Deg. of freedom    54
 Full point group                 C1      NOp   1
 Largest Abelian subgroup         C1      NOp   1
 Largest concise Abelian subgroup C1      NOp   1
                         Standard orientation:                         
 ---------------------------------------------------------------------
 Center     Atomic      Atomic             Coordinates (Angstroms)
 Number     Number       Type             X           Y           Z
 ---------------------------------------------------------------------
      1          6           0       -2.586569   -0.169437   -0.287469
      2          1           0       -2.573593   -0.195967   -1.384439
      3          1           0       -2.798582    0.861209    0.016904
      4          1           0       -3.426750   -0.788031    0.048471
      5          6           0       -1.264039   -0.683797    0.293462
      6          1           0       -1.301162   -0.629270    1.391910
      7          1           0       -1.164057   -1.750324    0.047614
      8          6           0        0.000009    0.050163   -0.201022
      9          1           0        0.000044    0.002612   -1.302648
     10          6           0        1.264081   -0.683702    0.293550
     11          1           0        1.164114   -1.750270    0.047869
     12          1           0        1.301228   -0.629007    1.391988
     13          6           0        2.586590   -0.169423   -0.287501
     14          1           0        2.798604    0.861278    0.016685
     15          1           0        3.426790   -0.787946    0.048524
     16          1           0        2.573585   -0.196144   -1.384465
     17          6           0       -0.000065    1.531684    0.207458
     18          1           0       -0.880838    2.057707   -0.175347
     19          1           0       -0.000187    1.633479    1.301223
     20          1           0        0.880767    2.057745   -0.175156
 ---------------------------------------------------------------------
 Rotational constants (GHZ):      6.5280866      1.8327992      1.5766548
 Leave Link  202 at Sun Oct  4 11:28:19 2015, MaxMem=  805306368 cpu:       0.0
 (Enter /share/apps/g09/l301.exe)
 Standard basis: 6-31G(d) (6D, 7F)
 Ernie: Thresh=  0.10000D-02 Tol=  0.10000D-05 Strict=F.
 There are   118 symmetry adapted basis functions of A   symmetry.
 Integral buffers will be    131072 words long.
 Raffenetti 2 integral format.
 Two-electron integral symmetry is turned on.
   118 basis functions,   224 primitive gaussians,   118 cartesian basis functions
    25 alpha electrons       25 beta electrons
       nuclear repulsion energy       255.3037817065 Hartrees.
 IExCor=  402 DFT=T Ex+Corr=B3LYP ExCW=0 ScaHFX=  0.200000
 ScaDFX=  0.800000  0.720000  1.000000  0.810000 ScalE2=  1.000000  1.000000
 IRadAn=      5 IRanWt=     -1 IRanGd=            0 ICorTp=0
 NAtoms=   20 NActive=   20 NUniq=   20 SFac= 7.50D-01 NAtFMM=   80 NAOKFM=F Big=F
 Leave Link  301 at Sun Oct  4 11:28:20 2015, MaxMem=  805306368 cpu:       0.2
 (Enter /share/apps/g09/l302.exe)
 NPDir=0 NMtPBC=     1 NCelOv=     1 NCel=       1 NClECP=     1 NCelD=      1
         NCelK=      1 NCelE2=     1 NClLst=     1 CellRange=     0.0.
 One-electron integrals computed using PRISM.
 NBasis=   118 RedAO= T  NBF=   118
 NBsUse=   118 1.00D-06 NBFU=   118
 Precomputing XC quadrature grid using
 IXCGrd= 2 IRadAn=           5 IRanWt=          -1 IRanGd=           0 AccXCQ= 1.00D-10.
 NRdTot=    1649 NPtTot=      440632 NUsed=      452448 NTot=      452480
 NSgBfM=   118   118   118   118   118 NAtAll=    20    20.
 Leave Link  302 at Sun Oct  4 11:28:22 2015, MaxMem=  805306368 cpu:       2.6
 (Enter /share/apps/g09/l303.exe)
 DipDrv:  MaxL=1.
 Leave Link  303 at Sun Oct  4 11:28:23 2015, MaxMem=  805306368 cpu:       0.7
 (Enter /share/apps/g09/l401.exe)
 Harris functional with IExCor=  402 diagonalized for initial guess.
 ExpMin= 1.61D-01 ExpMax= 3.05D+03 ExpMxC= 4.57D+02 IAcc=3 IRadAn=         5 AccDes= 0.00D+00
 HarFok:  IExCor=  402 AccDes= 0.00D+00 IRadAn=         5 IDoV= 1
 ScaDFX=  1.000000  1.000000  1.000000  1.000000
 FoFCou: FMM=F IPFlag=           0 FMFlag=      100000 FMFlg1=           0
         NFxFlg=           0 DoJE=T BraDBF=F KetDBF=T FulRan=T
         Omega=  0.000000  0.000000  1.000000  0.000000  0.000000 ICntrl=     500 IOpCl=  0
         NMat0=    1 NMatS0=    1 NMatT0=    0 NMatD0=    1 NMtDS0=    0 NMtDT0=    0
         I1Cent=           4 NGrid=           0.
 Petite list used in FoFCou.
 Harris En= -237.180553708508    
 Initial guess orbital symmetries:
       Occupied  (A) (A) (A) (A) (A) (A) (A) (A) (A) (A) (A) (A)
                 (A) (A) (A) (A) (A) (A) (A) (A) (A) (A) (A) (A)
                 (A)
       Virtual   (A) (A) (A) (A) (A) (A) (A) (A) (A) (A) (A) (A)
                 (A) (A) (A) (A) (A) (A) (A) (A) (A) (A) (A) (A)
                 (A) (A) (A) (A) (A) (A) (A) (A) (A) (A) (A) (A)
                 (A) (A) (A) (A) (A) (A) (A) (A) (A) (A) (A) (A)
                 (A) (A) (A) (A) (A) (A) (A) (A) (A) (A) (A) (A)
                 (A) (A) (A) (A) (A) (A) (A) (A) (A) (A) (A) (A)
                 (A) (A) (A) (A) (A) (A) (A) (A) (A) (A) (A) (A)
                 (A) (A) (A) (A) (A) (A) (A) (A) (A)
 The electronic state of the initial guess is 1-A.
 Leave Link  401 at Sun Oct  4 11:28:27 2015, MaxMem=  805306368 cpu:      12.3
 (Enter /share/apps/g09/l502.exe)
 Closed shell SCF:
 Requested convergence on RMS density matrix=1.00D-08 within 128 cycles.
 Requested convergence on MAX density matrix=1.00D-06.
 Requested convergence on             energy=1.00D-06.
 No special actions if energy rises.
 Using DIIS extrapolation, IDIIS=  1040.
 Integral symmetry usage will be decided dynamically.
       452255 words used for storage of precomputed grid.
 Keep R1 ints in memory in canonical form, NReq=26106310.
 IEnd=      513799 IEndB=      513799 NGot=   805306368 MDV=   780172493
 LenX=   780172493 LenY=   780158128
 Symmetry not used in FoFDir.
 MinBra= 0 MaxBra= 2 Meth= 1.
 IRaf=       0 NMat=   1 IRICut=       1 DoRegI=T DoRafI=F ISym2E= 0 JSym2E=0.
 Integral accuracy reduced to 1.0D-05 until final iterations.

 Cycle   1  Pass 0  IDiag  1:
 E= -236.793785024155    
 DIIS: error= 5.14D-02 at cycle   1 NSaved=   1.
 NSaved= 1 IEnMin= 1 EnMin= -236.793785024155     IErMin= 1 ErrMin= 5.14D-02
 ErrMax= 5.14D-02 EMaxC= 1.00D-01 BMatC= 2.56D-01 BMatP= 2.56D-01
 IDIUse=3 WtCom= 4.86D-01 WtEn= 5.14D-01
 Coeff-Com:  0.100D+01
 Coeff-En:   0.100D+01
 Coeff:      0.100D+01
 Gap=     0.343 Goal=   None    Shift=    0.000
 GapD=    0.343 DampG=1.000 DampE=0.500 DampFc=0.5000 IDamp=-1.
 Damping current iteration by 5.00D-01
 RMSDP=1.01D-02 MaxDP=1.43D-01              OVMax= 1.90D-01

 Cycle   2  Pass 0  IDiag  1:
 E= -236.921677293293     Delta-E=       -0.127892269138 Rises=F Damp=T
 DIIS: error= 1.00D-02 at cycle   2 NSaved=   2.
 NSaved= 2 IEnMin= 2 EnMin= -236.921677293293     IErMin= 2 ErrMin= 1.00D-02
 ErrMax= 1.00D-02 EMaxC= 1.00D-01 BMatC= 9.80D-03 BMatP= 2.56D-01
 IDIUse=3 WtCom= 9.00D-01 WtEn= 1.00D-01
 Coeff-Com:  0.832D-01 0.917D+00
 Coeff-En:   0.136D+00 0.864D+00
 Coeff:      0.884D-01 0.912D+00
 Gap=     0.395 Goal=   None    Shift=    0.000
 RMSDP=1.58D-03 MaxDP=2.36D-02 DE=-1.28D-01 OVMax= 1.04D-01

 Cycle   3  Pass 0  IDiag  1:
 E= -237.082326448277     Delta-E=       -0.160649154984 Rises=F Damp=F
 DIIS: error= 2.65D-03 at cycle   3 NSaved=   3.
 NSaved= 3 IEnMin= 3 EnMin= -237.082326448277     IErMin= 3 ErrMin= 2.65D-03
 ErrMax= 2.65D-03 EMaxC= 1.00D-01 BMatC= 9.20D-04 BMatP= 9.80D-03
 IDIUse=3 WtCom= 9.74D-01 WtEn= 2.65D-02
 Coeff-Com:  0.759D-02 0.178D+00 0.815D+00
 Coeff-En:   0.000D+00 0.000D+00 0.100D+01
 Coeff:      0.739D-02 0.173D+00 0.820D+00
 Gap=     0.387 Goal=   None    Shift=    0.000
 RMSDP=4.76D-04 MaxDP=1.06D-02 DE=-1.61D-01 OVMax= 9.30D-03

 Cycle   4  Pass 0  IDiag  1:
 E= -237.082862958190     Delta-E=       -0.000536509913 Rises=F Damp=F
 DIIS: error= 1.79D-03 at cycle   4 NSaved=   4.
 NSaved= 4 IEnMin= 4 EnMin= -237.082862958190     IErMin= 4 ErrMin= 1.79D-03
 ErrMax= 1.79D-03 EMaxC= 1.00D-01 BMatC= 3.95D-04 BMatP= 9.20D-04
 IDIUse=3 WtCom= 9.82D-01 WtEn= 1.79D-02
 Coeff-Com:  0.468D-03 0.312D-01 0.399D+00 0.569D+00
 Coeff-En:   0.000D+00 0.000D+00 0.273D+00 0.727D+00
 Coeff:      0.460D-03 0.307D-01 0.397D+00 0.572D+00
 Gap=     0.389 Goal=   None    Shift=    0.000
 RMSDP=1.95D-04 MaxDP=4.26D-03 DE=-5.37D-04 OVMax= 4.63D-03

 Cycle   5  Pass 0  IDiag  1:
 E= -237.083232909162     Delta-E=       -0.000369950973 Rises=F Damp=F
 DIIS: error= 3.98D-04 at cycle   5 NSaved=   5.
 NSaved= 5 IEnMin= 5 EnMin= -237.083232909162     IErMin= 5 ErrMin= 3.98D-04
 ErrMax= 3.98D-04 EMaxC= 1.00D-01 BMatC= 2.10D-05 BMatP= 3.95D-04
 IDIUse=3 WtCom= 9.96D-01 WtEn= 3.98D-03
 Coeff-Com:  0.224D-03-0.149D-02 0.107D+00 0.251D+00 0.643D+00
 Coeff-En:   0.000D+00 0.000D+00 0.000D+00 0.000D+00 0.100D+01
 Coeff:      0.223D-03-0.148D-02 0.107D+00 0.250D+00 0.645D+00
 Gap=     0.389 Goal=   None    Shift=    0.000
 RMSDP=3.83D-05 MaxDP=8.88D-04 DE=-3.70D-04 OVMax= 8.88D-04

 Cycle   6  Pass 0  IDiag  1:
 E= -237.083252784571     Delta-E=       -0.000019875409 Rises=F Damp=F
 DIIS: error= 2.91D-05 at cycle   6 NSaved=   6.
 NSaved= 6 IEnMin= 6 EnMin= -237.083252784571     IErMin= 6 ErrMin= 2.91D-05
 ErrMax= 2.91D-05 EMaxC= 1.00D-01 BMatC= 1.22D-07 BMatP= 2.10D-05
 IDIUse=1 WtCom= 1.00D+00 WtEn= 0.00D+00
 Coeff-Com:  0.169D-03-0.995D-03 0.219D-01 0.562D-01 0.173D+00 0.749D+00
 Coeff:      0.169D-03-0.995D-03 0.219D-01 0.562D-01 0.173D+00 0.749D+00
 Gap=     0.389 Goal=   None    Shift=    0.000
 RMSDP=5.64D-06 MaxDP=6.78D-05 DE=-1.99D-05 OVMax= 9.40D-05

 Initial convergence to 1.0D-05 achieved.  Increase integral accuracy.
 Cycle   7  Pass 1  IDiag  1:
 E= -237.083223927800     Delta-E=        0.000028856772 Rises=F Damp=F
 DIIS: error= 5.81D-06 at cycle   1 NSaved=   1.
 NSaved= 1 IEnMin= 1 EnMin= -237.083223927800     IErMin= 1 ErrMin= 5.81D-06
 ErrMax= 5.81D-06 EMaxC= 1.00D-01 BMatC= 5.20D-09 BMatP= 5.20D-09
 IDIUse=1 WtCom= 1.00D+00 WtEn= 0.00D+00
 Coeff-Com:  0.100D+01
 Coeff:      0.100D+01
 Gap=     0.389 Goal=   None    Shift=    0.000
 RMSDP=5.64D-06 MaxDP=6.78D-05 DE= 2.89D-05 OVMax= 2.67D-05

 Cycle   8  Pass 1  IDiag  1:
 E= -237.083223930384     Delta-E=       -0.000000002584 Rises=F Damp=F
 DIIS: error= 4.86D-06 at cycle   2 NSaved=   2.
 NSaved= 2 IEnMin= 2 EnMin= -237.083223930384     IErMin= 2 ErrMin= 4.86D-06
 ErrMax= 4.86D-06 EMaxC= 1.00D-01 BMatC= 3.86D-09 BMatP= 5.20D-09
 IDIUse=1 WtCom= 1.00D+00 WtEn= 0.00D+00
 Coeff-Com:  0.459D+00 0.541D+00
 Coeff:      0.459D+00 0.541D+00
 Gap=     0.389 Goal=   None    Shift=    0.000
 RMSDP=6.58D-07 MaxDP=1.01D-05 DE=-2.58D-09 OVMax= 1.32D-05

 Cycle   9  Pass 1  IDiag  1:
 E= -237.083223934250     Delta-E=       -0.000000003866 Rises=F Damp=F
 DIIS: error= 1.14D-06 at cycle   3 NSaved=   3.
 NSaved= 3 IEnMin= 3 EnMin= -237.083223934250     IErMin= 3 ErrMin= 1.14D-06
 ErrMax= 1.14D-06 EMaxC= 1.00D-01 BMatC= 1.70D-10 BMatP= 3.86D-09
 IDIUse=1 WtCom= 1.00D+00 WtEn= 0.00D+00
 Coeff-Com:  0.886D-01 0.203D+00 0.709D+00
 Coeff:      0.886D-01 0.203D+00 0.709D+00
 Gap=     0.389 Goal=   None    Shift=    0.000
 RMSDP=1.25D-07 MaxDP=2.73D-06 DE=-3.87D-09 OVMax= 2.98D-06

 Cycle  10  Pass 1  IDiag  1:
 E= -237.083223934406     Delta-E=       -0.000000000157 Rises=F Damp=F
 DIIS: error= 2.34D-07 at cycle   4 NSaved=   4.
 NSaved= 4 IEnMin= 4 EnMin= -237.083223934406     IErMin= 4 ErrMin= 2.34D-07
 ErrMax= 2.34D-07 EMaxC= 1.00D-01 BMatC= 9.50D-12 BMatP= 1.70D-10
 IDIUse=1 WtCom= 1.00D+00 WtEn= 0.00D+00
 Coeff-Com: -0.610D-02 0.268D-01 0.239D+00 0.740D+00
 Coeff:     -0.610D-02 0.268D-01 0.239D+00 0.740D+00
 Gap=     0.389 Goal=   None    Shift=    0.000
 RMSDP=3.65D-08 MaxDP=5.82D-07 DE=-1.57D-10 OVMax= 6.86D-07

 Cycle  11  Pass 1  IDiag  1:
 E= -237.083223934416     Delta-E=       -0.000000000010 Rises=F Damp=F
 DIIS: error= 4.05D-08 at cycle   5 NSaved=   5.
 NSaved= 5 IEnMin= 5 EnMin= -237.083223934416     IErMin= 5 ErrMin= 4.05D-08
 ErrMax= 4.05D-08 EMaxC= 1.00D-01 BMatC= 2.37D-13 BMatP= 9.50D-12
 IDIUse=1 WtCom= 1.00D+00 WtEn= 0.00D+00
 Coeff-Com: -0.407D-02 0.470D-02 0.647D-01 0.250D+00 0.684D+00
 Coeff:     -0.407D-02 0.470D-02 0.647D-01 0.250D+00 0.684D+00
 Gap=     0.389 Goal=   None    Shift=    0.000
 RMSDP=6.12D-09 MaxDP=9.55D-08 DE=-9.72D-12 OVMax= 1.32D-07

 SCF Done:  E(RB3LYP) =  -237.083223934     A.U. after   11 cycles
             Convg  =    0.6121D-08             -V/T =  2.0105
 KE= 2.346252054260D+02 PE=-1.057531238921D+03 EE= 3.305190278538D+02
 Leave Link  502 at Sun Oct  4 11:29:02 2015, MaxMem=  805306368 cpu:     121.8
 (Enter /share/apps/g09/l601.exe)
 Copying SCF densities to generalized density rwf, IOpCl= 0 IROHF=0.

 **********************************************************************

            Population analysis using the SCF density.

 **********************************************************************

 Orbital symmetries:
       Occupied  (A) (A) (A) (A) (A) (A) (A) (A) (A) (A) (A) (A)
                 (A) (A) (A) (A) (A) (A) (A) (A) (A) (A) (A) (A)
                 (A)
       Virtual   (A) (A) (A) (A) (A) (A) (A) (A) (A) (A) (A) (A)
                 (A) (A) (A) (A) (A) (A) (A) (A) (A) (A) (A) (A)
                 (A) (A) (A) (A) (A) (A) (A) (A) (A) (A) (A) (A)
                 (A) (A) (A) (A) (A) (A) (A) (A) (A) (A) (A) (A)
                 (A) (A) (A) (A) (A) (A) (A) (A) (A) (A) (A) (A)
                 (A) (A) (A) (A) (A) (A) (A) (A) (A) (A) (A) (A)
                 (A) (A) (A) (A) (A) (A) (A) (A) (A) (A) (A) (A)
                 (A) (A) (A) (A) (A) (A) (A) (A) (A)
 The electronic state is 1-A.
 Alpha  occ. eigenvalues --  -10.18103 -10.17450 -10.17449 -10.16971 -10.16971
 Alpha  occ. eigenvalues --  -10.16732  -0.80681  -0.74377  -0.70346  -0.64792
 Alpha  occ. eigenvalues --   -0.59316  -0.54906  -0.46168  -0.44911  -0.42621
 Alpha  occ. eigenvalues --   -0.41131  -0.39181  -0.38442  -0.36948  -0.35848
 Alpha  occ. eigenvalues --   -0.34583  -0.33093  -0.31354  -0.30833  -0.30323
 Alpha virt. eigenvalues --    0.08556   0.11941   0.12228   0.12839   0.15279
 Alpha virt. eigenvalues --    0.15434   0.16448   0.17427   0.17523   0.18202
 Alpha virt. eigenvalues --    0.18605   0.20256   0.22625   0.23221   0.24560
 Alpha virt. eigenvalues --    0.25170   0.25438   0.28401   0.29244   0.49393
 Alpha virt. eigenvalues --    0.51241   0.51243   0.52937   0.53348   0.59000
 Alpha virt. eigenvalues --    0.59070   0.63035   0.64137   0.65384   0.68165
 Alpha virt. eigenvalues --    0.69862   0.74316   0.78888   0.80867   0.84706
 Alpha virt. eigenvalues --    0.84943   0.87272   0.89018   0.90149   0.90179
 Alpha virt. eigenvalues --    0.90980   0.91853   0.93365   0.95068   0.95216
 Alpha virt. eigenvalues --    0.97222   0.97616   0.99276   0.99689   1.01183
 Alpha virt. eigenvalues --    1.03674   1.07962   1.29354   1.34177   1.41048
 Alpha virt. eigenvalues --    1.43181   1.53746   1.57735   1.61150   1.68101
 Alpha virt. eigenvalues --    1.74271   1.74778   1.83550   1.88253   1.90274
 Alpha virt. eigenvalues --    1.95156   1.95968   1.98681   2.00001   2.01610
 Alpha virt. eigenvalues --    2.02510   2.10000   2.12471   2.20171   2.27940
 Alpha virt. eigenvalues --    2.28984   2.31156   2.31809   2.34541   2.35883
 Alpha virt. eigenvalues --    2.42976   2.51487   2.52750   2.59659   2.68515
 Alpha virt. eigenvalues --    2.77438   2.79625   4.11746   4.21438   4.27121
 Alpha virt. eigenvalues --    4.40960   4.42344   4.60032
          Condensed to atoms (all electrons):
              1          2          3          4          5          6
     1  C    5.075551   0.376644   0.377334   0.371250   0.368083  -0.039695
     2  H    0.376644   0.580907  -0.033054  -0.031412  -0.035976   0.005363
     3  H    0.377334  -0.033054   0.573580  -0.031390  -0.032589  -0.004715
     4  H    0.371250  -0.031412  -0.031390   0.579445  -0.027017  -0.002205
     5  C    0.368083  -0.035976  -0.032589  -0.027017   4.991156   0.368989
     6  H   -0.039695   0.005363  -0.004715  -0.002205   0.368989   0.618797
     7  H   -0.039324  -0.003799   0.005137  -0.003805   0.372038  -0.038724
     8  C   -0.038399  -0.004662  -0.005178   0.003943   0.393162  -0.038028
     9  H   -0.004990   0.005743  -0.000195  -0.000016  -0.047637   0.006615
    10  C    0.003990   0.000060   0.000030  -0.000120  -0.042239  -0.004462
    11  H    0.000084   0.000000   0.000003  -0.000007  -0.005421  -0.000332
    12  H   -0.000026   0.000007   0.000003   0.000003  -0.004461   0.004861
    13  C   -0.000135  -0.000001   0.000001   0.000001   0.003990  -0.000026
    14  H    0.000001   0.000000   0.000000   0.000000   0.000030   0.000003
    15  H    0.000001   0.000000   0.000000   0.000000  -0.000120   0.000003
    16  H   -0.000001  -0.000001   0.000000   0.000000   0.000060   0.000007
    17  C   -0.003935  -0.000576   0.002156   0.000118  -0.050036  -0.008022
    18  H    0.002259   0.000414   0.003135  -0.000097  -0.005573  -0.000064
    19  H   -0.000315   0.000078   0.000279  -0.000023  -0.005357   0.005627
    20  H    0.000069  -0.000029  -0.000115   0.000001   0.004897  -0.000036
              7          8          9         10         11         12
     1  C   -0.039324  -0.038399  -0.004990   0.003990   0.000084  -0.000026
     2  H   -0.003799  -0.004662   0.005743   0.000060   0.000000   0.000007
     3  H    0.005137  -0.005178  -0.000195   0.000030   0.000003   0.000003
     4  H   -0.003805   0.003943  -0.000016  -0.000120  -0.000007   0.000003
     5  C    0.372038   0.393162  -0.047637  -0.042239  -0.005421  -0.004461
     6  H   -0.038724  -0.038028   0.006615  -0.004462  -0.000332   0.004861
     7  H    0.615847  -0.038104  -0.003589  -0.005422   0.007156  -0.000332
     8  C   -0.038104   4.854057   0.373442   0.393161  -0.038107  -0.038026
     9  H   -0.003589   0.373442   0.651766  -0.047638  -0.003587   0.006615
    10  C   -0.005422   0.393161  -0.047638   4.991158   0.372039   0.368988
    11  H    0.007156  -0.038107  -0.003587   0.372039   0.615849  -0.038724
    12  H   -0.000332  -0.038026   0.006615   0.368988  -0.038724   0.618794
    13  C    0.000084  -0.038397  -0.004991   0.368083  -0.039325  -0.039694
    14  H    0.000003  -0.005176  -0.000195  -0.032590   0.005137  -0.004715
    15  H   -0.000007   0.003943  -0.000016  -0.027017  -0.003805  -0.002204
    16  H    0.000000  -0.004663   0.005744  -0.035976  -0.003799   0.005363
    17  C    0.005778   0.377628  -0.050155  -0.050033   0.005778  -0.008022
    18  H   -0.000007  -0.028921  -0.003250   0.004897  -0.000174  -0.000036
    19  H   -0.000016  -0.035610   0.006024  -0.005357  -0.000016   0.005626
    20  H   -0.000174  -0.028923  -0.003249  -0.005573  -0.000007  -0.000064
             13         14         15         16         17         18
     1  C   -0.000135   0.000001   0.000001  -0.000001  -0.003935   0.002259
     2  H   -0.000001   0.000000   0.000000  -0.000001  -0.000576   0.000414
     3  H    0.000001   0.000000   0.000000   0.000000   0.002156   0.003135
     4  H    0.000001   0.000000   0.000000   0.000000   0.000118  -0.000097
     5  C    0.003990   0.000030  -0.000120   0.000060  -0.050036  -0.005573
     6  H   -0.000026   0.000003   0.000003   0.000007  -0.008022  -0.000064
     7  H    0.000084   0.000003  -0.000007   0.000000   0.005778  -0.000007
     8  C   -0.038397  -0.005176   0.003943  -0.004663   0.377628  -0.028921
     9  H   -0.004991  -0.000195  -0.000016   0.005744  -0.050155  -0.003250
    10  C    0.368083  -0.032590  -0.027017  -0.035976  -0.050033   0.004897
    11  H   -0.039325   0.005137  -0.003805  -0.003799   0.005778  -0.000174
    12  H   -0.039694  -0.004715  -0.002204   0.005363  -0.008022  -0.000036
    13  C    5.075549   0.377333   0.371250   0.376645  -0.003934   0.000069
    14  H    0.377333   0.573582  -0.031390  -0.033054   0.002154  -0.000115
    15  H    0.371250  -0.031390   0.579445  -0.031412   0.000118   0.000001
    16  H    0.376645  -0.033054  -0.031412   0.580905  -0.000576  -0.000029
    17  C   -0.003934   0.002154   0.000118  -0.000576   5.121829   0.370996
    18  H    0.000069  -0.000115   0.000001  -0.000029   0.370996   0.575072
    19  H   -0.000314   0.000279  -0.000023   0.000078   0.370794  -0.031964
    20  H    0.002259   0.003137  -0.000098   0.000413   0.370996  -0.030712
             19         20
     1  C   -0.000315   0.000069
     2  H    0.000078  -0.000029
     3  H    0.000279  -0.000115
     4  H   -0.000023   0.000001
     5  C   -0.005357   0.004897
     6  H    0.005627  -0.000036
     7  H   -0.000016  -0.000174
     8  C   -0.035610  -0.028923
     9  H    0.006024  -0.003249
    10  C   -0.005357  -0.005573
    11  H   -0.000016  -0.000007
    12  H    0.005626  -0.000064
    13  C   -0.000314   0.002259
    14  H    0.000279   0.003137
    15  H   -0.000023  -0.000098
    16  H    0.000078   0.000413
    17  C    0.370794   0.370996
    18  H   -0.031964  -0.030712
    19  H    0.585889  -0.031963
    20  H   -0.031963   0.575073
 Mulliken atomic charges:
              1
     1  C   -0.448449
     2  H    0.140293
     3  H    0.145577
     4  H    0.141330
     5  C   -0.245979
     6  H    0.126044
     7  H    0.127259
     8  C   -0.057142
     9  H    0.113562
    10  C   -0.245979
    11  H    0.127258
    12  H    0.126044
    13  C   -0.448449
    14  H    0.145576
    15  H    0.141330
    16  H    0.140295
    17  C   -0.453057
    18  H    0.144101
    19  H    0.136286
    20  H    0.144099
 Sum of Mulliken atomic charges =   0.00000
 Mulliken charges with hydrogens summed into heavy atoms:
              1
     1  C   -0.021248
     5  C    0.007324
     8  C    0.056420
    10  C    0.007324
    13  C   -0.021248
    17  C   -0.028571
 Sum of Mulliken charges with hydrogens summed into heavy atoms =   0.00000
 Electronic spatial extent (au):  <R**2>=            857.3637
 Charge=              0.0000 electrons
 Dipole moment (field-independent basis, Debye):
    X=              0.0000    Y=             -0.0543    Z=             -0.0153  Tot=              0.0564
 Quadrupole moment (field-independent basis, Debye-Ang):
   XX=            -41.9987   YY=            -41.5504   ZZ=            -41.2533
   XY=              0.0000   XZ=              0.0000   YZ=              0.1382
 Traceless Quadrupole moment (field-independent basis, Debye-Ang):
   XX=             -0.3979   YY=              0.0504   ZZ=              0.3475
   XY=              0.0000   XZ=              0.0000   YZ=              0.1382
 Octapole moment (field-independent basis, Debye-Ang**2):
  XXX=              0.0003  YYY=             -0.9874  ZZZ=             -0.1614  XYY=              0.0001
  XXY=             -0.5000  XXZ=              1.1612  XZZ=             -0.0002  YZZ=              0.0338
  YYZ=             -0.5241  XYZ=              0.0000
 Hexadecapole moment (field-independent basis, Debye-Ang**3):
 XXXX=           -845.4154 YYYY=           -245.1037 ZZZZ=           -103.5543 XXXY=              0.0005
 XXXZ=              0.0007 YYYX=              0.0006 YYYZ=             -0.2404 ZZZX=             -0.0001
 ZZZY=              1.0702 XXYY=           -175.6254 XXZZ=           -158.5625 YYZZ=            -60.1715
 XXYZ=             -0.8345 YYXZ=              0.0000 ZZXY=             -0.0006
 N-N= 2.553037817065D+02 E-N=-1.057531237374D+03  KE= 2.346252054260D+02
 No NMR shielding tensors so no spin-rotation constants.
 Leave Link  601 at Sun Oct  4 11:29:02 2015, MaxMem=  805306368 cpu:       0.7
 (Enter /share/apps/g09/l701.exe)
 Compute integral first derivatives.
 ... and contract with generalized density number  0.
 Leave Link  701 at Sun Oct  4 11:29:02 2015, MaxMem=  805306368 cpu:       1.0
 (Enter /share/apps/g09/l702.exe)
 L702 exits ... SP integral derivatives will be done elsewhere.
 Leave Link  702 at Sun Oct  4 11:29:02 2015, MaxMem=  805306368 cpu:       0.1
 (Enter /share/apps/g09/l703.exe)
 Compute integral first derivatives, UseDBF=F ICtDFT=           0.
 Integral derivatives from FoFDir, PRISM(SPDF).
 Calling FoFJK, ICntrl=      2127 FMM=F ISym2X=0 I1Cent= 0 IOpClX= 0 NMat=1 NMatS=1 NMatT=0.
 FoFCou: FMM=F IPFlag=           0 FMFlag=      100000 FMFlg1=         800
         NFxFlg=           0 DoJE=F BraDBF=F KetDBF=F FulRan=T
         Omega=  0.000000  0.000000  1.000000  0.000000  0.000000 ICntrl=    2127 IOpCl=  0
         NMat0=    1 NMatS0=    1 NMatT0=    0 NMatD0=    1 NMtDS0=    0 NMtDT0=    0
         I1Cent=           0 NGrid=           0.
 Symmetry not used in FoFCou.
 Leave Link  703 at Sun Oct  4 11:29:13 2015, MaxMem=  805306368 cpu:      37.7
 (Enter /share/apps/g09/l716.exe)
 Dipole        = 1.14144179D-06-2.13543445D-02-6.03094588D-03
 ***** Axes restored to original set *****
 -------------------------------------------------------------------
 Center     Atomic                   Forces (Hartrees/Bohr)
 Number     Number              X              Y              Z
 -------------------------------------------------------------------
      1        6           0.000066425   -0.000025367    0.000012901
      2        1          -0.000001697   -0.000015281   -0.000015416
      3        1          -0.000008917    0.000029877    0.000000127
      4        1          -0.000004310   -0.000008273   -0.000005008
      5        6          -0.000035938    0.000017406    0.000054697
      6        1          -0.000023909    0.000021833   -0.000002186
      7        1           0.000035139    0.000005663   -0.000006673
      8        6           0.000000250   -0.000039900   -0.000115810
      9        1           0.000000423    0.000030909    0.000003373
     10        6           0.000035256    0.000016284    0.000052973
     11        1          -0.000035565    0.000006187   -0.000006697
     12        1           0.000023917    0.000021968   -0.000001994
     13        6          -0.000065953   -0.000024506    0.000013679
     14        1           0.000008106    0.000030612    0.000000273
     15        1           0.000003886   -0.000008354   -0.000004979
     16        1           0.000001728   -0.000015415   -0.000015853
     17        6          -0.000000191   -0.000003993   -0.000003640
     18        1          -0.000028729   -0.000000796    0.000001646
     19        1           0.000000310   -0.000038214    0.000037241
     20        1           0.000029769   -0.000000641    0.000001346
 -------------------------------------------------------------------
 Cartesian Forces:  Max     0.000115810 RMS     0.000028213
 Leave Link  716 at Sun Oct  4 11:29:13 2015, MaxMem=  805306368 cpu:       0.1
 (Enter /share/apps/g09/l103.exe)

 GradGradGradGradGradGradGradGradGradGradGradGradGradGradGradGradGradGrad
 Berny optimization.
 Internal  Forces:  Max     0.000064204 RMS     0.000018763
 Search for a local minimum.
 Step number   1 out of a maximum of  110
 All quantities printed in internal units (Hartrees-Bohrs-Radians)
 RMS Force = .18763D-04 SwitMx=.10000D-02 MixMth= 2
 Mixed Optimization -- En-DIIS/RFO-DIIS
 Second derivative matrix not updated -- first step.
     Eigenvalues ---    0.00230   0.00230   0.00279   0.00325   0.00325
     Eigenvalues ---    0.03216   0.03216   0.03347   0.04643   0.04710
     Eigenvalues ---    0.04710   0.04870   0.05349   0.05357   0.05357
     Eigenvalues ---    0.05434   0.05495   0.05495   0.08731   0.08731
     Eigenvalues ---    0.12499   0.12499   0.16000   0.16000   0.16000
     Eigenvalues ---    0.16000   0.16000   0.16000   0.16000   0.16000
     Eigenvalues ---    0.16000   0.16723   0.17105   0.21941   0.21941
     Eigenvalues ---    0.28249   0.28250   0.28804   0.29117   0.29117
     Eigenvalues ---    0.33391   0.33635   0.33635   0.33787   0.33787
     Eigenvalues ---    0.33849   0.33975   0.33975   0.34118   0.34118
     Eigenvalues ---    0.34200   0.34200   0.34242   0.342431000.00000
     Eigenvalues --- 1000.000001000.000001000.000001000.000001000.00000
     Eigenvalues --- 1000.000001000.000001000.000001000.000001000.00000
     Eigenvalues --- 1000.000001000.000001000.000001000.000001000.00000
     Eigenvalues --- 1000.000001000.000001000.000001000.000001000.00000
     Eigenvalues --- 1000.000001000.000001000.000001000.000001000.00000
     Eigenvalues --- 1000.000001000.000001000.000001000.000001000.00000
     Eigenvalues --- 1000.000001000.000001000.000001000.000001000.00000
     Eigenvalues --- 1000.000001000.000001000.000001000.000001000.00000
     Eigenvalues --- 1000.000001000.000001000.000001000.000001000.00000
 RFO step:  Lambda=-2.98410430D-06 EMin= 2.30000000D-03
 Linear search not attempted -- first point.
 Iteration  1 RMS(Cart)=  0.00700521 RMS(Int)=  0.00001346
 Iteration  2 RMS(Cart)=  0.00002067 RMS(Int)=  0.00000003
 Iteration  3 RMS(Cart)=  0.00000000 RMS(Int)=  0.00000003
 Variable       Old X    -DE/DX   Delta X   Delta X   Delta X     New X
                                 (Linear)    (Quad)   (Total)
    R1        2.07372   0.00002   0.00000   0.00005   0.00005   2.07377
    R2        2.06994   0.00003   0.00000   0.00009   0.00009   2.07003
    R3        2.07131   0.00001   0.00000   0.00002   0.00002   2.07133
    R4        2.89759  -0.00005   0.00000  -0.00016  -0.00016   2.89743
    R5        2.07951   0.00000   0.00000   0.00000   0.00000   2.07950
    R6        2.07691   0.00000   0.00000   0.00000   0.00000   2.07691
    R7        2.91596  -0.00002   0.00000  -0.00008  -0.00008   2.91588
    R8        2.08371   0.00000   0.00000  -0.00001  -0.00001   2.08370
    R9        2.91596  -0.00003   0.00000  -0.00009  -0.00009   2.91587
   R10        2.90413  -0.00003   0.00000  -0.00011  -0.00011   2.90402
   R11        2.07691   0.00000   0.00000   0.00000   0.00000   2.07691
   R12        2.07950   0.00000   0.00000   0.00000   0.00000   2.07950
   R13        2.89759  -0.00005   0.00000  -0.00016  -0.00016   2.89743
   R14        2.06994   0.00003   0.00000   0.00009   0.00009   2.07003
   R15        2.07132   0.00001   0.00000   0.00002   0.00002   2.07133
   R16        2.07372   0.00002   0.00000   0.00005   0.00005   2.07377
   R17        2.06923   0.00002   0.00000   0.00006   0.00006   2.06929
   R18        2.07585   0.00003   0.00000   0.00010   0.00010   2.07595
   R19        2.06923   0.00002   0.00000   0.00007   0.00007   2.06929
    A1        1.87844   0.00000   0.00000   0.00003   0.00003   1.87847
    A2        1.87737   0.00000   0.00000  -0.00012  -0.00012   1.87726
    A3        1.93951  -0.00001   0.00000  -0.00009  -0.00009   1.93943
    A4        1.87286   0.00000   0.00000   0.00006   0.00006   1.87292
    A5        1.95767   0.00001   0.00000   0.00013   0.00013   1.95781
    A6        1.93446   0.00000   0.00000  -0.00002  -0.00002   1.93445
    A7        1.90971   0.00000   0.00000   0.00015   0.00015   1.90986
    A8        1.89572   0.00002   0.00000  -0.00007  -0.00007   1.89566
    A9        2.01041  -0.00002   0.00000  -0.00015  -0.00015   2.01026
   A10        1.84881   0.00001   0.00000   0.00019   0.00019   1.84900
   A11        1.90069   0.00002   0.00000   0.00027   0.00027   1.90096
   A12        1.89164  -0.00002   0.00000  -0.00037  -0.00037   1.89128
   A13        1.87515   0.00000   0.00000   0.00021   0.00021   1.87535
   A14        1.92000   0.00001   0.00000  -0.00017  -0.00017   1.91983
   A15        1.95339  -0.00002   0.00000  -0.00028  -0.00028   1.95310
   A16        1.87515   0.00000   0.00000   0.00020   0.00020   1.87535
   A17        1.88297   0.00002   0.00000   0.00041   0.00041   1.88338
   A18        1.95339  -0.00002   0.00000  -0.00030  -0.00030   1.95309
   A19        1.89165  -0.00002   0.00000  -0.00036  -0.00036   1.89129
   A20        1.90070   0.00002   0.00000   0.00026   0.00026   1.90096
   A21        2.01041  -0.00003   0.00000  -0.00017  -0.00017   2.01025
   A22        1.84880   0.00000   0.00000   0.00020   0.00020   1.84900
   A23        1.89571   0.00002   0.00000  -0.00005  -0.00005   1.89566
   A24        1.90972   0.00000   0.00000   0.00014   0.00014   1.90986
   A25        1.95768   0.00001   0.00000   0.00013   0.00013   1.95781
   A26        1.93447   0.00000   0.00000  -0.00002  -0.00002   1.93445
   A27        1.93951  -0.00001   0.00000  -0.00009  -0.00009   1.93942
   A28        1.87285   0.00000   0.00000   0.00006   0.00006   1.87291
   A29        1.87843   0.00000   0.00000   0.00003   0.00003   1.87847
   A30        1.87737   0.00000   0.00000  -0.00012  -0.00012   1.87726
   A31        1.95005   0.00000   0.00000   0.00008   0.00008   1.95013
   A32        1.93263  -0.00006   0.00000  -0.00051  -0.00051   1.93212
   A33        1.95005   0.00000   0.00000   0.00007   0.00007   1.95012
   A34        1.87915   0.00002   0.00000   0.00005   0.00005   1.87919
   A35        1.86931   0.00002   0.00000   0.00030   0.00030   1.86961
   A36        1.87915   0.00002   0.00000   0.00004   0.00004   1.87919
    D1        3.12515   0.00001   0.00000   0.00077   0.00077   3.12591
    D2       -1.14738   0.00002   0.00000   0.00104   0.00104  -1.14634
    D3        0.97752  -0.00001   0.00000   0.00041   0.00041   0.97792
    D4        1.02154   0.00000   0.00000   0.00070   0.00070   1.02224
    D5        3.03220   0.00002   0.00000   0.00097   0.00097   3.03317
    D6       -1.12609  -0.00001   0.00000   0.00034   0.00034  -1.12575
    D7       -1.07143  -0.00001   0.00000   0.00055   0.00055  -1.07088
    D8        0.93923   0.00001   0.00000   0.00082   0.00082   0.94005
    D9        3.06413  -0.00002   0.00000   0.00019   0.00019   3.06431
   D10       -0.96505   0.00002   0.00000   0.00826   0.00826  -0.95679
   D11       -3.00112   0.00001   0.00000   0.00800   0.00800  -2.99312
   D12        1.09891   0.00004   0.00000   0.00873   0.00873   1.10763
   D13       -3.11747   0.00002   0.00000   0.00796   0.00796  -3.10951
   D14        1.12965   0.00001   0.00000   0.00770   0.00770   1.13735
   D15       -1.05351   0.00004   0.00000   0.00843   0.00843  -1.04508
   D16        1.16205   0.00001   0.00000   0.00779   0.00779   1.16984
   D17       -0.87402   0.00000   0.00000   0.00753   0.00753  -0.86649
   D18       -3.05718   0.00003   0.00000   0.00826   0.00826  -3.04892
   D19        0.87383   0.00000   0.00000  -0.00737  -0.00737   0.86646
   D20       -1.12984  -0.00001   0.00000  -0.00755  -0.00755  -1.13739
   D21        3.00092  -0.00001   0.00000  -0.00783  -0.00783   2.99309
   D22       -1.16223  -0.00001   0.00000  -0.00764  -0.00764  -1.16987
   D23        3.11729  -0.00002   0.00000  -0.00782  -0.00782   3.10947
   D24        0.96485  -0.00002   0.00000  -0.00809  -0.00809   0.95676
   D25        3.05699  -0.00003   0.00000  -0.00809  -0.00809   3.04890
   D26        1.05332  -0.00003   0.00000  -0.00827  -0.00827   1.04506
   D27       -1.09911  -0.00004   0.00000  -0.00854  -0.00854  -1.10765
   D28       -1.01238   0.00001   0.00000  -0.00009  -0.00009  -1.01247
   D29        1.08221  -0.00001   0.00000  -0.00033  -0.00033   1.08189
   D30       -3.10638  -0.00002   0.00000  -0.00057  -0.00057  -3.10695
   D31        1.04692   0.00001   0.00000   0.00025   0.00025   1.04717
   D32        3.14151   0.00000   0.00000   0.00002   0.00002   3.14153
   D33       -1.04708  -0.00001   0.00000  -0.00023  -0.00023  -1.04731
   D34        3.10623   0.00002   0.00000   0.00057   0.00057   3.10680
   D35       -1.08237   0.00001   0.00000   0.00034   0.00034  -1.08203
   D36        1.01223  -0.00001   0.00000   0.00010   0.00010   1.01233
   D37        1.12608   0.00001   0.00000  -0.00039  -0.00039   1.12569
   D38       -3.06414   0.00002   0.00000  -0.00024  -0.00024  -3.06437
   D39       -0.97753   0.00001   0.00000  -0.00045  -0.00045  -0.97798
   D40       -3.03221  -0.00002   0.00000  -0.00101  -0.00101  -3.03322
   D41       -0.93924  -0.00001   0.00000  -0.00086  -0.00086  -0.94010
   D42        1.14737  -0.00002   0.00000  -0.00107  -0.00107   1.14629
   D43       -1.02156   0.00000   0.00000  -0.00072  -0.00072  -1.02229
   D44        1.07141   0.00001   0.00000  -0.00057  -0.00057   1.07084
   D45       -3.12517  -0.00001   0.00000  -0.00079  -0.00079  -3.12596
         Item               Value     Threshold  Converged?
 Maximum Force            0.000064     0.000015     NO 
 RMS     Force            0.000019     0.000010     NO 
 Maximum Displacement     0.021334     0.000060     NO 
 RMS     Displacement     0.007005     0.000040     NO 
 Predicted change in Energy=-1.492006D-06
 GradGradGradGradGradGradGradGradGradGradGradGradGradGradGradGradGradGrad

 Leave Link  103 at Sun Oct  4 11:29:13 2015, MaxMem=  805306368 cpu:       0.1
 (Enter /share/apps/g09/l202.exe)
                          Input orientation:                          
 ---------------------------------------------------------------------
 Center     Atomic      Atomic             Coordinates (Angstroms)
 Number     Number       Type             X           Y           Z
 ---------------------------------------------------------------------
      1          6           0       -2.585430   -0.172984   -0.293159
      2          1           0       -2.568240   -0.204625   -1.389960
      3          1           0       -2.801134    0.858583    0.005614
      4          1           0       -3.425374   -0.792128    0.042393
      5          6           0       -1.263941   -0.681504    0.295011
      6          1           0       -1.305402   -0.622751    1.393084
      7          1           0       -1.160122   -1.748666    0.053553
      8          6           0       -0.000001    0.053600   -0.197915
      9          1           0        0.000009    0.008860   -1.299651
     10          6           0        1.263955   -0.681463    0.295027
     11          1           0        1.160168   -1.748636    0.053601
     12          1           0        1.305416   -0.622675    1.393098
     13          6           0        2.585424   -0.172915   -0.293161
     14          1           0        2.801072    0.858686    0.005540
     15          1           0        3.425398   -0.791990    0.042443
     16          1           0        2.568246   -0.204633   -1.389960
     17          6           0       -0.000016    1.533848    0.214935
     18          1           0       -0.880908    2.061059   -0.166056
     19          1           0       -0.000094    1.631856    1.309100
     20          1           0        0.880944    2.061038   -0.165927
 ---------------------------------------------------------------------
                    Distance matrix (angstroms):
                    1          2          3          4          5
     1  C    0.000000
     2  H    1.097392   0.000000
     3  H    1.095411   1.769825   0.000000
     4  H    1.096102   1.769597   1.765184   0.000000
     5  C    1.533254   2.183514   2.195127   2.178955   0.000000
     6  H    2.164296   3.084627   2.521238   2.519392   1.100426
     7  H    2.152786   2.539801   3.081067   2.458954   1.099052
     8  C    2.597086   2.843150   2.921604   3.536408   1.543016
     9  H    2.780393   2.578688   3.205019   3.765091   2.148748
    10  C    3.927121   4.213345   4.356656   4.697433   2.527896
    11  H    4.078287   4.285891   4.742554   4.684253   2.659578
    12  H    4.264313   4.788046   4.580720   4.922752   2.794790
    13  C    5.170854   5.269177   5.492565   6.051918   3.927114
    14  H    5.492537   5.648678   5.602206   6.441674   4.356640
    15  H    6.051929   6.190353   6.441696   6.850771   4.697435
    16  H    5.269189   5.136486   5.648744   6.190337   4.213335
    17  C    3.139395   3.491955   2.888955   4.144033   2.551804
    18  H    2.812916   3.078693   2.272155   3.828633   2.807302
    19  H    3.536757   4.153669   3.184785   4.383240   2.824416
    20  H    4.125869   4.304457   3.877245   5.169945   3.512055
                    6          7          8          9         10
     6  H    0.000000
     7  H    1.755886   0.000000
     8  C    2.166286   2.158073   0.000000
     9  H    3.058406   2.503191   1.102644   0.000000
    10  C    2.794776   2.659583   1.543014   2.148745   0.000000
    11  H    3.023387   2.320290   2.158079   2.503209   1.099053
    12  H    2.610817   3.023427   2.166283   3.058402   1.100425
    13  C    4.264305   4.078274   2.597076   2.780366   1.533254
    14  H    4.580726   4.742536   2.921569   3.204947   2.195128
    15  H    4.922736   4.684266   3.536403   3.765086   2.178956
    16  H    4.788038   4.285849   2.843159   2.578678   2.183512
    17  C    2.782622   3.485225   1.536744   2.149316   2.551792
    18  H    3.132721   3.826251   2.192465   2.504510   3.512045
    19  H    2.606556   3.788139   2.182198   3.072409   2.824466
    20  H    3.796491   4.327582   2.192463   2.504558   2.807220
                   11         12         13         14         15
    11  H    0.000000
    12  H    1.755886   0.000000
    13  C    2.152788   2.164296   0.000000
    14  H    3.081072   2.521256   1.095412   0.000000
    15  H    2.458975   2.519377   1.096102   1.765185   0.000000
    16  H    2.539783   3.084625   1.097392   1.769824   1.769598
    17  C    3.485220   2.782592   3.139380   2.888907   4.144000
    18  H    4.327588   3.796498   4.125803   3.877128   5.169877
    19  H    3.788168   2.606592   3.536855   3.184900   4.383314
    20  H    3.826195   3.132579   2.812825   2.271990   3.828502
                   16         17         18         19         20
    16  H    0.000000
    17  C    3.491988   0.000000
    18  H    4.304413   1.095022   0.000000
    19  H    4.153792   1.098546   1.770913   0.000000
    20  H    3.078719   1.095023   1.761852   1.770912   0.000000
 Stoichiometry    C6H14
 Framework group  C1[X(C6H14)]
 Deg. of freedom    54
 Full point group                 C1      NOp   1
 Largest Abelian subgroup         C1      NOp   1
 Largest concise Abelian subgroup C1      NOp   1
                         Standard orientation:                         
 ---------------------------------------------------------------------
 Center     Atomic      Atomic             Coordinates (Angstroms)
 Number     Number       Type             X           Y           Z
 ---------------------------------------------------------------------
      1          6           0       -2.585432   -0.174762   -0.292487
      2          1           0       -2.568243   -0.212047   -1.389111
      3          1           0       -2.801120    0.858333    0.000974
      4          1           0       -3.425384   -0.792158    0.046248
      5          6           0       -1.263950   -0.680268    0.298290
      6          1           0       -1.305408   -0.615864    1.396047
      7          1           0       -1.160147   -1.748661    0.062328
      8          6           0        0.000001    0.052270   -0.198412
      9          1           0        0.000009    0.001861   -1.299904
     10          6           0        1.263947   -0.680265    0.298304
     11          1           0        1.160143   -1.748665    0.062374
     12          1           0        1.305409   -0.615828    1.396058
     13          6           0        2.585423   -0.174771   -0.292494
     14          1           0        2.801086    0.858350    0.000895
     15          1           0        3.425387   -0.792124    0.046292
     16          1           0        2.568244   -0.212133   -1.389115
     17          6           0        0.000009    1.534624    0.206814
     18          1           0       -0.880875    2.059880   -0.176884
     19          1           0       -0.000066    1.638261    1.300460
     20          1           0        0.880977    2.059832   -0.176757
 ---------------------------------------------------------------------
 Rotational constants (GHZ):      6.5103293      1.8329762      1.5773733
 Leave Link  202 at Sun Oct  4 11:29:13 2015, MaxMem=  805306368 cpu:       0.0
 (Enter /share/apps/g09/l301.exe)
 Standard basis: 6-31G(d) (6D, 7F)
 Ernie: Thresh=  0.10000D-02 Tol=  0.10000D-05 Strict=F.
 There are   118 symmetry adapted basis functions of A   symmetry.
 Integral buffers will be    131072 words long.
 Raffenetti 2 integral format.
 Two-electron integral symmetry is turned on.
   118 basis functions,   224 primitive gaussians,   118 cartesian basis functions
    25 alpha electrons       25 beta electrons
       nuclear repulsion energy       255.2908538273 Hartrees.
 IExCor=  402 DFT=T Ex+Corr=B3LYP ExCW=0 ScaHFX=  0.200000
 ScaDFX=  0.800000  0.720000  1.000000  0.810000 ScalE2=  1.000000  1.000000
 IRadAn=      5 IRanWt=     -1 IRanGd=            0 ICorTp=0
 NAtoms=   20 NActive=   20 NUniq=   20 SFac= 7.50D-01 NAtFMM=   80 NAOKFM=F Big=F
 Leave Link  301 at Sun Oct  4 11:29:13 2015, MaxMem=  805306368 cpu:       0.2
 (Enter /share/apps/g09/l302.exe)
 NPDir=0 NMtPBC=     1 NCelOv=     1 NCel=       1 NClECP=     1 NCelD=      1
         NCelK=      1 NCelE2=     1 NClLst=     1 CellRange=     0.0.
 One-electron integrals computed using PRISM.
 NBasis=   118 RedAO= T  NBF=   118
 NBsUse=   118 1.00D-06 NBFU=   118
 Precomputing XC quadrature grid using
 IXCGrd= 2 IRadAn=           5 IRanWt=          -1 IRanGd=           0 AccXCQ= 1.00D-10.
 NRdTot=    1649 NPtTot=      440632 NUsed=      452448 NTot=      452480
 NSgBfM=   118   118   118   118   118 NAtAll=    20    20.
 Leave Link  302 at Sun Oct  4 11:29:14 2015, MaxMem=  805306368 cpu:       1.8
 (Enter /share/apps/g09/l303.exe)
 DipDrv:  MaxL=1.
 Leave Link  303 at Sun Oct  4 11:29:14 2015, MaxMem=  805306368 cpu:       0.1
 (Enter /share/apps/g09/l401.exe)
 Initial guess read from the read-write file.
 B after Tr=     0.000000    0.000000    0.000000
         Rot=    1.000000    0.000000    0.000000    0.000000 Ang=   0.00 deg.
 Guess basis will be translated and rotated to current coordinates.
 Initial guess orbital symmetries:
       Occupied  (A) (A) (A) (A) (A) (A) (A) (A) (A) (A) (A) (A)
                 (A) (A) (A) (A) (A) (A) (A) (A) (A) (A) (A) (A)
                 (A)
       Virtual   (A) (A) (A) (A) (A) (A) (A) (A) (A) (A) (A) (A)
                 (A) (A) (A) (A) (A) (A) (A) (A) (A) (A) (A) (A)
                 (A) (A) (A) (A) (A) (A) (A) (A) (A) (A) (A) (A)
                 (A) (A) (A) (A) (A) (A) (A) (A) (A) (A) (A) (A)
                 (A) (A) (A) (A) (A) (A) (A) (A) (A) (A) (A) (A)
                 (A) (A) (A) (A) (A) (A) (A) (A) (A) (A) (A) (A)
                 (A) (A) (A) (A) (A) (A) (A) (A) (A) (A) (A) (A)
                 (A) (A) (A) (A) (A) (A) (A) (A) (A)
 The electronic state of the initial guess is 1-A.
 Generating alternative initial guess.
 Harris functional with IExCor=  402 diagonalized for initial guess.
 ExpMin= 1.61D-01 ExpMax= 3.05D+03 ExpMxC= 4.57D+02 IAcc=3 IRadAn=         5 AccDes= 0.00D+00
 HarFok:  IExCor=  402 AccDes= 0.00D+00 IRadAn=         5 IDoV= 1
 ScaDFX=  1.000000  1.000000  1.000000  1.000000
 FoFCou: FMM=F IPFlag=           0 FMFlag=      100000 FMFlg1=           0
         NFxFlg=           0 DoJE=T BraDBF=F KetDBF=T FulRan=T
         Omega=  0.000000  0.000000  1.000000  0.000000  0.000000 ICntrl=     500 IOpCl=  0
         NMat0=    1 NMatS0=    1 NMatT0=    0 NMatD0=    1 NMtDS0=    0 NMtDT0=    0
         I1Cent=           4 NGrid=           0.
 Petite list used in FoFCou.
 Harris En= -237.180576246181    
 Leave Link  401 at Sun Oct  4 11:29:18 2015, MaxMem=  805306368 cpu:      14.0
 (Enter /share/apps/g09/l502.exe)
 Closed shell SCF:
 Requested convergence on RMS density matrix=1.00D-08 within 128 cycles.
 Requested convergence on MAX density matrix=1.00D-06.
 Requested convergence on             energy=1.00D-06.
 No special actions if energy rises.
 Using DIIS extrapolation, IDIIS=  1040.
 Integral symmetry usage will be decided dynamically.
       452255 words used for storage of precomputed grid.
 Keep R1 ints in memory in canonical form, NReq=26106310.
 IEnd=      513799 IEndB=      513799 NGot=   805306368 MDV=   780172493
 LenX=   780172493 LenY=   780158128
 Symmetry not used in FoFDir.
 MinBra= 0 MaxBra= 2 Meth= 1.
 IRaf=       0 NMat=   1 IRICut=       1 DoRegI=T DoRafI=F ISym2E= 0 JSym2E=0.
 Integral accuracy reduced to 1.0D-05 until final iterations.

 Cycle   1  Pass 0  IDiag  1:
 E= -237.083147866861    
 DIIS: error= 8.72D-04 at cycle   1 NSaved=   1.
 NSaved= 1 IEnMin= 1 EnMin= -237.083147866861     IErMin= 1 ErrMin= 8.72D-04
 ErrMax= 8.72D-04 EMaxC= 1.00D-01 BMatC= 4.85D-05 BMatP= 4.85D-05
 IDIUse=3 WtCom= 9.91D-01 WtEn= 8.72D-03
 Coeff-Com:  0.100D+01
 Coeff-En:   0.100D+01
 Coeff:      0.100D+01
 Gap=     0.389 Goal=   None    Shift=    0.000
 RMSDP=8.13D-05 MaxDP=1.19D-03              OVMax= 2.87D-03

 Cycle   2  Pass 0  IDiag  1:
 E= -237.083247836593     Delta-E=       -0.000099969731 Rises=F Damp=F
 DIIS: error= 1.05D-04 at cycle   2 NSaved=   2.
 NSaved= 2 IEnMin= 2 EnMin= -237.083247836593     IErMin= 2 ErrMin= 1.05D-04
 ErrMax= 1.05D-04 EMaxC= 1.00D-01 BMatC= 4.46D-07 BMatP= 4.85D-05
 IDIUse=3 WtCom= 9.99D-01 WtEn= 1.05D-03
 Coeff-Com: -0.864D-01 0.109D+01
 Coeff-En:   0.000D+00 0.100D+01
 Coeff:     -0.863D-01 0.109D+01
 Gap=     0.389 Goal=   None    Shift=    0.000
 RMSDP=1.15D-05 MaxDP=1.73D-04 DE=-1.00D-04 OVMax= 3.73D-04

 Cycle   3  Pass 0  IDiag  1:
 E= -237.083248817037     Delta-E=       -0.000000980444 Rises=F Damp=F
 DIIS: error= 1.12D-05 at cycle   3 NSaved=   3.
 NSaved= 3 IEnMin= 3 EnMin= -237.083248817037     IErMin= 3 ErrMin= 1.12D-05
 ErrMax= 1.12D-05 EMaxC= 1.00D-01 BMatC= 1.50D-08 BMatP= 4.46D-07
 IDIUse=1 WtCom= 1.00D+00 WtEn= 0.00D+00
 Coeff-Com: -0.196D-01 0.221D+00 0.799D+00
 Coeff:     -0.196D-01 0.221D+00 0.799D+00
 Gap=     0.389 Goal=   None    Shift=    0.000
 RMSDP=1.77D-06 MaxDP=2.01D-05 DE=-9.80D-07 OVMax= 3.92D-05

 Initial convergence to 1.0D-05 achieved.  Increase integral accuracy.
 Cycle   4  Pass 1  IDiag  1:
 E= -237.083224974207     Delta-E=        0.000023842830 Rises=F Damp=F
 DIIS: error= 4.10D-06 at cycle   1 NSaved=   1.
 NSaved= 1 IEnMin= 1 EnMin= -237.083224974207     IErMin= 1 ErrMin= 4.10D-06
 ErrMax= 4.10D-06 EMaxC= 1.00D-01 BMatC= 3.83D-09 BMatP= 3.83D-09
 IDIUse=1 WtCom= 1.00D+00 WtEn= 0.00D+00
 Coeff-Com:  0.100D+01
 Coeff:      0.100D+01
 Gap=     0.389 Goal=   None    Shift=    0.000
 RMSDP=1.77D-06 MaxDP=2.01D-05 DE= 2.38D-05 OVMax= 2.23D-05

 Cycle   5  Pass 1  IDiag  1:
 E= -237.083224974878     Delta-E=       -0.000000000671 Rises=F Damp=F
 DIIS: error= 4.34D-06 at cycle   2 NSaved=   2.
 NSaved= 2 IEnMin= 2 EnMin= -237.083224974878     IErMin= 1 ErrMin= 4.10D-06
 ErrMax= 4.34D-06 EMaxC= 1.00D-01 BMatC= 3.87D-09 BMatP= 3.83D-09
 IDIUse=1 WtCom= 1.00D+00 WtEn= 0.00D+00
 Coeff-Com:  0.501D+00 0.499D+00
 Coeff:      0.501D+00 0.499D+00
 Gap=     0.389 Goal=   None    Shift=    0.000
 RMSDP=5.68D-07 MaxDP=9.59D-06 DE=-6.71D-10 OVMax= 1.16D-05

 Cycle   6  Pass 1  IDiag  1:
 E= -237.083224978598     Delta-E=       -0.000000003720 Rises=F Damp=F
 DIIS: error= 6.58D-07 at cycle   3 NSaved=   3.
 NSaved= 3 IEnMin= 3 EnMin= -237.083224978598     IErMin= 3 ErrMin= 6.58D-07
 ErrMax= 6.58D-07 EMaxC= 1.00D-01 BMatC= 8.68D-11 BMatP= 3.83D-09
 IDIUse=1 WtCom= 1.00D+00 WtEn= 0.00D+00
 Coeff-Com:  0.550D-01 0.146D+00 0.799D+00
 Coeff:      0.550D-01 0.146D+00 0.799D+00
 Gap=     0.389 Goal=   None    Shift=    0.000
 RMSDP=1.07D-07 MaxDP=1.89D-06 DE=-3.72D-09 OVMax= 2.19D-06

 Cycle   7  Pass 1  IDiag  1:
 E= -237.083224978674     Delta-E=       -0.000000000076 Rises=F Damp=F
 DIIS: error= 2.24D-07 at cycle   4 NSaved=   4.
 NSaved= 4 IEnMin= 4 EnMin= -237.083224978674     IErMin= 4 ErrMin= 2.24D-07
 ErrMax= 2.24D-07 EMaxC= 1.00D-01 BMatC= 9.65D-12 BMatP= 8.68D-11
 IDIUse=1 WtCom= 1.00D+00 WtEn= 0.00D+00
 Coeff-Com: -0.103D-01 0.283D-01 0.332D+00 0.650D+00
 Coeff:     -0.103D-01 0.283D-01 0.332D+00 0.650D+00
 Gap=     0.389 Goal=   None    Shift=    0.000
 RMSDP=4.07D-08 MaxDP=5.98D-07 DE=-7.63D-11 OVMax= 8.38D-07

 Cycle   8  Pass 1  IDiag  1:
 E= -237.083224978686     Delta-E=       -0.000000000012 Rises=F Damp=F
 DIIS: error= 4.63D-08 at cycle   5 NSaved=   5.
 NSaved= 5 IEnMin= 5 EnMin= -237.083224978686     IErMin= 5 ErrMin= 4.63D-08
 ErrMax= 4.63D-08 EMaxC= 1.00D-01 BMatC= 3.69D-13 BMatP= 9.65D-12
 IDIUse=1 WtCom= 1.00D+00 WtEn= 0.00D+00
 Coeff-Com: -0.540D-02 0.103D-01 0.134D+00 0.303D+00 0.558D+00
 Coeff:     -0.540D-02 0.103D-01 0.134D+00 0.303D+00 0.558D+00
 Gap=     0.389 Goal=   None    Shift=    0.000
 RMSDP=6.40D-09 MaxDP=9.79D-08 DE=-1.17D-11 OVMax= 1.34D-07

 SCF Done:  E(RB3LYP) =  -237.083224979     A.U. after    8 cycles
             Convg  =    0.6398D-08             -V/T =  2.0105
 KE= 2.346255453405D+02 PE=-1.057505521467D+03 EE= 3.305058973205D+02
 Leave Link  502 at Sun Oct  4 11:29:46 2015, MaxMem=  805306368 cpu:     109.7
 (Enter /share/apps/g09/l701.exe)
 Compute integral first derivatives.
 ... and contract with generalized density number  0.
 Leave Link  701 at Sun Oct  4 11:29:46 2015, MaxMem=  805306368 cpu:       0.8
 (Enter /share/apps/g09/l702.exe)
 L702 exits ... SP integral derivatives will be done elsewhere.
 Leave Link  702 at Sun Oct  4 11:29:46 2015, MaxMem=  805306368 cpu:       0.1
 (Enter /share/apps/g09/l703.exe)
 Compute integral first derivatives, UseDBF=F ICtDFT=           0.
 Integral derivatives from FoFDir, PRISM(SPDF).
 Calling FoFJK, ICntrl=      2127 FMM=F ISym2X=0 I1Cent= 0 IOpClX= 0 NMat=1 NMatS=1 NMatT=0.
 FoFCou: FMM=F IPFlag=           0 FMFlag=      100000 FMFlg1=         800
         NFxFlg=           0 DoJE=F BraDBF=F KetDBF=F FulRan=T
         Omega=  0.000000  0.000000  1.000000  0.000000  0.000000 ICntrl=    2127 IOpCl=  0
         NMat0=    1 NMatS0=    1 NMatT0=    0 NMatD0=    1 NMtDS0=    0 NMtDT0=    0
         I1Cent=           0 NGrid=           0.
 Symmetry not used in FoFCou.
 Leave Link  703 at Sun Oct  4 11:29:55 2015, MaxMem=  805306368 cpu:      32.7
 (Enter /share/apps/g09/l716.exe)
 Dipole        = 6.10472344D-07-2.14189328D-02-5.73525862D-03
 ***** Axes restored to original set *****
 -------------------------------------------------------------------
 Center     Atomic                   Forces (Hartrees/Bohr)
 Number     Number              X              Y              Z
 -------------------------------------------------------------------
      1        6           0.000023281    0.000012646    0.000010707
      2        1           0.000004660   -0.000007682    0.000006186
      3        1           0.000004832    0.000026922   -0.000008008
      4        1          -0.000012121    0.000011746    0.000004735
      5        6          -0.000040781   -0.000014120   -0.000001122
      6        1          -0.000001261   -0.000004438   -0.000008857
      7        1          -0.000025325    0.000004688    0.000000668
      8        6          -0.000000158   -0.000064508   -0.000006316
      9        1          -0.000000170   -0.000000531    0.000012582
     10        6           0.000041417   -0.000013906   -0.000000418
     11        1           0.000025313    0.000005050    0.000000569
     12        1           0.000001463   -0.000004688   -0.000008451
     13        6          -0.000022355    0.000012188    0.000010841
     14        1          -0.000004682    0.000025907   -0.000007923
     15        1           0.000012038    0.000011642    0.000004538
     16        1          -0.000004528   -0.000007588    0.000005983
     17        6          -0.000000574    0.000006976    0.000001375
     18        1          -0.000020911    0.000009819   -0.000002210
     19        1           0.000000113   -0.000020084   -0.000012421
     20        1           0.000019748    0.000009959   -0.000002458
 -------------------------------------------------------------------
 Cartesian Forces:  Max     0.000064508 RMS     0.000015965
 Leave Link  716 at Sun Oct  4 11:29:55 2015, MaxMem=  805306368 cpu:       0.1
 (Enter /share/apps/g09/l103.exe)

 GradGradGradGradGradGradGradGradGradGradGradGradGradGradGradGradGradGrad
 Berny optimization.
 Using GEDIIS/GDIIS optimizer.
 Internal  Forces:  Max     0.000151673 RMS     0.000032387
 Search for a local minimum.
 Step number   2 out of a maximum of  110
 All quantities printed in internal units (Hartrees-Bohrs-Radians)
 RMS Force = .32387D-04 SwitMx=.10000D-02 MixMth= 2
 Mixed Optimization -- En-DIIS/RFO-DIIS
 Swaping is turned off.
 Update second derivatives using D2CorX and points    1    2
 DE= -1.04D-06 DEPred=-1.49D-06 R= 7.00D-01
 SS=  1.41D+00  RLast= 3.41D-02 DXNew= 5.0454D-01 1.0234D-01
 Trust test= 7.00D-01 RLast= 3.41D-02 DXMaxT set to 3.00D-01
     Eigenvalues ---    0.00230   0.00248   0.00279   0.00325   0.00397
     Eigenvalues ---    0.03217   0.03295   0.03375   0.04642   0.04676
     Eigenvalues ---    0.04710   0.04998   0.05306   0.05356   0.05369
     Eigenvalues ---    0.05438   0.05496   0.05501   0.08729   0.08769
     Eigenvalues ---    0.12497   0.12515   0.15827   0.16000   0.16000
     Eigenvalues ---    0.16000   0.16000   0.16000   0.16000   0.16000
     Eigenvalues ---    0.16017   0.16716   0.17951   0.21941   0.22461
     Eigenvalues ---    0.28250   0.28348   0.28807   0.29061   0.29117
     Eigenvalues ---    0.33391   0.33635   0.33637   0.33787   0.33787
     Eigenvalues ---    0.33865   0.33975   0.33977   0.34112   0.34118
     Eigenvalues ---    0.34144   0.34200   0.34234   0.342431000.00000
     Eigenvalues --- 1000.000001000.000001000.000001000.000001000.00000
     Eigenvalues --- 1000.000001000.000001000.000001000.000001000.00000
     Eigenvalues --- 1000.000001000.000001000.000001000.000001000.00000
     Eigenvalues --- 1000.000001000.000001000.000001000.000001000.00000
     Eigenvalues --- 1000.000001000.000001000.000001000.000001000.00000
     Eigenvalues --- 1000.000001000.000001000.000001000.000001000.00000
[...]
 09,-0.01256712,0.00787029,0.00207951,-0.00053831,0.00120459,0.00122463
 ,-0.00051849,0.00038035,-0.00306357,0.00198001,-0.00149850,-0.13593471
 ,-0.03703394,0.02597230,-0.00268709,-0.00157847,0.00148328,0.00027158,
 0.00060418,0.00006627,0.45915492,0.00702859,0.00849495,-0.00607333,-0.
 00003639,0.00028964,0.00013417,0.00085285,-0.00052479,-0.00055048,0.00
 402377,-0.00099891,0.00128555,-0.03357313,-0.10109285,0.01655882,0.001
 54718,0.00013649,-0.00054612,-0.02642669,-0.01776649,0.01244377,-0.000
 00027,0.47619213,-0.00945354,-0.00873179,0.00518977,-0.00171556,-0.000
 55553,0.00027106,0.00057831,0.00033329,-0.00001439,-0.00401714,0.00124
 056,-0.00128816,0.02683577,0.01611841,-0.09328352,0.02833808,0.0173797
 3,-0.01347577,-0.00748818,-0.00502602,0.00230684,-0.00000073,0.0047932
 0,0.58451891,0.00171222,0.00038796,0.00141823,-0.00026719,0.00004319,-
 0.00090615,-0.00013006,0.00002062,-0.00002056,0.00036390,-0.00009990,-
 0.00030260,-0.00300769,0.00030349,0.02877225,-0.00441563,-0.00286263,0
 .00225516,0.00085354,0.00021518,-0.00073563,-0.04841793,0.00000007,0.0
 0000134,0.05723409,0.00090783,0.00021315,-0.00028585,-0.00007623,0.000
 19712,-0.00033862,-0.00008342,0.00005998,-0.00006978,0.00019164,-0.000
 12663,-0.00000391,-0.00156668,0.00011312,0.01685291,-0.00280682,-0.001
 03643,0.00136550,0.00071962,0.00045130,-0.00002890,0.00000009,-0.04968
 926,-0.00999270,-0.00000007,0.05812362,-0.00098882,-0.00023411,0.00050
 230,0.00097555,-0.00020341,0.00073573,0.00000233,0.00000753,0.00008426
 ,-0.00001743,0.00007790,0.00047596,0.00108913,0.00001698,-0.01318967,0
 .00175777,0.00167856,0.00044019,0.00002287,0.00053854,0.00044869,0.000
 00135,-0.01067998,-0.28891851,-0.00000147,0.01068551,0.31748974,-0.002
 47425,-0.00239192,0.00218844,-0.00000476,-0.00010665,-0.00007194,-0.00
 019781,0.00015853,0.00007469,-0.00098440,0.00054595,-0.00048467,-0.032
 92336,0.01000713,-0.00922522,0.00164108,0.00068567,-0.00085817,0.00062
 211,0.00197401,-0.00046952,-0.13593619,0.03357186,-0.02683665,-0.00300
 746,0.00156640,-0.00108905,0.45651215,-0.00322508,-0.00289474,0.001613
 48,0.00024278,-0.00003028,-0.00003677,0.00001920,0.00006002,0.00012949
 ,-0.00150875,0.00047358,-0.00032225,-0.01000820,0.00830006,-0.00635671
 ,-0.00011494,-0.00002851,0.00002147,-0.00241287,-0.00002154,-0.0002110
 7,0.03703262,-0.10109065,0.01611791,-0.00030363,0.00011321,0.00001692,
 0.01945240,0.55593496,0.00178802,0.00146314,-0.00174979,-0.00000928,0.
 00003201,0.00047997,-0.00008128,-0.00013859,0.00006976,0.00088176,-0.0
 0014942,0.00066798,0.00922509,-0.00635639,0.00502300,0.00123642,-0.000
 14074,-0.00011749,-0.00037452,-0.00030581,0.00014750,-0.02597325,0.016
 55831,-0.09328407,-0.02877264,0.01685199,-0.01318996,-0.00005957,0.032
 05567,0.56414739,0.00019695,-0.00016303,-0.00010693,0.00002441,0.00001
 849,0.00002505,0.00018072,-0.00005907,0.00003840,0.00002609,-0.0000433
 2,0.00001207,0.00062206,0.00241289,0.00037453,-0.00006092,-0.00010721,
 0.00006281,-0.00071147,-0.00065584,-0.00020430,0.00027086,0.02642716,0
 .00748807,0.00085353,-0.00071961,-0.00002289,-0.04898793,-0.02285386,-
 0.00602624,0.06162730,0.00017747,0.00062100,0.00027803,-0.00000571,-0.
 00006110,-0.00000623,-0.00035219,0.00018199,-0.00004355,0.00007731,0.0
 0001477,0.00002473,-0.00197402,-0.00002152,-0.00030585,0.00003908,0.00
 005237,0.00007488,0.00065579,0.00138832,-0.00005161,-0.00060365,-0.017
 76570,-0.00502566,-0.00021516,0.00045126,0.00053853,-0.02220165,-0.284
 47624,-0.05697161,0.02505478,0.31088809,0.00017363,0.00021116,-0.00009
 999,-0.00003762,0.00002459,-0.00004525,-0.00002344,0.00001727,-0.00003
 386,0.00006960,-0.00003631,0.00000831,0.00046954,-0.00021100,0.0001475
 4,-0.00001022,-0.00017161,-0.00000515,0.00020427,-0.00005163,0.0002961
 6,-0.00006657,0.01244402,0.00230683,0.00073563,-0.00002889,0.00044867,
 -0.00548388,-0.05699289,-0.06577198,0.00546688,0.06148851,0.06588073,-
 0.00013594,0.00005599,0.00011025,0.00010612,-0.00004504,0.00025537,0.0
 0001781,0.00000352,0.00000667,-0.00004957,-0.00000490,0.00008624,0.001
 64110,0.00011499,-0.00123641,-0.00042918,0.00005185,0.00070339,-0.0000
 6092,-0.00003906,0.00001023,-0.00268692,-0.00154752,-0.02833843,-0.004
 41575,0.00280668,-0.00175786,-0.04888873,-0.00060968,-0.01018862,-0.00
 053921,-0.00003827,-0.00314235,0.05725312,-0.00003354,-0.00006389,0.00
 007350,-0.00004697,-0.00002913,-0.00005888,0.00001978,-0.00001488,0.00
 000475,-0.00000434,-0.00000534,-0.00007434,-0.00068561,-0.00002856,-0.
 00014080,-0.00005188,0.00034164,-0.00020671,0.00010720,0.00005238,-0.0
 0017159,0.00157832,0.00013662,0.01737889,0.00286253,-0.00103626,0.0016
 7855,-0.00064367,-0.05248016,-0.01711664,-0.00129918,-0.00161835,-0.03
 296607,0.00025091,0.05247602,-0.00024046,0.00000719,0.00051103,0.00028
 487,-0.00005130,0.00010469,-0.00001501,0.00002251,-0.00000929,-0.00012
 564,0.00002346,-0.00000768,0.00085816,0.00002151,-0.00011752,-0.000703
 38,-0.00020674,0.00076365,-0.00006280,0.00007489,-0.00000514,-0.001483
 19,-0.00054626,-0.01347606,-0.00225525,0.00136544,0.00044014,-0.009542
 08,-0.01685674,-0.29585793,-0.00036665,-0.00124911,-0.00758423,0.01039
 346,0.01683753,0.32445875,-0.00045638,-0.00091421,0.00086830,0.0000578
 4,-0.00001645,-0.00004376,0.00001899,-0.00001718,0.00000580,-0.0003794
 6,0.00010953,-0.00017631,-0.00247439,0.00322509,-0.00178805,-0.0001359
 3,0.00003354,0.00024045,0.00019695,-0.00017749,-0.00017363,-0.02731226
 ,-0.00702942,0.00945361,0.00171225,-0.00090778,0.00098887,-0.16045024,
 -0.03448509,0.03736828,-0.00563945,-0.00203588,0.00227396,-0.00002722,
 -0.00020229,0.00010841,0.50185772,0.00091415,0.00137544,-0.00034690,-0
 .00003860,-0.00001825,0.00003339,-0.00015349,-0.00005463,-0.00009324,0
 .00052268,-0.00014497,0.00018694,0.00239189,-0.00289456,0.00146305,-0.
 00005598,-0.00006390,0.00000720,0.00016302,0.00062100,0.00021117,0.012
 56612,0.00849497,-0.00873149,-0.00038794,0.00021314,-0.00023411,-0.031
 86921,-0.09670547,0.01579521,-0.03005793,-0.01082149,0.01413494,0.0018
 9129,0.00041843,-0.00076765,-0.02688254,0.56797862,-0.00086831,-0.0003
 4696,0.00090904,0.00012926,-0.00004425,-0.00002630,-0.00002212,0.00005
 305,-0.00002881,-0.00038542,0.00007182,-0.00013822,-0.00218853,0.00161
 349,-0.00174986,-0.00011024,0.00007349,0.00051103,0.00010693,0.0002780
 3,-0.00009997,-0.00787047,-0.00607358,0.00518992,-0.00141821,-0.000285
 88,0.00050231,0.03801626,0.01568351,-0.09894553,-0.00701852,-0.0025248
 8,0.00322919,0.03115971,0.01291915,-0.01254685,0.03538691,0.01125815,0
 .55704638,0.00001899,0.00015350,0.00002211,-0.00000882,-0.00000615,-0.
 00000602,-0.00011987,0.00005072,-0.00001349,0.00001506,0.00002243,0.00
 001192,-0.00019780,-0.00001921,0.00008127,0.00001782,-0.00001978,0.000
 01501,0.00018071,0.00035219,0.00002344,0.00122465,-0.00085279,-0.00057
 831,-0.00013007,0.00008342,-0.00000234,-0.00416240,-0.02858439,-0.0092
 1948,-0.00510364,-0.00191452,0.00262552,0.00136695,0.00081699,-0.00013
 926,-0.05777750,-0.04467592,-0.01359541,0.06188758,0.00001718,-0.00005
 463,0.00005305,-0.00000333,0.00000171,-0.00000774,-0.00005073,0.000080
 72,0.00000574,-0.00005022,0.00002516,-0.00000532,-0.00015854,0.0000600
 1,-0.00013858,-0.00000352,-0.00001488,0.00002250,0.00005907,0.00018200
 ,0.00001727,0.00051854,-0.00052480,0.00033328,-0.00002064,0.00005999,0
 .00000753,-0.00233661,-0.00988977,-0.00243002,-0.00200924,0.00083316,0
 .00142500,0.00006099,0.00049545,0.00046168,-0.04536099,-0.28250054,-0.
 06970350,0.04986266,0.30839748,-0.00000579,-0.00009323,-0.00002881,0.0
 0000352,-0.00000420,0.00000600,0.00001349,0.00000574,0.00002062,-0.000
 00507,0.00001361,-0.00000479,-0.00007470,0.00012948,0.00006976,-0.0000
 0667,0.00000475,-0.00000929,-0.00003840,-0.00004355,-0.00003386,-0.000
 38033,-0.00055048,-0.00001437,0.00002056,-0.00006979,0.00008426,0.0017
 7890,0.01447338,0.00382687,0.00314992,0.00128015,-0.00018674,-0.000848
 74,0.00021951,0.00067632,-0.01397990,-0.06980209,-0.07140840,0.0128396
 0,0.07614524,0.07211869,-0.00037944,-0.00052269,0.00038541,0.00003135,
 0.00000970,-0.00003849,0.00001506,0.00005022,0.00000507,-0.00027297,0.
 00006816,-0.00009623,-0.00098442,0.00150872,-0.00088176,-0.00004956,0.
 00000434,0.00012563,0.00002610,-0.00007731,-0.00006960,-0.00306344,-0.
 00402381,0.00401712,0.00036391,-0.00019163,0.00001744,-0.02200683,0.01
 700903,-0.01016170,0.00103688,-0.00033483,-0.00066965,0.00100345,0.000
 27859,0.00041359,-0.19929215,0.11420608,-0.06293908,0.00551821,-0.0033
 2839,0.00282689,0.21800632,-0.00010953,-0.00014499,0.00007182,0.000006
 80,-0.00000582,-0.00000153,-0.00002243,0.00002516,0.00001361,-0.000068
 17,0.00004045,-0.00002084,-0.00054598,0.00047360,-0.00014944,0.0000049
 0,-0.00000534,0.00002346,0.00004332,0.00001477,-0.00003632,-0.00198004
 ,-0.00099904,0.00124064,0.00009991,-0.00012663,0.00007791,-0.01114804,
 0.00719751,-0.00487292,0.00031978,0.00087984,-0.00047420,0.00067462,0.
 00016685,-0.00028931,0.11481649,-0.13483233,0.04686369,0.02412921,-0.0
 1745289,0.01100883,-0.12393706,0.14364877,0.00017630,0.00018695,-0.000
 13822,-0.00000601,0.00000864,0.00000797,-0.00001192,-0.00000532,-0.000
 00479,0.00009623,-0.00002083,0.00003407,0.00048468,-0.00032224,0.00066
 798,-0.00008624,-0.00007434,-0.00000768,-0.00001207,0.00002473,0.00000
 831,0.00149850,0.00128558,-0.00128817,0.00030259,-0.00000390,0.0004759
 7,0.01130729,-0.00900684,0.00412950,-0.00074090,-0.00012985,0.00036280
 ,-0.00049886,-0.00054343,0.00042675,-0.06322005,0.04686788,-0.07547518
 ,0.00860304,-0.00575546,0.00282726,0.06769427,-0.05276770,0.07732213,0
 .00005784,0.00003860,-0.00012926,-0.00006245,0.00001122,-0.00003669,-0
 .00000882,0.00000333,-0.00000352,0.00003135,-0.00000680,0.00000601,-0.
 00000476,-0.00024278,0.00000929,0.00010612,0.00004698,-0.00028487,0.00
 002441,0.00000571,0.00003761,0.00207949,0.00003643,0.00171560,-0.00026
 719,0.00007623,-0.00097555,0.00034174,0.00186584,0.03099447,0.00113299
 ,0.00023483,-0.00081143,-0.00526849,-0.00230753,0.00249193,-0.04914220
 ,0.00007066,-0.00781714,-0.00114793,0.00063648,-0.00552523,-0.00019314
 ,-0.00257860,-0.02564314,0.05228326,0.00001645,-0.00001825,-0.00004425
 ,-0.00001122,0.00001479,-0.00000170,0.00000615,0.00000171,-0.00000420,
 -0.00000970,-0.00000582,0.00000864,0.00010665,-0.00003028,0.00003203,0
 .00004504,-0.00002913,-0.00005131,-0.00001849,-0.00006110,0.00002459,0
 .00053834,0.00028964,-0.00055550,-0.00004317,0.00019712,-0.00020342,0.
 00060783,0.00020023,0.01236386,0.00070510,0.00021227,0.00018856,-0.002
 42038,0.00007146,0.00096779,-0.00006723,-0.05124205,-0.00992772,-0.001
 01650,0.00044294,-0.03263984,-0.00039096,0.00074950,0.02012889,0.00202
 163,0.04929992,0.00004376,0.00003340,-0.00002630,0.00003669,-0.0000017
 0,0.00003210,0.00000602,-0.00000774,0.00000600,0.00003849,-0.00000153,
 0.00000797,0.00007194,-0.00003677,0.00047996,-0.00025537,-0.00005889,0
 .00010469,-0.00002504,-0.00000623,-0.00004525,-0.00120458,0.00013414,0
 .00027105,0.00090615,-0.00033859,0.00073575,0.00033906,-0.00041108,-0.
 01309561,0.00004619,0.00045384,0.00056687,0.00247243,0.00149839,0.0005
 8849,-0.00769151,-0.00994853,-0.30737146,-0.00070831,-0.00023372,-0.00
 818787,-0.00054287,-0.00063323,-0.00938853,0.00624564,0.00969983,0.335
 26847,0.00047193,-0.00084541,0.00006568,-0.00008229,-0.00007630,-0.000
 29779,-0.00086897,-0.00040861,0.00015507,0.00009664,0.00021608,-0.0000
 9940,0.00025636,-0.02884678,-0.00774641,0.00101035,0.00070123,-0.00066
 700,-0.00496434,-0.00373806,0.00160854,-0.08154685,0.00000156,0.000000
 50,-0.00011549,0.00000028,0.00000008,0.00025526,0.02884728,0.00774638,
 -0.00496444,0.00373787,-0.00160857,0.00101044,-0.00070124,0.00066705,0
 .00047193,0.00084539,-0.00006567,-0.00086900,0.00040859,-0.00015507,0.
 00009665,-0.00021608,0.00009939,-0.00008230,0.00007630,0.00029778,0.58
 330713,-0.00058684,0.00110135,0.00023854,-0.00011356,-0.00006601,-0.00
 011010,0.00011097,-0.00075063,-0.00042681,0.00066615,-0.00045175,0.000
 11584,-0.00653904,-0.02126452,-0.00283066,0.00141821,0.00110860,-0.000
 83934,-0.00146261,-0.00002240,0.00025951,0.00000151,-0.17220109,-0.028
 18271,0.00000008,-0.00426254,-0.00119816,0.00653968,-0.02126347,-0.002
 83027,0.00146246,-0.00002225,0.00025947,-0.00141820,0.00110854,-0.0008
 3935,0.00058680,0.00110140,0.00023850,-0.00011099,-0.00075062,-0.00042
 679,-0.00066612,-0.00045176,0.00011584,0.00011357,-0.00006603,-0.00011
 009,0.00000179,0.48052319,0.00032003,-0.00019030,-0.00036956,0.0001251
 9,0.00005942,0.00013600,-0.00035459,0.00022422,0.00045911,0.00006754,0
 .00029633,0.00019762,-0.00074033,0.01025356,0.00336323,0.00014303,0.00
 146256,0.00058952,0.00234923,0.00251236,-0.00037495,0.00000051,-0.0299
 5475,-0.09030660,0.00000057,-0.03464020,-0.00954232,0.00073995,0.01025
 396,0.00336329,-0.00234938,0.00251235,-0.00037499,-0.00014307,0.001462
 53,0.00058954,-0.00031997,-0.00019030,-0.00036953,0.00035460,0.0002242
 1,0.00045907,-0.00006756,0.00029631,0.00019762,-0.00012520,0.00005945,
 0.00013600,0.00000069,-0.03371136,0.56115017,-0.00101747,-0.00070339,0
 .00008884,0.00003467,0.00009428,0.00001298,-0.00107198,-0.00155481,-0.
 00014308,0.00014137,-0.00023262,0.00003488,-0.00026156,0.00010837,0.00
 036128,-0.00000652,-0.00004372,0.00003047,0.00013742,0.00016268,-0.000
 08350,0.00136936,-0.00050238,0.00095121,0.00015702,0.00034972,0.000396
 97,0.00054504,-0.00024731,0.00064790,-0.00005128,-0.00006673,-0.000100
 08,-0.00002111,-0.00011748,-0.00003642,-0.00002930,-0.00015245,-0.0003
 0443,0.00037934,0.00024768,0.00009548,0.00002042,0.00021827,0.00002549
 ,0.00001294,0.00006087,0.00007512,-0.22155841,0.10113768,-0.07591986,0
 .24170177,0.00001732,-0.00066512,-0.00031737,-0.00008142,-0.00001683,-
 0.00007031,-0.00143949,0.00020797,0.00026813,-0.00012333,0.00055649,-0
 .00000048,0.00111413,0.00090163,0.00053326,-0.00015141,-0.00010581,0.0
 0002234,0.00002869,0.00026763,-0.00016493,0.02713145,-0.01401257,0.013
 05345,-0.00023818,0.00134667,-0.00032551,-0.00239631,-0.00606577,-0.00
 307099,0.00186963,-0.00131100,0.00051735,-0.00029457,0.00019461,0.0000
 2696,-0.00074611,-0.00024068,0.00008969,0.00022464,0.00037415,0.000065
 07,0.00015054,0.00020946,0.00000475,0.00006340,0.00003662,-0.00005976,
 0.10013025,-0.10655153,0.04376970,-0.10975988,0.11607640,-0.00049579,0
 .00037757,0.00047505,-0.00001359,-0.00015780,-0.00020320,0.00030158,-0
 .00039681,0.00014303,0.00005648,-0.00022584,-0.00015629,-0.00048066,0.
 00062311,0.00008045,-0.00007560,0.00004483,-0.00000360,0.00019091,0.00
 003428,-0.00007737,0.00946687,-0.00454934,0.00296508,0.00040037,0.0006
 2116,0.00050018,-0.00032855,-0.00161799,-0.00030463,0.00030427,-0.0003
 2901,0.00054017,0.00022349,-0.00028916,0.00045453,-0.00000274,-0.00003
 640,0.00017952,-0.00005467,-0.00002875,-0.00014975,-0.00002442,-0.0000
 6724,-0.00000999,-0.00003018,0.00001942,0.00000217,-0.07555113,0.04423
 212,-0.08300993,0.08369465,-0.04712189,0.08486131,-0.00018170,0.000000
 59,0.00010668,0.00007246,0.00011243,0.00013861,-0.00002022,0.00004379,
 -0.00014847,-0.00001772,-0.00006002,0.00003372,0.00036851,0.00000688,-
 0.00133950,0.00013059,-0.00013567,0.00021681,-0.00005090,0.00007182,0.
 00014870,-0.00108429,0.00000003,0.00000054,0.00076699,0.00000011,0.000
 00002,0.00036852,-0.00000695,0.00133954,-0.00005089,-0.00007183,-0.000
 14872,0.00013056,0.00013570,-0.00021685,-0.00018174,-0.00000060,-0.000
 10672,-0.00002021,-0.00004377,0.00014847,-0.00001773,0.00006003,-0.000
 03372,0.00007247,-0.00011243,-0.00013861,-0.05036870,0.00000019,0.0000
 0280,0.00114769,-0.00290929,-0.02794594,0.04778930,-0.00008858,-0.0000
 1898,0.00008157,0.00017061,-0.00004671,0.00009855,-0.00006502,0.000027
 30,0.00001608,-0.00006412,0.00005639,0.00000713,0.00090117,0.00176548,
 -0.00127006,-0.00035534,-0.00007963,0.00097516,0.00027329,0.00030695,0
 .00038667,0.00000036,-0.00335494,-0.03424086,0.00000013,-0.00660856,-0
 .00192023,-0.00090122,0.00176544,-0.00127004,-0.00027330,0.00030693,0.
 00038666,0.00035535,-0.00007961,0.00097515,0.00008856,-0.00001898,0.00
 008157,0.00006502,0.00002731,0.00001609,0.00006412,0.00005640,0.000007
 13,-0.00017060,-0.00004671,0.00009855,0.00000020,-0.05026140,-0.018469
 85,-0.00158811,0.00083246,0.01566089,-0.00000031,0.05453829,-0.0002055
 9,-0.00018482,0.00011772,0.00013195,0.00009269,0.00011869,-0.00004232,
 0.00000442,-0.00020802,-0.00006239,-0.00005773,0.00000848,0.00047592,0
 .00082345,0.00038127,-0.00065748,-0.00055004,0.00059440,-0.00005853,-0
 .00004794,0.00039231,0.00000009,-0.00156371,-0.01063473,0.00000004,-0.
 00227666,0.00097618,-0.00047594,0.00082343,0.00038126,0.00005853,-0.00
 004794,0.00039231,0.00065749,-0.00055001,0.00059441,0.00020559,-0.0001
 8480,0.00011773,0.00004230,0.00000441,-0.00020801,0.00006239,-0.000057
 73,0.00000848,-0.00013195,0.00009268,0.00011868,0.00000278,-0.01818634
 ,-0.30328638,0.00053709,-0.00042578,-0.01066441,-0.00000314,0.02271817
 ,0.33146348,-0.00002934,0.00015245,0.00030443,0.00001295,-0.00006086,-
 0.00007512,0.00037935,-0.00024768,-0.00009550,0.00002043,-0.00021828,-
 0.00002549,0.00054496,0.00024755,-0.00064780,-0.00002112,0.00011748,0.
 00003642,-0.00005122,0.00006678,0.00010006,0.00137033,0.00050289,-0.00
 095160,0.00015702,-0.00034977,-0.00039697,-0.00026154,-0.00010840,-0.0
 0036128,0.00013743,-0.00016269,0.00008350,-0.00000652,0.00004372,-0.00
 003047,-0.00101747,0.00070338,-0.00008881,-0.00107205,0.00155477,0.000
 14307,0.00014136,0.00023260,-0.00003488,0.00003467,-0.00009427,-0.0000
 1297,-0.22155587,-0.10114174,0.07591580,-0.02162940,-0.01259003,0.0103
 6466,0.00114702,0.00158781,-0.00053683,0.24169903,0.00074614,-0.000240
 65,0.00008969,-0.00006340,0.00003661,-0.00005976,-0.00022463,0.0003741
 4,0.00006508,-0.00015055,0.00020946,0.00000475,0.00239653,-0.00606569,
 -0.00307102,0.00029456,0.00019462,0.00002696,-0.00186959,-0.00131105,0
 .00051734,-0.02713126,-0.01401333,0.01305293,0.00023815,0.00134665,-0.
 00032552,-0.00111416,0.00090161,0.00053324,-0.00002870,0.00026763,-0.0
 0016492,0.00015142,-0.00010581,0.00002236,-0.00001734,-0.00066513,-0.0
 0031738,0.00143947,0.00020807,0.00026811,0.00012332,0.00055650,-0.0000
 0047,0.00008141,-0.00001681,-0.00007030,-0.10013433,-0.10655709,0.0437
 6980,0.01258934,0.00796523,-0.00679314,0.00290931,0.00083258,-0.000425
 74,0.10976431,0.11608248,0.00000274,-0.00003640,0.00017953,0.00003018,
 0.00001943,0.00000218,0.00005467,-0.00002875,-0.00014976,0.00002442,-0
 .00006724,-0.00000999,0.00032860,-0.00161796,-0.00030462,-0.00022348,-
 0.00028918,0.00045453,-0.00030426,-0.00032902,0.00054017,-0.00946677,-
 0.00454954,0.00296490,-0.00040039,0.00062115,0.00050015,0.00048064,0.0
 0062312,0.00008048,-0.00019091,0.00003427,-0.00007738,0.00007561,0.000
 04483,-0.00000361,0.00049575,0.00037757,0.00047501,-0.00030154,-0.0003
 9681,0.00014306,-0.00005647,-0.00022583,-0.00015628,0.00001360,-0.0001
 5780,-0.00020320,0.07554709,0.04423216,-0.08300689,-0.01036499,-0.0067
 9368,0.00437766,0.02794576,0.01566169,-0.01066386,-0.08369023,-0.04712
 202,0.08485792\\0.00000064,0.00000053,-0.00000032,-0.00000042,0.000001
 17,-0.00000038,0.00000014,-0.00000029,0.00000057,0.00000001,0.00000007
 ,-0.00000079,0.00000009,-0.00000080,0.00000045,-0.00000004,-0.00000109
 ,-0.00000024,0.00000017,0.00000055,-0.00000117,0.,-0.00000053,-0.00000
 182,-0.00000002,0.00000032,-0.00000065,-0.00000007,-0.00000079,0.00000
 051,-0.00000015,0.00000055,-0.00000118,0.00000006,-0.00000111,-0.00000
 024,-0.00000064,0.00000048,-0.00000035,-0.00000013,-0.00000031,0.00000
 055,0.,0.00000008,-0.00000078,0.00000041,0.00000116,-0.00000037,-0.000
 00003,0.00000044,0.00000074,0.00000059,-0.00000003,0.00000187,0.,-0.00
 000037,0.00000171,-0.00000061,-0.00000003,0.00000189\\\@


 THE DIFFICULTY IN SCIENCE IS OFTEN NOT SO MUCH HOW
 TO MAKE A DISCOVERY BUT RATHER TO KNOW ONE HAS MADE IT.

                                                   -- J. D. BERNAL
 Job cpu time:  0 days  0 hours 23 minutes 26.2 seconds.
 File lengths (MBytes):  RWF=     41 Int=      0 D2E=      0 Chk=      2 Scr=      1
 Normal termination of Gaussian 09 at Sun Oct  4 11:37:53 2015.
