 Entering Gaussian System, Link 0=/share/apps/g09/g09
 Input=C6H14_1_06_1_opt_PM6.gjf
 Output=C6H14_1_06_1_opt_PM6.log
 Initial command:
 /share/apps/g09/l1.exe /state/partition1/Gau-17099.inp -scrdir=/state/partition1/
 Entering Link 1 = /share/apps/g09/l1.exe PID=     17104.
  
 Copyright (c) 1988,1990,1992,1993,1995,1998,2003,2009, Gaussian, Inc.
                  All Rights Reserved.
  
 This is part of the Gaussian(R) 09 program.  It is based on
 the Gaussian(R) 03 system (copyright 2003, Gaussian, Inc.),
 the Gaussian(R) 98 system (copyright 1998, Gaussian, Inc.),
 the Gaussian(R) 94 system (copyright 1995, Gaussian, Inc.),
 the Gaussian 92(TM) system (copyright 1992, Gaussian, Inc.),
 the Gaussian 90(TM) system (copyright 1990, Gaussian, Inc.),
 the Gaussian 88(TM) system (copyright 1988, Gaussian, Inc.),
 the Gaussian 86(TM) system (copyright 1986, Carnegie Mellon
 University), and the Gaussian 82(TM) system (copyright 1983,
 Carnegie Mellon University). Gaussian is a federally registered
 trademark of Gaussian, Inc.
  
 This software contains proprietary and confidential information,
 including trade secrets, belonging to Gaussian, Inc.
  
 This software is provided under written license and may be
 used, copied, transmitted, or stored only in accord with that
 written license.
  
 The following legend is applicable only to US Government
 contracts under FAR:
  
                    RESTRICTED RIGHTS LEGEND
  
 Use, reproduction and disclosure by the US Government is
 subject to restrictions as set forth in subparagraphs (a)
 and (c) of the Commercial Computer Software - Restricted
 Rights clause in FAR 52.227-19.
  
 Gaussian, Inc.
 340 Quinnipiac St., Bldg. 40, Wallingford CT 06492
  
  
 ---------------------------------------------------------------
 Warning -- This program may not be used in any manner that
 competes with the business of Gaussian, Inc. or will provide
 assistance to any competitor of Gaussian, Inc.  The licensee
 of this program is prohibited from giving any competitor of
 Gaussian, Inc. access to this program.  By using this program,
 the user acknowledges that Gaussian, Inc. is engaged in the
 business of creating and licensing software in the field of
 computational chemistry and represents and warrants to the
 licensee that it is not a competitor of Gaussian, Inc. and that
 it will not use this program in any manner prohibited above.
 ---------------------------------------------------------------
  

 Cite this work as:
 Gaussian 09, Revision A.01,
 M. J. Frisch, G. W. Trucks, H. B. Schlegel, G. E. Scuseria, 
 M. A. Robb, J. R. Cheeseman, G. Scalmani, V. Barone, B. Mennucci, 
 G. A. Petersson, H. Nakatsuji, M. Caricato, X. Li, H. P. Hratchian, 
 A. F. Izmaylov, J. Bloino, G. Zheng, J. L. Sonnenberg, M. Hada, 
 M. Ehara, K. Toyota, R. Fukuda, J. Hasegawa, M. Ishida, T. Nakajima, 
 Y. Honda, O. Kitao, H. Nakai, T. Vreven, J. A. Montgomery, Jr., 
 J. E. Peralta, F. Ogliaro, M. Bearpark, J. J. Heyd, E. Brothers, 
 K. N. Kudin, V. N. Staroverov, R. Kobayashi, J. Normand, 
 K. Raghavachari, A. Rendell, J. C. Burant, S. S. Iyengar, J. Tomasi, 
 M. Cossi, N. Rega, J. M. Millam, M. Klene, J. E. Knox, J. B. Cross, 
 V. Bakken, C. Adamo, J. Jaramillo, R. Gomperts, R. E. Stratmann, 
 O. Yazyev, A. J. Austin, R. Cammi, C. Pomelli, J. W. Ochterski, 
 R. L. Martin, K. Morokuma, V. G. Zakrzewski, G. A. Voth, 
 P. Salvador, J. J. Dannenberg, S. Dapprich, A. D. Daniels, 
 O. Farkas, J. B. Foresman, J. V. Ortiz, J. Cioslowski, 
 and D. J. Fox, Gaussian, Inc., Wallingford CT, 2009.
 
 ******************************************
 Gaussian 09:  EM64L-G09RevA.01  8-May-2009
                14-Sep-2015 
 ******************************************
 %mem=3GB
 %nprocshared=2
 Will use up to    2 processors via shared memory.
 %chk=C6H14_1_06_1_opt_PM6.chk
 ----------
 #p PM6 opt
 ----------
 1/14=-1,18=20,19=15,26=1,38=1/1,3;
 2/9=110,12=2,17=6,18=5,40=1/2;
 3/5=2,16=1,25=1,41=3900000,71=1/1,2,3;
 4/35=1/1;
 5/5=2,35=1,38=5/2;
 6/7=2,8=2,9=2,10=2,28=1/1;
 7//1,2,3,16;
 1/14=-1,18=20,19=15/3(2);
 2/9=110/2;
 99//99;
 2/9=110/2;
 3/5=2,16=1,25=1,41=3900000,71=1,135=20/1,2,3;
 4/5=5,16=3,35=1/1;
 5/5=2,35=1,38=5/2;
 7//1,2,3,16;
 1/14=-1,18=20,19=15/3(-5);
 2/9=110/2;
 6/7=2,8=2,9=2,10=2,19=2,28=1/1;
 99/9=1/99;
 Leave Link    1 at Mon Sep 14 19:11:56 2015, MaxMem=  402653184 cpu:       1.6
 (Enter /share/apps/g09/l101.exe)
 ----------------------------------
 using PM6 to do opt and freq calc.
 ----------------------------------
 Symbolic Z-matrix:
 Charge =  0 Multiplicity = 1
 C                     2.0076   -2.5416   -0.5796 
 H                     2.1697   -2.8105    0.4891 
 H                     2.8278   -1.8668   -0.9153 
 H                     2.0395   -3.4719   -1.1907 
 C                     0.6535   -1.8593   -0.7573 
 H                     0.5215   -1.6067   -1.8348 
 H                    -0.1402   -2.5836   -0.4635 
 C                     0.5332   -0.5851    0.091 
 H                     1.4016    0.077    -0.1353 
 H                     0.5826   -0.8523    1.1725 
 C                    -0.7445    0.2254   -0.173 
 H                    -0.7873    0.5039   -1.2519 
 H                    -0.6703    1.168     0.4183 
 C                    -2.0393   -0.4999    0.2205 
 H                    -1.9662   -0.8528    1.2752 
 H                    -2.1907   -1.3847   -0.4393 
 C                    -3.2643    0.4021    0.0929 
 H                    -3.368     0.7704   -0.9533 
 H                    -4.1799   -0.1719    0.3617 
 H                    -3.176     1.274     0.7804 
 
 NAtoms=     20 NQM=     20 NQMF=      0 NMic=      0 NMicF=      0 NTot=     20.
                    Isotopes and Nuclear Properties:
 (Nuclear quadrupole moments (NQMom) in fm**2, nuclear magnetic moments (NMagM)
  in nuclear magnetons)

  Atom         1           2           3           4           5           6           7           8           9          10
 IAtWgt=          12           1           1           1          12           1           1          12           1           1
 AtmWgt=  12.0000000   1.0078250   1.0078250   1.0078250  12.0000000   1.0078250   1.0078250  12.0000000   1.0078250   1.0078250
 NucSpn=           0           1           1           1           0           1           1           0           1           1
 AtZEff=   0.0000000   0.0000000   0.0000000   0.0000000   0.0000000   0.0000000   0.0000000   0.0000000   0.0000000   0.0000000
 NQMom=    0.0000000   0.0000000   0.0000000   0.0000000   0.0000000   0.0000000   0.0000000   0.0000000   0.0000000   0.0000000
 NMagM=    0.0000000   2.7928460   2.7928460   2.7928460   0.0000000   2.7928460   2.7928460   0.0000000   2.7928460   2.7928460

  Atom        11          12          13          14          15          16          17          18          19          20
 IAtWgt=          12           1           1          12           1           1          12           1           1           1
 AtmWgt=  12.0000000   1.0078250   1.0078250  12.0000000   1.0078250   1.0078250  12.0000000   1.0078250   1.0078250   1.0078250
 NucSpn=           0           1           1           0           1           1           0           1           1           1
 AtZEff=   0.0000000   0.0000000   0.0000000   0.0000000   0.0000000   0.0000000   0.0000000   0.0000000   0.0000000   0.0000000
 NQMom=    0.0000000   0.0000000   0.0000000   0.0000000   0.0000000   0.0000000   0.0000000   0.0000000   0.0000000   0.0000000
 NMagM=    0.0000000   2.7928460   2.7928460   0.0000000   2.7928460   2.7928460   0.0000000   2.7928460   2.7928460   2.7928460
 Leave Link  101 at Mon Sep 14 19:11:56 2015, MaxMem=  402653184 cpu:       0.1
 (Enter /share/apps/g09/l103.exe)

 GradGradGradGradGradGradGradGradGradGradGradGradGradGradGradGradGradGrad
 Berny optimization.
 Initialization pass.
                           ----------------------------
                           !    Initial Parameters    !
                           ! (Angstroms and Degrees)  !
 --------------------------                            --------------------------
 ! Name  Definition              Value          Derivative Info.                !
 --------------------------------------------------------------------------------
 ! R1    R(1,2)                  1.1139         estimate D2E/DX2                !
 ! R2    R(1,3)                  1.1139         estimate D2E/DX2                !
 ! R3    R(1,4)                  1.1135         estimate D2E/DX2                !
 ! R4    R(1,5)                  1.5267         estimate D2E/DX2                !
 ! R5    R(5,6)                  1.1146         estimate D2E/DX2                !
 ! R6    R(5,7)                  1.114          estimate D2E/DX2                !
 ! R7    R(5,8)                  1.5355         estimate D2E/DX2                !
 ! R8    R(8,9)                  1.1152         estimate D2E/DX2                !
 ! R9    R(8,10)                 1.1151         estimate D2E/DX2                !
 ! R10   R(8,11)                 1.5359         estimate D2E/DX2                !
 ! R11   R(11,12)                1.1151         estimate D2E/DX2                !
 ! R12   R(11,13)                1.1152         estimate D2E/DX2                !
 ! R13   R(11,14)                1.5354         estimate D2E/DX2                !
 ! R14   R(14,15)                1.1146         estimate D2E/DX2                !
 ! R15   R(14,16)                1.1141         estimate D2E/DX2                !
 ! R16   R(14,17)                1.5266         estimate D2E/DX2                !
 ! R17   R(17,18)                1.114          estimate D2E/DX2                !
 ! R18   R(17,19)                1.1136         estimate D2E/DX2                !
 ! R19   R(17,20)                1.1139         estimate D2E/DX2                !
 ! A1    A(2,1,3)              109.162          estimate D2E/DX2                !
 ! A2    A(2,1,4)              108.7046         estimate D2E/DX2                !
 ! A3    A(2,1,5)              110.4047         estimate D2E/DX2                !
 ! A4    A(3,1,4)              108.6407         estimate D2E/DX2                !
 ! A5    A(3,1,5)              110.3209         estimate D2E/DX2                !
 ! A6    A(4,1,5)              109.5675         estimate D2E/DX2                !
 ! A7    A(1,5,6)              108.5942         estimate D2E/DX2                !
 ! A8    A(1,5,7)              108.1002         estimate D2E/DX2                !
 ! A9    A(1,5,8)              112.0899         estimate D2E/DX2                !
 ! A10   A(6,5,7)              108.5392         estimate D2E/DX2                !
 ! A11   A(6,5,8)              109.6789         estimate D2E/DX2                !
 ! A12   A(7,5,8)              109.7573         estimate D2E/DX2                !
 ! A13   A(5,8,9)              108.6363         estimate D2E/DX2                !
 ! A14   A(5,8,10)             109.4814         estimate D2E/DX2                !
 ! A15   A(5,8,11)             114.0864         estimate D2E/DX2                !
 ! A16   A(9,8,10)             107.7321         estimate D2E/DX2                !
 ! A17   A(9,8,11)             107.4333         estimate D2E/DX2                !
 ! A18   A(10,8,11)            109.2685         estimate D2E/DX2                !
 ! A19   A(8,11,12)            109.2704         estimate D2E/DX2                !
 ! A20   A(8,11,13)            107.4299         estimate D2E/DX2                !
 ! A21   A(8,11,14)            114.0913         estimate D2E/DX2                !
 ! A22   A(12,11,13)           107.7262         estimate D2E/DX2                !
 ! A23   A(12,11,14)           109.4865         estimate D2E/DX2                !
 ! A24   A(13,11,14)           108.6329         estimate D2E/DX2                !
 ! A25   A(11,14,15)           109.6809         estimate D2E/DX2                !
 ! A26   A(11,14,16)           109.7549         estimate D2E/DX2                !
 ! A27   A(11,14,17)           112.0963         estimate D2E/DX2                !
 ! A28   A(15,14,16)           108.5348         estimate D2E/DX2                !
 ! A29   A(15,14,17)           108.5904         estimate D2E/DX2                !
 ! A30   A(16,14,17)           108.1021         estimate D2E/DX2                !
 ! A31   A(14,17,18)           110.3984         estimate D2E/DX2                !
 ! A32   A(14,17,19)           109.5749         estimate D2E/DX2                !
 ! A33   A(14,17,20)           110.3226         estimate D2E/DX2                !
 ! A34   A(18,17,19)           108.6979         estimate D2E/DX2                !
 ! A35   A(18,17,20)           109.1629         estimate D2E/DX2                !
 ! A36   A(19,17,20)           108.6436         estimate D2E/DX2                !
 ! D1    D(2,1,5,6)           -179.8353         estimate D2E/DX2                !
 ! D2    D(2,1,5,7)            -62.2615         estimate D2E/DX2                !
 ! D3    D(2,1,5,8)             58.8338         estimate D2E/DX2                !
 ! D4    D(3,1,5,6)             59.4198         estimate D2E/DX2                !
 ! D5    D(3,1,5,7)            176.9936         estimate D2E/DX2                !
 ! D6    D(3,1,5,8)            -61.9111         estimate D2E/DX2                !
 ! D7    D(4,1,5,6)            -60.1423         estimate D2E/DX2                !
 ! D8    D(4,1,5,7)             57.4315         estimate D2E/DX2                !
 ! D9    D(4,1,5,8)            178.5268         estimate D2E/DX2                !
 ! D10   D(1,5,8,9)             53.5304         estimate D2E/DX2                !
 ! D11   D(1,5,8,10)           -63.8722         estimate D2E/DX2                !
 ! D12   D(1,5,8,11)           173.338          estimate D2E/DX2                !
 ! D13   D(6,5,8,9)            -67.1744         estimate D2E/DX2                !
 ! D14   D(6,5,8,10)           175.4229         estimate D2E/DX2                !
 ! D15   D(6,5,8,11)            52.6331         estimate D2E/DX2                !
 ! D16   D(7,5,8,9)            173.6654         estimate D2E/DX2                !
 ! D17   D(7,5,8,10)            56.2628         estimate D2E/DX2                !
 ! D18   D(7,5,8,11)           -66.5271         estimate D2E/DX2                !
 ! D19   D(5,8,11,12)          -57.8204         estimate D2E/DX2                !
 ! D20   D(5,8,11,13)         -174.4247         estimate D2E/DX2                !
 ! D21   D(5,8,11,14)           65.0969         estimate D2E/DX2                !
 ! D22   D(9,8,11,12)           62.6616         estimate D2E/DX2                !
 ! D23   D(9,8,11,13)          -53.9426         estimate D2E/DX2                !
 ! D24   D(9,8,11,14)         -174.421          estimate D2E/DX2                !
 ! D25   D(10,8,11,12)         179.2738         estimate D2E/DX2                !
 ! D26   D(10,8,11,13)          62.6695         estimate D2E/DX2                !
 ! D27   D(10,8,11,14)         -57.8089         estimate D2E/DX2                !
 ! D28   D(8,11,14,15)          52.6272         estimate D2E/DX2                !
 ! D29   D(8,11,14,16)         -66.5273         estimate D2E/DX2                !
 ! D30   D(8,11,14,17)         173.3329         estimate D2E/DX2                !
 ! D31   D(12,11,14,15)        175.4268         estimate D2E/DX2                !
 ! D32   D(12,11,14,16)         56.2724         estimate D2E/DX2                !
 ! D33   D(12,11,14,17)        -63.8675         estimate D2E/DX2                !
 ! D34   D(13,11,14,15)        -67.1768         estimate D2E/DX2                !
 ! D35   D(13,11,14,16)        173.6687         estimate D2E/DX2                !
 ! D36   D(13,11,14,17)         53.5289         estimate D2E/DX2                !
 ! D37   D(11,14,17,18)         58.8307         estimate D2E/DX2                !
 ! D38   D(11,14,17,19)        178.5162         estimate D2E/DX2                !
 ! D39   D(11,14,17,20)        -61.9124         estimate D2E/DX2                !
 ! D40   D(15,14,17,18)       -179.8344         estimate D2E/DX2                !
 ! D41   D(15,14,17,19)        -60.149          estimate D2E/DX2                !
 ! D42   D(15,14,17,20)         59.4225         estimate D2E/DX2                !
 ! D43   D(16,14,17,18)        -62.2669         estimate D2E/DX2                !
 ! D44   D(16,14,17,19)         57.4186         estimate D2E/DX2                !
 ! D45   D(16,14,17,20)        176.9901         estimate D2E/DX2                !
 --------------------------------------------------------------------------------
 Trust Radius=3.00D-01 FncErr=1.00D-07 GrdErr=1.00D-07
 Number of steps in this run= 110 maximum allowed number of steps= 120.
 GradGradGradGradGradGradGradGradGradGradGradGradGradGradGradGradGradGrad

 Leave Link  103 at Mon Sep 14 19:12:00 2015, MaxMem=  402653184 cpu:       0.0
 (Enter /share/apps/g09/l202.exe)
                          Input orientation:                          
 ---------------------------------------------------------------------
 Center     Atomic      Atomic             Coordinates (Angstroms)
 Number     Number       Type             X           Y           Z
 ---------------------------------------------------------------------
      1          6           0        2.007600   -2.541600   -0.579600
      2          1           0        2.169700   -2.810500    0.489100
      3          1           0        2.827800   -1.866800   -0.915300
      4          1           0        2.039500   -3.471900   -1.190700
      5          6           0        0.653500   -1.859300   -0.757300
      6          1           0        0.521500   -1.606700   -1.834800
      7          1           0       -0.140200   -2.583600   -0.463500
      8          6           0        0.533200   -0.585100    0.091000
      9          1           0        1.401600    0.077000   -0.135300
     10          1           0        0.582600   -0.852300    1.172500
     11          6           0       -0.744500    0.225400   -0.173000
     12          1           0       -0.787300    0.503900   -1.251900
     13          1           0       -0.670300    1.168000    0.418300
     14          6           0       -2.039300   -0.499900    0.220500
     15          1           0       -1.966200   -0.852800    1.275200
     16          1           0       -2.190700   -1.384700   -0.439300
     17          6           0       -3.264300    0.402100    0.092900
     18          1           0       -3.368000    0.770400   -0.953300
     19          1           0       -4.179900   -0.171900    0.361700
     20          1           0       -3.176000    1.274000    0.780400
 ---------------------------------------------------------------------
                    Distance matrix (angstroms):
                    1          2          3          4          5
     1  C    0.000000
     2  H    1.113869   0.000000
     3  H    1.113902   1.815490   0.000000
     4  H    1.113516   1.810008   1.809311   0.000000
     5  C    1.526662   2.181091   2.180046   2.170095   0.000000
     6  H    2.158254   3.092929   2.496428   2.489610   1.114557
     7  H    2.151346   2.508898   3.086576   2.463532   1.113952
     8  C    2.539971   2.790882   2.814353   3.499330   1.535471
     9  H    2.724281   3.052460   2.533931   3.757057   2.166978
    10  H    2.820322   2.611603   3.229403   3.817011   2.177890
    11  C    3.923731   4.260003   4.205905   4.738818   2.577166
    12  H    4.187902   4.770763   4.336181   4.878681   2.811627
    13  H    4.682743   4.888668   4.819253   5.608972   3.506997
    14  C    4.602836   4.809023   5.181421   5.240313   3.170999
    15  H    4.699299   4.642867   5.367394   5.383863   3.465101
    16  H    4.357043   4.680590   5.064024   4.776568   2.901007
    17  C    6.075406   6.325040   6.578606   6.692219   4.602817
    18  H    6.325035   6.750517   6.733811   6.877101   4.808971
    19  H    6.692285   6.877199   7.321972   7.209777   5.240347
    20  H    6.578610   6.733833   6.984672   7.321902   5.181425
                    6          7          8          9         10
     6  H    0.000000
     7  H    1.809045   0.000000
     8  C    2.180025   2.180583   0.000000
     9  H    2.549063   3.092516   1.115216   0.000000
    10  H    3.101081   2.489244   1.115114   1.801305   0.000000
    11  C    2.778655   2.887914   1.535944   2.151555   2.175546
    12  H    2.550953   3.251610   2.175551   2.494057   3.097357
    13  H    3.767732   3.890126   2.151487   2.406143   2.494031
    14  C    3.465106   2.901076   2.577166   3.507022   2.811556
    15  H    4.053285   3.058271   2.778668   3.767773   2.550868
    16  H    3.058224   2.375394   2.887942   3.890193   3.251545
    17  C    4.699318   4.357062   3.923719   4.682776   4.187803
    18  H    4.642829   4.680589   4.259965   4.888662   4.770684
    19  H    5.383904   4.776654   4.738916   5.609109   4.878703
    20  H    5.367421   5.064035   4.205911   4.819309   4.336124
                   11         12         13         14         15
    11  C    0.000000
    12  H    1.115087   0.000000
    13  H    1.115184   1.801190   0.000000
    14  C    1.535386   2.177861   2.166836   0.000000
    15  H    2.179988   3.101076   2.548974   1.114574   0.000000
    16  H    2.180558   2.489309   3.092470   1.114060   1.809096
    17  C    2.539944   2.820351   2.724211   1.526601   2.158164
    18  H    2.790814   2.611551   3.052369   2.181035   3.092901
    19  H    3.499389   3.817086   3.757104   2.170182   2.489694
    20  H    2.814378   3.229425   2.533947   2.179976   2.496342
                   16         17         18         19         20
    16  H    0.000000
    17  C    2.151397   0.000000
    18  H    2.508922   1.113972   0.000000
    19  H    2.463616   1.113577   1.810065   0.000000
    20  H    3.086611   1.113850   1.815542   1.809351   0.000000
 Stoichiometry    C6H14
 Framework group  C1[X(C6H14)]
 Deg. of freedom    54
 Full point group                 C1      NOp   1
 Largest Abelian subgroup         C1      NOp   1
 Largest concise Abelian subgroup C1      NOp   1
                         Standard orientation:                         
 ---------------------------------------------------------------------
 Center     Atomic      Atomic             Coordinates (Angstroms)
 Number     Number       Type             X           Y           Z
 ---------------------------------------------------------------------
      1          6           0       -3.036799   -0.296138   -0.074409
      2          1           0       -3.162434   -0.237424   -1.179611
      3          1           0       -3.470270    0.617875    0.391919
      4          1           0       -3.592246   -1.185050    0.301401
      5          6           0       -1.559272   -0.426020    0.287175
      6          1           0       -1.468739   -0.485260    1.396468
      7          1           0       -1.178134   -1.376810   -0.150572
      8          6           0       -0.730521    0.755591   -0.236882
      9          1           0       -1.197169    1.703868    0.119092
     10          1           0       -0.755855    0.762194   -1.351688
     11          6           0        0.730522    0.755546    0.236909
     12          1           0        0.755893    0.762285    1.351687
     13          1           0        1.197158    1.703787   -0.119076
     14          6           0        1.559286   -0.425954   -0.287133
     15          1           0        1.468741   -0.485243   -1.396439
     16          1           0        1.178087   -1.376841    0.150623
     17          6           0        3.036786   -0.296135    0.074324
     18          1           0        3.162395   -0.237387    1.179631
     19          1           0        3.592292   -1.185147   -0.301340
     20          1           0        3.470270    0.617807   -0.392007
 ---------------------------------------------------------------------
 Rotational constants (GHZ):     10.1820687      1.3006328      1.2347023
 Leave Link  202 at Mon Sep 14 19:12:00 2015, MaxMem=  402653184 cpu:       0.0
 (Enter /share/apps/g09/l301.exe)
 Standard basis: VSTO-6G (5D, 7F)
 Ernie: Thresh=  0.10000D-02 Tol=  0.10000D-05 Strict=F.
  NNHCO=     0 NNPyr=     0 NCTC=     0               EPep=         0.000000000
    EC=       124.931609340  ECS=         3.145639645   EG=         0.309056845
   EHC=         0.000409405  EAt=       -31.187935768  AtH=         2.796400831
 EPDDG=         0.000000000  ECC=       128.386715235 EAtT=        33.984336599
 There are    38 symmetry adapted basis functions of A   symmetry.
 Integral buffers will be    131072 words long.
 Regular integral format.
 Two-electron integral symmetry is turned off.
    38 basis functions,   228 primitive gaussians,    38 cartesian basis functions
    19 alpha electrons       19 beta electrons
       nuclear repulsion energy       162.3710518337 Hartrees.
 IExCor=    0 DFT=F Ex=HF Corr=None ExCW=0 ScaHFX=  1.000000
 ScaDFX=  1.000000  1.000000  1.000000  1.000000 ScalE2=  1.000000  1.000000
 IRadAn=      0 IRanWt=     -1 IRanGd=            0 ICorTp=0
 Leave Link  301 at Mon Sep 14 19:12:06 2015, MaxMem=  402653184 cpu:       0.1
 (Enter /share/apps/g09/l302.exe)
 Do NDO integrals.
 NPDir=0 NMtPBC=     1 NCelOv=     1 NCel=       1 NClECP=     1 NCelD=      1
         NCelK=      1 NCelE2=     1 NClLst=     1 CellRange=     0.0.
 One-electron integrals computed using PRISM.
 NBasis=    38 RedAO= F  NBF=    38
 NBsUse=    38 1.00D-04 NBFU=    38
 Leave Link  302 at Mon Sep 14 19:12:10 2015, MaxMem=  402653184 cpu:       0.1
 (Enter /share/apps/g09/l303.exe)
 DipDrv:  MaxL=1.
 Leave Link  303 at Mon Sep 14 19:12:11 2015, MaxMem=  402653184 cpu:       0.0
 (Enter /share/apps/g09/l401.exe)
 Simple Huckel Guess.
 Initial guess orbital symmetries:
       Occupied  (A) (A) (A) (A) (A) (A) (A) (A) (A) (A) (A) (A)
                 (A) (A) (A) (A) (A) (A) (A)
       Virtual   (A) (A) (A) (A) (A) (A) (A) (A) (A) (A) (A) (A)
                 (A) (A) (A) (A) (A) (A) (A)
 The electronic state of the initial guess is 1-A.
 Leave Link  401 at Mon Sep 14 19:12:11 2015, MaxMem=  402653184 cpu:       0.2
 (Enter /share/apps/g09/l502.exe)
 Closed shell SCF:
 Requested convergence on RMS density matrix=1.00D-08 within 128 cycles.
 Requested convergence on MAX density matrix=1.00D-06.
 Requested convergence on             energy=1.00D-06.
 No special actions if energy rises.
 Using DIIS extrapolation, IDIIS=  1040.
 Overlap will be assumed to be unity.
 Two-electron integral symmetry not used.
 Keep J ints in memory in canonical form, NReq=884654.
 IEnd=       81865 IEndB=       81865 NGot=   402653184 MDV=   402586639
 LenX=   402586639 LenY=   402584754
 Symmetry not used in FoFDir.
 MinBra= 0 MaxBra= 1 Meth=40.
 IRaf=       0 NMat=   1 IRICut=       1 DoRegI=T DoRafI=F ISym2E= 0 JSym2E=0.

 Cycle   1  Pass 1  IDiag  1:
 E= 0.735567476444601E-01
 DIIS: error= 2.20D-02 at cycle   1 NSaved=   1.
 NSaved= 1 IEnMin= 1 EnMin= 0.735567476444601E-01 IErMin= 1 ErrMin= 2.20D-02
 ErrMax= 2.20D-02 EMaxC= 1.00D-01 BMatC= 4.41D-02 BMatP= 4.41D-02
 IDIUse=3 WtCom= 7.80D-01 WtEn= 2.20D-01
 Coeff-Com:  0.100D+01
 Coeff-En:   0.100D+01
 Coeff:      0.100D+01
 GapD=    2.000 DampG=2.000 DampE=0.500 DampFc=1.0000 IDamp=-1.
 RMSDP=8.41D-03 MaxDP=6.95D-02              OVMax= 0.00D+00

 Cycle   2  Pass 1  IDiag  1:
 E=-0.436186934403509E-01 Delta-E=       -0.117175441085 Rises=F Damp=F
 DIIS: error= 5.32D-03 at cycle   2 NSaved=   2.
 NSaved= 2 IEnMin= 2 EnMin=-0.436186934403509E-01 IErMin= 2 ErrMin= 5.32D-03
 ErrMax= 5.32D-03 EMaxC= 1.00D-01 BMatC= 2.97D-03 BMatP= 4.41D-02
 IDIUse=3 WtCom= 9.47D-01 WtEn= 5.32D-02
 Coeff-Com: -0.325D+00 0.132D+01
 Coeff-En:   0.000D+00 0.100D+01
 Coeff:     -0.307D+00 0.131D+01
 RMSDP=3.07D-03 MaxDP=2.14D-02 DE=-1.17D-01 OVMax= 0.00D+00

 Cycle   3  Pass 1  IDiag  3:
 E=-0.533097069281894E-01 Delta-E=       -0.009691013488 Rises=F Damp=F
 DIIS: error= 1.47D-03 at cycle   3 NSaved=   3.
 NSaved= 3 IEnMin= 3 EnMin=-0.533097069281894E-01 IErMin= 3 ErrMin= 1.47D-03
 ErrMax= 1.47D-03 EMaxC= 1.00D-01 BMatC= 8.77D-05 BMatP= 2.97D-03
 IDIUse=3 WtCom= 9.85D-01 WtEn= 1.47D-02
 Coeff-Com:  0.246D+00-0.105D+01 0.180D+01
 Coeff-En:   0.000D+00 0.000D+00 0.100D+01
 Coeff:      0.242D+00-0.103D+01 0.179D+01
 Gap=     0.553 Goal=   None    Shift=    0.000
 RMSDP=9.02D-04 MaxDP=9.06D-03 DE=-9.69D-03 OVMax= 0.00D+00

 Cycle   4  Pass 1  IDiag  3:
 E=-0.538416277652516E-01 Delta-E=       -0.000531920837 Rises=F Damp=F
 DIIS: error= 3.38D-04 at cycle   4 NSaved=   4.
 NSaved= 4 IEnMin= 4 EnMin=-0.538416277652516E-01 IErMin= 4 ErrMin= 3.38D-04
 ErrMax= 3.38D-04 EMaxC= 1.00D-01 BMatC= 5.08D-06 BMatP= 8.77D-05
 IDIUse=3 WtCom= 9.97D-01 WtEn= 3.38D-03
 Coeff-Com: -0.121D+00 0.524D+00-0.107D+01 0.167D+01
 Coeff-En:   0.000D+00 0.000D+00 0.000D+00 0.100D+01
 Coeff:     -0.121D+00 0.522D+00-0.106D+01 0.166D+01
 Gap=     0.554 Goal=   None    Shift=    0.000
 RMSDP=2.52D-04 MaxDP=2.53D-03 DE=-5.32D-04 OVMax= 0.00D+00

 Cycle   5  Pass 1  IDiag  3:
 E=-0.538766223858715E-01 Delta-E=       -0.000034994621 Rises=F Damp=F
 DIIS: error= 1.03D-04 at cycle   5 NSaved=   5.
 NSaved= 5 IEnMin= 5 EnMin=-0.538766223858715E-01 IErMin= 5 ErrMin= 1.03D-04
 ErrMax= 1.03D-04 EMaxC= 1.00D-01 BMatC= 4.20D-07 BMatP= 5.08D-06
 IDIUse=3 WtCom= 9.99D-01 WtEn= 1.03D-03
 Coeff-Com:  0.699D-01-0.304D+00 0.659D+00-0.124D+01 0.181D+01
 Coeff-En:   0.000D+00 0.000D+00 0.000D+00 0.000D+00 0.100D+01
 Coeff:      0.699D-01-0.304D+00 0.658D+00-0.124D+01 0.181D+01
 Gap=     0.553 Goal=   None    Shift=    0.000
 RMSDP=7.54D-05 MaxDP=6.73D-04 DE=-3.50D-05 OVMax= 0.00D+00

 Cycle   6  Pass 1  IDiag  3:
 E=-0.538797261897059E-01 Delta-E=       -0.000003103804 Rises=F Damp=F
 DIIS: error= 2.67D-05 at cycle   6 NSaved=   6.
 NSaved= 6 IEnMin= 6 EnMin=-0.538797261897059E-01 IErMin= 6 ErrMin= 2.67D-05
 ErrMax= 2.67D-05 EMaxC= 1.00D-01 BMatC= 2.79D-08 BMatP= 4.20D-07
 IDIUse=1 WtCom= 1.00D+00 WtEn= 0.00D+00
 Coeff-Com: -0.127D-02 0.618D-02-0.259D-01 0.937D-01-0.402D+00 0.133D+01
 Coeff:     -0.127D-02 0.618D-02-0.259D-01 0.937D-01-0.402D+00 0.133D+01
 Gap=     0.554 Goal=   None    Shift=    0.000
 RMSDP=1.96D-05 MaxDP=2.11D-04 DE=-3.10D-06 OVMax= 0.00D+00

 Cycle   7  Pass 1  IDiag  3:
 E=-0.538799235869760E-01 Delta-E=       -0.000000197397 Rises=F Damp=F
 DIIS: error= 4.97D-06 at cycle   7 NSaved=   7.
 NSaved= 7 IEnMin= 7 EnMin=-0.538799235869760E-01 IErMin= 7 ErrMin= 4.97D-06
 ErrMax= 4.97D-06 EMaxC= 1.00D-01 BMatC= 2.01D-09 BMatP= 2.79D-08
 IDIUse=1 WtCom= 1.00D+00 WtEn= 0.00D+00
 Coeff-Com:  0.861D-03-0.405D-02 0.141D-01-0.439D-01 0.180D+00-0.738D+00
 Coeff-Com:  0.159D+01
 Coeff:      0.861D-03-0.405D-02 0.141D-01-0.439D-01 0.180D+00-0.738D+00
 Coeff:      0.159D+01
 Gap=     0.554 Goal=   None    Shift=    0.000
 RMSDP=4.88D-06 MaxDP=5.06D-05 DE=-1.97D-07 OVMax= 0.00D+00

 Cycle   8  Pass 1  IDiag  3:
 E=-0.538799361924305E-01 Delta-E=       -0.000000012605 Rises=F Damp=F
 DIIS: error= 1.77D-06 at cycle   8 NSaved=   8.
 NSaved= 8 IEnMin= 8 EnMin=-0.538799361924305E-01 IErMin= 8 ErrMin= 1.77D-06
 ErrMax= 1.77D-06 EMaxC= 1.00D-01 BMatC= 1.01D-10 BMatP= 2.01D-09
 IDIUse=1 WtCom= 1.00D+00 WtEn= 0.00D+00
 Coeff-Com: -0.265D-03 0.135D-02-0.625D-02 0.227D-01-0.102D+00 0.446D+00
 Coeff-Com: -0.108D+01 0.172D+01
 Coeff:     -0.265D-03 0.135D-02-0.625D-02 0.227D-01-0.102D+00 0.446D+00
 Coeff:     -0.108D+01 0.172D+01
 Gap=     0.554 Goal=   None    Shift=    0.000
 RMSDP=1.03D-06 MaxDP=1.01D-05 DE=-1.26D-08 OVMax= 0.00D+00

 Cycle   9  Pass 1  IDiag  3:
 E=-0.538799367996319E-01 Delta-E=       -0.000000000607 Rises=F Damp=F
 DIIS: error= 2.59D-07 at cycle   9 NSaved=   9.
 NSaved= 9 IEnMin= 9 EnMin=-0.538799367996319E-01 IErMin= 9 ErrMin= 2.59D-07
 ErrMax= 2.59D-07 EMaxC= 1.00D-01 BMatC= 2.98D-12 BMatP= 1.01D-10
 IDIUse=1 WtCom= 1.00D+00 WtEn= 0.00D+00
 Coeff-Com: -0.260D-04 0.523D-04 0.931D-03-0.515D-02 0.281D-01-0.132D+00
 Coeff-Com:  0.333D+00-0.657D+00 0.143D+01
 Coeff:     -0.260D-04 0.523D-04 0.931D-03-0.515D-02 0.281D-01-0.132D+00
 Coeff:      0.333D+00-0.657D+00 0.143D+01
 Gap=     0.554 Goal=   None    Shift=    0.000
 RMSDP=1.65D-07 MaxDP=1.55D-06 DE=-6.07D-10 OVMax= 0.00D+00

 Cycle  10  Pass 1  IDiag  3:
 E=-0.538799368151217E-01 Delta-E=       -0.000000000015 Rises=F Damp=F
 DIIS: error= 1.80D-08 at cycle  10 NSaved=  10.
 NSaved=10 IEnMin=10 EnMin=-0.538799368151217E-01 IErMin=10 ErrMin= 1.80D-08
 ErrMax= 1.80D-08 EMaxC= 1.00D-01 BMatC= 4.59D-14 BMatP= 2.98D-12
 IDIUse=1 WtCom= 1.00D+00 WtEn= 0.00D+00
 Coeff-Com: -0.351D-05 0.327D-04-0.365D-03 0.164D-02-0.821D-02 0.376D-01
 Coeff-Com: -0.946D-01 0.191D+00-0.479D+00 0.135D+01
 Coeff:     -0.351D-05 0.327D-04-0.365D-03 0.164D-02-0.821D-02 0.376D-01
 Coeff:     -0.946D-01 0.191D+00-0.479D+00 0.135D+01
 Gap=     0.554 Goal=   None    Shift=    0.000
 RMSDP=1.68D-08 MaxDP=1.07D-07 DE=-1.55D-11 OVMax= 0.00D+00

 Cycle  11  Pass 1  IDiag  3:
 E=-0.538799368154912E-01 Delta-E=        0.000000000000 Rises=F Damp=F
 DIIS: error= 4.87D-09 at cycle  11 NSaved=  11.
 NSaved=11 IEnMin=11 EnMin=-0.538799368154912E-01 IErMin=11 ErrMin= 4.87D-09
 ErrMax= 4.87D-09 EMaxC= 1.00D-01 BMatC= 1.61D-15 BMatP= 4.59D-14
 IDIUse=1 WtCom= 1.00D+00 WtEn= 0.00D+00
 Coeff-Com:  0.118D-05-0.105D-04 0.112D-03-0.499D-03 0.249D-02-0.114D-01
 Coeff-Com:  0.287D-01-0.581D-01 0.151D+00-0.525D+00 0.141D+01
 Coeff:      0.118D-05-0.105D-04 0.112D-03-0.499D-03 0.249D-02-0.114D-01
 Coeff:      0.287D-01-0.581D-01 0.151D+00-0.525D+00 0.141D+01
 Gap=     0.554 Goal=   None    Shift=    0.000
 RMSDP=3.42D-09 MaxDP=2.65D-08 DE=-3.69D-13 OVMax= 0.00D+00

 Cycle  12  Pass 2  IDiag  1:
 RMSDP=3.42D-09 MaxDP=2.65D-08 DE=-3.69D-13 OVMax= 0.00D+00

 SCF Done:  E(RPM6) = -0.538799368155E-01 A.U. after   12 cycles
             Convg  =    0.3424D-08             -V/T =  0.9990
 KE=-5.603506182307D+01 PE=-2.459259882083D+02 EE= 1.395361182608D+02
 Leave Link  502 at Mon Sep 14 19:12:15 2015, MaxMem=  402653184 cpu:       3.8
 (Enter /share/apps/g09/l601.exe)
 Copying SCF densities to generalized density rwf, IOpCl= 0 IROHF=0.

 **********************************************************************

            Population analysis using the SCF density.

 **********************************************************************

 Orbital symmetries:
       Occupied  (A) (A) (A) (A) (A) (A) (A) (A) (A) (A) (A) (A)
                 (A) (A) (A) (A) (A) (A) (A)
       Virtual   (A) (A) (A) (A) (A) (A) (A) (A) (A) (A) (A) (A)
                 (A) (A) (A) (A) (A) (A) (A)
 The electronic state is 1-A.
 Alpha  occ. eigenvalues --   -1.05090  -0.99250  -0.91013  -0.79602  -0.75746
 Alpha  occ. eigenvalues --   -0.70949  -0.58930  -0.56892  -0.54355  -0.51813
 Alpha  occ. eigenvalues --   -0.51316  -0.48735  -0.45925  -0.45924  -0.43865
 Alpha  occ. eigenvalues --   -0.42426  -0.41716  -0.40621  -0.40272
 Alpha virt. eigenvalues --    0.15075   0.16292   0.16921   0.17105   0.18568
 Alpha virt. eigenvalues --    0.20634   0.20758   0.21783   0.21793   0.21998
 Alpha virt. eigenvalues --    0.22309   0.23341   0.23344   0.24077   0.24090
 Alpha virt. eigenvalues --    0.24362   0.24721   0.24965   0.25159
          Condensed to atoms (all electrons):
              1          2          3          4          5          6
     1  C    4.466557   0.000000   0.000000   0.000000   0.000000   0.000000
     2  H    0.000000   0.852408   0.000000   0.000000   0.000000   0.000000
     3  H    0.000000   0.000000   0.853003   0.000000   0.000000   0.000000
     4  H    0.000000   0.000000   0.000000   0.855228   0.000000   0.000000
     5  C    0.000000   0.000000   0.000000   0.000000   4.222068   0.000000
     6  H    0.000000   0.000000   0.000000   0.000000   0.000000   0.872879
     7  H    0.000000   0.000000   0.000000   0.000000   0.000000   0.000000
     8  C    0.000000   0.000000   0.000000   0.000000   0.000000   0.000000
     9  H    0.000000   0.000000   0.000000   0.000000   0.000000   0.000000
    10  H    0.000000   0.000000   0.000000   0.000000   0.000000   0.000000
    11  C    0.000000   0.000000   0.000000   0.000000   0.000000   0.000000
    12  H    0.000000   0.000000   0.000000   0.000000   0.000000   0.000000
    13  H    0.000000   0.000000   0.000000   0.000000   0.000000   0.000000
    14  C    0.000000   0.000000   0.000000   0.000000   0.000000   0.000000
    15  H    0.000000   0.000000   0.000000   0.000000   0.000000   0.000000
    16  H    0.000000   0.000000   0.000000   0.000000   0.000000   0.000000
    17  C    0.000000   0.000000   0.000000   0.000000   0.000000   0.000000
    18  H    0.000000   0.000000   0.000000   0.000000   0.000000   0.000000
    19  H    0.000000   0.000000   0.000000   0.000000   0.000000   0.000000
    20  H    0.000000   0.000000   0.000000   0.000000   0.000000   0.000000
              7          8          9         10         11         12
     1  C    0.000000   0.000000   0.000000   0.000000   0.000000   0.000000
     2  H    0.000000   0.000000   0.000000   0.000000   0.000000   0.000000
     3  H    0.000000   0.000000   0.000000   0.000000   0.000000   0.000000
     4  H    0.000000   0.000000   0.000000   0.000000   0.000000   0.000000
     5  C    0.000000   0.000000   0.000000   0.000000   0.000000   0.000000
     6  H    0.000000   0.000000   0.000000   0.000000   0.000000   0.000000
     7  H    0.872721   0.000000   0.000000   0.000000   0.000000   0.000000
     8  C    0.000000   4.266885   0.000000   0.000000   0.000000   0.000000
     9  H    0.000000   0.000000   0.870287   0.000000   0.000000   0.000000
    10  H    0.000000   0.000000   0.000000   0.867955   0.000000   0.000000
    11  C    0.000000   0.000000   0.000000   0.000000   4.266905   0.000000
    12  H    0.000000   0.000000   0.000000   0.000000   0.000000   0.867955
    13  H    0.000000   0.000000   0.000000   0.000000   0.000000   0.000000
    14  C    0.000000   0.000000   0.000000   0.000000   0.000000   0.000000
    15  H    0.000000   0.000000   0.000000   0.000000   0.000000   0.000000
    16  H    0.000000   0.000000   0.000000   0.000000   0.000000   0.000000
    17  C    0.000000   0.000000   0.000000   0.000000   0.000000   0.000000
    18  H    0.000000   0.000000   0.000000   0.000000   0.000000   0.000000
    19  H    0.000000   0.000000   0.000000   0.000000   0.000000   0.000000
    20  H    0.000000   0.000000   0.000000   0.000000   0.000000   0.000000
             13         14         15         16         17         18
     1  C    0.000000   0.000000   0.000000   0.000000   0.000000   0.000000
     2  H    0.000000   0.000000   0.000000   0.000000   0.000000   0.000000
     3  H    0.000000   0.000000   0.000000   0.000000   0.000000   0.000000
     4  H    0.000000   0.000000   0.000000   0.000000   0.000000   0.000000
     5  C    0.000000   0.000000   0.000000   0.000000   0.000000   0.000000
     6  H    0.000000   0.000000   0.000000   0.000000   0.000000   0.000000
     7  H    0.000000   0.000000   0.000000   0.000000   0.000000   0.000000
     8  C    0.000000   0.000000   0.000000   0.000000   0.000000   0.000000
     9  H    0.000000   0.000000   0.000000   0.000000   0.000000   0.000000
    10  H    0.000000   0.000000   0.000000   0.000000   0.000000   0.000000
    11  C    0.000000   0.000000   0.000000   0.000000   0.000000   0.000000
    12  H    0.000000   0.000000   0.000000   0.000000   0.000000   0.000000
    13  H    0.870290   0.000000   0.000000   0.000000   0.000000   0.000000
    14  C    0.000000   4.222075   0.000000   0.000000   0.000000   0.000000
    15  H    0.000000   0.000000   0.872878   0.000000   0.000000   0.000000
    16  H    0.000000   0.000000   0.000000   0.872715   0.000000   0.000000
    17  C    0.000000   0.000000   0.000000   0.000000   4.466554   0.000000
    18  H    0.000000   0.000000   0.000000   0.000000   0.000000   0.852406
    19  H    0.000000   0.000000   0.000000   0.000000   0.000000   0.000000
    20  H    0.000000   0.000000   0.000000   0.000000   0.000000   0.000000
             19         20
     1  C    0.000000   0.000000
     2  H    0.000000   0.000000
     3  H    0.000000   0.000000
     4  H    0.000000   0.000000
     5  C    0.000000   0.000000
     6  H    0.000000   0.000000
     7  H    0.000000   0.000000
     8  C    0.000000   0.000000
     9  H    0.000000   0.000000
    10  H    0.000000   0.000000
    11  C    0.000000   0.000000
    12  H    0.000000   0.000000
    13  H    0.000000   0.000000
    14  C    0.000000   0.000000
    15  H    0.000000   0.000000
    16  H    0.000000   0.000000
    17  C    0.000000   0.000000
    18  H    0.000000   0.000000
    19  H    0.855223   0.000000
    20  H    0.000000   0.853006
 Mulliken atomic charges:
              1
     1  C   -0.466557
     2  H    0.147592
     3  H    0.146997
     4  H    0.144772
     5  C   -0.222068
     6  H    0.127121
     7  H    0.127279
     8  C   -0.266885
     9  H    0.129713
    10  H    0.132045
    11  C   -0.266905
    12  H    0.132045
    13  H    0.129710
    14  C   -0.222075
    15  H    0.127122
    16  H    0.127285
    17  C   -0.466554
    18  H    0.147594
    19  H    0.144777
    20  H    0.146994
 Sum of Mulliken atomic charges =   0.00000
 Mulliken charges with hydrogens summed into heavy atoms:
              1
     1  C   -0.027197
     5  C    0.032332
     8  C   -0.005127
    11  C   -0.005150
    14  C    0.032331
    17  C   -0.027190
 Sum of Mulliken charges with hydrogens summed into heavy atoms =   0.00000
 Charge=              0.0000 electrons
 Dipole moment (field-independent basis, Debye):
    X=              0.0000    Y=              0.0345    Z=              0.0002  Tot=              0.0345
 N-N= 1.623710518337D+02 E-N=-2.459259882291D+02  KE=-5.603506182307D+01
 Leave Link  601 at Mon Sep 14 19:12:15 2015, MaxMem=  402653184 cpu:       0.0
 (Enter /share/apps/g09/l701.exe)
 Compute integral first derivatives.
 ... and contract with generalized density number  0.
 Leave Link  701 at Mon Sep 14 19:12:15 2015, MaxMem=  402653184 cpu:       0.2
 (Enter /share/apps/g09/l702.exe)
 L702 exits ... SP integral derivatives will be done elsewhere.
 Leave Link  702 at Mon Sep 14 19:12:21 2015, MaxMem=  402653184 cpu:       0.0
 (Enter /share/apps/g09/l703.exe)
 Compute integral first derivatives, UseDBF=F ICtDFT=           0.
 Integral derivatives from FoFDir, PRISM(SPDF).
 Calling FoFJK, ICntrl=      2127 FMM=F ISym2X=0 I1Cent= 0 IOpClX= 0 NMat=1 NMatS=1 NMatT=0.
 FoFCou: FMM=F IPFlag=           0 FMFlag=      100000 FMFlg1=         800
         NFxFlg=           0 DoJE=F BraDBF=F KetDBF=F FulRan=T
         Omega=  0.000000  0.000000  1.000000  0.000000  0.000000 ICntrl=    2127 IOpCl=  0
         NMat0=    1 NMatS0=    1 NMatT0=    0 NMatD0=    1 NMtDS0=    0 NMtDT0=    0
         I1Cent=           0 NGrid=           0.
 Symmetry not used in FoFCou.
 Leave Link  703 at Mon Sep 14 19:12:21 2015, MaxMem=  402653184 cpu:       0.0
 (Enter /share/apps/g09/l716.exe)
 Dipole        = 1.42121680D-05 1.35829664D-02 7.20446042D-05
 ***** Axes restored to original set *****
 -------------------------------------------------------------------
 Center     Atomic                   Forces (Hartrees/Bohr)
 Number     Number              X              Y              Z
 -------------------------------------------------------------------
      1        6           0.004134697   -0.001260560    0.000564156
      2        1           0.001483867    0.001566057   -0.010241244
      3        1          -0.005073578   -0.008129141    0.004197777
      4        1           0.002721263    0.007400969    0.006286432
      5        6          -0.002217281   -0.000302567   -0.000656738
      6        1          -0.002838508   -0.001614136    0.004008190
      7        1          -0.000072666    0.003893065   -0.003507188
      8        6           0.000361372    0.000033652    0.001023403
      9        1          -0.001362100   -0.002644535    0.003438304
     10        1           0.001597493    0.001633522   -0.004418134
     11        6           0.000079281    0.000682463   -0.000866734
     12        1          -0.000280933    0.000604495    0.004912062
     13        1          -0.000872612   -0.001145023   -0.004292900
     14        6           0.000719493   -0.002307372    0.000085169
     15        1           0.000850294   -0.001780638   -0.004782589
     16        1           0.002641002    0.000515822    0.004527121
     17        6          -0.003090455    0.003124094   -0.000213444
     18        1          -0.001393642   -0.001419167    0.010317438
     19        1           0.006081728    0.007543022   -0.002889593
     20        1          -0.003468713   -0.006394025   -0.007491488
 -------------------------------------------------------------------
 Cartesian Forces:  Max     0.010317438 RMS     0.003859161
 Leave Link  716 at Mon Sep 14 19:12:23 2015, MaxMem=  402653184 cpu:       0.0
 (Enter /share/apps/g09/l103.exe)

 GradGradGradGradGradGradGradGradGradGradGradGradGradGradGradGradGradGrad
 Berny optimization.
 Internal  Forces:  Max     0.010029215 RMS     0.003157512
 Search for a local minimum.
 Step number   1 out of a maximum of  110
 All quantities printed in internal units (Hartrees-Bohrs-Radians)
 RMS Force = .31575D-02 SwitMx=.10000D-02 MixMth= 1
 Mixed Optimization -- RFO/linear search
 Second derivative matrix not updated -- first step.
     Eigenvalues ---    0.00290   0.00297   0.00298   0.00413   0.00414
     Eigenvalues ---    0.03386   0.03386   0.03652   0.03652   0.04795
     Eigenvalues ---    0.04795   0.04886   0.04886   0.05663   0.05663
     Eigenvalues ---    0.05776   0.05776   0.08172   0.08174   0.08488
     Eigenvalues ---    0.08489   0.12078   0.12080   0.12328   0.12329
     Eigenvalues ---    0.16000   0.16000   0.16000   0.16000   0.16000
     Eigenvalues ---    0.16000   0.21974   0.21974   0.21989   0.21989
     Eigenvalues ---    0.28881   0.28924   0.28932   0.29734   0.29740
     Eigenvalues ---    0.32054   0.32057   0.32065   0.32067   0.32121
     Eigenvalues ---    0.32122   0.32174   0.32183   0.32185   0.32190
     Eigenvalues ---    0.32194   0.32196   0.32224   0.322311000.00000
     Eigenvalues --- 1000.000001000.000001000.000001000.000001000.00000
     Eigenvalues --- 1000.000001000.000001000.000001000.000001000.00000
     Eigenvalues --- 1000.000001000.000001000.000001000.000001000.00000
     Eigenvalues --- 1000.000001000.000001000.000001000.000001000.00000
     Eigenvalues --- 1000.000001000.000001000.000001000.000001000.00000
     Eigenvalues --- 1000.000001000.000001000.000001000.000001000.00000
     Eigenvalues --- 1000.000001000.000001000.000001000.000001000.00000
     Eigenvalues --- 1000.000001000.000001000.000001000.000001000.00000
     Eigenvalues --- 1000.000001000.000001000.000001000.000001000.00000
 RFO step:  Lambda=-4.24383038D-03 EMin= 2.90479082D-03
 Linear search not attempted -- first point.
 Iteration  1 RMS(Cart)=  0.03348796 RMS(Int)=  0.00051961
 Iteration  2 RMS(Cart)=  0.00074030 RMS(Int)=  0.00008533
 Iteration  3 RMS(Cart)=  0.00000022 RMS(Int)=  0.00008533
 Variable       Old X    -DE/DX   Delta X   Delta X   Delta X     New X
                                 (Linear)    (Quad)   (Total)
    R1        2.10491  -0.00999   0.00000  -0.03062  -0.03062   2.07429
    R2        2.10497  -0.00993   0.00000  -0.03043  -0.03043   2.07454
    R3        2.10424  -0.00956   0.00000  -0.02926  -0.02926   2.07498
    R4        2.88497   0.00318   0.00000   0.01054   0.01054   2.89552
    R5        2.10621  -0.00390   0.00000  -0.01200  -0.01200   2.09421
    R6        2.10506  -0.00340   0.00000  -0.01044  -0.01044   2.09462
    R7        2.90162  -0.00180   0.00000  -0.00612  -0.00612   2.89550
    R8        2.10745  -0.00333   0.00000  -0.01025  -0.01025   2.09720
    R9        2.10726  -0.00461   0.00000  -0.01418  -0.01418   2.09308
   R10        2.90251  -0.00124   0.00000  -0.00422  -0.00422   2.89829
   R11        2.10721  -0.00459   0.00000  -0.01413  -0.01413   2.09308
   R12        2.10739  -0.00330   0.00000  -0.01017  -0.01017   2.09723
   R13        2.90146  -0.00175   0.00000  -0.00596  -0.00596   2.89550
   R14        2.10624  -0.00391   0.00000  -0.01200  -0.01200   2.09424
   R15        2.10527  -0.00345   0.00000  -0.01058  -0.01058   2.09469
   R16        2.88486   0.00321   0.00000   0.01064   0.01064   2.89550
   R17        2.10510  -0.01003   0.00000  -0.03076  -0.03076   2.07434
   R18        2.10435  -0.00959   0.00000  -0.02936  -0.02936   2.07499
   R19        2.10487  -0.00990   0.00000  -0.03036  -0.03036   2.07451
    A1        1.90524  -0.00363   0.00000  -0.02458  -0.02469   1.88054
    A2        1.89725  -0.00320   0.00000  -0.01862  -0.01883   1.87842
    A3        1.92693   0.00302   0.00000   0.01755   0.01738   1.94431
    A4        1.89614  -0.00326   0.00000  -0.01817  -0.01843   1.87771
    A5        1.92546   0.00336   0.00000   0.01998   0.01978   1.94525
    A6        1.91231   0.00349   0.00000   0.02255   0.02230   1.93461
    A7        1.89533   0.00178   0.00000   0.01745   0.01744   1.91277
    A8        1.88670   0.00234   0.00000   0.02355   0.02354   1.91025
    A9        1.95634  -0.00195   0.00000  -0.00215  -0.00215   1.95419
   A10        1.89437  -0.00204   0.00000  -0.03038  -0.03060   1.86377
   A11        1.91426   0.00014   0.00000  -0.00379  -0.00386   1.91039
   A12        1.91563  -0.00025   0.00000  -0.00526  -0.00536   1.91026
   A13        1.89606   0.00146   0.00000   0.01148   0.01157   1.90763
   A14        1.91081   0.00123   0.00000  -0.00043  -0.00044   1.91037
   A15        1.99118  -0.00472   0.00000  -0.01784  -0.01781   1.97337
   A16        1.88028  -0.00203   0.00000  -0.02046  -0.02048   1.85980
   A17        1.87506   0.00241   0.00000   0.02116   0.02120   1.89626
   A18        1.90709   0.00174   0.00000   0.00589   0.00582   1.91291
   A19        1.90713   0.00174   0.00000   0.00584   0.00576   1.91289
   A20        1.87501   0.00241   0.00000   0.02120   0.02124   1.89625
   A21        1.99127  -0.00474   0.00000  -0.01790  -0.01788   1.97339
   A22        1.88018  -0.00203   0.00000  -0.02041  -0.02043   1.85975
   A23        1.91090   0.00123   0.00000  -0.00049  -0.00050   1.91040
   A24        1.89600   0.00147   0.00000   0.01157   0.01165   1.90766
   A25        1.91429   0.00013   0.00000  -0.00380  -0.00387   1.91042
   A26        1.91558  -0.00024   0.00000  -0.00523  -0.00533   1.91025
   A27        1.95645  -0.00196   0.00000  -0.00221  -0.00220   1.95425
   A28        1.89429  -0.00205   0.00000  -0.03037  -0.03059   1.86370
   A29        1.89526   0.00179   0.00000   0.01752   0.01751   1.91277
   A30        1.88674   0.00234   0.00000   0.02350   0.02350   1.91023
   A31        1.92682   0.00304   0.00000   0.01765   0.01748   1.94430
   A32        1.91244   0.00348   0.00000   0.02244   0.02219   1.93463
   A33        1.92549   0.00336   0.00000   0.01999   0.01980   1.94529
   A34        1.89714  -0.00320   0.00000  -0.01859  -0.01880   1.87833
   A35        1.90525  -0.00364   0.00000  -0.02459  -0.02471   1.88055
   A36        1.89619  -0.00326   0.00000  -0.01820  -0.01846   1.87773
    D1       -3.13872  -0.00006   0.00000   0.00502   0.00498  -3.13374
    D2       -1.08667  -0.00023   0.00000  -0.00859  -0.00861  -1.09528
    D3        1.02684  -0.00019   0.00000  -0.00070  -0.00071   1.02613
    D4        1.03707   0.00032   0.00000   0.01127   0.01129   1.04836
    D5        3.08912   0.00015   0.00000  -0.00235  -0.00230   3.08682
    D6       -1.08055   0.00019   0.00000   0.00555   0.00560  -1.07496
    D7       -1.04968   0.00007   0.00000   0.00716   0.00713  -1.04255
    D8        1.00237  -0.00010   0.00000  -0.00645  -0.00647   0.99590
    D9        3.11588  -0.00006   0.00000   0.00144   0.00144   3.11732
   D10        0.93428  -0.00074   0.00000  -0.00781  -0.00780   0.92648
   D11       -1.11478   0.00016   0.00000   0.01042   0.01045  -1.10433
   D12        3.02532   0.00031   0.00000   0.01571   0.01570   3.04102
   D13       -1.17242  -0.00180   0.00000  -0.02584  -0.02579  -1.19821
   D14        3.06171  -0.00090   0.00000  -0.00761  -0.00753   3.05417
   D15        0.91862  -0.00075   0.00000  -0.00232  -0.00229   0.91633
   D16        3.03103   0.00077   0.00000   0.01690   0.01685   3.04788
   D17        0.98197   0.00168   0.00000   0.03514   0.03510   1.01708
   D18       -1.16112   0.00182   0.00000   0.04043   0.04035  -1.12077
   D19       -1.00916  -0.00016   0.00000   0.00272   0.00275  -1.00641
   D20       -3.04428   0.00000   0.00000   0.01217   0.01215  -3.03213
   D21        1.13616  -0.00058   0.00000  -0.00612  -0.00610   1.13006
   D22        1.09365   0.00042   0.00000   0.02091   0.02089   1.11455
   D23       -0.94148   0.00057   0.00000   0.03036   0.03030  -0.91118
   D24       -3.04422   0.00000   0.00000   0.01206   0.01205  -3.03217
   D25        3.12892   0.00026   0.00000   0.01140   0.01144   3.14035
   D26        1.09379   0.00041   0.00000   0.02085   0.02084   1.11463
   D27       -1.00896  -0.00016   0.00000   0.00256   0.00259  -1.00637
   D28        0.91852  -0.00075   0.00000  -0.00226  -0.00223   0.91629
   D29       -1.16112   0.00182   0.00000   0.04046   0.04038  -1.12074
   D30        3.02523   0.00031   0.00000   0.01582   0.01580   3.04103
   D31        3.06178  -0.00090   0.00000  -0.00771  -0.00763   3.05414
   D32        0.98214   0.00167   0.00000   0.03501   0.03498   1.01712
   D33       -1.11470   0.00016   0.00000   0.01037   0.01040  -1.10430
   D34       -1.17246  -0.00180   0.00000  -0.02586  -0.02581  -1.19827
   D35        3.03109   0.00077   0.00000   0.01686   0.01680   3.04789
   D36        0.93426  -0.00074   0.00000  -0.00778  -0.00778   0.92648
   D37        1.02679  -0.00019   0.00000  -0.00069  -0.00071   1.02608
   D38        3.11569  -0.00006   0.00000   0.00147   0.00147   3.11717
   D39       -1.08057   0.00019   0.00000   0.00549   0.00554  -1.07503
   D40       -3.13870  -0.00006   0.00000   0.00503   0.00499  -3.13371
   D41       -1.04980   0.00007   0.00000   0.00720   0.00718  -1.04262
   D42        1.03712   0.00032   0.00000   0.01122   0.01125   1.04836
   D43       -1.08676  -0.00023   0.00000  -0.00856  -0.00858  -1.09534
   D44        1.00214  -0.00010   0.00000  -0.00639  -0.00640   0.99574
   D45        3.08906   0.00015   0.00000  -0.00237  -0.00233   3.08673
         Item               Value     Threshold  Converged?
 Maximum Force            0.010029     0.000450     NO 
 RMS     Force            0.003158     0.000300     NO 
 Maximum Displacement     0.127037     0.001800     NO 
 RMS     Displacement     0.033762     0.001200     NO 
 Predicted change in Energy=-2.182694D-03
 GradGradGradGradGradGradGradGradGradGradGradGradGradGradGradGradGradGrad

 Leave Link  103 at Mon Sep 14 19:12:23 2015, MaxMem=  402653184 cpu:       0.1
 (Enter /share/apps/g09/l202.exe)
                          Input orientation:                          
 ---------------------------------------------------------------------
 Center     Atomic      Atomic             Coordinates (Angstroms)
 Number     Number       Type             X           Y           Z
 ---------------------------------------------------------------------
      1          6           0        1.980393   -2.549442   -0.580322
      2          1           0        2.147743   -2.830881    0.467368
      3          1           0        2.817976   -1.912703   -0.893656
      4          1           0        2.018683   -3.467543   -1.181403
      5          6           0        0.636329   -1.835950   -0.759729
      6          1           0        0.494633   -1.573137   -1.826958
      7          1           0       -0.187172   -2.526328   -0.488000
      8          6           0        0.541999   -0.567822    0.095077
      9          1           0        1.420957    0.078273   -0.108969
     10          1           0        0.593123   -0.840980    1.167260
     11          6           0       -0.733589    0.241612   -0.169416
     12          1           0       -0.784050    0.515852   -1.241351
     13          1           0       -0.673883    1.193492    0.398059
     14          6           0       -2.011458   -0.505090    0.227104
     15          1           0       -1.922911   -0.858392    1.273762
     16          1           0       -2.123475   -1.407421   -0.406878
     17          6           0       -3.257300    0.375609    0.085730
     18          1           0       -3.378240    0.736056   -0.944021
     19          1           0       -4.163872   -0.184510    0.350463
     20          1           0       -3.205587    1.253003    0.743480
 ---------------------------------------------------------------------
                    Distance matrix (angstroms):
                    1          2          3          4          5
     1  C    0.000000
     2  H    1.097665   0.000000
     3  H    1.097798   1.773316   0.000000
     4  H    1.098032   1.772129   1.771776   0.000000
     5  C    1.532242   2.186327   2.187101   2.179635   0.000000
     6  H    2.171349   3.094935   2.526713   2.515600   1.108208
     7  H    2.169653   2.541123   3.093866   2.496495   1.108427
     8  C    2.540070   2.799723   2.822476   3.495480   1.532234
     9  H    2.727641   3.053450   2.555657   3.752360   2.168728
    10  H    2.810231   2.620381   3.216510   3.800957   2.169129
    11  C    3.914655   4.260021   4.216540   4.728314   2.557618
    12  H    4.180327   4.766105   4.358138   4.870970   2.789339
    13  H    4.691690   4.915481   4.848717   5.609800   3.497806
    14  C    4.556993   4.771371   5.153728   5.196350   3.123428
    15  H    4.640372   4.594693   5.318391   5.326506   3.411805
    16  H    4.263335   4.586268   4.991012   4.690572   2.815077
    17  C    6.035974   6.296167   6.565406   6.649169   4.556988
    18  H    6.296167   6.726927   6.738809   6.844952   4.771367
    19  H    6.649154   6.844957   7.299362   7.165815   5.196317
    20  H    6.565472   6.738879   6.998944   7.299433   5.153793
                    6          7          8          9         10
     6  H    0.000000
     7  H    1.779393   0.000000
     8  C    2.169590   2.169658   0.000000
     9  H    2.556700   3.084427   1.109793   0.000000
    10  H    3.084006   2.487799   1.107612   1.777384   0.000000
    11  C    2.747597   2.839288   1.533710   2.161574   2.172297
    12  H    2.518301   3.190401   2.172279   2.517105   3.088528
    13  H    3.737695   3.854743   2.161572   2.426756   2.517151
    14  C    3.411801   2.815102   2.557638   3.497818   2.789365
    15  H    3.996229   2.983053   2.747637   3.737745   2.518347
    16  H    2.983048   2.237812   2.839303   3.854742   3.190403
    17  C    4.640365   4.263343   3.914694   4.691738   4.180378
    18  H    4.594681   4.586286   4.260058   4.915514   4.766159
    19  H    5.326454   4.690552   4.728359   5.609853   4.871049
    20  H    5.318444   4.991063   4.216661   4.848872   4.358274
                   11         12         13         14         15
    11  C    0.000000
    12  H    1.107610   0.000000
    13  H    1.109805   1.777357   0.000000
    14  C    1.532234   2.169151   2.168758   0.000000
    15  H    2.169621   3.084047   2.556785   1.108222   0.000000
    16  H    2.169673   2.487848   3.084475   1.108460   1.779385
    17  C    2.540113   2.810299   2.727732   1.532234   2.171353
    18  H    2.799762   2.620442   3.053517   2.186337   3.094965
    19  H    3.495525   3.800997   3.752489   2.179650   2.515652
    20  H    2.822599   3.216642   2.555852   2.187116   2.526746
                   16         17         18         19         20
    16  H    0.000000
    17  C    2.169659   0.000000
    18  H    2.541152   1.097696   0.000000
    19  H    2.496457   1.098039   1.772103   0.000000
    20  H    3.093888   1.097784   1.773331   1.771784   0.000000
 Stoichiometry    C6H14
 Framework group  C1[X(C6H14)]
 Deg. of freedom    54
 Full point group                 C1      NOp   1
 Largest Abelian subgroup         C1      NOp   1
 Largest concise Abelian subgroup C1      NOp   1
                         Standard orientation:                         
 ---------------------------------------------------------------------
 Center     Atomic      Atomic             Coordinates (Angstroms)
 Number     Number       Type             X           Y           Z
 ---------------------------------------------------------------------
      1          6           0        3.017105   -0.318493    0.072651
      2          1           0        3.156957   -0.271816    1.160369
      3          1           0        3.480548    0.576254   -0.363021
      4          1           0        3.570621   -1.191983   -0.296551
      5          6           0        1.533293   -0.417320   -0.296535
      6          1           0        1.427234   -0.470766   -1.398361
      7          1           0        1.113333   -1.358461    0.111507
      8          6           0        0.729513    0.773320    0.236434
      9          1           0        1.209744    1.717581   -0.094310
     10          1           0        0.761295    0.773953    1.343590
     11          6           0       -0.729482    0.773331   -0.236428
     12          1           0       -0.761240    0.773992   -1.343582
     13          1           0       -1.209674    1.717639    0.094275
     14          6           0       -1.533312   -0.417275    0.296540
     15          1           0       -1.427252   -0.470769    1.398378
     16          1           0       -1.113342   -1.358458   -0.111483
     17          6           0       -3.017119   -0.318485   -0.072645
     18          1           0       -3.156964   -0.271792   -1.160394
     19          1           0       -3.570617   -1.192044    0.296444
     20          1           0       -3.480634    0.576200    0.363040
 ---------------------------------------------------------------------
 Rotational constants (GHZ):     10.0425168      1.3196858      1.2491951
 Leave Link  202 at Mon Sep 14 19:12:23 2015, MaxMem=  402653184 cpu:       0.0
 (Enter /share/apps/g09/l301.exe)
 Standard basis: VSTO-6G (5D, 7F)
 Ernie: Thresh=  0.10000D-02 Tol=  0.10000D-05 Strict=F.
  NNHCO=     0 NNPyr=     0 NCTC=     0               EPep=         0.000000000
    EC=       125.346291390  ECS=         3.215668401   EG=         0.308651025
   EHC=         0.000451515  EAt=       -31.187935768  AtH=         2.796400831
 EPDDG=         0.000000000  ECC=       128.871062331 EAtT=        33.984336599
 There are    38 symmetry adapted basis functions of A   symmetry.
 Integral buffers will be    131072 words long.
 Regular integral format.
 Two-electron integral symmetry is turned off.
    38 basis functions,   228 primitive gaussians,    38 cartesian basis functions
    19 alpha electrons       19 beta electrons
       nuclear repulsion energy       162.8553989297 Hartrees.
 IExCor=    0 DFT=F Ex=HF Corr=None ExCW=0 ScaHFX=  1.000000
 ScaDFX=  1.000000  1.000000  1.000000  1.000000 ScalE2=  1.000000  1.000000
 IRadAn=      0 IRanWt=     -1 IRanGd=            0 ICorTp=0
 Leave Link  301 at Mon Sep 14 19:12:28 2015, MaxMem=  402653184 cpu:       0.1
 (Enter /share/apps/g09/l302.exe)
 Do NDO integrals.
 NPDir=0 NMtPBC=     1 NCelOv=     1 NCel=       1 NClECP=     1 NCelD=      1
         NCelK=      1 NCelE2=     1 NClLst=     1 CellRange=     0.0.
 One-electron integrals computed using PRISM.
 NBasis=    38 RedAO= F  NBF=    38
 NBsUse=    38 1.00D-04 NBFU=    38
 Leave Link  302 at Mon Sep 14 19:12:29 2015, MaxMem=  402653184 cpu:       0.1
 (Enter /share/apps/g09/l303.exe)
 DipDrv:  MaxL=1.
 Leave Link  303 at Mon Sep 14 19:12:30 2015, MaxMem=  402653184 cpu:       0.0
 (Enter /share/apps/g09/l401.exe)
 Initial guess read from the read-write file.
 B after Tr=     0.000000    0.000000    0.000000
         Rot=    1.000000    0.000000    0.000000    0.000000 Ang=   0.00 deg.
 Guess basis will be translated and rotated to current coordinates.
 Initial guess orbital symmetries:
       Occupied  (A) (A) (A) (A) (A) (A) (A) (A) (A) (A) (A) (A)
                 (A) (A) (A) (A) (A) (A) (A)
       Virtual   (A) (A) (A) (A) (A) (A) (A) (A) (A) (A) (A) (A)
                 (A) (A) (A) (A) (A) (A) (A)
 The electronic state of the initial guess is 1-A.
 Leave Link  401 at Mon Sep 14 19:12:31 2015, MaxMem=  402653184 cpu:       0.2
 (Enter /share/apps/g09/l502.exe)
 Closed shell SCF:
 Requested convergence on RMS density matrix=1.00D-08 within 128 cycles.
 Requested convergence on MAX density matrix=1.00D-06.
 Requested convergence on             energy=1.00D-06.
 No special actions if energy rises.
 Using DIIS extrapolation, IDIIS=  1040.
 Overlap will be assumed to be unity.
 Two-electron integral symmetry not used.
 Keep J ints in memory in canonical form, NReq=884654.
 IEnd=       81865 IEndB=       81865 NGot=   402653184 MDV=   402586639
 LenX=   402586639 LenY=   402584754
 Symmetry not used in FoFDir.
 MinBra= 0 MaxBra= 1 Meth=40.
 IRaf=       0 NMat=   1 IRICut=       1 DoRegI=T DoRafI=F ISym2E= 0 JSym2E=0.

 Cycle   1  Pass 1  IDiag  1:
 E=  6.82447663385759    
 DIIS: error= 7.82D-02 at cycle   1 NSaved=   1.
 NSaved= 1 IEnMin= 1 EnMin=  6.82447663385759     IErMin= 1 ErrMin= 7.82D-02
 ErrMax= 7.82D-02 EMaxC= 1.00D-01 BMatC= 3.94D-01 BMatP= 3.94D-01
 IDIUse=3 WtCom= 2.18D-01 WtEn= 7.82D-01
 Coeff-Com:  0.100D+01
 Coeff-En:   0.100D+01
 Coeff:      0.100D+01
 GapD=    2.000 DampG=2.000 DampE=0.500 DampFc=1.0000 IDamp=-1.
 RMSDP=7.29D-02 MaxDP=4.57D-01              OVMax= 0.00D+00

 Cycle   2  Pass 1  IDiag  1:
 E=  2.29262953383960     Delta-E=       -4.531847100018 Rises=F Damp=F
 DIIS: error= 5.02D-02 at cycle   2 NSaved=   2.
 NSaved= 2 IEnMin= 2 EnMin=  2.29262953383960     IErMin= 2 ErrMin= 5.02D-02
 ErrMax= 5.02D-02 EMaxC= 1.00D-01 BMatC= 2.00D-01 BMatP= 3.94D-01
 IDIUse=3 WtCom= 4.98D-01 WtEn= 5.02D-01
 Coeff-Com: -0.584D-01 0.106D+01
 Coeff-En:   0.000D+00 0.100D+01
 Coeff:     -0.291D-01 0.103D+01
 RMSDP=5.10D-02 MaxDP=3.68D-01 DE=-4.53D+00 OVMax= 0.00D+00

 Cycle   3  Pass 1  IDiag  1:
 E= 0.268530889933714     Delta-E=       -2.024098643906 Rises=F Damp=F
 DIIS: error= 4.07D-02 at cycle   3 NSaved=   3.
 NSaved= 3 IEnMin= 3 EnMin= 0.268530889933714     IErMin= 3 ErrMin= 4.07D-02
 ErrMax= 4.07D-02 EMaxC= 1.00D-01 BMatC= 6.11D-02 BMatP= 2.00D-01
 IDIUse=3 WtCom= 5.93D-01 WtEn= 4.07D-01
 Coeff-Com:  0.159D+00-0.736D+00 0.158D+01
 Coeff-En:   0.000D+00 0.000D+00 0.100D+01
 Coeff:      0.943D-01-0.436D+00 0.134D+01
 RMSDP=1.72D-02 MaxDP=1.38D-01 DE=-2.02D+00 OVMax= 0.00D+00

 Cycle   4  Pass 1  IDiag  1:
 E=-0.269714695031098E-01 Delta-E=       -0.295502359437 Rises=F Damp=F
 DIIS: error= 1.54D-02 at cycle   4 NSaved=   4.
 NSaved= 4 IEnMin= 4 EnMin=-0.269714695031098E-01 IErMin= 4 ErrMin= 1.54D-02
 ErrMax= 1.54D-02 EMaxC= 1.00D-01 BMatC= 5.21D-03 BMatP= 6.11D-02
 IDIUse=3 WtCom= 8.46D-01 WtEn= 1.54D-01
 Coeff-Com: -0.356D-02 0.619D-01-0.427D+00 0.137D+01
 Coeff-En:   0.000D+00 0.000D+00 0.000D+00 0.100D+01
 Coeff:     -0.301D-02 0.524D-01-0.362D+00 0.131D+01
 RMSDP=5.63D-03 MaxDP=6.44D-02 DE=-2.96D-01 OVMax= 0.00D+00

 Cycle   5  Pass 1  IDiag  3:
 E=-0.534709860060048E-01 Delta-E=       -0.026499516503 Rises=F Damp=F
 DIIS: error= 4.25D-03 at cycle   5 NSaved=   5.
 NSaved= 5 IEnMin= 5 EnMin=-0.534709860060048E-01 IErMin= 5 ErrMin= 4.25D-03
 ErrMax= 4.25D-03 EMaxC= 1.00D-01 BMatC= 4.15D-04 BMatP= 5.21D-03
 IDIUse=3 WtCom= 9.57D-01 WtEn= 4.25D-02
 Coeff-Com: -0.682D-03-0.330D-02 0.141D+00-0.753D+00 0.162D+01
 Coeff-En:   0.000D+00 0.000D+00 0.000D+00 0.000D+00 0.100D+01
 Coeff:     -0.653D-03-0.316D-02 0.135D+00-0.721D+00 0.159D+01
 Gap=     0.557 Goal=   None    Shift=    0.000
 RMSDP=1.89D-03 MaxDP=2.22D-02 DE=-2.65D-02 OVMax= 0.00D+00

 Cycle   6  Pass 1  IDiag  3:
 E=-0.559862754206506E-01 Delta-E=       -0.002515289415 Rises=F Damp=F
 DIIS: error= 8.83D-04 at cycle   6 NSaved=   6.
 NSaved= 6 IEnMin= 6 EnMin=-0.559862754206506E-01 IErMin= 6 ErrMin= 8.83D-04
 ErrMax= 8.83D-04 EMaxC= 1.00D-01 BMatC= 3.63D-05 BMatP= 4.15D-04
 IDIUse=3 WtCom= 9.91D-01 WtEn= 8.83D-03
 Coeff-Com:  0.510D-03 0.275D-02-0.713D-01 0.386D+00-0.105D+01 0.174D+01
 Coeff-En:   0.000D+00 0.000D+00 0.000D+00 0.000D+00 0.000D+00 0.100D+01
 Coeff:      0.506D-03 0.272D-02-0.707D-01 0.383D+00-0.104D+01 0.173D+01
 Gap=     0.557 Goal=   None    Shift=    0.000
 RMSDP=6.80D-04 MaxDP=7.27D-03 DE=-2.52D-03 OVMax= 0.00D+00

 Cycle   7  Pass 1  IDiag  3:
 E=-0.562430525930608E-01 Delta-E=       -0.000256777172 Rises=F Damp=F
 DIIS: error= 2.32D-04 at cycle   7 NSaved=   7.
 NSaved= 7 IEnMin= 7 EnMin=-0.562430525930608E-01 IErMin= 7 ErrMin= 2.32D-04
 ErrMax= 2.32D-04 EMaxC= 1.00D-01 BMatC= 2.68D-06 BMatP= 3.63D-05
 IDIUse=3 WtCom= 9.98D-01 WtEn= 2.32D-03
 Coeff-Com: -0.613D-03-0.554D-03 0.389D-01-0.218D+00 0.628D+00-0.123D+01
 Coeff-Com:  0.179D+01
 Coeff-En:   0.000D+00 0.000D+00 0.000D+00 0.000D+00 0.000D+00 0.000D+00
 Coeff-En:   0.100D+01
 Coeff:     -0.611D-03-0.553D-03 0.388D-01-0.217D+00 0.627D+00-0.123D+01
 Coeff:      0.179D+01
 Gap=     0.557 Goal=   None    Shift=    0.000
 RMSDP=1.97D-04 MaxDP=1.80D-03 DE=-2.57D-04 OVMax= 0.00D+00

 Cycle   8  Pass 1  IDiag  3:
 E=-0.562629626548130E-01 Delta-E=       -0.000019910062 Rises=F Damp=F
 DIIS: error= 6.32D-05 at cycle   8 NSaved=   8.
 NSaved= 8 IEnMin= 8 EnMin=-0.562629626548130E-01 IErMin= 8 ErrMin= 6.32D-05
 ErrMax= 6.32D-05 EMaxC= 1.00D-01 BMatC= 1.64D-07 BMatP= 2.68D-06
 IDIUse=1 WtCom= 1.00D+00 WtEn= 0.00D+00
 Coeff-Com:  0.224D-03 0.296D-03-0.112D-01 0.605D-01-0.181D+00 0.394D+00
 Coeff-Com: -0.791D+00 0.153D+01
 Coeff:      0.224D-03 0.296D-03-0.112D-01 0.605D-01-0.181D+00 0.394D+00
 Coeff:     -0.791D+00 0.153D+01
 Gap=     0.557 Goal=   None    Shift=    0.000
 RMSDP=4.76D-05 MaxDP=4.41D-04 DE=-1.99D-05 OVMax= 0.00D+00

 Cycle   9  Pass 1  IDiag  3:
 E=-0.562641094671790E-01 Delta-E=       -0.000001146812 Rises=F Damp=F
 DIIS: error= 1.18D-05 at cycle   9 NSaved=   9.
 NSaved= 9 IEnMin= 9 EnMin=-0.562641094671790E-01 IErMin= 9 ErrMin= 1.18D-05
 ErrMax= 1.18D-05 EMaxC= 1.00D-01 BMatC= 1.03D-08 BMatP= 1.64D-07
 IDIUse=1 WtCom= 1.00D+00 WtEn= 0.00D+00
 Coeff-Com: -0.759D-04-0.572D-04 0.180D-02-0.921D-02 0.310D-01-0.812D-01
 Coeff-Com:  0.214D+00-0.630D+00 0.147D+01
 Coeff:     -0.759D-04-0.572D-04 0.180D-02-0.921D-02 0.310D-01-0.812D-01
 Coeff:      0.214D+00-0.630D+00 0.147D+01
 Gap=     0.557 Goal=   None    Shift=    0.000
 RMSDP=1.03D-05 MaxDP=9.96D-05 DE=-1.15D-06 OVMax= 0.00D+00

 Cycle  10  Pass 1  IDiag  3:
 E=-0.562641736345881E-01 Delta-E=       -0.000000064167 Rises=F Damp=F
 DIIS: error= 3.09D-06 at cycle  10 NSaved=  10.
 NSaved=10 IEnMin=10 EnMin=-0.562641736345881E-01 IErMin=10 ErrMin= 3.09D-06
 ErrMax= 3.09D-06 EMaxC= 1.00D-01 BMatC= 6.13D-10 BMatP= 1.03D-08
 IDIUse=1 WtCom= 1.00D+00 WtEn= 0.00D+00
 Coeff-Com:  0.183D-04 0.108D-04-0.548D-04 0.117D-03-0.186D-02 0.987D-02
 Coeff-Com: -0.390D-01 0.152D+00-0.584D+00 0.146D+01
 Coeff:      0.183D-04 0.108D-04-0.548D-04 0.117D-03-0.186D-02 0.987D-02
 Coeff:     -0.390D-01 0.152D+00-0.584D+00 0.146D+01
 Gap=     0.557 Goal=   None    Shift=    0.000
 RMSDP=2.59D-06 MaxDP=2.30D-05 DE=-6.42D-08 OVMax= 0.00D+00

 Cycle  11  Pass 1  IDiag  3:
 E=-0.562641772733912E-01 Delta-E=       -0.000000003639 Rises=F Damp=F
 DIIS: error= 6.14D-07 at cycle  11 NSaved=  11.
 NSaved=11 IEnMin=11 EnMin=-0.562641772733912E-01 IErMin=11 ErrMin= 6.14D-07
 ErrMax= 6.14D-07 EMaxC= 1.00D-01 BMatC= 1.91D-11 BMatP= 6.13D-10
 IDIUse=1 WtCom= 1.00D+00 WtEn= 0.00D+00
 Coeff-Com: -0.563D-05-0.280D-05-0.679D-05 0.552D-04 0.317D-03-0.242D-02
 Coeff-Com:  0.101D-01-0.400D-01 0.173D+00-0.548D+00 0.141D+01
 Coeff:     -0.563D-05-0.280D-05-0.679D-05 0.552D-04 0.317D-03-0.242D-02
 Coeff:      0.101D-01-0.400D-01 0.173D+00-0.548D+00 0.141D+01
 Gap=     0.557 Goal=   None    Shift=    0.000
 RMSDP=3.90D-07 MaxDP=3.69D-06 DE=-3.64D-09 OVMax= 0.00D+00

 Cycle  12  Pass 1  IDiag  3:
 E=-0.562641773709061E-01 Delta-E=       -0.000000000098 Rises=F Damp=F
 DIIS: error= 1.28D-07 at cycle  12 NSaved=  12.
 NSaved=12 IEnMin=12 EnMin=-0.562641773709061E-01 IErMin=12 ErrMin= 1.28D-07
 ErrMax= 1.28D-07 EMaxC= 1.00D-01 BMatC= 8.37D-13 BMatP= 1.91D-11
 IDIUse=1 WtCom= 1.00D+00 WtEn= 0.00D+00
 Coeff-Com:  0.750D-06 0.745D-06-0.397D-06 0.131D-04-0.103D-03 0.412D-03
 Coeff-Com: -0.131D-02 0.449D-02-0.212D-01 0.825D-01-0.360D+00 0.130D+01
 Coeff:      0.750D-06 0.745D-06-0.397D-06 0.131D-04-0.103D-03 0.412D-03
 Coeff:     -0.131D-02 0.449D-02-0.212D-01 0.825D-01-0.360D+00 0.130D+01
 Gap=     0.557 Goal=   None    Shift=    0.000
 RMSDP=7.68D-08 MaxDP=7.51D-07 DE=-9.75D-11 OVMax= 0.00D+00

 Cycle  13  Pass 1  IDiag  3:
 E=-0.562641773751693E-01 Delta-E=       -0.000000000004 Rises=F Damp=F
 DIIS: error= 3.69D-08 at cycle  13 NSaved=  13.
 NSaved=13 IEnMin=13 EnMin=-0.562641773751693E-01 IErMin=13 ErrMin= 3.69D-08
 ErrMax= 3.69D-08 EMaxC= 1.00D-01 BMatC= 6.07D-14 BMatP= 8.37D-13
 IDIUse=1 WtCom= 1.00D+00 WtEn= 0.00D+00
 Coeff-Com: -0.462D-07-0.146D-06-0.127D-05-0.627D-06 0.109D-04-0.316D-04
 Coeff-Com:  0.431D-04-0.555D-04 0.152D-02-0.117D-01 0.873D-01-0.550D+00
 Coeff-Com:  0.147D+01
 Coeff:     -0.462D-07-0.146D-06-0.127D-05-0.627D-06 0.109D-04-0.316D-04
 Coeff:      0.431D-04-0.555D-04 0.152D-02-0.117D-01 0.873D-01-0.550D+00
 Coeff:      0.147D+01
 Gap=     0.557 Goal=   None    Shift=    0.000
 RMSDP=2.30D-08 MaxDP=2.48D-07 DE=-4.26D-12 OVMax= 0.00D+00

 Cycle  14  Pass 1  IDiag  3:
 E=-0.562641773754535E-01 Delta-E=        0.000000000000 Rises=F Damp=F
 DIIS: error= 1.30D-08 at cycle  14 NSaved=  14.
 NSaved=14 IEnMin=14 EnMin=-0.562641773754535E-01 IErMin=14 ErrMin= 1.30D-08
 ErrMax= 1.30D-08 EMaxC= 1.00D-01 BMatC= 7.30D-15 BMatP= 6.07D-14
 IDIUse=1 WtCom= 1.00D+00 WtEn= 0.00D+00
 Coeff-Com:  0.105D-07 0.174D-07 0.530D-07 0.523D-05-0.183D-04 0.314D-04
 Coeff-Com: -0.804D-05-0.141D-03 0.195D-03 0.272D-02-0.365D-01 0.298D+00
 Coeff-Com: -0.105D+01 0.178D+01
 Coeff:      0.105D-07 0.174D-07 0.530D-07 0.523D-05-0.183D-04 0.314D-04
 Coeff:     -0.804D-05-0.141D-03 0.195D-03 0.272D-02-0.365D-01 0.298D+00
 Coeff:     -0.105D+01 0.178D+01
 Gap=     0.557 Goal=   None    Shift=    0.000
 RMSDP=1.00D-08 MaxDP=1.06D-07 DE=-2.84D-13 OVMax= 0.00D+00

 Cycle  15  Pass 1  IDiag  3:
 E=-0.562641773757662E-01 Delta-E=        0.000000000000 Rises=F Damp=F
 DIIS: error= 4.69D-09 at cycle  15 NSaved=  15.
 NSaved=15 IEnMin=15 EnMin=-0.562641773757662E-01 IErMin=15 ErrMin= 4.69D-09
 ErrMax= 4.69D-09 EMaxC= 1.00D-01 BMatC= 1.01D-15 BMatP= 7.30D-15
 IDIUse=1 WtCom= 1.00D+00 WtEn= 0.00D+00
 Coeff-Com: -0.443D-08 0.735D-08 0.443D-06-0.561D-05 0.171D-04-0.281D-04
 Coeff-Com:  0.126D-04 0.992D-04-0.394D-03-0.132D-03 0.138D-01-0.142D+00
 Coeff-Com:  0.575D+00-0.137D+01 0.193D+01
 Coeff:     -0.443D-08 0.735D-08 0.443D-06-0.561D-05 0.171D-04-0.281D-04
 Coeff:      0.126D-04 0.992D-04-0.394D-03-0.132D-03 0.138D-01-0.142D+00
 Coeff:      0.575D+00-0.137D+01 0.193D+01
 Gap=     0.557 Goal=   None    Shift=    0.000
 RMSDP=4.85D-09 MaxDP=4.89D-08 DE=-3.13D-13 OVMax= 0.00D+00

 Cycle  16  Pass 2  IDiag  1:
 RMSDP=4.85D-09 MaxDP=4.89D-08 DE=-3.13D-13 OVMax= 0.00D+00

 SCF Done:  E(RPM6) = -0.562641773758E-01 A.U. after   16 cycles
             Convg  =    0.4852D-08             -V/T =  0.9990
 KE=-5.609154771405D+01 PE=-2.467268491251D+02 EE= 1.399067337320D+02
 Leave Link  502 at Mon Sep 14 19:12:39 2015, MaxMem=  402653184 cpu:       1.6
 (Enter /share/apps/g09/l701.exe)
 Compute integral first derivatives.
 ... and contract with generalized density number  0.
 Leave Link  701 at Mon Sep 14 19:12:39 2015, MaxMem=  402653184 cpu:       0.1
 (Enter /share/apps/g09/l702.exe)
 L702 exits ... SP integral derivatives will be done elsewhere.
 Leave Link  702 at Mon Sep 14 19:12:41 2015, MaxMem=  402653184 cpu:       0.1
 (Enter /share/apps/g09/l703.exe)
 Compute integral first derivatives, UseDBF=F ICtDFT=           0.
 Integral derivatives from FoFDir, PRISM(SPDF).
 Calling FoFJK, ICntrl=      2127 FMM=F ISym2X=0 I1Cent= 0 IOpClX= 0 NMat=1 NMatS=1 NMatT=0.
 FoFCou: FMM=F IPFlag=           0 FMFlag=      100000 FMFlg1=         800
         NFxFlg=           0 DoJE=F BraDBF=F KetDBF=F FulRan=T
         Omega=  0.000000  0.000000  1.000000  0.000000  0.000000 ICntrl=    2127 IOpCl=  0
         NMat0=    1 NMatS0=    1 NMatT0=    0 NMatD0=    1 NMtDS0=    0 NMtDT0=    0
         I1Cent=           0 NGrid=           0.
 Symmetry not used in FoFCou.
 Leave Link  703 at Mon Sep 14 19:12:44 2015, MaxMem=  402653184 cpu:       0.0
 (Enter /share/apps/g09/l716.exe)
 Dipole        =-1.53502169D-07 1.05488951D-02-4.36970461D-05
 ***** Axes restored to original set *****
 -------------------------------------------------------------------
 Center     Atomic                   Forces (Hartrees/Bohr)
 Number     Number              X              Y              Z
 -------------------------------------------------------------------
      1        6          -0.002061786    0.000912696   -0.000434197
      2        1           0.000151868    0.000323871   -0.001318738
      3        1          -0.000868462   -0.000963631    0.000636684
      4        1           0.000273167    0.001164644    0.000918180
      5        6           0.002296627   -0.001927858   -0.000687953
      6        1          -0.000483006   -0.001153937    0.000309531
      7        1           0.000241066    0.000075986   -0.001335760
      8        6           0.000921257    0.000765144    0.001294403
      9        1          -0.000363417   -0.000629958    0.001313810
     10        1           0.001022032    0.000637311   -0.000126460
     11        6           0.000423999    0.001537482   -0.000767420
     12        1          -0.000009166    0.001091362    0.000518474
     13        1          -0.000098238   -0.000155923   -0.001490689
     14        6          -0.002913643    0.000855979    0.000447158
     15        1          -0.000665015   -0.000797376   -0.000760308
     16        1          -0.000311584   -0.000186536    0.001313391
     17        6           0.001721476   -0.001480778    0.000282489
     18        1          -0.000052163   -0.000164019    0.001368133
     19        1           0.001021742    0.001032194   -0.000414746
     20        1          -0.000246758   -0.000936652   -0.001065980
 -------------------------------------------------------------------
 Cartesian Forces:  Max     0.002913643 RMS     0.001021300
 Leave Link  716 at Mon Sep 14 19:12:47 2015, MaxMem=  402653184 cpu:       0.1
 (Enter /share/apps/g09/l103.exe)

 GradGradGradGradGradGradGradGradGradGradGradGradGradGradGradGradGradGrad
 Berny optimization.
 Using GEDIIS/GDIIS optimizer.
 Internal  Forces:  Max     0.002893589 RMS     0.000768355
 Search for a local minimum.
 Step number   2 out of a maximum of  110
 All quantities printed in internal units (Hartrees-Bohrs-Radians)
 RMS Force = .76836D-03 SwitMx=.10000D-02 MixMth= 2
 Mixed Optimization -- En-DIIS/RFO-DIIS
 Update second derivatives using D2CorX and points    1    2
 DE= -2.38D-03 DEPred=-2.18D-03 R= 1.09D+00
 SS=  1.41D+00  RLast= 1.73D-01 DXNew= 5.0454D-01 5.1806D-01
 Trust test= 1.09D+00 RLast= 1.73D-01 DXMaxT set to 5.05D-01
 Use linear search instead of GDIIS.
     Eigenvalues ---    0.00289   0.00297   0.00298   0.00413   0.00414
     Eigenvalues ---    0.03436   0.03481   0.03592   0.03592   0.04447
     Eigenvalues ---    0.04776   0.04834   0.04846   0.05470   0.05475
     Eigenvalues ---    0.05549   0.05550   0.08214   0.08355   0.08369
     Eigenvalues ---    0.08520   0.12115   0.12116   0.12231   0.12238
     Eigenvalues ---    0.15515   0.16000   0.16000   0.16000   0.16000
     Eigenvalues ---    0.16003   0.20817   0.21899   0.21916   0.22007
[...]
 ! D10   D(1,5,8,9)             57.8204         -DE/DX =    0.0                 !
 ! D11   D(1,5,8,10)           -57.6174         -DE/DX =    0.0                 !
 ! D12   D(1,5,8,11)           179.4619         -DE/DX =    0.0                 !
 ! D13   D(6,5,8,9)            -64.2694         -DE/DX =    0.0                 !
 ! D14   D(6,5,8,10)          -179.7072         -DE/DX =    0.0                 !
 ! D15   D(6,5,8,11)            57.3721         -DE/DX =    0.0                 !
 ! D16   D(7,5,8,9)            179.878          -DE/DX =    0.0                 !
 ! D17   D(7,5,8,10)            64.4402         -DE/DX =    0.0                 !
 ! D18   D(7,5,8,11)           -58.4805         -DE/DX =    0.0                 !
 ! D19   D(5,8,11,12)          -49.718          -DE/DX =    0.0                 !
 ! D20   D(5,8,11,13)         -165.1072         -DE/DX =    0.0                 !
 ! D21   D(5,8,11,14)           73.1049         -DE/DX =    0.0                 !
 ! D22   D(9,8,11,12)           72.0699         -DE/DX =    0.0                 !
 ! D23   D(9,8,11,13)          -43.3193         -DE/DX =    0.0                 !
 ! D24   D(9,8,11,14)         -165.1072         -DE/DX =    0.0                 !
 ! D25   D(10,8,11,12)        -172.5409         -DE/DX =    0.0                 !
 ! D26   D(10,8,11,13)          72.0699         -DE/DX =    0.0                 !
 ! D27   D(10,8,11,14)         -49.7179         -DE/DX =    0.0                 !
 ! D28   D(8,11,14,15)          57.3724         -DE/DX =    0.0                 !
 ! D29   D(8,11,14,16)         -58.4802         -DE/DX =    0.0                 !
 ! D30   D(8,11,14,17)         179.4621         -DE/DX =    0.0                 !
 ! D31   D(12,11,14,15)       -179.7069         -DE/DX =    0.0                 !
 ! D32   D(12,11,14,16)         64.4405         -DE/DX =    0.0                 !
 ! D33   D(12,11,14,17)        -57.6172         -DE/DX =    0.0                 !
 ! D34   D(13,11,14,15)        -64.2692         -DE/DX =    0.0                 !
 ! D35   D(13,11,14,16)        179.8783         -DE/DX =    0.0                 !
 ! D36   D(13,11,14,17)         57.8206         -DE/DX =    0.0                 !
 ! D37   D(11,14,17,18)         59.9974         -DE/DX =    0.0                 !
 ! D38   D(11,14,17,19)        179.9151         -DE/DX =    0.0                 !
 ! D39   D(11,14,17,20)        -60.1577         -DE/DX =    0.0                 !
 ! D40   D(15,14,17,18)       -177.9104         -DE/DX =    0.0                 !
 ! D41   D(15,14,17,19)        -57.9926         -DE/DX =    0.0                 !
 ! D42   D(15,14,17,20)         61.9346         -DE/DX =    0.0                 !
 ! D43   D(16,14,17,18)        -62.0709         -DE/DX =    0.0                 !
 ! D44   D(16,14,17,19)         57.8469         -DE/DX =    0.0                 !
 ! D45   D(16,14,17,20)        177.774          -DE/DX =    0.0                 !
 --------------------------------------------------------------------------------
 GradGradGradGradGradGradGradGradGradGradGradGradGradGradGradGradGradGrad

 Largest change from initial coordinates is atom   19       6.993 Angstoms.
 Leave Link  103 at Mon Sep 14 19:14:27 2015, MaxMem=  402653184 cpu:       0.0
 (Enter /share/apps/g09/l202.exe)
                          Input orientation:                          
 ---------------------------------------------------------------------
 Center     Atomic      Atomic             Coordinates (Angstroms)
 Number     Number       Type             X           Y           Z
 ---------------------------------------------------------------------
      1          6           0        1.954136   -2.567212   -0.582586
      2          1           0        1.990970   -2.947777    0.444360
      3          1           0        2.844634   -1.946777   -0.733665
      4          1           0        2.036574   -3.428467   -1.254713
      5          6           0        0.670519   -1.782807   -0.845859
      6          1           0        0.647111   -1.445043   -1.900241
      7          1           0       -0.206808   -2.448031   -0.723668
      8          6           0        0.540001   -0.573235    0.090547
      9          1           0        1.420551    0.086771   -0.034370
     10          1           0        0.568638   -0.909788    1.144650
     11          6           0       -0.738027    0.236128   -0.167371
     12          1           0       -0.833920    0.458181   -1.247518
     13          1           0       -0.652343    1.221092    0.331712
     14          6           0       -2.000543   -0.481476    0.330678
     15          1           0       -1.906332   -0.698694    1.412479
     16          1           0       -2.092765   -1.466873   -0.166960
     17          6           0       -3.259384    0.345109    0.076995
     18          1           0       -3.401625    0.546213   -0.990774
     19          1           0       -4.154057   -0.176435    0.434575
     20          1           0       -3.217029    1.312823    0.589328
 ---------------------------------------------------------------------
                    Distance matrix (angstroms):
                    1          2          3          4          5
     1  C    0.000000
     2  H    1.095813   0.000000
     3  H    1.095787   1.765924   0.000000
     4  H    1.095587   1.766350   1.766312   0.000000
     5  C    1.527180   2.182982   2.183174   2.177491   0.000000
     6  H    2.168823   3.092138   2.538058   2.506249   1.107409
     7  H    2.168822   2.538555   3.092354   2.505201   1.107771
     8  C    2.535514   2.805164   2.806649   3.493109   1.535237
     9  H    2.762042   3.124587   2.579214   3.771687   2.171723
    10  H    2.765864   2.582021   3.127870   3.775649   2.175929
    11  C    3.908819   4.237793   4.233347   4.723344   2.553516
    12  H    4.167541   4.737405   4.424887   4.831752   2.728863
    13  H    4.688382   4.937536   4.837280   5.600484   3.487126
    14  C    4.563314   4.693372   5.172589   5.243714   3.195665
    15  H    4.730208   4.602672   5.360534   5.487449   3.593822
    16  H    4.214369   4.386762   4.992932   4.699203   2.862946
    17  C    6.008115   6.208403   6.570307   6.637808   4.563312
    18  H    6.208399   6.583894   6.730294   6.741051   4.693367
    19  H    6.637805   6.741052   7.313041   7.193978   5.243708
    20  H    6.570313   6.730303   7.008500   7.313048   5.172593
                    6          7          8          9         10
     6  H    0.000000
     7  H    1.766207   0.000000
     8  C    2.175950   2.176126   0.000000
     9  H    2.534983   3.090088   1.107511   0.000000
    10  H    3.092574   2.541283   1.106897   1.763227   0.000000
    11  C    2.783484   2.792197   1.534583   2.167823   2.177590
    12  H    2.498352   3.018900   2.177590   2.586950   3.092083
    13  H    3.711936   3.843799   2.167823   2.391148   2.586951
    14  C    3.593819   2.862947   2.553516   3.487125   2.728863
    15  H    4.248673   3.242173   2.783485   3.711937   2.498354
    16  H    3.242169   2.197596   2.792195   3.843797   3.018896
    17  C    4.730201   4.214369   3.908818   4.688382   4.167542
    18  H    4.602662   4.386764   4.237787   4.937528   4.737401
    19  H    5.487435   4.699196   4.723344   5.600485   4.831756
    20  H    5.360537   4.992936   4.233353   4.837288   4.424891
                   11         12         13         14         15
    11  C    0.000000
    12  H    1.106897   0.000000
    13  H    1.107511   1.763227   0.000000
    14  C    1.535237   2.175929   2.171723   0.000000
    15  H    2.175950   3.092574   2.534981   1.107409   0.000000
    16  H    2.176127   2.541285   3.090088   1.107771   1.766206
    17  C    2.535514   2.765862   2.762044   1.527180   2.168823
    18  H    2.805156   2.582011   3.124577   2.182982   3.092139
    19  H    3.493108   3.775643   3.771692   2.177491   2.506256
    20  H    2.806656   3.127879   2.579224   2.183174   2.538052
                   16         17         18         19         20
    16  H    0.000000
    17  C    2.168822   0.000000
    18  H    2.538563   1.095813   0.000000
    19  H    2.505194   1.095587   1.766350   0.000000
    20  H    3.092354   1.095787   1.765924   1.766312   0.000000
 Stoichiometry    C6H14
 Framework group  C1[X(C6H14)]
 Deg. of freedom    54
 Full point group                 C1      NOp   1
 Largest Abelian subgroup         C1      NOp   1
 Largest concise Abelian subgroup C1      NOp   1
                         Standard orientation:                         
 ---------------------------------------------------------------------
 Center     Atomic      Atomic             Coordinates (Angstroms)
 Number     Number       Type             X           Y           Z
 ---------------------------------------------------------------------
      1          6           0        3.002158   -0.349089    0.106836
      2          1           0        3.067173   -0.455142    1.195565
      3          1           0        3.500557    0.589388   -0.160763
      4          1           0        3.581125   -1.166214   -0.337479
      5          6           0        1.553200   -0.374016   -0.375013
      6          1           0        1.524186   -0.302787   -1.479748
      7          1           0        1.091737   -1.349404   -0.124364
      8          6           0        0.728388    0.764799    0.241219
      9          1           0        1.195526    1.736849   -0.010733
     10          1           0        0.761401    0.697140    1.345552
     11          6           0       -0.728388    0.764798   -0.241220
     12          1           0       -0.761401    0.697137   -1.345553
     13          1           0       -1.195526    1.736850    0.010729
     14          6           0       -1.553201   -0.374013    0.375016
     15          1           0       -1.524190   -0.302778    1.479750
     16          1           0       -1.091736   -1.349403    0.124374
     17          6           0       -3.002157   -0.349090   -0.106837
     18          1           0       -3.067168   -0.455131   -1.195568
     19          1           0       -3.581121   -1.166223    0.337466
     20          1           0       -3.500563    0.589381    0.160770
 ---------------------------------------------------------------------
 Rotational constants (GHZ):      9.8339423      1.3164641      1.2550299
 Leave Link  202 at Mon Sep 14 19:14:29 2015, MaxMem=  402653184 cpu:       0.0
 (Enter /share/apps/g09/l601.exe)
 Copying SCF densities to generalized density rwf, IOpCl= 0 IROHF=0.

 **********************************************************************

            Population analysis using the SCF density.

 **********************************************************************

 Orbital symmetries:
       Occupied  (A) (A) (A) (A) (A) (A) (A) (A) (A) (A) (A) (A)
                 (A) (A) (A) (A) (A) (A) (A)
       Virtual   (A) (A) (A) (A) (A) (A) (A) (A) (A) (A) (A) (A)
                 (A) (A) (A) (A) (A) (A) (A)
 The electronic state is 1-A.
 Alpha  occ. eigenvalues --   -1.05702  -0.99732  -0.91688  -0.80573  -0.76439
 Alpha  occ. eigenvalues --   -0.72217  -0.58085  -0.57374  -0.54650  -0.51814
 Alpha  occ. eigenvalues --   -0.51589  -0.49046  -0.46316  -0.46109  -0.44038
 Alpha  occ. eigenvalues --   -0.42700  -0.42125  -0.40732  -0.40132
 Alpha virt. eigenvalues --    0.15051   0.16348   0.16992   0.17042   0.18588
 Alpha virt. eigenvalues --    0.20675   0.20751   0.21991   0.22001   0.22229
 Alpha virt. eigenvalues --    0.22349   0.23231   0.23468   0.24261   0.24322
 Alpha virt. eigenvalues --    0.24750   0.25192   0.25590   0.25665
          Condensed to atoms (all electrons):
              1          2          3          4          5          6
     1  C    4.466673   0.000000   0.000000   0.000000   0.000000   0.000000
     2  H    0.000000   0.853671   0.000000   0.000000   0.000000   0.000000
     3  H    0.000000   0.000000   0.853896   0.000000   0.000000   0.000000
     4  H    0.000000   0.000000   0.000000   0.856001   0.000000   0.000000
     5  C    0.000000   0.000000   0.000000   0.000000   4.216827   0.000000
     6  H    0.000000   0.000000   0.000000   0.000000   0.000000   0.874630
     7  H    0.000000   0.000000   0.000000   0.000000   0.000000   0.000000
     8  C    0.000000   0.000000   0.000000   0.000000   0.000000   0.000000
     9  H    0.000000   0.000000   0.000000   0.000000   0.000000   0.000000
    10  H    0.000000   0.000000   0.000000   0.000000   0.000000   0.000000
    11  C    0.000000   0.000000   0.000000   0.000000   0.000000   0.000000
    12  H    0.000000   0.000000   0.000000   0.000000   0.000000   0.000000
    13  H    0.000000   0.000000   0.000000   0.000000   0.000000   0.000000
    14  C    0.000000   0.000000   0.000000   0.000000   0.000000   0.000000
    15  H    0.000000   0.000000   0.000000   0.000000   0.000000   0.000000
    16  H    0.000000   0.000000   0.000000   0.000000   0.000000   0.000000
    17  C    0.000000   0.000000   0.000000   0.000000   0.000000   0.000000
    18  H    0.000000   0.000000   0.000000   0.000000   0.000000   0.000000
    19  H    0.000000   0.000000   0.000000   0.000000   0.000000   0.000000
    20  H    0.000000   0.000000   0.000000   0.000000   0.000000   0.000000
              7          8          9         10         11         12
     1  C    0.000000   0.000000   0.000000   0.000000   0.000000   0.000000
     2  H    0.000000   0.000000   0.000000   0.000000   0.000000   0.000000
     3  H    0.000000   0.000000   0.000000   0.000000   0.000000   0.000000
     4  H    0.000000   0.000000   0.000000   0.000000   0.000000   0.000000
     5  C    0.000000   0.000000   0.000000   0.000000   0.000000   0.000000
     6  H    0.000000   0.000000   0.000000   0.000000   0.000000   0.000000
     7  H    0.873319   0.000000   0.000000   0.000000   0.000000   0.000000
     8  C    0.000000   4.266510   0.000000   0.000000   0.000000   0.000000
     9  H    0.000000   0.000000   0.870952   0.000000   0.000000   0.000000
    10  H    0.000000   0.000000   0.000000   0.867521   0.000000   0.000000
    11  C    0.000000   0.000000   0.000000   0.000000   4.266510   0.000000
    12  H    0.000000   0.000000   0.000000   0.000000   0.000000   0.867521
    13  H    0.000000   0.000000   0.000000   0.000000   0.000000   0.000000
    14  C    0.000000   0.000000   0.000000   0.000000   0.000000   0.000000
    15  H    0.000000   0.000000   0.000000   0.000000   0.000000   0.000000
    16  H    0.000000   0.000000   0.000000   0.000000   0.000000   0.000000
    17  C    0.000000   0.000000   0.000000   0.000000   0.000000   0.000000
    18  H    0.000000   0.000000   0.000000   0.000000   0.000000   0.000000
    19  H    0.000000   0.000000   0.000000   0.000000   0.000000   0.000000
    20  H    0.000000   0.000000   0.000000   0.000000   0.000000   0.000000
             13         14         15         16         17         18
     1  C    0.000000   0.000000   0.000000   0.000000   0.000000   0.000000
     2  H    0.000000   0.000000   0.000000   0.000000   0.000000   0.000000
     3  H    0.000000   0.000000   0.000000   0.000000   0.000000   0.000000
     4  H    0.000000   0.000000   0.000000   0.000000   0.000000   0.000000
     5  C    0.000000   0.000000   0.000000   0.000000   0.000000   0.000000
     6  H    0.000000   0.000000   0.000000   0.000000   0.000000   0.000000
     7  H    0.000000   0.000000   0.000000   0.000000   0.000000   0.000000
     8  C    0.000000   0.000000   0.000000   0.000000   0.000000   0.000000
     9  H    0.000000   0.000000   0.000000   0.000000   0.000000   0.000000
    10  H    0.000000   0.000000   0.000000   0.000000   0.000000   0.000000
    11  C    0.000000   0.000000   0.000000   0.000000   0.000000   0.000000
    12  H    0.000000   0.000000   0.000000   0.000000   0.000000   0.000000
    13  H    0.870952   0.000000   0.000000   0.000000   0.000000   0.000000
    14  C    0.000000   4.216827   0.000000   0.000000   0.000000   0.000000
    15  H    0.000000   0.000000   0.874630   0.000000   0.000000   0.000000
    16  H    0.000000   0.000000   0.000000   0.873319   0.000000   0.000000
    17  C    0.000000   0.000000   0.000000   0.000000   4.466673   0.000000
    18  H    0.000000   0.000000   0.000000   0.000000   0.000000   0.853671
    19  H    0.000000   0.000000   0.000000   0.000000   0.000000   0.000000
    20  H    0.000000   0.000000   0.000000   0.000000   0.000000   0.000000
             19         20
     1  C    0.000000   0.000000
     2  H    0.000000   0.000000
     3  H    0.000000   0.000000
     4  H    0.000000   0.000000
     5  C    0.000000   0.000000
     6  H    0.000000   0.000000
     7  H    0.000000   0.000000
     8  C    0.000000   0.000000
     9  H    0.000000   0.000000
    10  H    0.000000   0.000000
    11  C    0.000000   0.000000
    12  H    0.000000   0.000000
    13  H    0.000000   0.000000
    14  C    0.000000   0.000000
    15  H    0.000000   0.000000
    16  H    0.000000   0.000000
    17  C    0.000000   0.000000
    18  H    0.000000   0.000000
    19  H    0.856001   0.000000
    20  H    0.000000   0.853896
 Mulliken atomic charges:
              1
     1  C   -0.466673
     2  H    0.146329
     3  H    0.146104
     4  H    0.143999
     5  C   -0.216827
     6  H    0.125370
     7  H    0.126681
     8  C   -0.266510
     9  H    0.129048
    10  H    0.132479
    11  C   -0.266510
    12  H    0.132479
    13  H    0.129048
    14  C   -0.216827
    15  H    0.125370
    16  H    0.126681
    17  C   -0.466673
    18  H    0.146329
    19  H    0.143999
    20  H    0.146104
 Sum of Mulliken atomic charges =   0.00000
 Mulliken charges with hydrogens summed into heavy atoms:
              1
     1  C   -0.030242
     5  C    0.035225
     8  C   -0.004983
    11  C   -0.004983
    14  C    0.035225
    17  C   -0.030242
 Sum of Mulliken charges with hydrogens summed into heavy atoms =   0.00000
 Charge=              0.0000 electrons
 Dipole moment (field-independent basis, Debye):
    X=              0.0000    Y=              0.0170    Z=              0.0000  Tot=              0.0170
 N-N= 1.628281721230D+02 E-N=-2.466511648875D+02  KE=-5.609716449873D+01
 Leave Link  601 at Mon Sep 14 19:14:29 2015, MaxMem=  402653184 cpu:       0.0
 (Enter /share/apps/g09/l9999.exe)
 1\1\GINC-COMPUTE-0-10\FOpt\RPM6\ZDO\C6H14\HETANJIN\14-Sep-2015\0\\#p P
 M6 opt\\using PM6 to do opt and freq calc.\\0,1\C,1.95413644,-2.567212
 1542,-0.5825859238\H,1.9909696117,-2.947777284,0.4443604361\H,2.844633
 8848,-1.9467772446,-0.7336654583\H,2.0365743803,-3.4284674717,-1.25471
 30118\C,0.6705190045,-1.7828069721,-0.8458585099\H,0.6471111902,-1.445
 0434138,-1.9002406811\H,-0.2068082089,-2.4480306281,-0.7236677897\C,0.
 5400006993,-0.573235498,0.0905471478\H,1.4205506871,0.0867705313,-0.03
 43698582\H,0.5686384267,-0.909787731,1.144649831\C,-0.7380272205,0.236
 1276011,-0.1673713362\H,-0.8339200843,0.4581810563,-1.2475180634\H,-0.
 6523432707,1.2210921191,0.3317116404\C,-2.0005427626,-0.4814757814,0.3
 306778856\H,-1.9063323063,-0.6986940382,1.4124794776\H,-2.092765173,-1
 .4668731387,-0.1669596901\C,-3.2593835535,0.3451087819,0.0769947637\H,
 -3.401625498,0.5462130013,-0.9907738259\H,-4.1540568885,-0.1764347475,
 0.4345748856\H,-3.2170293582,1.3128230123,0.5893280806\\Version=EM64L-
 G09RevA.01\State=1-A\HF=-0.0565779\RMSD=5.368e-09\RMSF=8.017e-06\Dipol
 e=0.0033185,0.0056498,0.001285\PG=C01 [X(C6H14)]\\@


 The mind is not a vessel to be filled but a fire to be kindled.
                                  -- Plutarch
 Job cpu time:  0 days  0 hours  0 minutes 27.3 seconds.
 File lengths (MBytes):  RWF=      5 Int=      0 D2E=      0 Chk=      3 Scr=      1
 Normal termination of Gaussian 09 at Mon Sep 14 19:14:31 2015.
