using PM6 to do opt and freq calc.                                      
FOpt      RPM6                                                        ZDO                 
Number of atoms                            I               20
Info1-9                                    I   N=           9
          33          29           0           0           0         110
           2           8         302
Charge                                     I                0
Multiplicity                               I                1
Number of electrons                        I               38
Number of alpha electrons                  I               19
Number of beta electrons                   I               19
Number of basis functions                  I               38
Number of independent functions            I               38
Number of point charges in /Mol/           I                0
Number of translation vectors              I                0
Atomic numbers                             I   N=          20
           6           1           1           1           6           1
           1           6           1           1           6           1
           1           6           1           1           6           1
           1           1
Nuclear charges                            R   N=          20
  4.00000000E+00  1.00000000E+00  1.00000000E+00  1.00000000E+00  4.00000000E+00
  1.00000000E+00  1.00000000E+00  4.00000000E+00  1.00000000E+00  1.00000000E+00
  4.00000000E+00  1.00000000E+00  1.00000000E+00  4.00000000E+00  1.00000000E+00
  1.00000000E+00  4.00000000E+00  1.00000000E+00  1.00000000E+00  1.00000000E+00
Current cartesian coordinates              R   N=          60
  5.67325585E+00 -6.59682781E-01  2.01890292E-01  5.79611690E+00 -8.60093008E-01
  2.25929025E+00  6.61509442E+00  1.11378180E+00 -3.03797673E-01  6.76734640E+00
 -2.20382436E+00 -6.37742400E-01  2.93512290E+00 -7.06786984E-01 -7.08672140E-01
  2.88029389E+00 -5.72184064E-01 -2.79631799E+00  2.06308427E+00 -2.55000437E+00
 -2.35013597E-01  1.37645477E+00  1.44525985E+00  4.55837514E-01  2.25921743E+00
  3.28216975E+00 -2.02828537E-02  1.43883993E+00  1.31740412E+00  2.54272540E+00
 -1.37645464E+00  1.44525938E+00 -4.55839233E-01 -1.43883997E+00  1.31739728E+00
 -2.54272684E+00 -2.25921610E+00  3.28217164E+00  2.02748827E-02 -2.93512450E+00
 -7.06781846E-01  7.08677537E-01 -2.88030212E+00 -5.72166709E-01  2.79632290E+00
 -2.06308283E+00 -2.55000147E+00  2.35033482E-01 -5.67325445E+00 -6.59684764E-01
 -2.01893584E-01 -5.79610823E+00 -8.60073296E-01 -2.25929619E+00 -6.76733814E+00
 -2.20384298E+00  6.37717490E-01 -6.61510535E+00  1.11376853E+00  3.03810813E-01
Force Field                                I                0
Int Atom Types                             I   N=          20
           0           0           0           0           0           0
           0           0           0           0           0           0
           0           0           0           0           0           0
           0           0
MM charges                                 R   N=          20
  0.00000000E+00  0.00000000E+00  0.00000000E+00  0.00000000E+00  0.00000000E+00
  0.00000000E+00  0.00000000E+00  0.00000000E+00  0.00000000E+00  0.00000000E+00
  0.00000000E+00  0.00000000E+00  0.00000000E+00  0.00000000E+00  0.00000000E+00
  0.00000000E+00  0.00000000E+00  0.00000000E+00  0.00000000E+00  0.00000000E+00
Integer atomic weights                     I   N=          20
          12           1           1           1          12           1
           1          12           1           1          12           1
           1          12           1           1          12           1
           1           1
Real atomic weights                        R   N=          20
  1.20000000E+01  1.00782504E+00  1.00782504E+00  1.00782504E+00  1.20000000E+01
  1.00782504E+00  1.00782504E+00  1.20000000E+01  1.00782504E+00  1.00782504E+00
  1.20000000E+01  1.00782504E+00  1.00782504E+00  1.20000000E+01  1.00782504E+00
  1.00782504E+00  1.20000000E+01  1.00782504E+00  1.00782504E+00  1.00782504E+00
Atom fragment info                         I   N=          20
           0           0           0           0           0           0
           0           0           0           0           0           0
           0           0           0           0           0           0
           0           0
Atom residue num                           I   N=          20
           0           0           0           0           0           0
           0           0           0           0           0           0
           0           0           0           0           0           0
           0           0
Nuclear spins                              I   N=          20
           0           1           1           1           0           1
           1           0           1           1           0           1
           1           0           1           1           0           1
           1           1
Nuclear ZEff                               R   N=          20
 -3.90000000E+00 -1.00000000E+00 -1.00000000E+00 -1.00000000E+00 -3.90000000E+00
 -1.00000000E+00 -1.00000000E+00 -3.90000000E+00 -1.00000000E+00 -1.00000000E+00
 -3.90000000E+00 -1.00000000E+00 -1.00000000E+00 -3.90000000E+00 -1.00000000E+00
 -1.00000000E+00 -3.90000000E+00 -1.00000000E+00 -1.00000000E+00 -1.00000000E+00
Nuclear QMom                               R   N=          20
  0.00000000E+00  0.00000000E+00  0.00000000E+00  0.00000000E+00  0.00000000E+00
  0.00000000E+00  0.00000000E+00  0.00000000E+00  0.00000000E+00  0.00000000E+00
  0.00000000E+00  0.00000000E+00  0.00000000E+00  0.00000000E+00  0.00000000E+00
  0.00000000E+00  0.00000000E+00  0.00000000E+00  0.00000000E+00  0.00000000E+00
Nuclear GFac                               R   N=          20
  0.00000000E+00  2.79284600E+00  2.79284600E+00  2.79284600E+00  0.00000000E+00
  2.79284600E+00  2.79284600E+00  0.00000000E+00  2.79284600E+00  2.79284600E+00
  0.00000000E+00  2.79284600E+00  2.79284600E+00  0.00000000E+00  2.79284600E+00
  2.79284600E+00  0.00000000E+00  2.79284600E+00  2.79284600E+00  2.79284600E+00
MicOpt                                     I   N=          20
          -1          -1          -1          -1          -1          -1
          -1          -1          -1          -1          -1          -1
          -1          -1          -1          -1          -1          -1
          -1          -1
Number of contracted shells                I               20
Number of primitive shells                 I              120
Pure/Cartesian d shells                    I                0
Pure/Cartesian f shells                    I                0
Highest angular momentum                   I                1
Largest degree of contraction              I                6
Shell types                                I   N=          20
          -1           0           0           0          -1           0
           0          -1           0           0          -1           0
           0          -1           0           0          -1           0
           0           0
Number of primitives per shell             I   N=          20
           6           6           6           6           6           6
           6           6           6           6           6           6
           6           6           6           6           6           6
           6           6
Shell to atom map                          I   N=          20
           1           2           3           4           5           6
           7           8           9          10          11          12
          13          14          15          16          17          18
          19          20
Primitive exponents                        R   N=         120
  1.14476344E+01  3.29633588E+00  1.29653143E+00  5.92558930E-01  2.94896438E-01
  1.51447622E-01  4.39461478E+00  1.26542531E+00  4.97723458E-01  2.27476537E-01
  1.13207340E-01  5.81389949E-02  4.39461478E+00  1.26542531E+00  4.97723458E-01
  2.27476537E-01  1.13207340E-01  5.81389949E-02  4.39461478E+00  1.26542531E+00
  4.97723458E-01  2.27476537E-01  1.13207340E-01  5.81389949E-02  1.14476344E+01
  3.29633588E+00  1.29653143E+00  5.92558930E-01  2.94896438E-01  1.51447622E-01
  4.39461478E+00  1.26542531E+00  4.97723458E-01  2.27476537E-01  1.13207340E-01
  5.81389949E-02  4.39461478E+00  1.26542531E+00  4.97723458E-01  2.27476537E-01
  1.13207340E-01  5.81389949E-02  1.14476344E+01  3.29633588E+00  1.29653143E+00
  5.92558930E-01  2.94896438E-01  1.51447622E-01  4.39461478E+00  1.26542531E+00
  4.97723458E-01  2.27476537E-01  1.13207340E-01  5.81389949E-02  4.39461478E+00
  1.26542531E+00  4.97723458E-01  2.27476537E-01  1.13207340E-01  5.81389949E-02
  1.14476344E+01  3.29633588E+00  1.29653143E+00  5.92558930E-01  2.94896438E-01
  1.51447622E-01  4.39461478E+00  1.26542531E+00  4.97723458E-01  2.27476537E-01
  1.13207340E-01  5.81389949E-02  4.39461478E+00  1.26542531E+00  4.97723458E-01
  2.27476537E-01  1.13207340E-01  5.81389949E-02  1.14476344E+01  3.29633588E+00
  1.29653143E+00  5.92558930E-01  2.94896438E-01  1.51447622E-01  4.39461478E+00
  1.26542531E+00  4.97723458E-01  2.27476537E-01  1.13207340E-01  5.81389949E-02
  4.39461478E+00  1.26542531E+00  4.97723458E-01  2.27476537E-01  1.13207340E-01
  5.81389949E-02  1.14476344E+01  3.29633588E+00  1.29653143E+00  5.92558930E-01
  2.94896438E-01  1.51447622E-01  4.39461478E+00  1.26542531E+00  4.97723458E-01
  2.27476537E-01  1.13207340E-01  5.81389949E-02  4.39461478E+00  1.26542531E+00
  4.97723458E-01  2.27476537E-01  1.13207340E-01  5.81389949E-02  4.39461478E+00
  1.26542531E+00  4.97723458E-01  2.27476537E-01  1.13207340E-01  5.81389949E-02
Contraction coefficients                   R   N=         120
 -9.73739553E-03 -7.26587678E-02 -1.71615520E-01  1.28977624E-01  7.28861451E-01
  3.01331742E-01 -9.73739553E-03 -7.26587678E-02 -1.71615520E-01  1.28977624E-01
  7.28861451E-01  3.01331742E-01 -9.73739553E-03 -7.26587678E-02 -1.71615520E-01
  1.28977624E-01  7.28861451E-01  3.01331742E-01 -9.73739553E-03 -7.26587678E-02
 -1.71615520E-01  1.28977624E-01  7.28861451E-01  3.01331742E-01 -9.73739553E-03
 -7.26587678E-02 -1.71615520E-01  1.28977624E-01  7.28861451E-01  3.01331742E-01
 -9.73739553E-03 -7.26587678E-02 -1.71615520E-01  1.28977624E-01  7.28861451E-01
  3.01331742E-01 -9.73739553E-03 -7.26587678E-02 -1.71615520E-01  1.28977624E-01
  7.28861451E-01  3.01331742E-01 -9.73739553E-03 -7.26587678E-02 -1.71615520E-01
  1.28977624E-01  7.28861451E-01  3.01331742E-01 -9.73739553E-03 -7.26587678E-02
 -1.71615520E-01  1.28977624E-01  7.28861451E-01  3.01331742E-01 -9.73739553E-03
 -7.26587678E-02 -1.71615520E-01  1.28977624E-01  7.28861451E-01  3.01331742E-01
 -9.73739553E-03 -7.26587678E-02 -1.71615520E-01  1.28977624E-01  7.28861451E-01
  3.01331742E-01 -9.73739553E-03 -7.26587678E-02 -1.71615520E-01  1.28977624E-01
  7.28861451E-01  3.01331742E-01 -9.73739553E-03 -7.26587678E-02 -1.71615520E-01
  1.28977624E-01  7.28861451E-01  3.01331742E-01 -9.73739553E-03 -7.26587678E-02
 -1.71615520E-01  1.28977624E-01  7.28861451E-01  3.01331742E-01 -9.73739553E-03
 -7.26587678E-02 -1.71615520E-01  1.28977624E-01  7.28861451E-01  3.01331742E-01
 -9.73739553E-03 -7.26587678E-02 -1.71615520E-01  1.28977624E-01  7.28861451E-01
  3.01331742E-01 -9.73739553E-03 -7.26587678E-02 -1.71615520E-01  1.28977624E-01
  7.28861451E-01  3.01331742E-01 -9.73739553E-03 -7.26587678E-02 -1.71615520E-01
  1.28977624E-01  7.28861451E-01  3.01331742E-01 -9.73739553E-03 -7.26587678E-02
 -1.71615520E-01  1.28977624E-01  7.28861451E-01  3.01331742E-01 -9.73739553E-03
 -7.26587678E-02 -1.71615520E-01  1.28977624E-01  7.28861451E-01  3.01331742E-01
P(S=P) Contraction coefficients            R   N=         120
 -8.10494336E-03 -1.71547892E-02  7.36978576E-02  3.96514999E-01  4.97808488E-01
  1.17482582E-01  0.00000000E+00  0.00000000E+00  0.00000000E+00  0.00000000E+00
  0.00000000E+00  0.00000000E+00  0.00000000E+00  0.00000000E+00  0.00000000E+00
  0.00000000E+00  0.00000000E+00  0.00000000E+00  0.00000000E+00  0.00000000E+00
  0.00000000E+00  0.00000000E+00  0.00000000E+00  0.00000000E+00 -8.10494336E-03
 -1.71547892E-02  7.36978576E-02  3.96514999E-01  4.97808488E-01  1.17482582E-01
  0.00000000E+00  0.00000000E+00  0.00000000E+00  0.00000000E+00  0.00000000E+00
  0.00000000E+00  0.00000000E+00  0.00000000E+00  0.00000000E+00  0.00000000E+00
  0.00000000E+00  0.00000000E+00 -8.10494336E-03 -1.71547892E-02  7.36978576E-02
  3.96514999E-01  4.97808488E-01  1.17482582E-01  0.00000000E+00  0.00000000E+00
  0.00000000E+00  0.00000000E+00  0.00000000E+00  0.00000000E+00  0.00000000E+00
  0.00000000E+00  0.00000000E+00  0.00000000E+00  0.00000000E+00  0.00000000E+00
 -8.10494336E-03 -1.71547892E-02  7.36978576E-02  3.96514999E-01  4.97808488E-01
  1.17482582E-01  0.00000000E+00  0.00000000E+00  0.00000000E+00  0.00000000E+00
  0.00000000E+00  0.00000000E+00  0.00000000E+00  0.00000000E+00  0.00000000E+00
  0.00000000E+00  0.00000000E+00  0.00000000E+00 -8.10494336E-03 -1.71547892E-02
  7.36978576E-02  3.96514999E-01  4.97808488E-01  1.17482582E-01  0.00000000E+00
  0.00000000E+00  0.00000000E+00  0.00000000E+00  0.00000000E+00  0.00000000E+00
  0.00000000E+00  0.00000000E+00  0.00000000E+00  0.00000000E+00  0.00000000E+00
  0.00000000E+00 -8.10494336E-03 -1.71547892E-02  7.36978576E-02  3.96514999E-01
  4.97808488E-01  1.17482582E-01  0.00000000E+00  0.00000000E+00  0.00000000E+00
  0.00000000E+00  0.00000000E+00  0.00000000E+00  0.00000000E+00  0.00000000E+00
  0.00000000E+00  0.00000000E+00  0.00000000E+00  0.00000000E+00  0.00000000E+00
  0.00000000E+00  0.00000000E+00  0.00000000E+00  0.00000000E+00  0.00000000E+00
Coordinates of each shell                  R   N=          60
  5.67325585E+00 -6.59682781E-01  2.01890292E-01  5.79611690E+00 -8.60093008E-01
  2.25929025E+00  6.61509442E+00  1.11378180E+00 -3.03797673E-01  6.76734640E+00
 -2.20382436E+00 -6.37742400E-01  2.93512290E+00 -7.06786984E-01 -7.08672140E-01
  2.88029389E+00 -5.72184064E-01 -2.79631799E+00  2.06308427E+00 -2.55000437E+00
 -2.35013597E-01  1.37645477E+00  1.44525985E+00  4.55837514E-01  2.25921743E+00
  3.28216975E+00 -2.02828537E-02  1.43883993E+00  1.31740412E+00  2.54272540E+00
 -1.37645464E+00  1.44525938E+00 -4.55839233E-01 -1.43883997E+00  1.31739728E+00
 -2.54272684E+00 -2.25921610E+00  3.28217164E+00  2.02748827E-02 -2.93512450E+00
 -7.06781846E-01  7.08677537E-01 -2.88030212E+00 -5.72166709E-01  2.79632290E+00
 -2.06308283E+00 -2.55000147E+00  2.35033482E-01 -5.67325445E+00 -6.59684764E-01
 -2.01893584E-01 -5.79610823E+00 -8.60073296E-01 -2.25929619E+00 -6.76733814E+00
 -2.20384298E+00  6.37717490E-01 -6.61510535E+00  1.11376853E+00  3.03810813E-01
Constraint Structure                       R   N=          60
 -5.73871854E+00 -5.59619232E-01 -1.40611871E-01 -5.97613456E+00 -4.48665773E-01
 -2.22914125E+00 -6.55785999E+00  1.16761411E+00  7.40619899E-01 -6.78836137E+00
 -2.23941926E+00  5.69566030E-01 -2.94659764E+00 -8.05061806E-01  5.42681899E-01
 -2.77551416E+00 -9.17008453E-01  2.63894222E+00 -2.22635065E+00 -2.60179295E+00
 -2.84539493E-01 -1.38048370E+00  1.42786042E+00 -4.47641358E-01 -2.26232138E+00
  3.21984391E+00  2.25050707E-01 -1.42835911E+00  1.44033799E+00 -2.55431989E+00
  1.38048700E+00  1.42777477E+00  4.47693206E-01  1.42843146E+00  1.44050985E+00
  2.55431850E+00  2.26230006E+00  3.21969156E+00 -2.25021490E-01  2.94662288E+00
 -8.04935597E-01 -5.42602002E-01  2.77551798E+00 -9.16976425E-01 -2.63888714E+00
  2.22626218E+00 -2.60185189E+00  2.84637134E-01  5.73869366E+00 -5.59613372E-01
  1.40452064E-01  5.97605992E+00 -4.48597132E-01  2.22918013E+00  6.78844763E+00
 -2.23960263E+00 -5.69450514E-01  6.55786000E+00  1.16748601E+00 -7.40786475E-01
Num ILSW                                   I              100
ILSW                                       I   N=         100
           0           0           0           0           2           0
           0           0           0           0           0          -1
           0           0           0           0           0           0
           0           0           0           0           1           0
           1           0           0           0           0           0
           0           0      100000           0          -1           0
           0           0           0           0           0           0
           0           0           0          40           0           0
           0           0           1           0           0           0
           0           0           4          40           0           0
           0           0           0           0           0           0
           0           0           0           0           0           0
           0           0           0           0           0           0
           0           0           0           0           0           0
           0           0           0           0           0           0
           0           0           0           0           0           0
           0           0           0           0
Num RLSW                                   I               40
RLSW                                       R   N=          40
  1.00000000E+00  1.00000000E+00  1.00000000E+00  1.00000000E+00  1.00000000E+00
  0.00000000E+00  0.00000000E+00  1.00000000E+00  0.00000000E+00  0.00000000E+00
  0.00000000E+00  0.00000000E+00  1.00000000E+00  0.00000000E+00  0.00000000E+00
  0.00000000E+00  0.00000000E+00  1.00000000E+00  0.00000000E+00  0.00000000E+00
  0.00000000E+00  0.00000000E+00  1.00000000E+00  0.00000000E+00  0.00000000E+00
  0.00000000E+00  0.00000000E+00  1.00000000E+00  0.00000000E+00  0.00000000E+00
  0.00000000E+00  0.00000000E+00  0.00000000E+00  0.00000000E+00  0.00000000E+00
  0.00000000E+00  0.00000000E+00  0.00000000E+00  1.00000000E+00  1.00000000E+00
MxBond                                     I                4
NBond                                      I   N=          20
           4           1           1           1           4           1
           1           4           1           1           4           1
           1           4           1           1           4           1
           1           1
IBond                                      I   N=          80
           2           3           4           5           1           0
           0           0           1           0           0           0
           1           0           0           0           1           6
           7           8           5           0           0           0
           5           0           0           0           5           9
          10          11           8           0           0           0
           8           0           0           0           8          12
          13          14          11           0           0           0
          11           0           0           0          11          15
          16          17          14           0           0           0
          14           0           0           0          14          18
          19          20          17           0           0           0
          17           0           0           0          17           0
           0           0
RBond                                      R   N=          80
  1.00000000E+00  1.00000000E+00  1.00000000E+00  1.00000000E+00  1.00000000E+00
  0.00000000E+00  0.00000000E+00  0.00000000E+00  1.00000000E+00  0.00000000E+00
  0.00000000E+00  0.00000000E+00  1.00000000E+00  0.00000000E+00  0.00000000E+00
  0.00000000E+00  1.00000000E+00  1.00000000E+00  1.00000000E+00  1.00000000E+00
  1.00000000E+00  0.00000000E+00  0.00000000E+00  0.00000000E+00  1.00000000E+00
  0.00000000E+00  0.00000000E+00  0.00000000E+00  1.00000000E+00  1.00000000E+00
  1.00000000E+00  1.00000000E+00  1.00000000E+00  0.00000000E+00  0.00000000E+00
  0.00000000E+00  1.00000000E+00  0.00000000E+00  0.00000000E+00  0.00000000E+00
  1.00000000E+00  1.00000000E+00  1.00000000E+00  1.00000000E+00  1.00000000E+00
  0.00000000E+00  0.00000000E+00  0.00000000E+00  1.00000000E+00  0.00000000E+00
  0.00000000E+00  0.00000000E+00  1.00000000E+00  1.00000000E+00  1.00000000E+00
  1.00000000E+00  1.00000000E+00  0.00000000E+00  0.00000000E+00  0.00000000E+00
  1.00000000E+00  0.00000000E+00  0.00000000E+00  0.00000000E+00  1.00000000E+00
  1.00000000E+00  1.00000000E+00  1.00000000E+00  1.00000000E+00  0.00000000E+00
  0.00000000E+00  0.00000000E+00  1.00000000E+00  0.00000000E+00  0.00000000E+00
  0.00000000E+00  1.00000000E+00  0.00000000E+00  0.00000000E+00  0.00000000E+00
Virial Ratio                               R      9.989914310131375E-01
SCF Energy                                 R     -5.657786036434231E-02
Total Energy                               R     -5.657786036434231E-02
RMS Force                                  R      8.016817898558901E-06
RMS Density                                R      5.367908428298621E-09
External E-field                           R   N=          35
  0.00000000E+00  0.00000000E+00  0.00000000E+00  0.00000000E+00  0.00000000E+00
  0.00000000E+00  0.00000000E+00  0.00000000E+00  0.00000000E+00  0.00000000E+00
  0.00000000E+00  0.00000000E+00  0.00000000E+00  0.00000000E+00  0.00000000E+00
  0.00000000E+00  0.00000000E+00  0.00000000E+00  0.00000000E+00  0.00000000E+00
  0.00000000E+00  0.00000000E+00  0.00000000E+00  0.00000000E+00  0.00000000E+00
  0.00000000E+00  0.00000000E+00  0.00000000E+00  0.00000000E+00  0.00000000E+00
  0.00000000E+00  0.00000000E+00  0.00000000E+00  0.00000000E+00  0.00000000E+00
IOpCl                                      I                0
IROHF                                      I                0
Alpha Orbital Energies                     R   N=          38
 -1.05701619E+00 -9.97316252E-01 -9.16877650E-01 -8.05729980E-01 -7.64393193E-01
 -7.22172428E-01 -5.80848262E-01 -5.73743277E-01 -5.46499968E-01 -5.18136791E-01
 -5.15885161E-01 -4.90457444E-01 -4.63157746E-01 -4.61089143E-01 -4.40381274E-01
 -4.26995522E-01 -4.21249826E-01 -4.07317143E-01 -4.01317989E-01  1.50508295E-01
  1.63478166E-01  1.69917856E-01  1.70417949E-01  1.85881504E-01  2.06746162E-01
  2.07510838E-01  2.19914755E-01  2.20013333E-01  2.22289413E-01  2.23491812E-01
  2.32311484E-01  2.34675683E-01  2.42610695E-01  2.43221129E-01  2.47502278E-01
  2.51915749E-01  2.55902752E-01  2.56645162E-01
Alpha MO coefficients                      R   N=        1444
  2.26818305E-01 -7.52380963E-02  9.55090326E-03 -1.55844260E-02  9.75820217E-02
  9.67709894E-02  8.68230571E-02  3.59414142E-01 -2.83888072E-02  5.45723956E-02
  3.88748201E-02  1.50882501E-01  1.58476747E-01  4.12243288E-01 -3.68002852E-02
 -5.52558724E-02 -4.11180405E-02  1.65154161E-01  1.74528810E-01  4.12243423E-01
  3.68001377E-02 -5.52558344E-02  4.11182349E-02  1.74528871E-01  1.65154182E-01
  3.59414459E-01  2.83888489E-02  5.45722022E-02 -3.88751149E-02  1.50882579E-01
  1.58476893E-01  2.26818577E-01  7.52381330E-02  9.55103509E-03  1.55845971E-02
  9.75822779E-02  8.68231641E-02  9.67709460E-02  3.88539863E-01 -7.65766229E-02
  4.56944280E-03 -2.27062017E-02  1.66151788E-01  1.67512886E-01  1.62570996E-01
  3.81412641E-01  7.99607705E-02  2.37603123E-02  3.52298715E-02  1.55192046E-01
  1.44905598E-01  1.73963834E-01  1.25109805E-01 -5.20084075E-02 -2.18315650E-02
  8.72001414E-02  7.12870619E-02 -1.73963465E-01  1.25109927E-01  5.20082937E-02
 -2.18316618E-02 -7.12869504E-02 -8.71999202E-02 -3.81412444E-01  7.99607257E-02
 -2.37600557E-02  3.52301455E-02 -1.55192007E-01 -1.44905441E-01 -3.88539723E-01
 -7.65765187E-02 -4.56960739E-03 -2.27064061E-02 -1.66151779E-01 -1.62570925E-01
 -1.67512757E-01  4.06159405E-01  6.92965668E-03 -2.06389950E-02 -1.23030692E-02
  1.79116437E-01  1.78075478E-01  1.98651531E-01  1.13385989E-01  1.84389323E-01
 -8.25111008E-02  1.21802406E-03  4.34975221E-02  5.00717338E-02 -3.36048994E-01
  1.31122244E-01 -5.20942192E-02  1.74839238E-02 -1.46782524E-01 -1.35654279E-01
 -3.36048952E-01 -1.31122257E-01 -5.20942271E-02 -1.74839249E-02 -1.35654125E-01
 -1.46782571E-01  1.13385887E-01 -1.84389313E-01 -8.25112085E-02 -1.21810116E-03
  4.34974869E-02  5.00716463E-02  4.06159366E-01 -6.92970924E-03 -2.06389219E-02
  1.23031715E-02  1.79116159E-01  1.98651523E-01  1.78075715E-01  3.33522450E-01
  1.54519968E-01 -2.65021913E-02  3.33327613E-02  1.76318371E-01  1.72917904E-01
  2.02048935E-01 -2.42767367E-01  1.59561204E-01 -7.84571381E-02  5.84277033E-03
 -1.16217456E-01 -1.00873014E-01 -2.87901245E-01 -1.58893262E-01  3.54695820E-02
  1.00447066E-02 -1.49075449E-01 -1.23597475E-01  2.87901173E-01 -1.58893404E-01
 -3.54692945E-02  1.00450178E-02  1.23597280E-01  1.49075562E-01  2.42767443E-01
  1.59561090E-01  7.84574284E-02  5.84305499E-03  1.16217640E-01  1.00872907E-01
 -3.33522489E-01  1.54519900E-01  2.65025312E-02  3.33331702E-02 -1.76318112E-01
 -2.02049006E-01 -1.72918218E-01 -2.19481266E-01 -1.68516200E-01 -4.44340892E-02
 -7.27815344E-02 -1.46716257E-01 -1.58774255E-01 -1.16341754E-01  3.37689185E-01
 -9.60487150E-02 -1.23205345E-01 -7.82335450E-02  1.92958860E-01  2.39672351E-01
 -1.75224651E-01  7.02329059E-02 -2.07204651E-01 -4.44653295E-02 -1.64910725E-01
 -9.43931124E-02 -1.75224920E-01 -7.02330608E-02 -2.07204345E-01  4.44665189E-02
 -9.43936030E-02 -1.64910667E-01  3.37689208E-01  9.60485215E-02 -1.23204891E-01
  7.82347003E-02  1.92958937E-01  2.39672426E-01 -2.19481309E-01  1.68516020E-01
 -4.44334940E-02  7.27824600E-02 -1.46716875E-01 -1.16341666E-01 -1.58773830E-01
  6.96763679E-02  8.58541376E-02  6.78313141E-02  1.02671770E-01  9.53235151E-02
  7.70003854E-02  4.48428258E-03 -2.43428079E-01  4.48013890E-03  1.52048966E-01
  1.81470545E-01 -2.18739962E-01 -1.60129336E-01  3.04891543E-01  1.00890041E-01
  9.18395283E-02  2.19415720E-01  1.84006693E-01  2.74237074E-01 -3.04891478E-01
  1.00889963E-01 -9.18385389E-02  2.19416143E-01 -2.74237171E-01 -1.84006430E-01
  2.43427788E-01  4.47969234E-03 -1.52048120E-01  1.81471291E-01  2.18739685E-01
  1.60129399E-01 -6.96760789E-02  8.58536179E-02 -6.78306700E-02  1.02672490E-01
 -9.53243022E-02 -4.48424215E-03 -7.69991418E-02 -1.50370799E-02 -1.33913818E-01
 -2.15094899E-01  1.21111359E-01  8.46943362E-02 -1.92464431E-01  1.96906069E-02
  6.35945840E-02 -2.27598168E-03 -2.88037129E-01  2.02949209E-01 -1.23479778E-01
  2.22595969E-01 -3.77928581E-02 -1.17571067E-01 -1.15237631E-01  2.99979149E-01
 -1.70166736E-01  1.89287607E-01  3.77929971E-02 -1.17571370E-01  1.15238886E-01
  2.99978272E-01 -1.89287194E-01  1.70166853E-01 -6.35948510E-02 -2.27653274E-03
  2.88037942E-01  2.02947008E-01  1.23479304E-01 -2.22595614E-01  1.50372999E-02
 -1.33914562E-01  2.15095142E-01  1.21109333E-01 -8.46918375E-02 -1.96932084E-02
  1.92464922E-01  2.03400624E-02  3.71728433E-02 -1.35777250E-01  2.79702742E-01
  2.07317581E-01 -1.05470373E-01  1.51744696E-02 -6.26159121E-02 -1.87522787E-01
 -1.48254968E-01  2.87412343E-01 -2.26210853E-01  1.65193166E-01  3.45894037E-02
 -1.11926907E-01 -2.41885652E-01  1.07080690E-01 -1.79177126E-01  9.62566588E-02
  3.45894956E-02  1.11926739E-01 -2.41886376E-01 -1.07079859E-01  9.62566840E-02
 -1.79177236E-01 -6.26155709E-02  1.87523800E-01 -1.48256781E-01 -2.87411657E-01
 -2.26211288E-01  1.65193532E-01  2.03398255E-02 -3.71713052E-02 -1.35779062E-01
 -2.79702477E-01  2.07316511E-01  1.51774189E-02 -1.05472728E-01 -1.40696541E-02
 -2.55938730E-01  2.64567952E-01  1.39716632E-01  6.12753498E-02  4.56478573E-02
 -2.76999213E-01  6.65330346E-02  1.04423045E-01  2.15589148E-01  2.11979249E-01
 -1.06125780E-01 -1.01863729E-01 -3.05814494E-02  3.41320409E-01 -8.56036543E-02
  7.89331198E-02  2.22786803E-02  4.83791783E-02 -3.05816433E-02 -3.41319968E-01
 -8.56040293E-02 -7.89342312E-02  4.83800831E-02  2.22779316E-02  6.65331907E-02
 -1.04423328E-01  2.15588000E-01 -2.11979918E-01 -1.06125069E-01 -1.01864235E-01
 -1.40696839E-02  2.55939108E-01  2.64567682E-01 -1.39715957E-01  6.12776361E-02
 -2.76998908E-01  4.56447786E-02 -1.01953617E-02 -2.40820611E-01 -2.85023728E-01
  2.33635706E-02  2.23196596E-02 -2.55355047E-01  4.89147371E-02  1.92002121E-02
  2.11095672E-01 -2.02150677E-01  9.05781347E-02 -6.69646671E-02  9.13913011E-02
 -2.33536867E-02  1.39170911E-01  3.21707111E-01  1.17160932E-01  2.11162969E-01
  5.87670104E-02 -2.33513100E-02 -1.39168320E-01  3.21712036E-01 -1.17171044E-01
  5.87740283E-02  2.11165317E-01  1.91988013E-02 -2.11098854E-01 -2.02155128E-01
 -9.05693458E-02 -6.69598562E-02  9.13905824E-02 -1.01957625E-02  2.40815800E-01
 -2.85031270E-01 -2.33463543E-02  2.23067636E-02  4.89277776E-02 -2.55355485E-01
  1.01025704E-02 -1.20721357E-01  1.52786099E-01  3.92450458E-01  2.63224295E-01
 -1.00286597E-02 -2.36722067E-01  3.31056600E-02 -1.00188764E-01  9.32326368E-02
  2.00196104E-01 -1.17611007E-01  1.79838949E-02 -5.31345339E-02  6.19295141E-02
 -1.24730841E-01 -2.30333972E-01 -4.90021864E-02 -1.75531205E-01  5.31355725E-02
  6.19366478E-02  1.24717794E-01 -2.30328445E-01  1.75527825E-01  4.89940058E-02
 -3.31065518E-02 -1.00180081E-01 -9.32243126E-02  2.00200680E-01  1.17614103E-01
 -1.79868040E-02 -1.01022002E-02 -1.20732818E-01 -1.52773368E-01  3.92450844E-01
 -2.63226508E-01  2.36717550E-01  1.00434873E-02  2.11608321E-02 -2.18132560E-01
  3.82390337E-01 -1.50466121E-01 -1.32800700E-01  2.02599455E-01 -2.40617152E-01
  5.43134387E-02  2.19525701E-01  3.85284246E-02  5.04852212E-02 -1.54265000E-02
 -5.28712271E-02 -9.23759558E-02 -8.63898288E-02 -1.12385619E-01  1.96306502E-01
 -1.77310831E-01  9.85811865E-02  9.23757726E-02 -8.63909408E-02  1.12385546E-01
  1.96307339E-01 -9.85820701E-02  1.77310894E-01 -5.43132098E-02  2.19526701E-01
 -3.85265194E-02  5.04862131E-02  1.54266703E-02  5.28707777E-02 -2.11608618E-02
 -2.18132370E-01 -3.82389953E-01 -1.50466038E-01  1.32797116E-01  2.40619772E-01