 Entering Gaussian System, Link 0=/share/apps/g09/g09
 Input=C6H14_3_04_1_opt_PM6.gjf
 Output=C6H14_3_04_1_opt_PM6.log
 Initial command:
 /share/apps/g09/l1.exe /state/partition1/Gau-19428.inp -scrdir=/state/partition1/
 Entering Link 1 = /share/apps/g09/l1.exe PID=     19430.
  
 Copyright (c) 1988,1990,1992,1993,1995,1998,2003,2009, Gaussian, Inc.
                  All Rights Reserved.
  
 This is part of the Gaussian(R) 09 program.  It is based on
 the Gaussian(R) 03 system (copyright 2003, Gaussian, Inc.),
 the Gaussian(R) 98 system (copyright 1998, Gaussian, Inc.),
 the Gaussian(R) 94 system (copyright 1995, Gaussian, Inc.),
 the Gaussian 92(TM) system (copyright 1992, Gaussian, Inc.),
 the Gaussian 90(TM) system (copyright 1990, Gaussian, Inc.),
 the Gaussian 88(TM) system (copyright 1988, Gaussian, Inc.),
 the Gaussian 86(TM) system (copyright 1986, Carnegie Mellon
 University), and the Gaussian 82(TM) system (copyright 1983,
 Carnegie Mellon University). Gaussian is a federally registered
 trademark of Gaussian, Inc.
  
 This software contains proprietary and confidential information,
 including trade secrets, belonging to Gaussian, Inc.
  
 This software is provided under written license and may be
 used, copied, transmitted, or stored only in accord with that
 written license.
  
 The following legend is applicable only to US Government
 contracts under FAR:
  
                    RESTRICTED RIGHTS LEGEND
  
 Use, reproduction and disclosure by the US Government is
 subject to restrictions as set forth in subparagraphs (a)
 and (c) of the Commercial Computer Software - Restricted
 Rights clause in FAR 52.227-19.
  
 Gaussian, Inc.
 340 Quinnipiac St., Bldg. 40, Wallingford CT 06492
  
  
 ---------------------------------------------------------------
 Warning -- This program may not be used in any manner that
 competes with the business of Gaussian, Inc. or will provide
 assistance to any competitor of Gaussian, Inc.  The licensee
 of this program is prohibited from giving any competitor of
 Gaussian, Inc. access to this program.  By using this program,
 the user acknowledges that Gaussian, Inc. is engaged in the
 business of creating and licensing software in the field of
 computational chemistry and represents and warrants to the
 licensee that it is not a competitor of Gaussian, Inc. and that
 it will not use this program in any manner prohibited above.
 ---------------------------------------------------------------
  

 Cite this work as:
 Gaussian 09, Revision A.01,
 M. J. Frisch, G. W. Trucks, H. B. Schlegel, G. E. Scuseria, 
 M. A. Robb, J. R. Cheeseman, G. Scalmani, V. Barone, B. Mennucci, 
 G. A. Petersson, H. Nakatsuji, M. Caricato, X. Li, H. P. Hratchian, 
 A. F. Izmaylov, J. Bloino, G. Zheng, J. L. Sonnenberg, M. Hada, 
 M. Ehara, K. Toyota, R. Fukuda, J. Hasegawa, M. Ishida, T. Nakajima, 
 Y. Honda, O. Kitao, H. Nakai, T. Vreven, J. A. Montgomery, Jr., 
 J. E. Peralta, F. Ogliaro, M. Bearpark, J. J. Heyd, E. Brothers, 
 K. N. Kudin, V. N. Staroverov, R. Kobayashi, J. Normand, 
 K. Raghavachari, A. Rendell, J. C. Burant, S. S. Iyengar, J. Tomasi, 
 M. Cossi, N. Rega, J. M. Millam, M. Klene, J. E. Knox, J. B. Cross, 
 V. Bakken, C. Adamo, J. Jaramillo, R. Gomperts, R. E. Stratmann, 
 O. Yazyev, A. J. Austin, R. Cammi, C. Pomelli, J. W. Ochterski, 
 R. L. Martin, K. Morokuma, V. G. Zakrzewski, G. A. Voth, 
 P. Salvador, J. J. Dannenberg, S. Dapprich, A. D. Daniels, 
 O. Farkas, J. B. Foresman, J. V. Ortiz, J. Cioslowski, 
 and D. J. Fox, Gaussian, Inc., Wallingford CT, 2009.
 
 ******************************************
 Gaussian 09:  EM64L-G09RevA.01  8-May-2009
                14-Sep-2015 
 ******************************************
 %mem=3GB
 %nprocshared=2
 Will use up to    2 processors via shared memory.
 %chk=C6H14_3_04_1_opt_PM6.chk
 ----------
 #p PM6 opt
 ----------
 1/14=-1,18=20,19=15,26=1,38=1/1,3;
 2/9=110,12=2,17=6,18=5,40=1/2;
 3/5=2,16=1,25=1,41=3900000,71=1/1,2,3;
 4/35=1/1;
 5/5=2,35=1,38=5/2;
 6/7=2,8=2,9=2,10=2,28=1/1;
 7//1,2,3,16;
 1/14=-1,18=20,19=15/3(2);
 2/9=110/2;
 99//99;
 2/9=110/2;
 3/5=2,16=1,25=1,41=3900000,71=1,135=20/1,2,3;
 4/5=5,16=3,35=1/1;
 5/5=2,35=1,38=5/2;
 7//1,2,3,16;
 1/14=-1,18=20,19=15/3(-5);
 2/9=110/2;
 6/7=2,8=2,9=2,10=2,19=2,28=1/1;
 99/9=1/99;
 Leave Link    1 at Mon Sep 14 19:12:19 2015, MaxMem=  402653184 cpu:       0.1
 (Enter /share/apps/g09/l101.exe)
 ----------------------------------
 using PM6 to do opt and freq calc.
 ----------------------------------
 Symbolic Z-matrix:
 Charge =  0 Multiplicity = 1
 C                    -2.6785   -0.1622   -0.0212 
 H                    -2.9605    0.021    -1.0817 
 H                    -2.6808    0.8032    0.534 
 H                    -3.4477   -0.831     0.4276 
 C                    -1.3063   -0.8322    0.0731 
 H                    -1.1889   -1.1639    1.1316 
 H                    -1.3071   -1.7446   -0.5679 
 C                    -0.1104    0.075    -0.3056 
 H                    -0.1778    1.0033    0.31 
 C                    -0.1351    0.4793   -1.8 
 H                    -1.0973    0.992    -2.0251 
 H                    -0.0767   -0.4322   -2.4394 
 C                     0.9728    1.447    -2.2209 
 H                     1.9652    0.9438   -2.2048 
 H                     0.7831    1.7999   -3.26 
 H                     0.9956    2.3308   -1.5435 
 C                     1.2036   -0.63      0.0775 
 H                     1.183    -0.9454    1.1457 
 H                     1.3638   -1.5313   -0.5578 
 H                     2.0711    0.0563   -0.0438 
 
 NAtoms=     20 NQM=     20 NQMF=      0 NMic=      0 NMicF=      0 NTot=     20.
                    Isotopes and Nuclear Properties:
 (Nuclear quadrupole moments (NQMom) in fm**2, nuclear magnetic moments (NMagM)
  in nuclear magnetons)

  Atom         1           2           3           4           5           6           7           8           9          10
 IAtWgt=          12           1           1           1          12           1           1          12           1          12
 AtmWgt=  12.0000000   1.0078250   1.0078250   1.0078250  12.0000000   1.0078250   1.0078250  12.0000000   1.0078250  12.0000000
 NucSpn=           0           1           1           1           0           1           1           0           1           0
 AtZEff=   0.0000000   0.0000000   0.0000000   0.0000000   0.0000000   0.0000000   0.0000000   0.0000000   0.0000000   0.0000000
 NQMom=    0.0000000   0.0000000   0.0000000   0.0000000   0.0000000   0.0000000   0.0000000   0.0000000   0.0000000   0.0000000
 NMagM=    0.0000000   2.7928460   2.7928460   2.7928460   0.0000000   2.7928460   2.7928460   0.0000000   2.7928460   0.0000000

  Atom        11          12          13          14          15          16          17          18          19          20
 IAtWgt=           1           1          12           1           1           1          12           1           1           1
 AtmWgt=   1.0078250   1.0078250  12.0000000   1.0078250   1.0078250   1.0078250  12.0000000   1.0078250   1.0078250   1.0078250
 NucSpn=           1           1           0           1           1           1           0           1           1           1
 AtZEff=   0.0000000   0.0000000   0.0000000   0.0000000   0.0000000   0.0000000   0.0000000   0.0000000   0.0000000   0.0000000
 NQMom=    0.0000000   0.0000000   0.0000000   0.0000000   0.0000000   0.0000000   0.0000000   0.0000000   0.0000000   0.0000000
 NMagM=    2.7928460   2.7928460   0.0000000   2.7928460   2.7928460   2.7928460   0.0000000   2.7928460   2.7928460   2.7928460
 Leave Link  101 at Mon Sep 14 19:12:19 2015, MaxMem=  402653184 cpu:       0.1
 (Enter /share/apps/g09/l103.exe)

 GradGradGradGradGradGradGradGradGradGradGradGradGradGradGradGradGradGrad
 Berny optimization.
 Initialization pass.
                           ----------------------------
                           !    Initial Parameters    !
                           ! (Angstroms and Degrees)  !
 --------------------------                            --------------------------
 ! Name  Definition              Value          Derivative Info.                !
 --------------------------------------------------------------------------------
 ! R1    R(1,2)                  1.1125         estimate D2E/DX2                !
 ! R2    R(1,3)                  1.1137         estimate D2E/DX2                !
 ! R3    R(1,4)                  1.1137         estimate D2E/DX2                !
 ! R4    R(1,5)                  1.5299         estimate D2E/DX2                !
 ! R5    R(5,6)                  1.1155         estimate D2E/DX2                !
 ! R6    R(5,7)                  1.1151         estimate D2E/DX2                !
 ! R7    R(5,8)                  1.5481         estimate D2E/DX2                !
 ! R8    R(8,9)                  1.1159         estimate D2E/DX2                !
 ! R9    R(8,10)                 1.5483         estimate D2E/DX2                !
 ! R10   R(8,17)                 1.5396         estimate D2E/DX2                !
 ! R11   R(10,11)                1.1133         estimate D2E/DX2                !
 ! R12   R(10,12)                1.1149         estimate D2E/DX2                !
 ! R13   R(10,13)                1.53           estimate D2E/DX2                !
 ! R14   R(13,14)                1.1128         estimate D2E/DX2                !
 ! R15   R(13,15)                1.1137         estimate D2E/DX2                !
 ! R16   R(13,16)                1.1138         estimate D2E/DX2                !
 ! R17   R(17,18)                1.114          estimate D2E/DX2                !
 ! R18   R(17,19)                1.1143         estimate D2E/DX2                !
 ! R19   R(17,20)                1.1128         estimate D2E/DX2                !
 ! A1    A(2,1,3)              109.3869         estimate D2E/DX2                !
 ! A2    A(2,1,4)              107.9354         estimate D2E/DX2                !
 ! A3    A(2,1,5)              110.99           estimate D2E/DX2                !
 ! A4    A(3,1,4)              108.5564         estimate D2E/DX2                !
 ! A5    A(3,1,5)              110.533          estimate D2E/DX2                !
 ! A6    A(4,1,5)              109.3678         estimate D2E/DX2                !
 ! A7    A(1,5,6)              106.446          estimate D2E/DX2                !
 ! A8    A(1,5,7)              108.7995         estimate D2E/DX2                !
 ! A9    A(1,5,8)              114.9068         estimate D2E/DX2                !
 ! A10   A(6,5,7)              107.5934         estimate D2E/DX2                !
 ! A11   A(6,5,8)              108.971          estimate D2E/DX2                !
 ! A12   A(7,5,8)              109.8425         estimate D2E/DX2                !
 ! A13   A(5,8,9)              107.8113         estimate D2E/DX2                !
 ! A14   A(5,8,10)             112.1356         estimate D2E/DX2                !
 ! A15   A(5,8,17)             109.2743         estimate D2E/DX2                !
 ! A16   A(9,8,10)             108.3163         estimate D2E/DX2                !
 ! A17   A(9,8,17)             107.1698         estimate D2E/DX2                !
 ! A18   A(10,8,17)            111.9223         estimate D2E/DX2                !
 ! A19   A(8,10,11)            109.2202         estimate D2E/DX2                !
 ! A20   A(8,10,12)            109.8283         estimate D2E/DX2                !
 ! A21   A(8,10,13)            114.7783         estimate D2E/DX2                !
 ! A22   A(11,10,12)           107.8075         estimate D2E/DX2                !
 ! A23   A(11,10,13)           106.1971         estimate D2E/DX2                !
 ! A24   A(12,10,13)           108.7461         estimate D2E/DX2                !
 ! A25   A(10,13,14)           110.841          estimate D2E/DX2                !
 ! A26   A(10,13,15)           109.4963         estimate D2E/DX2                !
 ! A27   A(10,13,16)           110.4497         estimate D2E/DX2                !
 ! A28   A(14,13,15)           107.9808         estimate D2E/DX2                !
 ! A29   A(14,13,16)           109.3761         estimate D2E/DX2                !
 ! A30   A(15,13,16)           108.6336         estimate D2E/DX2                !
 ! A31   A(8,17,18)            110.6384         estimate D2E/DX2                !
 ! A32   A(8,17,19)            110.562          estimate D2E/DX2                !
 ! A33   A(8,17,20)            110.8429         estimate D2E/DX2                !
 ! A34   A(18,17,19)           108.6847         estimate D2E/DX2                !
 ! A35   A(18,17,20)           107.0713         estimate D2E/DX2                !
 ! A36   A(19,17,20)           108.9434         estimate D2E/DX2                !
 ! D1    D(2,1,5,6)           -168.9318         estimate D2E/DX2                !
 ! D2    D(2,1,5,7)            -53.2481         estimate D2E/DX2                !
 ! D3    D(2,1,5,8)             70.3524         estimate D2E/DX2                !
 ! D4    D(3,1,5,6)             69.5106         estimate D2E/DX2                !
 ! D5    D(3,1,5,7)           -174.8057         estimate D2E/DX2                !
 ! D6    D(3,1,5,8)            -51.2052         estimate D2E/DX2                !
 ! D7    D(4,1,5,6)            -49.9532         estimate D2E/DX2                !
 ! D8    D(4,1,5,7)             65.7305         estimate D2E/DX2                !
 ! D9    D(4,1,5,8)           -170.669          estimate D2E/DX2                !
 ! D10   D(1,5,8,9)             53.5289         estimate D2E/DX2                !
 ! D11   D(1,5,8,10)           -65.6173         estimate D2E/DX2                !
 ! D12   D(1,5,8,17)           169.6856         estimate D2E/DX2                !
 ! D13   D(6,5,8,9)            -65.7913         estimate D2E/DX2                !
 ! D14   D(6,5,8,10)           175.0625         estimate D2E/DX2                !
 ! D15   D(6,5,8,17)            50.3654         estimate D2E/DX2                !
 ! D16   D(7,5,8,9)            176.5732         estimate D2E/DX2                !
 ! D17   D(7,5,8,10)            57.427          estimate D2E/DX2                !
 ! D18   D(7,5,8,17)           -67.2701         estimate D2E/DX2                !
 ! D19   D(5,8,10,11)           57.312          estimate D2E/DX2                !
 ! D20   D(5,8,10,12)          -60.722          estimate D2E/DX2                !
 ! D21   D(5,8,10,13)          176.4093         estimate D2E/DX2                !
 ! D22   D(9,8,10,11)          -61.537          estimate D2E/DX2                !
 ! D23   D(9,8,10,12)         -179.571          estimate D2E/DX2                !
 ! D24   D(9,8,10,13)           57.5603         estimate D2E/DX2                !
 ! D25   D(17,8,10,11)        -179.4689         estimate D2E/DX2                !
 ! D26   D(17,8,10,12)          62.4971         estimate D2E/DX2                !
 ! D27   D(17,8,10,13)         -60.3716         estimate D2E/DX2                !
 ! D28   D(5,8,17,18)          -53.0412         estimate D2E/DX2                !
 ! D29   D(5,8,17,19)           67.4169         estimate D2E/DX2                !
 ! D30   D(5,8,17,20)         -171.6648         estimate D2E/DX2                !
 ! D31   D(9,8,17,18)           63.5234         estimate D2E/DX2                !
 ! D32   D(9,8,17,19)         -176.0185         estimate D2E/DX2                !
 ! D33   D(9,8,17,20)          -55.1002         estimate D2E/DX2                !
 ! D34   D(10,8,17,18)        -177.8626         estimate D2E/DX2                !
 ! D35   D(10,8,17,19)         -57.4046         estimate D2E/DX2                !
 ! D36   D(10,8,17,20)          63.5138         estimate D2E/DX2                !
 ! D37   D(8,10,13,14)          69.6287         estimate D2E/DX2                !
 ! D38   D(8,10,13,15)        -171.347          estimate D2E/DX2                !
 ! D39   D(8,10,13,16)         -51.7587         estimate D2E/DX2                !
 ! D40   D(11,10,13,14)       -169.5975         estimate D2E/DX2                !
 ! D41   D(11,10,13,15)        -50.5732         estimate D2E/DX2                !
 ! D42   D(11,10,13,16)         69.0152         estimate D2E/DX2                !
 ! D43   D(12,10,13,14)        -53.8197         estimate D2E/DX2                !
 ! D44   D(12,10,13,15)         65.2046         estimate D2E/DX2                !
 ! D45   D(12,10,13,16)       -175.2071         estimate D2E/DX2                !
 --------------------------------------------------------------------------------
 Trust Radius=3.00D-01 FncErr=1.00D-07 GrdErr=1.00D-07
 Number of steps in this run= 110 maximum allowed number of steps= 120.
 GradGradGradGradGradGradGradGradGradGradGradGradGradGradGradGradGradGrad

 Leave Link  103 at Mon Sep 14 19:12:21 2015, MaxMem=  402653184 cpu:       0.0
 (Enter /share/apps/g09/l202.exe)
                          Input orientation:                          
 ---------------------------------------------------------------------
 Center     Atomic      Atomic             Coordinates (Angstroms)
 Number     Number       Type             X           Y           Z
 ---------------------------------------------------------------------
      1          6           0       -2.678500   -0.162200   -0.021200
      2          1           0       -2.960500    0.021000   -1.081700
      3          1           0       -2.680800    0.803200    0.534000
      4          1           0       -3.447700   -0.831000    0.427600
      5          6           0       -1.306300   -0.832200    0.073100
      6          1           0       -1.188900   -1.163900    1.131600
      7          1           0       -1.307100   -1.744600   -0.567900
      8          6           0       -0.110400    0.075000   -0.305600
      9          1           0       -0.177800    1.003300    0.310000
     10          6           0       -0.135100    0.479300   -1.800000
     11          1           0       -1.097300    0.992000   -2.025100
     12          1           0       -0.076700   -0.432200   -2.439400
     13          6           0        0.972800    1.447000   -2.220900
     14          1           0        1.965200    0.943800   -2.204800
     15          1           0        0.783100    1.799900   -3.260000
     16          1           0        0.995600    2.330800   -1.543500
     17          6           0        1.203600   -0.630000    0.077500
     18          1           0        1.183000   -0.945400    1.145700
     19          1           0        1.363800   -1.531300   -0.557800
     20          1           0        2.071100    0.056300   -0.043800
 ---------------------------------------------------------------------
                    Distance matrix (angstroms):
                    1          2          3          4          5
     1  C    0.000000
     2  H    1.112541   0.000000
     3  H    1.113665   1.816743   0.000000
     4  H    1.113725   1.800348   1.808332   0.000000
     5  C    1.529943   2.190409   2.185455   2.170545   0.000000
     6  H    2.133368   3.072662   2.540152   2.389271   1.115451
     7  H    2.164165   2.472866   3.097179   2.531374   1.115058
     8  C    2.594665   2.954373   2.800386   3.534967   1.548096
     9  H    2.778774   3.262692   2.520957   3.751097   2.167647
    10  C    3.169311   2.951081   3.468870   4.201477   2.569094
    11  H    2.801426   2.303119   3.015313   3.855314   2.788159
    12  H    3.562296   3.219479   4.141094   4.443239   2.825699
    13  C    4.556336   4.336139   4.620903   5.634240   3.956196
    14  H    5.249314   5.135702   5.395008   6.275263   4.364140
    15  H    5.130530   4.682309   5.233206   6.198362   4.733191
    16  H    4.693768   4.604255   4.490600   5.798718   4.232813
    17  C    3.911429   4.371187   4.165455   4.668786   2.518035
    18  H    4.109287   4.802482   4.284942   4.687445   2.712913
    19  H    4.301461   4.624249   4.795905   4.961045   2.831291
    20  H    4.754677   5.137653   4.844818   5.609516   3.494271
                    6          7          8          9         10
     6  H    0.000000
     7  H    1.799857   0.000000
     8  C    2.182563   2.193590   0.000000
     9  H    2.528657   3.097899   1.115906   0.000000
    10  C    3.522056   2.799533   1.548322   2.174511   0.000000
    11  H    3.823748   3.107479   2.184386   2.509641   1.113266
    12  H    3.811091   2.595918   2.193511   3.103237   1.114933
    13  C    4.767494   4.256367   2.593083   2.815352   1.530047
    14  H    5.051961   4.540362   2.944468   3.304574   2.188809
    15  H    5.653233   4.917298   3.535831   3.781904   2.172251
    16  H    4.913362   4.781538   2.800762   2.564096   2.184566
    17  C    2.668376   2.821788   1.539606   2.151741   2.558842
    18  H    2.381985   3.126619   2.195534   2.519445   3.527649
    19  H    3.083072   2.679423   2.194782   3.090923   2.798620
    20  H    3.673970   3.863956   2.197233   2.465671   2.851401
                   11         12         13         14         15
    11  H    0.000000
    12  H    1.800448   0.000000
    13  C    2.128539   2.163466   0.000000
    14  H    3.068146   2.473412   1.112802   0.000000
    15  H    2.390311   2.528816   1.113667   1.801032   0.000000
    16  H    2.530722   3.096229   1.113774   1.816923   1.809249
    17  C    3.513681   2.830738   3.106419   2.875026   4.149716
    18  H    4.359732   3.834470   4.135427   3.925145   5.206418
    19  H    3.817987   2.612179   3.433519   3.033218   4.328509
    20  H    3.852252   3.254317   2.807147   2.338545   3.878534
                   16         17         18         19         20
    16  H    0.000000
    17  C    3.381899   0.000000
    18  H    4.242688   1.113981   0.000000
    19  H    4.002873   1.114276   1.810492   0.000000
    20  H    2.929019   1.112779   1.790820   1.812441   0.000000
 Stoichiometry    C6H14
 Framework group  C1[X(C6H14)]
 Deg. of freedom    54
 Full point group                 C1      NOp   1
 Largest Abelian subgroup         C1      NOp   1
 Largest concise Abelian subgroup C1      NOp   1
                         Standard orientation:                         
 ---------------------------------------------------------------------
 Center     Atomic      Atomic             Coordinates (Angstroms)
 Number     Number       Type             X           Y           Z
 ---------------------------------------------------------------------
      1          6           0       -2.294545   -0.841647   -0.172698
      2          1           0       -1.953536   -1.751563    0.369070
      3          1           0       -2.218578   -1.014648   -1.270218
      4          1           0       -3.364064   -0.669255    0.085743
      5          6           0       -1.470360    0.380754    0.236181
      6          1           0       -1.995593    1.270641   -0.183891
      7          1           0       -1.489347    0.471616    1.347369
      8          6           0       -0.005921    0.377293   -0.265823
      9          1           0       -0.024217    0.222242   -1.370754
     10          6           0        0.826649   -0.761892    0.371660
     11          1           0        0.339367   -1.738623    0.152767
     12          1           0        0.854932   -0.635545    1.479050
     13          6           0        2.261597   -0.875048   -0.147147
     14          1           0        2.875804   -0.012894    0.196025
     15          1           0        2.726848   -1.807037    0.246796
     16          1           0        2.270918   -0.915610   -1.260144
     17          6           0        0.621867    1.759842   -0.011212
     18          1           0       -0.013425    2.565478   -0.445155
     19          1           0        0.733855    1.943458    1.082111
     20          1           0        1.621312    1.835935   -0.494532
 ---------------------------------------------------------------------
 Rotational constants (GHZ):      4.6774461      2.1996333      1.6405801
 Leave Link  202 at Mon Sep 14 19:12:21 2015, MaxMem=  402653184 cpu:       0.0
 (Enter /share/apps/g09/l301.exe)
 Standard basis: VSTO-6G (5D, 7F)
 Ernie: Thresh=  0.10000D-02 Tol=  0.10000D-05 Strict=F.
  NNHCO=     0 NNPyr=     0 NCTC=     0               EPep=         0.000000000
    EC=       129.269184483  ECS=         3.132373042   EG=         0.305239563
   EHC=         0.000407564  EAt=       -31.187935768  AtH=         2.796400831
 EPDDG=         0.000000000  ECC=       132.707204652 EAtT=        33.984336599
 There are    38 symmetry adapted basis functions of A   symmetry.
 Integral buffers will be    131072 words long.
 Regular integral format.
 Two-electron integral symmetry is turned off.
    38 basis functions,   228 primitive gaussians,    38 cartesian basis functions
    19 alpha electrons       19 beta electrons
       nuclear repulsion energy       166.6915412507 Hartrees.
 IExCor=    0 DFT=F Ex=HF Corr=None ExCW=0 ScaHFX=  1.000000
 ScaDFX=  1.000000  1.000000  1.000000  1.000000 ScalE2=  1.000000  1.000000
 IRadAn=      0 IRanWt=     -1 IRanGd=            0 ICorTp=0
 Leave Link  301 at Mon Sep 14 19:12:22 2015, MaxMem=  402653184 cpu:       0.1
 (Enter /share/apps/g09/l302.exe)
 Do NDO integrals.
 NPDir=0 NMtPBC=     1 NCelOv=     1 NCel=       1 NClECP=     1 NCelD=      1
         NCelK=      1 NCelE2=     1 NClLst=     1 CellRange=     0.0.
 One-electron integrals computed using PRISM.
 NBasis=    38 RedAO= F  NBF=    38
 NBsUse=    38 1.00D-04 NBFU=    38
 Leave Link  302 at Mon Sep 14 19:12:24 2015, MaxMem=  402653184 cpu:       0.1
 (Enter /share/apps/g09/l303.exe)
 DipDrv:  MaxL=1.
 Leave Link  303 at Mon Sep 14 19:12:24 2015, MaxMem=  402653184 cpu:       0.0
 (Enter /share/apps/g09/l401.exe)
 Simple Huckel Guess.
 Initial guess orbital symmetries:
       Occupied  (A) (A) (A) (A) (A) (A) (A) (A) (A) (A) (A) (A)
                 (A) (A) (A) (A) (A) (A) (A)
       Virtual   (A) (A) (A) (A) (A) (A) (A) (A) (A) (A) (A) (A)
                 (A) (A) (A) (A) (A) (A) (A)
 The electronic state of the initial guess is 1-A.
 Leave Link  401 at Mon Sep 14 19:12:25 2015, MaxMem=  402653184 cpu:       0.1
 (Enter /share/apps/g09/l502.exe)
 Closed shell SCF:
 Requested convergence on RMS density matrix=1.00D-08 within 128 cycles.
 Requested convergence on MAX density matrix=1.00D-06.
 Requested convergence on             energy=1.00D-06.
 No special actions if energy rises.
 Using DIIS extrapolation, IDIIS=  1040.
 Overlap will be assumed to be unity.
 Two-electron integral symmetry not used.
 Keep J ints in memory in canonical form, NReq=884654.
 IEnd=       81865 IEndB=       81865 NGot=   402653184 MDV=   402586639
 LenX=   402586639 LenY=   402584754
 Symmetry not used in FoFDir.
 MinBra= 0 MaxBra= 1 Meth=40.
 IRaf=       0 NMat=   1 IRICut=       1 DoRegI=T DoRafI=F ISym2E= 0 JSym2E=0.

 Cycle   1  Pass 1  IDiag  1:
 E= 0.733398793510958E-01
 DIIS: error= 2.20D-02 at cycle   1 NSaved=   1.
 NSaved= 1 IEnMin= 1 EnMin= 0.733398793510958E-01 IErMin= 1 ErrMin= 2.20D-02
 ErrMax= 2.20D-02 EMaxC= 1.00D-01 BMatC= 4.37D-02 BMatP= 4.37D-02
 IDIUse=3 WtCom= 7.80D-01 WtEn= 2.20D-01
 Coeff-Com:  0.100D+01
 Coeff-En:   0.100D+01
 Coeff:      0.100D+01
 GapD=    2.000 DampG=2.000 DampE=0.500 DampFc=1.0000 IDamp=-1.
 RMSDP=8.38D-03 MaxDP=6.93D-02              OVMax= 0.00D+00

 Cycle   2  Pass 1  IDiag  1:
 E=-0.425399982811143E-01 Delta-E=       -0.115879877632 Rises=F Damp=F
 DIIS: error= 5.31D-03 at cycle   2 NSaved=   2.
 NSaved= 2 IEnMin= 2 EnMin=-0.425399982811143E-01 IErMin= 2 ErrMin= 5.31D-03
 ErrMax= 5.31D-03 EMaxC= 1.00D-01 BMatC= 3.00D-03 BMatP= 4.37D-02
 IDIUse=3 WtCom= 9.47D-01 WtEn= 5.31D-02
 Coeff-Com: -0.318D+00 0.132D+01
 Coeff-En:   0.000D+00 0.100D+01
 Coeff:     -0.301D+00 0.130D+01
 RMSDP=3.08D-03 MaxDP=2.13D-02 DE=-1.16D-01 OVMax= 0.00D+00

 Cycle   3  Pass 1  IDiag  3:
 E=-0.526033705893951E-01 Delta-E=       -0.010063372308 Rises=F Damp=F
 DIIS: error= 1.51D-03 at cycle   3 NSaved=   3.
 NSaved= 3 IEnMin= 3 EnMin=-0.526033705893951E-01 IErMin= 3 ErrMin= 1.51D-03
 ErrMax= 1.51D-03 EMaxC= 1.00D-01 BMatC= 1.30D-04 BMatP= 3.00D-03
 IDIUse=3 WtCom= 9.85D-01 WtEn= 1.51D-02
 Coeff-Com:  0.231D+00-0.102D+01 0.179D+01
 Coeff-En:   0.000D+00 0.000D+00 0.100D+01
 Coeff:      0.228D+00-0.100D+01 0.178D+01
 Gap=     0.553 Goal=   None    Shift=    0.000
 RMSDP=1.12D-03 MaxDP=1.12D-02 DE=-1.01D-02 OVMax= 0.00D+00

 Cycle   4  Pass 1  IDiag  3:
 E=-0.534403267939467E-01 Delta-E=       -0.000836956205 Rises=F Damp=F
 DIIS: error= 4.61D-04 at cycle   4 NSaved=   4.
 NSaved= 4 IEnMin= 4 EnMin=-0.534403267939467E-01 IErMin= 4 ErrMin= 4.61D-04
 ErrMax= 4.61D-04 EMaxC= 1.00D-01 BMatC= 1.00D-05 BMatP= 1.30D-04
 IDIUse=3 WtCom= 9.95D-01 WtEn= 4.61D-03
 Coeff-Com: -0.113D+00 0.508D+00-0.112D+01 0.173D+01
 Coeff-En:   0.000D+00 0.000D+00 0.000D+00 0.100D+01
 Coeff:     -0.112D+00 0.505D+00-0.112D+01 0.172D+01
 Gap=     0.553 Goal=   None    Shift=    0.000
 RMSDP=3.90D-04 MaxDP=4.17D-03 DE=-8.37D-04 OVMax= 0.00D+00

 Cycle   5  Pass 1  IDiag  3:
 E=-0.535115659249072E-01 Delta-E=       -0.000071239131 Rises=F Damp=F
 DIIS: error= 1.35D-04 at cycle   5 NSaved=   5.
 NSaved= 5 IEnMin= 5 EnMin=-0.535115659249072E-01 IErMin= 5 ErrMin= 1.35D-04
 ErrMax= 1.35D-04 EMaxC= 1.00D-01 BMatC= 3.87D-07 BMatP= 1.00D-05
 IDIUse=3 WtCom= 9.99D-01 WtEn= 1.35D-03
 Coeff-Com:  0.592D-01-0.269D+00 0.624D+00-0.108D+01 0.167D+01
 Coeff-En:   0.000D+00 0.000D+00 0.000D+00 0.000D+00 0.100D+01
 Coeff:      0.592D-01-0.268D+00 0.624D+00-0.108D+01 0.167D+01
 Gap=     0.553 Goal=   None    Shift=    0.000
 RMSDP=6.62D-05 MaxDP=8.05D-04 DE=-7.12D-05 OVMax= 0.00D+00

 Cycle   6  Pass 1  IDiag  3:
 E=-0.535141643402142E-01 Delta-E=       -0.000002598415 Rises=F Damp=F
 DIIS: error= 3.33D-05 at cycle   6 NSaved=   6.
 NSaved= 6 IEnMin= 6 EnMin=-0.535141643402142E-01 IErMin= 6 ErrMin= 3.33D-05
 ErrMax= 3.33D-05 EMaxC= 1.00D-01 BMatC= 3.05D-08 BMatP= 3.87D-07
 IDIUse=1 WtCom= 1.00D+00 WtEn= 0.00D+00
 Coeff-Com: -0.568D-02 0.263D-01-0.678D-01 0.136D+00-0.405D+00 0.132D+01
 Coeff:     -0.568D-02 0.263D-01-0.678D-01 0.136D+00-0.405D+00 0.132D+01
 Gap=     0.553 Goal=   None    Shift=    0.000
 RMSDP=1.71D-05 MaxDP=2.12D-04 DE=-2.60D-06 OVMax= 0.00D+00

 Cycle   7  Pass 1  IDiag  3:
 E=-0.535143730528489E-01 Delta-E=       -0.000000208713 Rises=F Damp=F
 DIIS: error= 9.76D-06 at cycle   7 NSaved=   7.
 NSaved= 7 IEnMin= 7 EnMin=-0.535143730528489E-01 IErMin= 7 ErrMin= 9.76D-06
 ErrMax= 9.76D-06 EMaxC= 1.00D-01 BMatC= 5.62D-09 BMatP= 3.05D-08
 IDIUse=1 WtCom= 1.00D+00 WtEn= 0.00D+00
 Coeff-Com:  0.163D-02-0.781D-02 0.225D-01-0.494D-01 0.188D+00-0.101D+01
 Coeff-Com:  0.185D+01
 Coeff:      0.163D-02-0.781D-02 0.225D-01-0.494D-01 0.188D+00-0.101D+01
 Coeff:      0.185D+01
 Gap=     0.553 Goal=   None    Shift=    0.000
 RMSDP=9.67D-06 MaxDP=1.03D-04 DE=-2.09D-07 OVMax= 0.00D+00

 Cycle   8  Pass 1  IDiag  3:
 E=-0.535144196930162E-01 Delta-E=       -0.000000046640 Rises=F Damp=F
 DIIS: error= 3.84D-06 at cycle   8 NSaved=   8.
 NSaved= 8 IEnMin= 8 EnMin=-0.535144196930162E-01 IErMin= 8 ErrMin= 3.84D-06
 ErrMax= 3.84D-06 EMaxC= 1.00D-01 BMatC= 5.98D-10 BMatP= 5.62D-09
 IDIUse=1 WtCom= 1.00D+00 WtEn= 0.00D+00
 Coeff-Com: -0.604D-03 0.313D-02-0.113D-01 0.289D-01-0.135D+00 0.852D+00
 Coeff-Com: -0.183D+01 0.210D+01
 Coeff:     -0.604D-03 0.313D-02-0.113D-01 0.289D-01-0.135D+00 0.852D+00
 Coeff:     -0.183D+01 0.210D+01
 Gap=     0.553 Goal=   None    Shift=    0.000
 RMSDP=3.67D-06 MaxDP=3.49D-05 DE=-4.66D-08 OVMax= 0.00D+00

 Cycle   9  Pass 1  IDiag  3:
 E=-0.535144248105723E-01 Delta-E=       -0.000000005118 Rises=F Damp=F
 DIIS: error= 5.64D-07 at cycle   9 NSaved=   9.
 NSaved= 9 IEnMin= 9 EnMin=-0.535144248105723E-01 IErMin= 9 ErrMin= 5.64D-07
 ErrMax= 5.64D-07 EMaxC= 1.00D-01 BMatC= 1.56D-11 BMatP= 5.98D-10
 IDIUse=1 WtCom= 1.00D+00 WtEn= 0.00D+00
 Coeff-Com: -0.915D-04 0.282D-03 0.711D-03-0.446D-02 0.356D-01-0.269D+00
 Coeff-Com:  0.610D+00-0.817D+00 0.144D+01
 Coeff:     -0.915D-04 0.282D-03 0.711D-03-0.446D-02 0.356D-01-0.269D+00
 Coeff:      0.610D+00-0.817D+00 0.144D+01
 Gap=     0.553 Goal=   None    Shift=    0.000
 RMSDP=4.58D-07 MaxDP=4.99D-06 DE=-5.12D-09 OVMax= 0.00D+00

 Cycle  10  Pass 1  IDiag  3:
 E=-0.535144249102757E-01 Delta-E=       -0.000000000100 Rises=F Damp=F
 DIIS: error= 1.57D-07 at cycle  10 NSaved=  10.
 NSaved=10 IEnMin=10 EnMin=-0.535144249102757E-01 IErMin=10 ErrMin= 1.57D-07
 ErrMax= 1.57D-07 EMaxC= 1.00D-01 BMatC= 8.16D-13 BMatP= 1.56D-11
 IDIUse=1 WtCom= 1.00D+00 WtEn= 0.00D+00
 Coeff-Com: -0.119D-10 0.616D-04-0.771D-03 0.281D-02-0.178D-01 0.127D+00
 Coeff-Com: -0.288D+00 0.390D+00-0.802D+00 0.159D+01
 Coeff:     -0.119D-10 0.616D-04-0.771D-03 0.281D-02-0.178D-01 0.127D+00
 Coeff:     -0.288D+00 0.390D+00-0.802D+00 0.159D+01
 Gap=     0.553 Goal=   None    Shift=    0.000
 RMSDP=8.78D-08 MaxDP=8.99D-07 DE=-9.97D-11 OVMax= 0.00D+00

 Cycle  11  Pass 1  IDiag  3:
 E=-0.535144249148516E-01 Delta-E=       -0.000000000005 Rises=F Damp=F
 DIIS: error= 3.74D-08 at cycle  11 NSaved=  11.
 NSaved=11 IEnMin=11 EnMin=-0.535144249148516E-01 IErMin=11 ErrMin= 3.74D-08
 ErrMax= 3.74D-08 EMaxC= 1.00D-01 BMatC= 4.38D-14 BMatP= 8.16D-13
 IDIUse=1 WtCom= 1.00D+00 WtEn= 0.00D+00
 Coeff-Com:  0.886D-05-0.652D-04 0.406D-03-0.130D-02 0.747D-02-0.520D-01
 Coeff-Com:  0.117D+00-0.158D+00 0.334D+00-0.838D+00 0.159D+01
 Coeff:      0.886D-05-0.652D-04 0.406D-03-0.130D-02 0.747D-02-0.520D-01
 Coeff:      0.117D+00-0.158D+00 0.334D+00-0.838D+00 0.159D+01
 Gap=     0.553 Goal=   None    Shift=    0.000
 RMSDP=2.19D-08 MaxDP=2.31D-07 DE=-4.58D-12 OVMax= 0.00D+00

 Cycle  12  Pass 1  IDiag  3:
 E=-0.535144249148516E-01 Delta-E=        0.000000000000 Rises=F Damp=F
 DIIS: error= 5.10D-09 at cycle  12 NSaved=  12.
 NSaved=12 IEnMin=11 EnMin=-0.535144249148516E-01 IErMin=12 ErrMin= 5.10D-09
 ErrMax= 5.10D-09 EMaxC= 1.00D-01 BMatC= 1.01D-15 BMatP= 4.38D-14
 IDIUse=1 WtCom= 1.00D+00 WtEn= 0.00D+00
 Coeff-Com: -0.561D-06 0.115D-04-0.118D-03 0.416D-03-0.257D-02 0.183D-01
 Coeff-Com: -0.413D-01 0.560D-01-0.120D+00 0.317D+00-0.690D+00 0.146D+01
 Coeff:     -0.561D-06 0.115D-04-0.118D-03 0.416D-03-0.257D-02 0.183D-01
 Coeff:     -0.413D-01 0.560D-01-0.120D+00 0.317D+00-0.690D+00 0.146D+01
 Gap=     0.553 Goal=   None    Shift=    0.000
 RMSDP=2.71D-09 MaxDP=2.80D-08 DE= 0.00D+00 OVMax= 0.00D+00

 Cycle  13  Pass 2  IDiag  1:
 RMSDP=2.71D-09 MaxDP=2.80D-08 DE= 0.00D+00 OVMax= 0.00D+00

 SCF Done:  E(RPM6) = -0.535144249149E-01 A.U. after   13 cycles
             Convg  =    0.2712D-08             -V/T =  0.9990
 KE=-5.615223106854D+01 PE=-2.545184864998D+02 EE= 1.439256618927D+02
 Leave Link  502 at Mon Sep 14 19:12:28 2015, MaxMem=  402653184 cpu:       0.1
 (Enter /share/apps/g09/l601.exe)
 Copying SCF densities to generalized density rwf, IOpCl= 0 IROHF=0.

 **********************************************************************

            Population analysis using the SCF density.

 **********************************************************************

 Orbital symmetries:
       Occupied  (A) (A) (A) (A) (A) (A) (A) (A) (A) (A) (A) (A)
                 (A) (A) (A) (A) (A) (A) (A)
       Virtual   (A) (A) (A) (A) (A) (A) (A) (A) (A) (A) (A) (A)
                 (A) (A) (A) (A) (A) (A) (A)
 The electronic state is 1-A.
 Alpha  occ. eigenvalues --   -1.05419  -0.96604  -0.91643  -0.80953  -0.76276
 Alpha  occ. eigenvalues --   -0.69688  -0.57944  -0.55330  -0.54861  -0.51822
 Alpha  occ. eigenvalues --   -0.50996  -0.47920  -0.46568  -0.45947  -0.44233
 Alpha  occ. eigenvalues --   -0.43417  -0.40825  -0.40464  -0.40060
 Alpha virt. eigenvalues --    0.15229   0.15780   0.16889   0.17991   0.18124
 Alpha virt. eigenvalues --    0.21070   0.21249   0.21771   0.21849   0.22151
 Alpha virt. eigenvalues --    0.22231   0.22836   0.23177   0.23804   0.24416
 Alpha virt. eigenvalues --    0.24590   0.24889   0.25289   0.25659
          Condensed to atoms (all electrons):
              1          2          3          4          5          6
     1  C    4.457340   0.000000   0.000000   0.000000   0.000000   0.000000
     2  H    0.000000   0.853944   0.000000   0.000000   0.000000   0.000000
     3  H    0.000000   0.000000   0.852792   0.000000   0.000000   0.000000
     4  H    0.000000   0.000000   0.000000   0.857318   0.000000   0.000000
     5  C    0.000000   0.000000   0.000000   0.000000   4.265516   0.000000
     6  H    0.000000   0.000000   0.000000   0.000000   0.000000   0.870387
     7  H    0.000000   0.000000   0.000000   0.000000   0.000000   0.000000
     8  C    0.000000   0.000000   0.000000   0.000000   0.000000   0.000000
     9  H    0.000000   0.000000   0.000000   0.000000   0.000000   0.000000
    10  C    0.000000   0.000000   0.000000   0.000000   0.000000   0.000000
    11  H    0.000000   0.000000   0.000000   0.000000   0.000000   0.000000
    12  H    0.000000   0.000000   0.000000   0.000000   0.000000   0.000000
    13  C    0.000000   0.000000   0.000000   0.000000   0.000000   0.000000
    14  H    0.000000   0.000000   0.000000   0.000000   0.000000   0.000000
    15  H    0.000000   0.000000   0.000000   0.000000   0.000000   0.000000
    16  H    0.000000   0.000000   0.000000   0.000000   0.000000   0.000000
    17  C    0.000000   0.000000   0.000000   0.000000   0.000000   0.000000
    18  H    0.000000   0.000000   0.000000   0.000000   0.000000   0.000000
    19  H    0.000000   0.000000   0.000000   0.000000   0.000000   0.000000
    20  H    0.000000   0.000000   0.000000   0.000000   0.000000   0.000000
              7          8          9         10         11         12
     1  C    0.000000   0.000000   0.000000   0.000000   0.000000   0.000000
     2  H    0.000000   0.000000   0.000000   0.000000   0.000000   0.000000
     3  H    0.000000   0.000000   0.000000   0.000000   0.000000   0.000000
     4  H    0.000000   0.000000   0.000000   0.000000   0.000000   0.000000
     5  C    0.000000   0.000000   0.000000   0.000000   0.000000   0.000000
     6  H    0.000000   0.000000   0.000000   0.000000   0.000000   0.000000
     7  H    0.868387   0.000000   0.000000   0.000000   0.000000   0.000000
     8  C    0.000000   4.021697   0.000000   0.000000   0.000000   0.000000
     9  H    0.000000   0.000000   0.887050   0.000000   0.000000   0.000000
    10  C    0.000000   0.000000   0.000000   4.256955   0.000000   0.000000
    11  H    0.000000   0.000000   0.000000   0.000000   0.870586   0.000000
    12  H    0.000000   0.000000   0.000000   0.000000   0.000000   0.869761
    13  C    0.000000   0.000000   0.000000   0.000000   0.000000   0.000000
    14  H    0.000000   0.000000   0.000000   0.000000   0.000000   0.000000
    15  H    0.000000   0.000000   0.000000   0.000000   0.000000   0.000000
    16  H    0.000000   0.000000   0.000000   0.000000   0.000000   0.000000
    17  C    0.000000   0.000000   0.000000   0.000000   0.000000   0.000000
    18  H    0.000000   0.000000   0.000000   0.000000   0.000000   0.000000
    19  H    0.000000   0.000000   0.000000   0.000000   0.000000   0.000000
    20  H    0.000000   0.000000   0.000000   0.000000   0.000000   0.000000
             13         14         15         16         17         18
     1  C    0.000000   0.000000   0.000000   0.000000   0.000000   0.000000
     2  H    0.000000   0.000000   0.000000   0.000000   0.000000   0.000000
     3  H    0.000000   0.000000   0.000000   0.000000   0.000000   0.000000
     4  H    0.000000   0.000000   0.000000   0.000000   0.000000   0.000000
     5  C    0.000000   0.000000   0.000000   0.000000   0.000000   0.000000
     6  H    0.000000   0.000000   0.000000   0.000000   0.000000   0.000000
     7  H    0.000000   0.000000   0.000000   0.000000   0.000000   0.000000
     8  C    0.000000   0.000000   0.000000   0.000000   0.000000   0.000000
     9  H    0.000000   0.000000   0.000000   0.000000   0.000000   0.000000
    10  C    0.000000   0.000000   0.000000   0.000000   0.000000   0.000000
    11  H    0.000000   0.000000   0.000000   0.000000   0.000000   0.000000
    12  H    0.000000   0.000000   0.000000   0.000000   0.000000   0.000000
    13  C    4.456654   0.000000   0.000000   0.000000   0.000000   0.000000
    14  H    0.000000   0.853605   0.000000   0.000000   0.000000   0.000000
    15  H    0.000000   0.000000   0.858345   0.000000   0.000000   0.000000
    16  H    0.000000   0.000000   0.000000   0.853816   0.000000   0.000000
    17  C    0.000000   0.000000   0.000000   0.000000   4.491936   0.000000
    18  H    0.000000   0.000000   0.000000   0.000000   0.000000   0.854725
    19  H    0.000000   0.000000   0.000000   0.000000   0.000000   0.000000
    20  H    0.000000   0.000000   0.000000   0.000000   0.000000   0.000000
             19         20
     1  C    0.000000   0.000000
     2  H    0.000000   0.000000
     3  H    0.000000   0.000000
     4  H    0.000000   0.000000
     5  C    0.000000   0.000000
     6  H    0.000000   0.000000
     7  H    0.000000   0.000000
     8  C    0.000000   0.000000
     9  H    0.000000   0.000000
    10  C    0.000000   0.000000
    11  H    0.000000   0.000000
    12  H    0.000000   0.000000
    13  C    0.000000   0.000000
    14  H    0.000000   0.000000
    15  H    0.000000   0.000000
    16  H    0.000000   0.000000
    17  C    0.000000   0.000000
    18  H    0.000000   0.000000
    19  H    0.849426   0.000000
    20  H    0.000000   0.849759
 Mulliken atomic charges:
              1
     1  C   -0.457340
     2  H    0.146056
     3  H    0.147208
     4  H    0.142682
     5  C   -0.265516
     6  H    0.129613
     7  H    0.131613
     8  C   -0.021697
     9  H    0.112950
    10  C   -0.256955
    11  H    0.129414
    12  H    0.130239
    13  C   -0.456654
    14  H    0.146395
    15  H    0.141655
    16  H    0.146184
    17  C   -0.491936
    18  H    0.145275
    19  H    0.150574
    20  H    0.150241
 Sum of Mulliken atomic charges =   0.00000
 Mulliken charges with hydrogens summed into heavy atoms:
              1
     1  C   -0.021394
     5  C   -0.004291
     8  C    0.091253
    10  C    0.002698
    13  C   -0.022420
    17  C   -0.045847
 Sum of Mulliken charges with hydrogens summed into heavy atoms =   0.00000
 Charge=              0.0000 electrons
 Dipole moment (field-independent basis, Debye):
    X=             -0.0296    Y=              0.0122    Z=              0.0022  Tot=              0.0321
 N-N= 1.666915412507D+02 E-N=-2.545184864474D+02  KE=-5.615223106854D+01
 Leave Link  601 at Mon Sep 14 19:12:28 2015, MaxMem=  402653184 cpu:       0.0
 (Enter /share/apps/g09/l701.exe)
 Compute integral first derivatives.
 ... and contract with generalized density number  0.
 Leave Link  701 at Mon Sep 14 19:12:28 2015, MaxMem=  402653184 cpu:       0.1
 (Enter /share/apps/g09/l702.exe)
 L702 exits ... SP integral derivatives will be done elsewhere.
 Leave Link  702 at Mon Sep 14 19:12:30 2015, MaxMem=  402653184 cpu:       0.0
 (Enter /share/apps/g09/l703.exe)
 Compute integral first derivatives, UseDBF=F ICtDFT=           0.
 Integral derivatives from FoFDir, PRISM(SPDF).
 Calling FoFJK, ICntrl=      2127 FMM=F ISym2X=0 I1Cent= 0 IOpClX= 0 NMat=1 NMatS=1 NMatT=0.
 FoFCou: FMM=F IPFlag=           0 FMFlag=      100000 FMFlg1=         800
         NFxFlg=           0 DoJE=F BraDBF=F KetDBF=F FulRan=T
         Omega=  0.000000  0.000000  1.000000  0.000000  0.000000 ICntrl=    2127 IOpCl=  0
         NMat0=    1 NMatS0=    1 NMatT0=    0 NMatD0=    1 NMtDS0=    0 NMtDT0=    0
         I1Cent=           0 NGrid=           0.
 Symmetry not used in FoFCou.
 Leave Link  703 at Mon Sep 14 19:12:33 2015, MaxMem=  402653184 cpu:       0.0
 (Enter /share/apps/g09/l716.exe)
 Dipole        =-1.16423241D-02 4.80141576D-03 8.49666864D-04
 ***** Axes restored to original set *****
 -------------------------------------------------------------------
 Center     Atomic                   Forces (Hartrees/Bohr)
 Number     Number              X              Y              Z
 -------------------------------------------------------------------
      1        6          -0.001214093    0.002077471   -0.001558901
      2        1           0.001117546    0.000491257    0.009820359
      3        1          -0.002383204   -0.007996033   -0.006281751
      4        1           0.004566135    0.007613089   -0.004216482
      5        6          -0.001730515   -0.001759204   -0.000975441
      6        1           0.003044788   -0.001616374   -0.004275910
      7        1           0.001592317    0.003058721    0.003862874
      8        6           0.001605244    0.000894303   -0.000530031
      9        1          -0.000853352    0.001887198   -0.000494395
     10        6          -0.001145692   -0.001344729   -0.000573367
     11        1          -0.000741016   -0.005540383    0.001454772
     12        1          -0.002312043    0.003379588    0.003331791
     13        6           0.003188905    0.000753409    0.001100186
     14        1          -0.007429759    0.006629580    0.000313153
     15        1           0.003677076   -0.001405608    0.009101979
     16        1           0.002345551   -0.007301214   -0.007241268
     17        6           0.001824872   -0.002707120    0.000303881
     18        1           0.001296151    0.001604547   -0.010137082
     19        1           0.000581656    0.008495430    0.007021322
     20        1          -0.007030567   -0.007213930   -0.000025689
 -------------------------------------------------------------------
 Cartesian Forces:  Max     0.010137082 RMS     0.004302203
 Leave Link  716 at Mon Sep 14 19:12:36 2015, MaxMem=  402653184 cpu:       0.0
 (Enter /share/apps/g09/l103.exe)

 GradGradGradGradGradGradGradGradGradGradGradGradGradGradGradGradGradGrad
 Berny optimization.
 Internal  Forces:  Max     0.010791215 RMS     0.003741130
 Search for a local minimum.
 Step number   1 out of a maximum of  110
 All quantities printed in internal units (Hartrees-Bohrs-Radians)
 RMS Force = .37411D-02 SwitMx=.10000D-02 MixMth= 1
 Mixed Optimization -- RFO/linear search
 Second derivative matrix not updated -- first step.
     Eigenvalues ---    0.00230   0.00230   0.00242   0.00368   0.00370
     Eigenvalues ---    0.03312   0.03331   0.03385   0.04543   0.04771
     Eigenvalues ---    0.04774   0.04933   0.05461   0.05536   0.05545
     Eigenvalues ---    0.05567   0.05750   0.05760   0.08609   0.08637
     Eigenvalues ---    0.12406   0.12428   0.16000   0.16000   0.16000
     Eigenvalues ---    0.16000   0.16000   0.16000   0.16000   0.16000
     Eigenvalues ---    0.16000   0.16552   0.17093   0.22001   0.22006
     Eigenvalues ---    0.27794   0.27814   0.28554   0.29419   0.29429
     Eigenvalues ---    0.31983   0.32030   0.32070   0.32083   0.32151
     Eigenvalues ---    0.32182   0.32204   0.32209   0.32215   0.32215
     Eigenvalues ---    0.32257   0.32305   0.32308   0.323331000.00000
     Eigenvalues --- 1000.000001000.000001000.000001000.000001000.00000
     Eigenvalues --- 1000.000001000.000001000.000001000.000001000.00000
     Eigenvalues --- 1000.000001000.000001000.000001000.000001000.00000
     Eigenvalues --- 1000.000001000.000001000.000001000.000001000.00000
     Eigenvalues --- 1000.000001000.000001000.000001000.000001000.00000
     Eigenvalues --- 1000.000001000.000001000.000001000.000001000.00000
     Eigenvalues --- 1000.000001000.000001000.000001000.000001000.00000
     Eigenvalues --- 1000.000001000.000001000.000001000.000001000.00000
     Eigenvalues --- 1000.000001000.000001000.000001000.000001000.00000
 RFO step:  Lambda=-5.74994465D-03 EMin= 2.30000000D-03
 Linear search not attempted -- first point.
 Iteration  1 RMS(Cart)=  0.04269853 RMS(Int)=  0.00062307
 Iteration  2 RMS(Cart)=  0.00079836 RMS(Int)=  0.00015197
 Iteration  3 RMS(Cart)=  0.00000041 RMS(Int)=  0.00015197
 Variable       Old X    -DE/DX   Delta X   Delta X   Delta X     New X
                                 (Linear)    (Quad)   (Total)
    R1        2.10240  -0.00956   0.00000  -0.02906  -0.02906   2.07334
    R2        2.10452  -0.01006   0.00000  -0.03067  -0.03067   2.07385
    R3        2.10464  -0.00942   0.00000  -0.02875  -0.02875   2.07589
    R4        2.89117  -0.00078   0.00000  -0.00259  -0.00259   2.88859
    R5        2.10790  -0.00326   0.00000  -0.00999  -0.00999   2.09791
    R6        2.10716  -0.00472   0.00000  -0.01447  -0.01447   2.09268
    R7        2.92548  -0.00584   0.00000  -0.02057  -0.02057   2.90491
    R8        2.10876   0.00135   0.00000   0.00414   0.00414   2.11290
    R9        2.92590  -0.00845   0.00000  -0.02978  -0.02978   2.89612
   R10        2.90943  -0.00363   0.00000  -0.01246  -0.01246   2.89698
   R11        2.10377  -0.00221   0.00000  -0.00672  -0.00672   2.09705
   R12        2.10692  -0.00479   0.00000  -0.01468  -0.01468   2.09224
   R13        2.89137  -0.00045   0.00000  -0.00149  -0.00149   2.88988
   R14        2.10289  -0.00962   0.00000  -0.02926  -0.02926   2.07363
   R15        2.10452  -0.00956   0.00000  -0.02917  -0.02917   2.07536
   R16        2.10473  -0.01015   0.00000  -0.03096  -0.03096   2.07376
   R17        2.10512  -0.01020   0.00000  -0.03113  -0.03113   2.07398
   R18        2.10568  -0.01079   0.00000  -0.03297  -0.03297   2.07270
   R19        2.10285  -0.00993   0.00000  -0.03019  -0.03019   2.07266
    A1        1.90916  -0.00317   0.00000  -0.02523  -0.02521   1.88395
    A2        1.88383  -0.00216   0.00000  -0.00927  -0.00946   1.87437
    A3        1.93714   0.00181   0.00000   0.00956   0.00946   1.94661
    A4        1.89467  -0.00272   0.00000  -0.01377  -0.01400   1.88067
    A5        1.92917   0.00267   0.00000   0.01415   0.01404   1.94321
    A6        1.90883   0.00336   0.00000   0.02354   0.02331   1.93214
    A7        1.85783   0.00487   0.00000   0.04253   0.04248   1.90031
    A8        1.89891   0.00279   0.00000   0.01291   0.01255   1.91146
    A9        2.00550  -0.00681   0.00000  -0.02769  -0.02759   1.97791
   A10        1.87786  -0.00219   0.00000  -0.01743  -0.01783   1.86003
   A11        1.90190   0.00030   0.00000  -0.00179  -0.00147   1.90043
   A12        1.91711   0.00130   0.00000  -0.00716  -0.00716   1.90995
   A13        1.88166   0.00055   0.00000   0.01181   0.01164   1.89330
   A14        1.95714  -0.00266   0.00000  -0.02672  -0.02679   1.93035
   A15        1.90720   0.00175   0.00000   0.00446   0.00400   1.91120
   A16        1.89048   0.00049   0.00000   0.00104   0.00118   1.89166
   A17        1.87047   0.00046   0.00000   0.02284   0.02276   1.89323
   A18        1.95341  -0.00044   0.00000  -0.01030  -0.01044   1.94297
   A19        1.90625  -0.00050   0.00000  -0.00922  -0.00893   1.89732
   A20        1.91687   0.00111   0.00000  -0.00866  -0.00862   1.90824
   A21        2.00326  -0.00640   0.00000  -0.02531  -0.02517   1.97809
   A22        1.88160  -0.00215   0.00000  -0.01848  -0.01909   1.86250
   A23        1.85349   0.00538   0.00000   0.04776   0.04764   1.90113
   A24        1.89798   0.00279   0.00000   0.01532   0.01496   1.91294
   A25        1.93454   0.00205   0.00000   0.01130   0.01121   1.94575
   A26        1.91107   0.00302   0.00000   0.02093   0.02073   1.93180
   A27        1.92771   0.00281   0.00000   0.01521   0.01510   1.94281
   A28        1.88462  -0.00215   0.00000  -0.00968  -0.00986   1.87476
   A29        1.90897  -0.00323   0.00000  -0.02460  -0.02461   1.88436
   A30        1.89601  -0.00270   0.00000  -0.01426  -0.01446   1.88156
   A31        1.93100   0.00180   0.00000   0.01351   0.01342   1.94443
   A32        1.92967   0.00253   0.00000   0.01306   0.01302   1.94269
   A33        1.93457   0.00041   0.00000   0.00199   0.00197   1.93654
   A34        1.89691  -0.00217   0.00000  -0.01222  -0.01232   1.88459
   A35        1.86875  -0.00061   0.00000   0.00061   0.00054   1.86929
   A36        1.90142  -0.00217   0.00000  -0.01813  -0.01811   1.88331
    D1       -2.94842  -0.00118   0.00000  -0.01748  -0.01774  -2.96615
    D2       -0.92935   0.00017   0.00000  -0.00934  -0.00925  -0.93860
    D3        1.22788  -0.00082   0.00000  -0.02851  -0.02851   1.19937
    D4        1.21319  -0.00021   0.00000  -0.00162  -0.00176   1.21143
    D5       -3.05094   0.00114   0.00000   0.00652   0.00673  -3.04420
    D6       -0.89370   0.00015   0.00000  -0.01265  -0.01253  -0.90623
    D7       -0.87185  -0.00060   0.00000  -0.00815  -0.00836  -0.88021
    D8        1.14721   0.00074   0.00000  -0.00001   0.00013   1.14734
    D9       -2.97874  -0.00025   0.00000  -0.01918  -0.01914  -2.99787
   D10        0.93426  -0.00007   0.00000  -0.00294  -0.00304   0.93122
   D11       -1.14524   0.00056   0.00000   0.00405   0.00403  -1.14120
   D12        2.96157   0.00171   0.00000   0.03295   0.03290   2.99447
   D13       -1.14827  -0.00207   0.00000  -0.03805  -0.03810  -1.18638
   D14        3.05542  -0.00145   0.00000  -0.03105  -0.03103   3.02439
   D15        0.87904  -0.00029   0.00000  -0.00216  -0.00216   0.87688
   D16        3.08178  -0.00034   0.00000  -0.01179  -0.01176   3.07002
   D17        1.00229   0.00028   0.00000  -0.00479  -0.00469   0.99760
   D18       -1.17408   0.00144   0.00000   0.02410   0.02417  -1.14991
   D19        1.00028  -0.00189   0.00000  -0.03735  -0.03744   0.96284
   D20       -1.05980   0.00035   0.00000  -0.00435  -0.00442  -1.06421
   D21        3.07892   0.00045   0.00000   0.00061   0.00047   3.07940
   D22       -1.07402  -0.00129   0.00000  -0.03654  -0.03655  -1.11058
   D23       -3.13411   0.00095   0.00000  -0.00354  -0.00353  -3.13763
   D24        1.00462   0.00105   0.00000   0.00142   0.00136   1.00598
   D25       -3.13232  -0.00191   0.00000  -0.05919  -0.05907   3.09180
   D26        1.09078   0.00034   0.00000  -0.02619  -0.02604   1.06474
   D27       -1.05368   0.00044   0.00000  -0.02123  -0.02115  -1.07484
   D28       -0.92574  -0.00132   0.00000  -0.02827  -0.02836  -0.95410
   D29        1.17665  -0.00119   0.00000  -0.02614  -0.02619   1.15046
   D30       -2.99612  -0.00197   0.00000  -0.03892  -0.03903  -3.03514
   D31        1.10869   0.00050   0.00000   0.00046   0.00050   1.10920
   D32       -3.07210   0.00062   0.00000   0.00259   0.00268  -3.06943
   D33       -0.96168  -0.00015   0.00000  -0.01020  -0.01016  -0.97184
   D34       -3.10429   0.00113   0.00000   0.01016   0.01018  -3.09411
   D35       -1.00190   0.00126   0.00000   0.01229   0.01235  -0.98955
   D36        1.10852   0.00048   0.00000  -0.00050  -0.00049   1.10803
   D37        1.21525  -0.00058   0.00000  -0.02292  -0.02293   1.19232
   D38       -2.99057  -0.00007   0.00000  -0.01468  -0.01464  -3.00521
   D39       -0.90336   0.00023   0.00000  -0.00968  -0.00958  -0.91294
   D40       -2.96003  -0.00130   0.00000  -0.01613  -0.01642  -2.97646
   D41       -0.88267  -0.00079   0.00000  -0.00789  -0.00814  -0.89081
   D42        1.20454  -0.00049   0.00000  -0.00289  -0.00308   1.20146
   D43       -0.93933   0.00034   0.00000  -0.00547  -0.00532  -0.94465
   D44        1.13803   0.00085   0.00000   0.00277   0.00297   1.14100
   D45       -3.05794   0.00116   0.00000   0.00778   0.00803  -3.04991
         Item               Value     Threshold  Converged?
 Maximum Force            0.010791     0.000450     NO 
 RMS     Force            0.003741     0.000300     NO 
 Maximum Displacement     0.146507     0.001800     NO 
 RMS     Displacement     0.042632     0.001200     NO 
 Predicted change in Energy=-2.995291D-03
 GradGradGradGradGradGradGradGradGradGradGradGradGradGradGradGradGradGrad

 Leave Link  103 at Mon Sep 14 19:12:37 2015, MaxMem=  402653184 cpu:       0.7
 (Enter /share/apps/g09/l202.exe)
                          Input orientation:                          
 ---------------------------------------------------------------------
 Center     Atomic      Atomic             Coordinates (Angstroms)
 Number     Number       Type             X           Y           Z
 ---------------------------------------------------------------------
      1          6           0       -2.650271   -0.138856   -0.047129
      2          1           0       -2.902047    0.071199   -1.094149
      3          1           0       -2.664569    0.811629    0.501261
      4          1           0       -3.448388   -0.773436    0.361585
      5          6           0       -1.293086   -0.831355    0.075472
      6          1           0       -1.163501   -1.185469    1.119635
      7          1           0       -1.278112   -1.732604   -0.567850
      8          6           0       -0.109964    0.078814   -0.291728
      9          1           0       -0.182884    1.016217    0.313336
     10          6           0       -0.160615    0.456513   -1.776155
     11          1           0       -1.147795    0.914472   -1.993431
     12          1           0       -0.093578   -0.462055   -2.390606
     13          6           0        0.941103    1.432692   -2.190785
     14          1           0        1.931322    0.961517   -2.151148
     15          1           0        0.783659    1.780721   -3.220445
     16          1           0        0.959384    2.314370   -1.537661
     17          6           0        1.205702   -0.625158    0.059810
     18          1           0        1.223553   -0.939054    1.111317
     19          1           0        1.359850   -1.515486   -0.561950
     20          1           0        2.061337    0.044131   -0.091580
 ---------------------------------------------------------------------
                    Distance matrix (angstroms):
                    1          2          3          4          5
     1  C    0.000000
     2  H    1.097162   0.000000
     3  H    1.097433   1.774814   0.000000
     4  H    1.098513   1.769480   1.773784   0.000000
     5  C    1.528574   2.184347   2.182123   2.174982   0.000000
     6  H    2.160376   3.082629   2.573712   2.442360   1.110165
     7  H    2.166564   2.483518   3.088426   2.548323   1.107400
     8  C    2.561322   2.905110   2.773420   3.506883   1.537212
     9  H    2.748114   3.204360   2.497186   3.724071   2.168560
    10  C    3.089074   2.851148   3.403309   4.110007   2.523809
    11  H    2.674888   2.144112   2.921416   3.699712   2.710974
    12  H    3.483249   3.138895   4.073716   4.350433   2.767082
    13  C    4.467996   4.222093   4.542433   5.536174   3.905563
    14  H    5.160302   5.027064   5.308480   6.185885   4.309180
    15  H    5.054363   4.585633   5.165318   6.104497   4.690296
    16  H    4.611899   4.487668   4.421365   5.707025   4.191825
    17  C    3.887989   4.323209   4.151896   4.666220   2.507330
    18  H    4.121751   4.785945   4.307500   4.734614   2.723609
    19  H    4.270974   4.578708   4.768839   4.952041   2.812900
    20  H    4.715369   5.063700   4.824386   5.588456   3.470811
                    6          7          8          9         10
     6  H    0.000000
     7  H    1.777666   0.000000
     8  C    2.168017   2.173027   0.000000
     9  H    2.541486   3.087399   1.118099   0.000000
    10  C    3.476706   2.738801   1.532562   2.163270   0.000000
    11  H    3.755154   3.009365   2.161299   2.502515   1.109711
    12  H    3.740302   2.517908   2.167510   3.082948   1.107164
    13  C    4.716249   4.192604   2.558152   2.776224   1.529257
    14  H    4.988537   4.479463   2.898872   3.247544   2.184457
    15  H    5.605890   4.861133   3.503203   3.742496   2.175122
    16  H    4.880239   4.724925   2.773727   2.533015   2.182409
    17  C    2.655240   2.791008   1.533015   2.164847   2.531324
    18  H    2.399753   3.115711   2.186975   2.537307   3.492997
    19  H    3.050236   2.646888   2.185215   3.091226   2.770359
    20  H    3.657668   3.812550   2.180782   2.478998   2.818674
                   11         12         13         14         15
    11  H    0.000000
    12  H    1.778748   0.000000
    13  C    2.161248   2.168077   0.000000
    14  H    3.083513   2.486789   1.097320   0.000000
    15  H    2.446725   2.547198   1.098231   1.769639   0.000000
    16  H    2.570534   3.089462   1.097388   1.775174   1.774098
    17  C    3.482127   2.778358   3.061035   2.816451   4.089797
    18  H    4.324155   3.771715   4.075394   3.841456   5.133697
    19  H    3.773873   2.562451   3.394143   2.997945   4.273707
    20  H    3.830543   3.191458   2.754939   2.258389   3.799737
                   16         17         18         19         20
    16  H    0.000000
    17  C    3.354610   0.000000
    18  H    4.203764   1.097505   0.000000
    19  H    3.972427   1.096827   1.775014   0.000000
    20  H    2.908510   1.096803   1.765076   1.773623   0.000000
 Stoichiometry    C6H14
 Framework group  C1[X(C6H14)]
 Deg. of freedom    54
 Full point group                 C1      NOp   1
 Largest Abelian subgroup         C1      NOp   1
 Largest concise Abelian subgroup C1      NOp   1
                         Standard orientation:                         
 ---------------------------------------------------------------------
 Center     Atomic      Atomic             Coordinates (Angstroms)
 Number     Number       Type             X           Y           Z
 ---------------------------------------------------------------------
      1          6           0       -2.261347   -0.820756   -0.171476
      2          1           0       -1.907473   -1.720698    0.346831
      3          1           0       -2.198216   -1.005716   -1.251366
      4          1           0       -3.321560   -0.689862    0.084541
      5          6           0       -1.452263    0.412484    0.229824
      6          1           0       -1.954326    1.317693   -0.171420
      7          1           0       -1.453689    0.513161    1.332637
      8          6           0       -0.002038    0.381050   -0.278978
      9          1           0       -0.017537    0.203947   -1.382852
     10          6           0        0.776993   -0.760808    0.382851
     11          1           0        0.232123   -1.711604    0.208034
     12          1           0        0.798586   -0.603010    1.478500
     13          6           0        2.205785   -0.903946   -0.143161
     14          1           0        2.831051   -0.053036    0.155346
     15          1           0        2.676299   -1.813102    0.254536
     16          1           0        2.222976   -0.968839   -1.238495
     17          6           0        0.662910    1.736647   -0.013770
     18          1           0        0.080318    2.560058   -0.446319
     19          1           0        0.768678    1.925115    1.061554
     20          1           0        1.662524    1.777860   -0.463272
 ---------------------------------------------------------------------
 Rotational constants (GHZ):      4.7116052      2.2724323      1.6844311
 Leave Link  202 at Mon Sep 14 19:12:38 2015, MaxMem=  402653184 cpu:       0.0
 (Enter /share/apps/g09/l301.exe)
 Standard basis: VSTO-6G (5D, 7F)
 Ernie: Thresh=  0.10000D-02 Tol=  0.10000D-05 Strict=F.
  NNHCO=     0 NNPyr=     0 NCTC=     0               EPep=         0.000000000
    EC=       130.295633002  ECS=         3.233379259   EG=         0.308525630
   EHC=         0.000459981  EAt=       -31.187935768  AtH=         2.796400831
 EPDDG=         0.000000000  ECC=       133.837997873 EAtT=        33.984336599
 There are    38 symmetry adapted basis functions of A   symmetry.
 Integral buffers will be    131072 words long.
 Regular integral format.
 Two-electron integral symmetry is turned off.
    38 basis functions,   228 primitive gaussians,    38 cartesian basis functions
    19 alpha electrons       19 beta electrons
       nuclear repulsion energy       167.8223344723 Hartrees.
 IExCor=    0 DFT=F Ex=HF Corr=None ExCW=0 ScaHFX=  1.000000
 ScaDFX=  1.000000  1.000000  1.000000  1.000000 ScalE2=  1.000000  1.000000
 IRadAn=      0 IRanWt=     -1 IRanGd=            0 ICorTp=0
 Leave Link  301 at Mon Sep 14 19:12:39 2015, MaxMem=  402653184 cpu:       0.1
 (Enter /share/apps/g09/l302.exe)
 Do NDO integrals.
 NPDir=0 NMtPBC=     1 NCelOv=     1 NCel=       1 NClECP=     1 NCelD=      1
         NCelK=      1 NCelE2=     1 NClLst=     1 CellRange=     0.0.
 One-electron integrals computed using PRISM.
 NBasis=    38 RedAO= F  NBF=    38
 NBsUse=    38 1.00D-04 NBFU=    38
 Leave Link  302 at Mon Sep 14 19:12:41 2015, MaxMem=  402653184 cpu:       0.1
 (Enter /share/apps/g09/l303.exe)
 DipDrv:  MaxL=1.
 Leave Link  303 at Mon Sep 14 19:12:42 2015, MaxMem=  402653184 cpu:       0.0
 (Enter /share/apps/g09/l401.exe)
 Initial guess read from the read-write file.
 B after Tr=     0.000000    0.000000    0.000000
         Rot=    1.000000    0.000000    0.000000    0.000000 Ang=   0.00 deg.
 Guess basis will be translated and rotated to current coordinates.
 Initial guess orbital symmetries:
       Occupied  (A) (A) (A) (A) (A) (A) (A) (A) (A) (A) (A) (A)
                 (A) (A) (A) (A) (A) (A) (A)
       Virtual   (A) (A) (A) (A) (A) (A) (A) (A) (A) (A) (A) (A)
                 (A) (A) (A) (A) (A) (A) (A)
 The electronic state of the initial guess is 1-A.
 Leave Link  401 at Mon Sep 14 19:12:42 2015, MaxMem=  402653184 cpu:       0.2
 (Enter /share/apps/g09/l502.exe)
 Closed shell SCF:
 Requested convergence on RMS density matrix=1.00D-08 within 128 cycles.
 Requested convergence on MAX density matrix=1.00D-06.
 Requested convergence on             energy=1.00D-06.
 No special actions if energy rises.
 Using DIIS extrapolation, IDIIS=  1040.
 Overlap will be assumed to be unity.
 Two-electron integral symmetry not used.
 Keep J ints in memory in canonical form, NReq=884654.
 IEnd=       81865 IEndB=       81865 NGot=   402653184 MDV=   402586639
 LenX=   402586639 LenY=   402584754
 Symmetry not used in FoFDir.
 MinBra= 0 MaxBra= 1 Meth=40.
 IRaf=       0 NMat=   1 IRICut=       1 DoRegI=T DoRafI=F ISym2E= 0 JSym2E=0.

 Cycle   1  Pass 1  IDiag  1:
 E=-0.533102742477922E-01
 DIIS: error= 4.11D-03 at cycle   1 NSaved=   1.
 NSaved= 1 IEnMin= 1 EnMin=-0.533102742477922E-01 IErMin= 1 ErrMin= 4.11D-03
 ErrMax= 4.11D-03 EMaxC= 1.00D-01 BMatC= 7.20D-04 BMatP= 7.20D-04
 IDIUse=3 WtCom= 9.59D-01 WtEn= 4.11D-02
 Coeff-Com:  0.100D+01
 Coeff-En:   0.100D+01
 Coeff:      0.100D+01
 GapD=    2.000 DampG=2.000 DampE=1.000 DampFc=2.0000 IDamp=-1.
 RMSDP=1.28D-03 MaxDP=8.89D-03              OVMax= 0.00D+00

 Cycle   2  Pass 1  IDiag  3:
 E=-0.558602577407612E-01 Delta-E=       -0.002549983493 Rises=F Damp=F
 DIIS: error= 1.72D-03 at cycle   2 NSaved=   2.
 NSaved= 2 IEnMin= 2 EnMin=-0.558602577407612E-01 IErMin= 2 ErrMin= 1.72D-03
 ErrMax= 1.72D-03 EMaxC= 1.00D-01 BMatC= 1.15D-04 BMatP= 7.20D-04
 IDIUse=3 WtCom= 9.83D-01 WtEn= 1.72D-02
 Coeff-Com: -0.597D+00 0.160D+01
 Coeff-En:   0.000D+00 0.100D+01
 Coeff:     -0.587D+00 0.159D+01
 Gap=     0.554 Goal=   None    Shift=    0.000
 RMSDP=8.73D-04 MaxDP=6.47D-03 DE=-2.55D-03 OVMax= 0.00D+00

 Cycle   3  Pass 1  IDiag  3:
 E=-0.564092066236981E-01 Delta-E=       -0.000548948883 Rises=F Damp=F
 DIIS: error= 1.98D-04 at cycle   3 NSaved=   3.
 NSaved= 3 IEnMin= 3 EnMin=-0.564092066236981E-01 IErMin= 3 ErrMin= 1.98D-04
 ErrMax= 1.98D-04 EMaxC= 1.00D-01 BMatC= 2.04D-06 BMatP= 1.15D-04
 IDIUse=3 WtCom= 9.98D-01 WtEn= 1.98D-03
 Coeff-Com:  0.218D+00-0.663D+00 0.144D+01
 Coeff-En:   0.000D+00 0.000D+00 0.100D+01
 Coeff:      0.218D+00-0.662D+00 0.144D+01
 Gap=     0.554 Goal=   None    Shift=    0.000
 RMSDP=1.33D-04 MaxDP=9.62D-04 DE=-5.49D-04 OVMax= 0.00D+00

 Cycle   4  Pass 1  IDiag  3:
 E=-0.564196884173782E-01 Delta-E=       -0.000010481794 Rises=F Damp=F
 DIIS: error= 2.08D-05 at cycle   4 NSaved=   4.
 NSaved= 4 IEnMin= 4 EnMin=-0.564196884173782E-01 IErMin= 4 ErrMin= 2.08D-05
 ErrMax= 2.08D-05 EMaxC= 1.00D-01 BMatC= 2.78D-08 BMatP= 2.04D-06
 IDIUse=1 WtCom= 1.00D+00 WtEn= 0.00D+00
 Coeff-Com: -0.882D-01 0.270D+00-0.629D+00 0.145D+01
 Coeff:     -0.882D-01 0.270D+00-0.629D+00 0.145D+01
 Gap=     0.554 Goal=   None    Shift=    0.000
 RMSDP=1.43D-05 MaxDP=9.06D-05 DE=-1.05D-05 OVMax= 0.00D+00

 Cycle   5  Pass 1  IDiag  3:
 E=-0.564198382116103E-01 Delta-E=       -0.000000149794 Rises=F Damp=F
 DIIS: error= 5.28D-06 at cycle   5 NSaved=   5.
 NSaved= 5 IEnMin= 5 EnMin=-0.564198382116103E-01 IErMin= 5 ErrMin= 5.28D-06
 ErrMax= 5.28D-06 EMaxC= 1.00D-01 BMatC= 1.90D-09 BMatP= 2.78D-08
 IDIUse=1 WtCom= 1.00D+00 WtEn= 0.00D+00
 Coeff-Com:  0.423D-01-0.130D+00 0.306D+00-0.855D+00 0.164D+01
 Coeff:      0.423D-01-0.130D+00 0.306D+00-0.855D+00 0.164D+01
 Gap=     0.554 Goal=   None    Shift=    0.000
 RMSDP=4.51D-06 MaxDP=3.13D-05 DE=-1.50D-07 OVMax= 0.00D+00

 Cycle   6  Pass 1  IDiag  3:
 E=-0.564198501698172E-01 Delta-E=       -0.000000011958 Rises=F Damp=F
 DIIS: error= 1.32D-06 at cycle   6 NSaved=   6.
 NSaved= 6 IEnMin= 6 EnMin=-0.564198501698172E-01 IErMin= 6 ErrMin= 1.32D-06
 ErrMax= 1.32D-06 EMaxC= 1.00D-01 BMatC= 1.14D-10 BMatP= 1.90D-09
 IDIUse=1 WtCom= 1.00D+00 WtEn= 0.00D+00
 Coeff-Com: -0.223D-01 0.684D-01-0.162D+00 0.470D+00-0.104D+01 0.168D+01
 Coeff:     -0.223D-01 0.684D-01-0.162D+00 0.470D+00-0.104D+01 0.168D+01
 Gap=     0.554 Goal=   None    Shift=    0.000
 RMSDP=1.13D-06 MaxDP=8.75D-06 DE=-1.20D-08 OVMax= 0.00D+00

 Cycle   7  Pass 1  IDiag  3:
 E=-0.564198509291600E-01 Delta-E=       -0.000000000759 Rises=F Damp=F
 DIIS: error= 3.44D-07 at cycle   7 NSaved=   7.
 NSaved= 7 IEnMin= 7 EnMin=-0.564198509291600E-01 IErMin= 7 ErrMin= 3.44D-07
 ErrMax= 3.44D-07 EMaxC= 1.00D-01 BMatC= 8.70D-12 BMatP= 1.14D-10
 IDIUse=1 WtCom= 1.00D+00 WtEn= 0.00D+00
 Coeff-Com:  0.780D-02-0.239D-01 0.565D-01-0.167D+00 0.389D+00-0.840D+00
 Coeff-Com:  0.158D+01
 Coeff:      0.780D-02-0.239D-01 0.565D-01-0.167D+00 0.389D+00-0.840D+00
 Coeff:      0.158D+01
 Gap=     0.554 Goal=   None    Shift=    0.000
 RMSDP=3.27D-07 MaxDP=2.84D-06 DE=-7.59D-10 OVMax= 0.00D+00

 Cycle   8  Pass 1  IDiag  3:
 E=-0.564198509894709E-01 Delta-E=       -0.000000000060 Rises=F Damp=F
 DIIS: error= 1.03D-07 at cycle   8 NSaved=   8.
 NSaved= 8 IEnMin= 8 EnMin=-0.564198509894709E-01 IErMin= 8 ErrMin= 1.03D-07
 ErrMax= 1.03D-07 EMaxC= 1.00D-01 BMatC= 5.85D-13 BMatP= 8.70D-12
 IDIUse=1 WtCom= 1.00D+00 WtEn= 0.00D+00
 Coeff-Com: -0.120D-02 0.367D-02-0.868D-02 0.266D-01-0.655D-01 0.176D+00
 Coeff-Com: -0.567D+00 0.144D+01
 Coeff:     -0.120D-02 0.367D-02-0.868D-02 0.266D-01-0.655D-01 0.176D+00
 Coeff:     -0.567D+00 0.144D+01
 Gap=     0.554 Goal=   None    Shift=    0.000
 RMSDP=8.37D-08 MaxDP=7.02D-07 DE=-6.03D-11 OVMax= 0.00D+00

 Cycle   9  Pass 1  IDiag  3:
 E=-0.564198509936205E-01 Delta-E=       -0.000000000004 Rises=F Damp=F
 DIIS: error= 4.54D-08 at cycle   9 NSaved=   9.
 NSaved= 9 IEnMin= 9 EnMin=-0.564198509936205E-01 IErMin= 9 ErrMin= 4.54D-08
 ErrMax= 4.54D-08 EMaxC= 1.00D-01 BMatC= 6.99D-14 BMatP= 5.85D-13
 IDIUse=1 WtCom= 1.00D+00 WtEn= 0.00D+00
 Coeff-Com:  0.128D-03-0.386D-03 0.916D-03-0.348D-02 0.110D-01-0.491D-01
 Coeff-Com:  0.259D+00-0.974D+00 0.176D+01
 Coeff:      0.128D-03-0.386D-03 0.916D-03-0.348D-02 0.110D-01-0.491D-01
 Coeff:      0.259D+00-0.974D+00 0.176D+01
 Gap=     0.554 Goal=   None    Shift=    0.000
 RMSDP=3.15D-08 MaxDP=3.28D-07 DE=-4.15D-12 OVMax= 0.00D+00

 Cycle  10  Pass 1  IDiag  3:
 E=-0.564198509942457E-01 Delta-E=       -0.000000000001 Rises=F Damp=F
 DIIS: error= 1.46D-08 at cycle  10 NSaved=  10.
 NSaved=10 IEnMin=10 EnMin=-0.564198509942457E-01 IErMin=10 ErrMin= 1.46D-08
 ErrMax= 1.46D-08 EMaxC= 1.00D-01 BMatC= 8.81D-15 BMatP= 6.99D-14
 IDIUse=1 WtCom= 1.00D+00 WtEn= 0.00D+00
 Coeff-Com: -0.258D-04 0.748D-04-0.177D-03 0.997D-03-0.397D-02 0.235D-01
 Coeff-Com: -0.146D+00 0.605D+00-0.138D+01 0.190D+01
 Coeff:     -0.258D-04 0.748D-04-0.177D-03 0.997D-03-0.397D-02 0.235D-01
 Coeff:     -0.146D+00 0.605D+00-0.138D+01 0.190D+01
 Gap=     0.554 Goal=   None    Shift=    0.000
 RMSDP=1.34D-08 MaxDP=1.55D-07 DE=-6.25D-13 OVMax= 0.00D+00

 Cycle  11  Pass 1  IDiag  3:
 E=-0.564198509943310E-01 Delta-E=        0.000000000000 Rises=F Damp=F
 DIIS: error= 3.22D-09 at cycle  11 NSaved=  11.
 NSaved=11 IEnMin=11 EnMin=-0.564198509943310E-01 IErMin=11 ErrMin= 3.22D-09
 ErrMax= 3.22D-09 EMaxC= 1.00D-01 BMatC= 6.12D-16 BMatP= 8.81D-15
 IDIUse=1 WtCom= 1.00D+00 WtEn= 0.00D+00
 Coeff-Com:  0.584D-05-0.160D-04 0.384D-04-0.335D-03 0.153D-02-0.101D-01
 Coeff-Com:  0.662D-01-0.282D+00 0.682D+00-0.117D+01 0.171D+01
 Coeff:      0.584D-05-0.160D-04 0.384D-04-0.335D-03 0.153D-02-0.101D-01
 Coeff:      0.662D-01-0.282D+00 0.682D+00-0.117D+01 0.171D+01
 Gap=     0.554 Goal=   None    Shift=    0.000
 RMSDP=3.48D-09 MaxDP=3.94D-08 DE=-8.53D-14 OVMax= 0.00D+00

 Cycle  12  Pass 2  IDiag  1:
 RMSDP=3.48D-09 MaxDP=3.94D-08 DE=-8.53D-14 OVMax= 0.00D+00

 SCF Done:  E(RPM6) = -0.564198509943E-01 A.U. after   12 cycles
             Convg  =    0.3485D-08             -V/T =  0.9990
 KE=-5.625466713893D+01 PE=-2.565172018342D+02 EE= 1.448931146498D+02
 Leave Link  502 at Mon Sep 14 19:12:43 2015, MaxMem=  402653184 cpu:       0.1
 (Enter /share/apps/g09/l701.exe)
 Compute integral first derivatives.
 ... and contract with generalized density number  0.
 Leave Link  701 at Mon Sep 14 19:12:44 2015, MaxMem=  402653184 cpu:       0.1
 (Enter /share/apps/g09/l702.exe)
 L702 exits ... SP integral derivatives will be done elsewhere.
 Leave Link  702 at Mon Sep 14 19:12:47 2015, MaxMem=  402653184 cpu:       0.0
 (Enter /share/apps/g09/l703.exe)
 Compute integral first derivatives, UseDBF=F ICtDFT=           0.
 Integral derivatives from FoFDir, PRISM(SPDF).
 Calling FoFJK, ICntrl=      2127 FMM=F ISym2X=0 I1Cent= 0 IOpClX= 0 NMat=1 NMatS=1 NMatT=0.
 FoFCou: FMM=F IPFlag=           0 FMFlag=      100000 FMFlg1=         800
         NFxFlg=           0 DoJE=F BraDBF=F KetDBF=F FulRan=T
         Omega=  0.000000  0.000000  1.000000  0.000000  0.000000 ICntrl=    2127 IOpCl=  0
         NMat0=    1 NMatS0=    1 NMatT0=    0 NMatD0=    1 NMtDS0=    0 NMtDT0=    0
         I1Cent=           0 NGrid=           0.
 Symmetry not used in FoFCou.
 Leave Link  703 at Mon Sep 14 19:12:47 2015, MaxMem=  402653184 cpu:       0.0
 (Enter /share/apps/g09/l716.exe)
 Dipole        = 1.17433892D-03 2.34956152D-03 5.94870858D-03
 ***** Axes restored to original set *****
 -------------------------------------------------------------------
 Center     Atomic                   Forces (Hartrees/Bohr)
 Number     Number              X              Y              Z
 -------------------------------------------------------------------
      1        6           0.000034845   -0.000934336    0.000921144
      2        1          -0.000006752    0.000506313    0.000944448
      3        1          -0.000665341   -0.000755538   -0.000750469
      4        1           0.000686990    0.001275048   -0.000575868
      5        6          -0.004310464   -0.002439869    0.001851711
      6        1          -0.000264523   -0.000827282   -0.001222237
      7        1          -0.000330255   -0.000821575    0.001220534
      8        6           0.002394522    0.002654899    0.004265547
      9        1           0.000392306    0.000291671    0.000586853
     10        6           0.000974378    0.002301627   -0.005970094
     11        1           0.000269573   -0.000836575   -0.001285951
     12        1          -0.000714961    0.000634199   -0.001215542
     13        6          -0.001152421   -0.000123963   -0.000618859
     14        1          -0.000717964    0.000942091    0.000234095
     15        1           0.000592307   -0.000037845    0.001393315
     16        1           0.000571177   -0.000696758   -0.000987759
     17        6           0.001513564   -0.000757017    0.001829571
     18        1           0.000250648   -0.000060099   -0.001400459
     19        1           0.000668648    0.000729868    0.001014291
     20        1          -0.000186277   -0.001044861   -0.000234273
 -------------------------------------------------------------------
 Cartesian Forces:  Max     0.005970094 RMS     0.001507325
 Leave Link  716 at Mon Sep 14 19:12:50 2015, MaxMem=  402653184 cpu:       0.0
 (Enter /share/apps/g09/l103.exe)

 GradGradGradGradGradGradGradGradGradGradGradGradGradGradGradGradGradGrad
 Berny optimization.
 Using GEDIIS/GDIIS optimizer.
 Internal  Forces:  Max     0.008729196 RMS     0.001262028
 Search for a local minimum.
 Step number   2 out of a maximum of  110
 All quantities printed in internal units (Hartrees-Bohrs-Radians)
 RMS Force = .12620D-02 SwitMx=.10000D-02 MixMth= 1
 Mixed Optimization -- RFO/linear search
 Update second derivatives using D2CorX and points    1    2
 DE= -2.91D-03 DEPred=-3.00D-03 R= 9.70D-01
 SS=  1.41D+00  RLast= 2.02D-01 DXNew= 5.0454D-01 6.0743D-01
 Trust test= 9.70D-01 RLast= 2.02D-01 DXMaxT set to 5.05D-01
 Use linear search instead of GDIIS.
     Eigenvalues ---    0.00228   0.00230   0.00242   0.00368   0.00370
     Eigenvalues ---    0.03420   0.03445   0.03675   0.04602   0.04658
     Eigenvalues ---    0.04778   0.04841   0.05362   0.05410   0.05438
     Eigenvalues ---    0.05443   0.05542   0.05545   0.08408   0.08727
     Eigenvalues ---    0.12243   0.12269   0.14746   0.16000   0.16000
     Eigenvalues ---    0.16000   0.16000   0.16000   0.16000   0.16000
     Eigenvalues ---    0.16016   0.16374   0.16757   0.20933   0.21927
     Eigenvalues ---    0.26991   0.27810   0.28529   0.29419   0.29432
     Eigenvalues ---    0.31972   0.32014   0.32067   0.32078   0.32158
     Eigenvalues ---    0.32188   0.32203   0.32210   0.32213   0.32256
     Eigenvalues ---    0.32271   0.32305   0.32326   0.375681000.00000
     Eigenvalues --- 1000.000001000.000001000.000001000.000001000.00000
     Eigenvalues --- 1000.000001000.000001000.000001000.000001000.00000
     Eigenvalues --- 1000.000001000.000001000.000001000.000001000.00000
     Eigenvalues --- 1000.000001000.000001000.000001000.000001000.00000
     Eigenvalues --- 1000.000001000.000001000.000001000.000001000.00000
     Eigenvalues --- 1000.000001000.000001000.000001000.000001000.00000
     Eigenvalues --- 1000.000001000.000001000.000001000.000001000.00000
     Eigenvalues --- 1000.000001000.000001000.000001000.000001000.00000
     Eigenvalues --- 1000.000001000.000001000.000001000.000001000.00000
 RFO step:  Lambda=-8.86417217D-04 EMin= 2.27989288D-03
 Quartic linear search produced a step of  0.00237.
 Iteration  1 RMS(Cart)=  0.05084125 RMS(Int)=  0.00118470
 Iteration  2 RMS(Cart)=  0.00157589 RMS(Int)=  0.00000892
 Iteration  3 RMS(Cart)=  0.00000098 RMS(Int)=  0.00000890
 Variable       Old X    -DE/DX   Delta X   Delta X   Delta X     New X
                                 (Linear)    (Quad)   (Total)
    R1        2.07334  -0.00080  -0.00007  -0.00648  -0.00655   2.06679
    R2        2.07385  -0.00102  -0.00007  -0.00738  -0.00745   2.06639
    R3        2.07589  -0.00145  -0.00007  -0.00844  -0.00851   2.06738
    R4        2.88859  -0.00005  -0.00001  -0.00051  -0.00052   2.88807
    R5        2.09791  -0.00092  -0.00002  -0.00423  -0.00425   2.09366
    R6        2.09268  -0.00004  -0.00003  -0.00213  -0.00217   2.09052
    R7        2.90491   0.00667  -0.00005   0.02106   0.02102   2.92593
    R8        2.11290   0.00054   0.00001   0.00224   0.00225   2.11515
    R9        2.89612   0.00873  -0.00007   0.02717   0.02710   2.92322
   R10        2.89698   0.00273  -0.00003   0.00779   0.00776   2.90474
   R11        2.09705  -0.00033  -0.00002  -0.00195  -0.00197   2.09508
   R12        2.09224   0.00011  -0.00003  -0.00170  -0.00173   2.09051
   R13        2.88988  -0.00046   0.00000  -0.00177  -0.00177   2.88810
   R14        2.07363  -0.00104  -0.00007  -0.00725  -0.00732   2.06632
   R15        2.07536  -0.00140  -0.00007  -0.00836  -0.00843   2.06693
   R16        2.07376  -0.00114  -0.00007  -0.00779  -0.00786   2.06590
   R17        2.07398  -0.00132  -0.00007  -0.00838  -0.00845   2.06553
[...]
 ! D9    D(4,1,5,8)            178.9526         -DE/DX =    0.0                 !
 ! D10   D(1,5,8,9)             46.6586         -DE/DX =    0.0                 !
 ! D11   D(1,5,8,10)           -72.2667         -DE/DX =    0.0                 !
 ! D12   D(1,5,8,17)           164.7852         -DE/DX =    0.0                 !
 ! D13   D(6,5,8,9)            -74.9947         -DE/DX =    0.0                 !
 ! D14   D(6,5,8,10)           166.08           -DE/DX =    0.0                 !
 ! D15   D(6,5,8,17)            43.1319         -DE/DX =    0.0                 !
 ! D16   D(7,5,8,9)            169.5881         -DE/DX =    0.0                 !
 ! D17   D(7,5,8,10)            50.6628         -DE/DX =    0.0                 !
 ! D18   D(7,5,8,17)           -72.2853         -DE/DX =    0.0                 !
 ! D19   D(5,8,10,11)           43.5747         -DE/DX =    0.0                 !
 ! D20   D(5,8,10,12)          -71.9399         -DE/DX =    0.0                 !
 ! D21   D(5,8,10,13)          165.252          -DE/DX =    0.0                 !
 ! D22   D(9,8,10,11)          -75.2897         -DE/DX =    0.0                 !
 ! D23   D(9,8,10,12)          169.1958         -DE/DX =    0.0                 !
 ! D24   D(9,8,10,13)           46.3877         -DE/DX =    0.0                 !
 ! D25   D(17,8,10,11)         165.798          -DE/DX =    0.0                 !
 ! D26   D(17,8,10,12)          50.2835         -DE/DX =    0.0                 !
 ! D27   D(17,8,10,13)         -72.5246         -DE/DX =    0.0                 !
 ! D28   D(5,8,17,18)          -61.046          -DE/DX =    0.0                 !
 ! D29   D(5,8,17,19)           59.4339         -DE/DX =    0.0                 !
 ! D30   D(5,8,17,20)          179.208          -DE/DX =    0.0                 !
 ! D31   D(9,8,17,18)           57.1395         -DE/DX =    0.0                 !
 ! D32   D(9,8,17,19)          177.6194         -DE/DX =    0.0                 !
 ! D33   D(9,8,17,20)          -62.6065         -DE/DX =    0.0                 !
 ! D34   D(10,8,17,18)         176.1696         -DE/DX =    0.0                 !
 ! D35   D(10,8,17,19)         -63.3506         -DE/DX =    0.0                 !
 ! D36   D(10,8,17,20)          56.4236         -DE/DX =    0.0                 !
 ! D37   D(8,10,13,14)          60.6022         -DE/DX =    0.0                 !
 ! D38   D(8,10,13,15)        -179.5076         -DE/DX =    0.0                 !
 ! D39   D(8,10,13,16)         -59.5282         -DE/DX =    0.0                 !
 ! D40   D(11,10,13,14)       -177.703          -DE/DX =    0.0                 !
 ! D41   D(11,10,13,15)        -57.8127         -DE/DX =    0.0                 !
 ! D42   D(11,10,13,16)         62.1667         -DE/DX =    0.0                 !
 ! D43   D(12,10,13,14)        -62.1845         -DE/DX =    0.0                 !
 ! D44   D(12,10,13,15)         57.7058         -DE/DX =    0.0                 !
 ! D45   D(12,10,13,16)        177.6852         -DE/DX =    0.0                 !
 --------------------------------------------------------------------------------
 GradGradGradGradGradGradGradGradGradGradGradGradGradGradGradGradGradGrad

 Largest change from initial coordinates is atom   14       0.094 Angstoms.
 Leave Link  103 at Mon Sep 14 19:14:28 2015, MaxMem=  402653184 cpu:       0.0
 (Enter /share/apps/g09/l202.exe)
                          Input orientation:                          
 ---------------------------------------------------------------------
 Center     Atomic      Atomic             Coordinates (Angstroms)
 Number     Number       Type             X           Y           Z
 ---------------------------------------------------------------------
      1          6           0       -2.621675   -0.056821    0.022417
      2          1           0       -2.815642    0.377276   -0.965904
      3          1           0       -2.611646    0.767829    0.744094
      4          1           0       -3.471454   -0.701856    0.271050
      5          6           0       -1.310538   -0.838826    0.045178
      6          1           0       -1.159808   -1.269393    1.054584
      7          1           0       -1.375633   -1.705128   -0.640221
      8          6           0       -0.091152    0.034598   -0.326596
      9          1           0       -0.154683    0.991676    0.247027
     10          6           0       -0.095162    0.365949   -1.834510
     11          1           0       -1.122307    0.642953   -2.146282
     12          1           0        0.160792   -0.538489   -2.418319
     13          6           0        0.862682    1.500864   -2.189106
     14          1           0        1.898387    1.249329   -1.933209
     15          1           0        0.833914    1.721231   -3.261824
     16          1           0        0.609023    2.424085   -1.656162
     17          6           0        1.204131   -0.683600    0.075879
     18          1           0        1.244663   -0.861960    1.155160
     19          1           0        1.302851   -1.652600   -0.424310
     20          1           0        2.084359   -0.088316   -0.191146
 ---------------------------------------------------------------------
                    Distance matrix (angstroms):
                    1          2          3          4          5
     1  C    0.000000
     2  H    1.096741   0.000000
     3  H    1.095886   1.765853   0.000000
     4  H    1.095451   1.767673   1.767206   0.000000
     5  C    1.526805   2.183238   2.182363   2.177003   0.000000
     6  H    2.161657   3.087990   2.520816   2.505940   1.107704
     7  H    2.169938   2.552666   3.091857   2.495885   1.106566
     8  C    2.556114   2.819396   2.834942   3.510839   1.545311
     9  H    2.689953   2.988209   2.516714   3.724191   2.174277
    10  C    3.163887   2.855804   3.625382   4.119823   2.542016
    11  H    2.727827   2.081168   3.253920   3.629118   2.652093
    12  H    3.732468   3.436175   4.403831   4.522456   2.885104
    13  C    4.411118   4.035931   4.605644   5.448769   3.897314
    14  H    5.095239   4.890627   5.266895   6.123812   4.309478
    15  H    5.088105   4.516274   5.369193   6.073611   4.699875
    16  H    4.405671   4.048977   4.344780   5.489622   4.150405
    17  C    3.877178   4.285948   4.136824   4.679693   2.519643
    18  H    4.108519   4.745598   4.206698   4.800942   2.785973
    19  H    4.260045   4.623387   4.748360   4.917462   2.777129
    20  H    4.710983   4.982674   4.864167   5.608665   3.484887
                    6          7          8          9         10
     6  H    0.000000
     7  H    1.763182   0.000000
     8  C    2.179467   2.185154   0.000000
     9  H    2.602856   3.090418   1.117621   0.000000
    10  C    3.486356   2.712064   1.543896   2.174367   0.000000
    11  H    3.728809   2.801050   2.178218   2.604963   1.108585
    12  H    3.786721   2.623600   2.183394   3.089498   1.106505
    13  C    4.720838   4.205649   2.555128   2.688689   1.526838
    14  H    4.962199   4.595633   2.831085   3.005812   2.182737
    15  H    5.616951   4.847147   3.509422   3.717743   2.176511
    16  H    4.911078   4.692696   2.822701   2.501434   2.182569
    17  C    2.624733   2.865572   1.534781   2.163843   2.537578
    18  H    2.440818   3.286377   2.187194   2.493760   3.498717
    19  H    2.898044   2.687685   2.190760   3.093104   2.831544
    20  H    3.670341   3.845425   2.183186   2.524219   2.767185
                   11         12         13         14         15
    11  H    0.000000
    12  H    1.765263   0.000000
    13  C    2.162875   2.168905   0.000000
    14  H    3.088315   2.539855   1.096101   0.000000
    15  H    2.496782   2.504183   1.095497   1.766639   0.000000
    16  H    2.531828   3.091706   1.095769   1.766145   1.767125
    17  C    3.479951   2.707515   3.165222   2.873089   4.130441
    18  H    4.332070   3.748222   4.112538   3.797752   5.133357
    19  H    3.757146   2.553745   3.640411   3.324550   4.433298
    20  H    3.826228   2.977090   2.830164   2.204237   3.777186
                   16         17         18         19         20
    16  H    0.000000
    17  C    3.607192   0.000000
    18  H    4.371003   1.094671   0.000000
    19  H    4.314884   1.094940   1.767264   0.000000
    20  H    3.261142   1.095658   1.765264   1.764116   0.000000
 Stoichiometry    C6H14
 Framework group  C1[X(C6H14)]
 Deg. of freedom    54
 Full point group                 C1      NOp   1
 Largest Abelian subgroup         C1      NOp   1
 Largest concise Abelian subgroup C1      NOp   1
                         Standard orientation:                         
 ---------------------------------------------------------------------
 Center     Atomic      Atomic             Coordinates (Angstroms)
 Number     Number       Type             X           Y           Z
 ---------------------------------------------------------------------
      1          6           0       -2.226757   -0.871700   -0.216164
      2          1           0       -1.746743   -1.799572    0.117723
      3          1           0       -2.286274   -0.911014   -1.309726
      4          1           0       -3.251939   -0.874187    0.169852
      5          6           0       -1.460995    0.360169    0.260533
      6          1           0       -1.984689    1.272449   -0.086596
      7          1           0       -1.477743    0.410862    1.365811
      8          6           0       -0.000668    0.384268   -0.244295
      9          1           0       -0.000469    0.141740   -1.335285
     10          6           0        0.850254   -0.672345    0.492667
     11          1           0        0.277956   -1.619091    0.564133
     12          1           0        1.027170   -0.350439    1.536425
     13          6           0        2.183799   -0.940458   -0.200882
     14          1           0        2.799168   -0.035051   -0.255617
     15          1           0        2.763089   -1.698985    0.336867
     16          1           0        2.040169   -1.300812   -1.225687
     17          6           0        0.588439    1.789814   -0.062784
     18          1           0        0.029916    2.535642   -0.637324
     19          1           0        0.576242    2.102297    0.986549
     20          1           0        1.629715    1.827672   -0.401573
 ---------------------------------------------------------------------
 Rotational constants (GHZ):      4.5030677      2.2844350      1.6869317
 Leave Link  202 at Mon Sep 14 19:14:28 2015, MaxMem=  402653184 cpu:       0.0
 (Enter /share/apps/g09/l601.exe)
 Copying SCF densities to generalized density rwf, IOpCl= 0 IROHF=0.

 **********************************************************************

            Population analysis using the SCF density.

 **********************************************************************

 Orbital symmetries:
       Occupied  (A) (A) (A) (A) (A) (A) (A) (A) (A) (A) (A) (A)
                 (A) (A) (A) (A) (A) (A) (A)
       Virtual   (A) (A) (A) (A) (A) (A) (A) (A) (A) (A) (A) (A)
                 (A) (A) (A) (A) (A) (A) (A)
 The electronic state is 1-A.
 Alpha  occ. eigenvalues --   -1.06456  -0.97259  -0.92666  -0.81882  -0.77286
 Alpha  occ. eigenvalues --   -0.70619  -0.57573  -0.56068  -0.54988  -0.52007
 Alpha  occ. eigenvalues --   -0.51220  -0.48232  -0.46714  -0.46610  -0.44371
 Alpha  occ. eigenvalues --   -0.43812  -0.40857  -0.40693  -0.40161
 Alpha virt. eigenvalues --    0.15323   0.15763   0.16978   0.18051   0.18168
 Alpha virt. eigenvalues --    0.21100   0.21325   0.21985   0.22070   0.22299
 Alpha virt. eigenvalues --    0.22532   0.22983   0.23369   0.23751   0.24733
 Alpha virt. eigenvalues --    0.24836   0.25513   0.25871   0.26272
          Condensed to atoms (all electrons):
              1          2          3          4          5          6
     1  C    4.457610   0.000000   0.000000   0.000000   0.000000   0.000000
     2  H    0.000000   0.853896   0.000000   0.000000   0.000000   0.000000
     3  H    0.000000   0.000000   0.854592   0.000000   0.000000   0.000000
     4  H    0.000000   0.000000   0.000000   0.857594   0.000000   0.000000
     5  C    0.000000   0.000000   0.000000   0.000000   4.263458   0.000000
     6  H    0.000000   0.000000   0.000000   0.000000   0.000000   0.869521
     7  H    0.000000   0.000000   0.000000   0.000000   0.000000   0.000000
     8  C    0.000000   0.000000   0.000000   0.000000   0.000000   0.000000
     9  H    0.000000   0.000000   0.000000   0.000000   0.000000   0.000000
    10  C    0.000000   0.000000   0.000000   0.000000   0.000000   0.000000
    11  H    0.000000   0.000000   0.000000   0.000000   0.000000   0.000000
    12  H    0.000000   0.000000   0.000000   0.000000   0.000000   0.000000
    13  C    0.000000   0.000000   0.000000   0.000000   0.000000   0.000000
    14  H    0.000000   0.000000   0.000000   0.000000   0.000000   0.000000
    15  H    0.000000   0.000000   0.000000   0.000000   0.000000   0.000000
    16  H    0.000000   0.000000   0.000000   0.000000   0.000000   0.000000
    17  C    0.000000   0.000000   0.000000   0.000000   0.000000   0.000000
    18  H    0.000000   0.000000   0.000000   0.000000   0.000000   0.000000
    19  H    0.000000   0.000000   0.000000   0.000000   0.000000   0.000000
    20  H    0.000000   0.000000   0.000000   0.000000   0.000000   0.000000
              7          8          9         10         11         12
     1  C    0.000000   0.000000   0.000000   0.000000   0.000000   0.000000
     2  H    0.000000   0.000000   0.000000   0.000000   0.000000   0.000000
     3  H    0.000000   0.000000   0.000000   0.000000   0.000000   0.000000
     4  H    0.000000   0.000000   0.000000   0.000000   0.000000   0.000000
     5  C    0.000000   0.000000   0.000000   0.000000   0.000000   0.000000
     6  H    0.000000   0.000000   0.000000   0.000000   0.000000   0.000000
     7  H    0.869458   0.000000   0.000000   0.000000   0.000000   0.000000
     8  C    0.000000   4.018358   0.000000   0.000000   0.000000   0.000000
     9  H    0.000000   0.000000   0.882863   0.000000   0.000000   0.000000
    10  C    0.000000   0.000000   0.000000   4.256027   0.000000   0.000000
    11  H    0.000000   0.000000   0.000000   0.000000   0.869727   0.000000
    12  H    0.000000   0.000000   0.000000   0.000000   0.000000   0.870327
    13  C    0.000000   0.000000   0.000000   0.000000   0.000000   0.000000
    14  H    0.000000   0.000000   0.000000   0.000000   0.000000   0.000000
    15  H    0.000000   0.000000   0.000000   0.000000   0.000000   0.000000
    16  H    0.000000   0.000000   0.000000   0.000000   0.000000   0.000000
    17  C    0.000000   0.000000   0.000000   0.000000   0.000000   0.000000
    18  H    0.000000   0.000000   0.000000   0.000000   0.000000   0.000000
    19  H    0.000000   0.000000   0.000000   0.000000   0.000000   0.000000
    20  H    0.000000   0.000000   0.000000   0.000000   0.000000   0.000000
             13         14         15         16         17         18
     1  C    0.000000   0.000000   0.000000   0.000000   0.000000   0.000000
     2  H    0.000000   0.000000   0.000000   0.000000   0.000000   0.000000
     3  H    0.000000   0.000000   0.000000   0.000000   0.000000   0.000000
     4  H    0.000000   0.000000   0.000000   0.000000   0.000000   0.000000
     5  C    0.000000   0.000000   0.000000   0.000000   0.000000   0.000000
     6  H    0.000000   0.000000   0.000000   0.000000   0.000000   0.000000
     7  H    0.000000   0.000000   0.000000   0.000000   0.000000   0.000000
     8  C    0.000000   0.000000   0.000000   0.000000   0.000000   0.000000
     9  H    0.000000   0.000000   0.000000   0.000000   0.000000   0.000000
    10  C    0.000000   0.000000   0.000000   0.000000   0.000000   0.000000
    11  H    0.000000   0.000000   0.000000   0.000000   0.000000   0.000000
    12  H    0.000000   0.000000   0.000000   0.000000   0.000000   0.000000
    13  C    4.457156   0.000000   0.000000   0.000000   0.000000   0.000000
    14  H    0.000000   0.854482   0.000000   0.000000   0.000000   0.000000
    15  H    0.000000   0.000000   0.858432   0.000000   0.000000   0.000000
    16  H    0.000000   0.000000   0.000000   0.855457   0.000000   0.000000
    17  C    0.000000   0.000000   0.000000   0.000000   4.496435   0.000000
    18  H    0.000000   0.000000   0.000000   0.000000   0.000000   0.854135
    19  H    0.000000   0.000000   0.000000   0.000000   0.000000   0.000000
    20  H    0.000000   0.000000   0.000000   0.000000   0.000000   0.000000
             19         20
     1  C    0.000000   0.000000
     2  H    0.000000   0.000000
     3  H    0.000000   0.000000
     4  H    0.000000   0.000000
     5  C    0.000000   0.000000
     6  H    0.000000   0.000000
     7  H    0.000000   0.000000
     8  C    0.000000   0.000000
     9  H    0.000000   0.000000
    10  C    0.000000   0.000000
    11  H    0.000000   0.000000
    12  H    0.000000   0.000000
    13  C    0.000000   0.000000
    14  H    0.000000   0.000000
    15  H    0.000000   0.000000
    16  H    0.000000   0.000000
    17  C    0.000000   0.000000
    18  H    0.000000   0.000000
    19  H    0.850880   0.000000
    20  H    0.000000   0.849591
 Mulliken atomic charges:
              1
     1  C   -0.457610
     2  H    0.146104
     3  H    0.145408
     4  H    0.142406
     5  C   -0.263458
     6  H    0.130479
     7  H    0.130542
     8  C   -0.018358
     9  H    0.117137
    10  C   -0.256027
    11  H    0.130273
    12  H    0.129673
    13  C   -0.457156
    14  H    0.145518
    15  H    0.141568
    16  H    0.144543
    17  C   -0.496435
    18  H    0.145865
    19  H    0.149120
    20  H    0.150409
 Sum of Mulliken atomic charges =   0.00000
 Mulliken charges with hydrogens summed into heavy atoms:
              1
     1  C   -0.023692
     5  C   -0.002438
     8  C    0.098779
    10  C    0.003919
    13  C   -0.025527
    17  C   -0.051041
 Sum of Mulliken charges with hydrogens summed into heavy atoms =   0.00000
 Charge=              0.0000 electrons
 Dipole moment (field-independent basis, Debye):
    X=              0.0208    Y=              0.0020    Z=              0.0007  Tot=              0.0209
 N-N= 1.674984457661D+02 E-N=-2.558716634385D+02  KE=-5.624988467562D+01
 Leave Link  601 at Mon Sep 14 19:14:28 2015, MaxMem=  402653184 cpu:       0.0
 (Enter /share/apps/g09/l9999.exe)
 1\1\GINC-COMPUTE-0-11\FOpt\RPM6\ZDO\C6H14\HETANJIN\14-Sep-2015\0\\#p P
 M6 opt\\using PM6 to do opt and freq calc.\\0,1\C,-2.621675477,-0.0568
 207471,0.0224170162\H,-2.8156424512,0.3772758597,-0.9659037235\H,-2.61
 16457876,0.7678293723,0.7440937035\H,-3.4714544732,-0.7018556955,0.271
 0501477\C,-1.3105378107,-0.8388261971,0.0451776203\H,-1.1598075142,-1.
 2693934745,1.0545840085\H,-1.3756326517,-1.7051284748,-0.6402214482\C,
 -0.0911518567,0.0345979261,-0.3265958312\H,-0.1546826679,0.9916756312,
 0.2470272072\C,-0.0951619961,0.3659489472,-1.8345099804\H,-1.122307414
 3,0.6429531009,-2.146281854\H,0.1607915686,-0.538489417,-2.4183190088\
 C,0.8626816832,1.5008637526,-2.1891062065\H,1.8983868985,1.2493294352,
 -1.9332085261\H,0.833913785,1.7212313828,-3.2618242883\H,0.6090225622,
 2.4240853049,-1.6561621277\C,1.2041314288,-0.6836004797,0.0758788741\H
 ,1.2446628256,-0.8619604873,1.1551604237\H,1.3028505318,-1.6526001014,
 -0.424309673\H,2.0843588167,-0.0883156386,-0.1911463334\\Version=EM64L
 -G09RevA.01\State=1-A\HF=-0.0570766\RMSD=3.026e-09\RMSF=6.887e-06\Dipo
 le=0.006997,0.0022006,-0.0037581\PG=C01 [X(C6H14)]\\@


 THERE'S A SUCKER BORN EVERY MINUTE

              -- PHINEAS TAYLOR (P.T.) BARNUM
 Job cpu time:  0 days  0 hours  0 minutes 16.0 seconds.
 File lengths (MBytes):  RWF=      5 Int=      0 D2E=      0 Chk=      3 Scr=      1
 Normal termination of Gaussian 09 at Mon Sep 14 19:14:29 2015.
