 Entering Gaussian System, Link 0=/home/hetanjin/apps/g09D01/g09/g09
 Input=C6H14_4_r014_C17_2_opt_B3L.gjf
 Output=C6H14_4_r014_C17_2_opt_B3L.log
 Initial command:
 /home/hetanjin/apps/g09D01/g09/l1.exe "/state/partition1/Gau-7471.inp" -scrdir="/state/partition1/"
 Entering Link 1 = /home/hetanjin/apps/g09D01/g09/l1.exe PID=      7472.
  
 Copyright (c) 1988,1990,1992,1993,1995,1998,2003,2009,2013,
            Gaussian, Inc.  All Rights Reserved.
  
 This is part of the Gaussian(R) 09 program.  It is based on
 the Gaussian(R) 03 system (copyright 2003, Gaussian, Inc.),
 the Gaussian(R) 98 system (copyright 1998, Gaussian, Inc.),
 the Gaussian(R) 94 system (copyright 1995, Gaussian, Inc.),
 the Gaussian 92(TM) system (copyright 1992, Gaussian, Inc.),
 the Gaussian 90(TM) system (copyright 1990, Gaussian, Inc.),
 the Gaussian 88(TM) system (copyright 1988, Gaussian, Inc.),
 the Gaussian 86(TM) system (copyright 1986, Carnegie Mellon
 University), and the Gaussian 82(TM) system (copyright 1983,
 Carnegie Mellon University). Gaussian is a federally registered
 trademark of Gaussian, Inc.
  
 This software contains proprietary and confidential information,
 including trade secrets, belonging to Gaussian, Inc.
  
 This software is provided under written license and may be
 used, copied, transmitted, or stored only in accord with that
 written license.
  
 The following legend is applicable only to US Government
 contracts under FAR:
  
                    RESTRICTED RIGHTS LEGEND
  
 Use, reproduction and disclosure by the US Government is
 subject to restrictions as set forth in subparagraphs (a)
 and (c) of the Commercial Computer Software - Restricted
 Rights clause in FAR 52.227-19.
  
 Gaussian, Inc.
 340 Quinnipiac St., Bldg. 40, Wallingford CT 06492
  
  
 ---------------------------------------------------------------
 Warning -- This program may not be used in any manner that
 competes with the business of Gaussian, Inc. or will provide
 assistance to any competitor of Gaussian, Inc.  The licensee
 of this program is prohibited from giving any competitor of
 Gaussian, Inc. access to this program.  By using this program,
 the user acknowledges that Gaussian, Inc. is engaged in the
 business of creating and licensing software in the field of
 computational chemistry and represents and warrants to the
 licensee that it is not a competitor of Gaussian, Inc. and that
 it will not use this program in any manner prohibited above.
 ---------------------------------------------------------------
  

 Cite this work as:
 Gaussian 09, Revision D.01,
 M. J. Frisch, G. W. Trucks, H. B. Schlegel, G. E. Scuseria, 
 M. A. Robb, J. R. Cheeseman, G. Scalmani, V. Barone, B. Mennucci, 
 G. A. Petersson, H. Nakatsuji, M. Caricato, X. Li, H. P. Hratchian, 
 A. F. Izmaylov, J. Bloino, G. Zheng, J. L. Sonnenberg, M. Hada, 
 M. Ehara, K. Toyota, R. Fukuda, J. Hasegawa, M. Ishida, T. Nakajima, 
 Y. Honda, O. Kitao, H. Nakai, T. Vreven, J. A. Montgomery, Jr., 
 J. E. Peralta, F. Ogliaro, M. Bearpark, J. J. Heyd, E. Brothers, 
 K. N. Kudin, V. N. Staroverov, T. Keith, R. Kobayashi, J. Normand, 
 K. Raghavachari, A. Rendell, J. C. Burant, S. S. Iyengar, J. Tomasi, 
 M. Cossi, N. Rega, J. M. Millam, M. Klene, J. E. Knox, J. B. Cross, 
 V. Bakken, C. Adamo, J. Jaramillo, R. Gomperts, R. E. Stratmann, 
 O. Yazyev, A. J. Austin, R. Cammi, C. Pomelli, J. W. Ochterski, 
 R. L. Martin, K. Morokuma, V. G. Zakrzewski, G. A. Voth, 
 P. Salvador, J. J. Dannenberg, S. Dapprich, A. D. Daniels, 
 O. Farkas, J. B. Foresman, J. V. Ortiz, J. Cioslowski, 
 and D. J. Fox, Gaussian, Inc., Wallingford CT, 2013.
 
 ******************************************
 Gaussian 09:  ES64L-G09RevD.01 24-Apr-2013
                 7-Nov-2015 
 ******************************************
 %mem=6GB
 %nprocshared=4
 Will use up to    4 processors via shared memory.
 ----------------------------------------------
 #p B3LYP/6-31G(d) opt=tight int=ultrafine freq
 ----------------------------------------------
 1/7=10,14=-1,18=20,19=15,26=4,38=1/1,3;
 2/9=110,12=2,17=6,18=5,40=1/2;
 3/5=1,6=6,7=1,11=2,16=1,25=1,30=1,71=1,74=-5,75=-5/1,2,3;
 4//1;
 5/5=2,38=5/2;
 6/7=2,8=2,9=2,10=2,28=1/1;
 7//1,2,3,16;
 1/7=10,14=-1,18=20,19=15,26=4/3(2);
 2/9=110/2;
 99//99;
 2/9=110/2;
 3/5=1,6=6,7=1,11=2,16=1,25=1,30=1,71=1,74=-5,75=-5/1,2,3;
 4/5=5,16=3,69=1/1;
 5/5=2,38=5/2;
 7//1,2,3,16;
 1/7=10,14=-1,18=20,19=15,26=4/3(-5);
 2/9=110/2;
 6/7=2,8=2,9=2,10=2,19=2,28=1/1;
 99/9=1/99;
 Leave Link    1 at Sat Nov  7 02:11:48 2015, MaxMem=   805306368 cpu:         0.3
 (Enter /home/hetanjin/apps/g09D01/g09/l101.exe)
 ---------------------------------------------
 using B3LYP/6-31G(d) to do opt and freq calc.
 ---------------------------------------------
 Symbolic Z-matrix:
 Charge =  0 Multiplicity = 2
 C                     0.00001   1.51843   1.25476 
 H                     0.34915   1.04207   2.17587 
 H                    -1.085     1.66472   1.34294 
 H                     0.4623    2.51127   1.20422 
 C                     0.34297   0.69665  -0.00001 
 H                     1.43141   0.52249  -0.00002 
 C                    -0.34297  -0.69665  -0.00001 
 H                    -1.43141  -0.52249  -0.00002 
 C                     0.00001  -1.51845  -1.25475 
 H                     1.08502  -1.66473  -1.34293 
 H                    -0.46227  -2.51129  -1.2042 
 H                    -0.34913  -1.04211  -2.17587 
 C                    -0.00001   1.51845  -1.25475 
 H                     0.34913   1.04211  -2.17587 
 H                    -1.08502   1.66473  -1.34293 
 H                     0.46227   2.51129  -1.2042 
 C                    -0.00001  -1.51843   1.25476 
 H                    -0.34915  -1.04207   2.17587 
 H                    -0.4623   -2.51127   1.20422 
 
 NAtoms=     19 NQM=       19 NQMF=       0 NMMI=      0 NMMIF=      0
                NMic=       0 NMicF=      0.
                    Isotopes and Nuclear Properties:
 (Nuclear quadrupole moments (NQMom) in fm**2, nuclear magnetic moments (NMagM)
  in nuclear magnetons)

  Atom         1           2           3           4           5           6           7           8           9          10
 IAtWgt=          12           1           1           1          12           1          12           1          12           1
 AtmWgt=  12.0000000   1.0078250   1.0078250   1.0078250  12.0000000   1.0078250  12.0000000   1.0078250  12.0000000   1.0078250
 NucSpn=           0           1           1           1           0           1           0           1           0           1
 AtZEff=   0.0000000   0.0000000   0.0000000   0.0000000   0.0000000   0.0000000   0.0000000   0.0000000   0.0000000   0.0000000
 NQMom=    0.0000000   0.0000000   0.0000000   0.0000000   0.0000000   0.0000000   0.0000000   0.0000000   0.0000000   0.0000000
 NMagM=    0.0000000   2.7928460   2.7928460   2.7928460   0.0000000   2.7928460   0.0000000   2.7928460   0.0000000   2.7928460
 AtZNuc=   6.0000000   1.0000000   1.0000000   1.0000000   6.0000000   1.0000000   6.0000000   1.0000000   6.0000000   1.0000000

  Atom        11          12          13          14          15          16          17          18          19
 IAtWgt=           1           1          12           1           1           1          12           1           1
 AtmWgt=   1.0078250   1.0078250  12.0000000   1.0078250   1.0078250   1.0078250  12.0000000   1.0078250   1.0078250
 NucSpn=           1           1           0           1           1           1           0           1           1
 AtZEff=   0.0000000   0.0000000   0.0000000   0.0000000   0.0000000   0.0000000   0.0000000   0.0000000   0.0000000
 NQMom=    0.0000000   0.0000000   0.0000000   0.0000000   0.0000000   0.0000000   0.0000000   0.0000000   0.0000000
 NMagM=    2.7928460   2.7928460   0.0000000   2.7928460   2.7928460   2.7928460   0.0000000   2.7928460   2.7928460
 AtZNuc=   1.0000000   1.0000000   6.0000000   1.0000000   1.0000000   1.0000000   6.0000000   1.0000000   1.0000000
 Leave Link  101 at Sat Nov  7 02:11:48 2015, MaxMem=   805306368 cpu:         0.7
 (Enter /home/hetanjin/apps/g09D01/g09/l103.exe)

 GradGradGradGradGradGradGradGradGradGradGradGradGradGradGradGradGradGrad
 Berny optimization.
 Initialization pass.
                           ----------------------------
                           !    Initial Parameters    !
                           ! (Angstroms and Degrees)  !
 --------------------------                            --------------------------
 ! Name  Definition              Value          Derivative Info.                !
 --------------------------------------------------------------------------------
 ! R1    R(1,2)                  1.0942         estimate D2E/DX2                !
 ! R2    R(1,3)                  1.0984         estimate D2E/DX2                !
 ! R3    R(1,4)                  1.0964         estimate D2E/DX2                !
 ! R4    R(1,5)                  1.5386         estimate D2E/DX2                !
 ! R5    R(5,6)                  1.1023         estimate D2E/DX2                !
 ! R6    R(5,7)                  1.553          estimate D2E/DX2                !
 ! R7    R(5,13)                 1.5386         estimate D2E/DX2                !
 ! R8    R(7,8)                  1.1023         estimate D2E/DX2                !
 ! R9    R(7,9)                  1.5386         estimate D2E/DX2                !
 ! R10   R(7,17)                 1.5386         estimate D2E/DX2                !
 ! R11   R(9,10)                 1.0984         estimate D2E/DX2                !
 ! R12   R(9,11)                 1.0964         estimate D2E/DX2                !
 ! R13   R(9,12)                 1.0942         estimate D2E/DX2                !
 ! R14   R(13,14)                1.0942         estimate D2E/DX2                !
 ! R15   R(13,15)                1.0984         estimate D2E/DX2                !
 ! R16   R(13,16)                1.0964         estimate D2E/DX2                !
 ! R17   R(17,18)                1.0942         estimate D2E/DX2                !
 ! R18   R(17,19)                1.0964         estimate D2E/DX2                !
 ! A1    A(2,1,3)              107.7942         estimate D2E/DX2                !
 ! A2    A(2,1,4)              107.3678         estimate D2E/DX2                !
 ! A3    A(2,1,5)              112.5112         estimate D2E/DX2                !
 ! A4    A(3,1,4)              107.4347         estimate D2E/DX2                !
 ! A5    A(3,1,5)              110.9038         estimate D2E/DX2                !
 ! A6    A(4,1,5)              110.6151         estimate D2E/DX2                !
 ! A7    A(1,5,6)              107.7277         estimate D2E/DX2                !
 ! A8    A(1,5,7)              112.3785         estimate D2E/DX2                !
 ! A9    A(1,5,13)             109.2744         estimate D2E/DX2                !
 ! A10   A(6,5,7)              107.1209         estimate D2E/DX2                !
 ! A11   A(6,5,13)             107.7277         estimate D2E/DX2                !
 ! A12   A(7,5,13)             112.3788         estimate D2E/DX2                !
 ! A13   A(5,7,8)              107.1209         estimate D2E/DX2                !
 ! A14   A(5,7,9)              112.3788         estimate D2E/DX2                !
 ! A15   A(5,7,17)             112.3785         estimate D2E/DX2                !
 ! A16   A(8,7,9)              107.7277         estimate D2E/DX2                !
 ! A17   A(8,7,17)             107.7277         estimate D2E/DX2                !
 ! A18   A(9,7,17)             109.2744         estimate D2E/DX2                !
 ! A19   A(7,9,10)             110.9039         estimate D2E/DX2                !
 ! A20   A(7,9,11)             110.6151         estimate D2E/DX2                !
 ! A21   A(7,9,12)             112.5112         estimate D2E/DX2                !
 ! A22   A(10,9,11)            107.4347         estimate D2E/DX2                !
 ! A23   A(10,9,12)            107.7943         estimate D2E/DX2                !
 ! A24   A(11,9,12)            107.3677         estimate D2E/DX2                !
 ! A25   A(5,13,14)            112.5112         estimate D2E/DX2                !
 ! A26   A(5,13,15)            110.9039         estimate D2E/DX2                !
 ! A27   A(5,13,16)            110.6151         estimate D2E/DX2                !
 ! A28   A(14,13,15)           107.7943         estimate D2E/DX2                !
 ! A29   A(14,13,16)           107.3677         estimate D2E/DX2                !
 ! A30   A(15,13,16)           107.4347         estimate D2E/DX2                !
 ! A31   A(7,17,18)            112.5112         estimate D2E/DX2                !
 ! A32   A(7,17,19)            110.6151         estimate D2E/DX2                !
 ! A33   A(18,17,19)           107.3678         estimate D2E/DX2                !
 ! D1    D(2,1,5,6)            -55.3394         estimate D2E/DX2                !
 ! D2    D(2,1,5,7)             62.4263         estimate D2E/DX2                !
 ! D3    D(2,1,5,13)          -172.1116         estimate D2E/DX2                !
 ! D4    D(3,1,5,6)           -176.1635         estimate D2E/DX2                !
 ! D5    D(3,1,5,7)            -58.3978         estimate D2E/DX2                !
 ! D6    D(3,1,5,13)            67.0643         estimate D2E/DX2                !
 ! D7    D(4,1,5,6)             64.7357         estimate D2E/DX2                !
 ! D8    D(4,1,5,7)           -177.4986         estimate D2E/DX2                !
 ! D9    D(4,1,5,13)           -52.0364         estimate D2E/DX2                !
 ! D10   D(1,5,7,8)             61.8763         estimate D2E/DX2                !
 ! D11   D(1,5,7,9)           -179.9988         estimate D2E/DX2                !
 ! D12   D(1,5,7,17)           -56.2483         estimate D2E/DX2                !
 ! D13   D(6,5,7,8)           -179.999          estimate D2E/DX2                !
 ! D14   D(6,5,7,9)            -61.8741         estimate D2E/DX2                !
 ! D15   D(6,5,7,17)            61.8763         estimate D2E/DX2                !
 ! D16   D(13,5,7,8)           -61.8741         estimate D2E/DX2                !
 ! D17   D(13,5,7,9)            56.2508         estimate D2E/DX2                !
 ! D18   D(13,5,7,17)         -179.9988         estimate D2E/DX2                !
 ! D19   D(1,5,13,14)          172.1107         estimate D2E/DX2                !
 ! D20   D(1,5,13,15)          -67.0651         estimate D2E/DX2                !
 ! D21   D(1,5,13,16)           52.0357         estimate D2E/DX2                !
 ! D22   D(6,5,13,14)           55.3386         estimate D2E/DX2                !
 ! D23   D(6,5,13,15)          176.1628         estimate D2E/DX2                !
 ! D24   D(6,5,13,16)          -64.7364         estimate D2E/DX2                !
 ! D25   D(7,5,13,14)          -62.4273         estimate D2E/DX2                !
 ! D26   D(7,5,13,15)           58.3969         estimate D2E/DX2                !
 ! D27   D(7,5,13,16)          177.4977         estimate D2E/DX2                !
 ! D28   D(5,7,9,10)            58.3969         estimate D2E/DX2                !
 ! D29   D(5,7,9,11)           177.4977         estimate D2E/DX2                !
 ! D30   D(5,7,9,12)           -62.4273         estimate D2E/DX2                !
 ! D31   D(8,7,9,10)           176.1628         estimate D2E/DX2                !
 ! D32   D(8,7,9,11)           -64.7364         estimate D2E/DX2                !
 ! D33   D(8,7,9,12)            55.3386         estimate D2E/DX2                !
 ! D34   D(17,7,9,10)          -67.0651         estimate D2E/DX2                !
 ! D35   D(17,7,9,11)           52.0357         estimate D2E/DX2                !
 ! D36   D(17,7,9,12)          172.1107         estimate D2E/DX2                !
 ! D37   D(5,7,17,18)           62.4263         estimate D2E/DX2                !
 ! D38   D(5,7,17,19)         -177.4986         estimate D2E/DX2                !
 ! D39   D(8,7,17,18)          -55.3394         estimate D2E/DX2                !
 ! D40   D(8,7,17,19)           64.7357         estimate D2E/DX2                !
 ! D41   D(9,7,17,18)         -172.1116         estimate D2E/DX2                !
 ! D42   D(9,7,17,19)          -52.0364         estimate D2E/DX2                !
 --------------------------------------------------------------------------------
 Trust Radius=3.00D-01 FncErr=1.00D-07 GrdErr=1.00D-06
 Number of steps in this run=    103 maximum allowed number of steps=    114.
 GradGradGradGradGradGradGradGradGradGradGradGradGradGradGradGradGradGrad

 Leave Link  103 at Sat Nov  7 02:11:48 2015, MaxMem=   805306368 cpu:         0.1
 (Enter /home/hetanjin/apps/g09D01/g09/l202.exe)
                          Input orientation:                          
 ---------------------------------------------------------------------
 Center     Atomic      Atomic             Coordinates (Angstroms)
 Number     Number       Type             X           Y           Z
 ---------------------------------------------------------------------
      1          6           0        0.000010    1.518429    1.254759
      2          1           0        0.349148    1.042070    2.175866
      3          1           0       -1.085003    1.664723    1.342944
      4          1           0        0.462302    2.511266    1.204222
      5          6           0        0.342970    0.696651   -0.000006
      6          1           0        1.431409    0.522493   -0.000015
      7          6           0       -0.342970   -0.696651   -0.000006
      8          1           0       -1.431409   -0.522493   -0.000015
      9          6           0        0.000010   -1.518447   -1.254754
     10          1           0        1.085024   -1.664732   -1.342928
     11          1           0       -0.462273   -2.511288   -1.204204
     12          1           0       -0.349127   -1.042109   -2.175873
     13          6           0       -0.000010    1.518447   -1.254754
     14          1           0        0.349127    1.042109   -2.175873
     15          1           0       -1.085024    1.664732   -1.342928
     16          1           0        0.462273    2.511288   -1.204204
     17          6           0       -0.000010   -1.518429    1.254759
     18          1           0       -0.349148   -1.042070    2.175866
     19          1           0       -0.462302   -2.511266    1.204222
 ---------------------------------------------------------------------
                    Distance matrix (angstroms):
                    1          2          3          4          5
     1  C    0.000000
     2  H    1.094191   0.000000
     3  H    1.098377   1.771509   0.000000
     4  H    1.096355   1.765059   1.769190   0.000000
     5  C    1.538628   2.203128   2.186272   2.181108   0.000000
     6  H    2.148313   2.485097   3.072549   2.518844   1.102284
     7  C    2.568784   2.869947   2.816064   3.519852   1.552998
     8  H    2.790839   3.217561   2.589874   3.773595   2.152843
     9  C    3.939578   4.295032   4.249454   4.743297   2.568788
    10  H    4.249441   4.500022   4.796686   4.930995   2.816063
    11  H    4.743292   4.970878   4.931006   5.646362   3.519855
    12  H    4.295054   4.875348   4.500058   4.970909   2.869962
    13  C    2.509513   3.481092   2.818979   2.691837   1.538628
    14  H    3.481092   4.351739   3.850513   3.687312   2.203129
    15  H    2.818986   3.850515   2.685872   3.098195   2.186272
    16  H    2.691831   3.687312   3.098177   2.408426   2.181108
    17  C    3.036858   2.743448   3.364141   4.056443   2.568784
    18  H    2.743448   2.198012   2.926084   3.772100   2.869947
    19  H    4.056443   3.772100   4.224439   5.106929   3.519852
                    6          7          8          9         10
     6  H    0.000000
     7  C    2.152843   0.000000
     8  H    3.047577   1.102284   0.000000
     9  C    2.790826   1.538628   2.148314   0.000000
    10  H    2.589855   2.186272   3.072549   1.098376   0.000000
    11  H    3.773583   2.181108   2.518849   1.096355   1.769189
    12  H    3.217553   2.203129   2.485094   1.094191   1.771509
    13  C    2.148314   2.568788   2.790826   3.036894   3.364179
    14  H    2.485094   2.869962   3.217553   2.743500   2.926146
    15  H    3.072549   2.816063   2.589855   3.364179   3.974222
    16  H    2.518849   3.519855   3.773583   4.056477   4.224477
    17  C    2.790839   1.538628   2.148313   2.509513   2.818986
    18  H    3.217561   2.203128   2.485097   3.481092   3.850515
    19  H    3.773595   2.181108   2.518844   2.691837   3.098195
                   11         12         13         14         15
    11  H    0.000000
    12  H    1.765058   0.000000
    13  C    4.056477   2.743500   0.000000
    14  H    3.772153   2.198073   1.094191   0.000000
    15  H    4.224477   2.926146   1.098376   1.771509   0.000000
    16  H    5.106961   3.772153   1.096355   1.765058   1.769189
    17  C    2.691831   3.481092   3.939578   4.295054   4.249441
    18  H    3.687312   4.351739   4.295032   4.875348   4.500022
    19  H    2.408426   3.687312   4.743297   4.970909   4.930995
                   16         17         18         19
    16  H    0.000000
    17  C    4.743292   0.000000
    18  H    4.970878   1.094191   0.000000
    19  H    5.646362   1.096355   1.765059   0.000000
 Stoichiometry    C6H13(2)
 Framework group  C1[X(C6H13)]
 Deg. of freedom    51
 Full point group                 C1      NOp   1
 Largest Abelian subgroup         C1      NOp   1
 Largest concise Abelian subgroup C1      NOp   1
                         Standard orientation:                         
 ---------------------------------------------------------------------
 Center     Atomic      Atomic             Coordinates (Angstroms)
 Number     Number       Type             X           Y           Z
 ---------------------------------------------------------------------
      1          6           0       -1.567488    1.179103    0.027256
      2          1           0       -1.175191    2.118356   -0.374191
      3          1           0       -1.659196    1.291709    1.115990
      4          1           0       -2.578614    1.047920   -0.375743
      5          6           0       -0.682188   -0.028387   -0.327128
      6          1           0       -0.568935   -0.051309   -1.423339
      7          6           0        0.743680    0.086160    0.277506
      8          1           0        0.630429    0.109065    1.373718
      9          6           0        1.628996   -1.121312   -0.076899
     10          1           0        1.720694   -1.233907   -1.165634
     11          1           0        2.640125   -0.990116    0.326091
     12          1           0        1.236721   -2.060576    0.324546
     13          6           0       -1.396144   -1.323574    0.097294
     14          1           0       -0.878071   -2.221529   -0.252752
     15          1           0       -1.475799   -1.386846    1.190948
     16          1           0       -2.414176   -1.353945   -0.308517
     17          6           0        1.457618    1.381364   -0.146895
     18          1           0        0.939525    2.279306    0.203154
     19          1           0        2.475646    1.411748    0.258925
 ---------------------------------------------------------------------
 Rotational constants (GHZ):      4.3092834      2.9224896      1.8899664
 Leave Link  202 at Sat Nov  7 02:11:48 2015, MaxMem=   805306368 cpu:         0.0
 (Enter /home/hetanjin/apps/g09D01/g09/l301.exe)
 Standard basis: 6-31G(d) (6D, 7F)
 Ernie: Thresh=  0.10000D-02 Tol=  0.10000D-05 Strict=F.
 There are   116 symmetry adapted cartesian basis functions of A   symmetry.
 There are   116 symmetry adapted basis functions of A   symmetry.
   116 basis functions,   220 primitive gaussians,   116 cartesian basis functions
    25 alpha electrons       24 beta electrons
       nuclear repulsion energy       250.9679006588 Hartrees.
 IExCor=  402 DFT=T Ex+Corr=B3LYP ExCW=0 ScaHFX=  0.200000
 ScaDFX=  0.800000  0.720000  1.000000  0.810000 ScalE2=  1.000000  1.000000
 IRadAn=      5 IRanWt=     -1 IRanGd=            0 ICorTp=0 IEmpDi=  4
 NAtoms=   19 NActive=   19 NUniq=   19 SFac= 1.00D+00 NAtFMM=   60 NAOKFM=F Big=F
 Integral buffers will be    131072 words long.
 Raffenetti 2 integral format.
 Two-electron integral symmetry is turned on.
 Leave Link  301 at Sat Nov  7 02:11:49 2015, MaxMem=   805306368 cpu:         0.4
 (Enter /home/hetanjin/apps/g09D01/g09/l302.exe)
 NPDir=0 NMtPBC=     1 NCelOv=     1 NCel=       1 NClECP=     1 NCelD=      1
         NCelK=      1 NCelE2=     1 NClLst=     1 CellRange=     0.0.
 One-electron integrals computed using PRISM.
 NBasis=   116 RedAO= T EigKep=  3.73D-03  NBF=   116
 NBsUse=   116 1.00D-06 EigRej= -1.00D+00 NBFU=   116
 Precomputing XC quadrature grid using
 IXCGrd= 4 IRadAn=           5 IRanWt=          -1 IRanGd=           0 AccXCQ= 0.00D+00.
 Generated NRdTot=       0 NPtTot=           0 NUsed=           0 NTot=          32
 NSgBfM=   116   116   116   116   116 MxSgAt=    19 MxSgA2=    19.
 Leave Link  302 at Sat Nov  7 02:11:49 2015, MaxMem=   805306368 cpu:         1.7
 (Enter /home/hetanjin/apps/g09D01/g09/l303.exe)
 DipDrv:  MaxL=1.
 Leave Link  303 at Sat Nov  7 02:11:49 2015, MaxMem=   805306368 cpu:         0.2
 (Enter /home/hetanjin/apps/g09D01/g09/l401.exe)
 ExpMin= 1.61D-01 ExpMax= 3.05D+03 ExpMxC= 4.57D+02 IAcc=3 IRadAn=         5 AccDes= 0.00D+00
 Harris functional with IExCor=  402 and IRadAn=       5 diagonalized for initial guess.
 HarFok:  IExCor=  402 AccDes= 0.00D+00 IRadAn=         5 IDoV= 1 UseB2=F ITyADJ=14
 ICtDFT=  3500011 ScaDFX=  1.000000  1.000000  1.000000  1.000000
 FoFCou: FMM=F IPFlag=           0 FMFlag=      100000 FMFlg1=           0
         NFxFlg=           0 DoJE=T BraDBF=F KetDBF=T FulRan=T
         wScrn=  0.000000 ICntrl=     500 IOpCl=  0 I1Cent=   200000004 NGrid=           0
         NMat0=    1 NMatS0=      1 NMatT0=    0 NMatD0=    1 NMtDS0=    0 NMtDT0=    0
 Petite list used in FoFCou.
 Harris En= -236.438703673726    
 JPrj=0 DoOrth=F DoCkMO=F.
 Initial guess <Sx>= 0.0000 <Sy>= 0.0000 <Sz>= 0.5000 <S**2>= 0.7500 S= 0.5000
 Leave Link  401 at Sat Nov  7 02:11:52 2015, MaxMem=   805306368 cpu:         8.4
 (Enter /home/hetanjin/apps/g09D01/g09/l502.exe)
 UHF open shell SCF:
 Using DIIS extrapolation, IDIIS=  1040.
 Integral symmetry usage will be decided dynamically.
 Keep R1 and R2 ints in memory in canonical form, NReq=47059932.
 IVT=       60514 IEndB=       60514 NGot=   805306368 MDV=   759189273
 LenX=   759189273 LenY=   759175376
 Requested convergence on RMS density matrix=1.00D-08 within 128 cycles.
 Requested convergence on MAX density matrix=1.00D-06.
 Requested convergence on             energy=1.00D-06.
 No special actions if energy rises.
 FoFCou: FMM=F IPFlag=           0 FMFlag=           0 FMFlg1=           0
         NFxFlg=           0 DoJE=F BraDBF=F KetDBF=F FulRan=T
         wScrn=  0.000000 ICntrl=     600 IOpCl=  0 I1Cent=           0 NGrid=           0
         NMat0=    1 NMatS0=   6786 NMatT0=    0 NMatD0=    1 NMtDS0=    0 NMtDT0=    0
 Symmetry not used in FoFCou.
 Integral accuracy reduced to 1.0D-05 until final iterations.

 Cycle   1  Pass 0  IDiag  1:
 E= -236.147575138750    
 DIIS: error= 5.30D-02 at cycle   1 NSaved=   1.
 NSaved= 1 IEnMin= 1 EnMin= -236.147575138750     IErMin= 1 ErrMin= 5.30D-02
 ErrMax= 5.30D-02  0.00D+00 EMaxC= 1.00D-01 BMatC= 8.96D-01 BMatP= 8.96D-01
 IDIUse=3 WtCom= 4.70D-01 WtEn= 5.30D-01
 Coeff-Com:  0.100D+01
 Coeff-En:   0.100D+01
 Coeff:      0.100D+01
 Gap=     0.281 Goal=   None    Shift=    0.000
 Gap=     0.230 Goal=   None    Shift=    0.000
 GapD=    0.230 DampG=1.000 DampE=0.500 DampFc=0.5000 IDamp=-1.
 Damping current iteration by 5.00D-01
 RMSDP=9.58D-03 MaxDP=1.37D-01              OVMax= 1.81D-01

 Cycle   2  Pass 0  IDiag  1:
 E= -236.260465625499     Delta-E=       -0.112890486749 Rises=F Damp=T
 DIIS: error= 7.03D-03 at cycle   2 NSaved=   2.
 NSaved= 2 IEnMin= 2 EnMin= -236.260465625499     IErMin= 2 ErrMin= 7.03D-03
 ErrMax= 7.03D-03  0.00D+00 EMaxC= 1.00D-01 BMatC= 3.81D-02 BMatP= 8.96D-01
 IDIUse=3 WtCom= 9.30D-01 WtEn= 7.03D-02
 Coeff-Com:  0.683D-01 0.932D+00
 Coeff-En:   0.113D+00 0.887D+00
 Coeff:      0.714D-01 0.929D+00
 Gap=     0.310 Goal=   None    Shift=    0.000
 Gap=     0.258 Goal=   None    Shift=    0.000
 RMSDP=1.66D-03 MaxDP=2.34D-02 DE=-1.13D-01 OVMax= 9.76D-02

 Cycle   3  Pass 0  IDiag  1:
 E= -236.397903058708     Delta-E=       -0.137437433209 Rises=F Damp=F
 DIIS: error= 3.20D-03 at cycle   3 NSaved=   3.
 NSaved= 3 IEnMin= 3 EnMin= -236.397903058708     IErMin= 3 ErrMin= 3.20D-03
 ErrMax= 3.20D-03  0.00D+00 EMaxC= 1.00D-01 BMatC= 5.62D-03 BMatP= 3.81D-02
 IDIUse=3 WtCom= 9.68D-01 WtEn= 3.20D-02
 Coeff-Com: -0.294D-02 0.213D+00 0.790D+00
 Coeff-En:   0.000D+00 0.000D+00 0.100D+01
 Coeff:     -0.285D-02 0.207D+00 0.796D+00
 Gap=     0.316 Goal=   None    Shift=    0.000
 Gap=     0.239 Goal=   None    Shift=    0.000
 RMSDP=6.16D-04 MaxDP=1.32D-02 DE=-1.37D-01 OVMax= 1.24D-02

 Cycle   4  Pass 0  IDiag  1:
 E= -236.398703602482     Delta-E=       -0.000800543774 Rises=F Damp=F
 DIIS: error= 2.12D-03 at cycle   4 NSaved=   4.
 NSaved= 4 IEnMin= 4 EnMin= -236.398703602482     IErMin= 4 ErrMin= 2.12D-03
 ErrMax= 2.12D-03  0.00D+00 EMaxC= 1.00D-01 BMatC= 2.73D-03 BMatP= 5.62D-03
 IDIUse=3 WtCom= 9.79D-01 WtEn= 2.12D-02
 Coeff-Com: -0.542D-02 0.348D-01 0.419D+00 0.551D+00
 Coeff-En:   0.000D+00 0.000D+00 0.305D+00 0.695D+00
 Coeff:     -0.531D-02 0.341D-01 0.417D+00 0.554D+00
 Gap=     0.313 Goal=   None    Shift=    0.000
 Gap=     0.245 Goal=   None    Shift=    0.000
 RMSDP=2.34D-04 MaxDP=4.77D-03 DE=-8.01D-04 OVMax= 6.14D-03

 Cycle   5  Pass 0  IDiag  1:
 E= -236.399367042884     Delta-E=       -0.000663440402 Rises=F Damp=F
 DIIS: error= 2.90D-04 at cycle   5 NSaved=   5.
 NSaved= 5 IEnMin= 5 EnMin= -236.399367042884     IErMin= 5 ErrMin= 2.90D-04
 ErrMax= 2.90D-04  0.00D+00 EMaxC= 1.00D-01 BMatC= 5.89D-05 BMatP= 2.73D-03
 IDIUse=3 WtCom= 9.97D-01 WtEn= 2.90D-03
 Coeff-Com: -0.938D-03-0.418D-02 0.811D-01 0.182D+00 0.742D+00
 Coeff-En:   0.000D+00 0.000D+00 0.000D+00 0.000D+00 0.100D+01
 Coeff:     -0.935D-03-0.417D-02 0.809D-01 0.181D+00 0.743D+00
 Gap=     0.313 Goal=   None    Shift=    0.000
 Gap=     0.245 Goal=   None    Shift=    0.000
 RMSDP=3.77D-05 MaxDP=7.40D-04 DE=-6.63D-04 OVMax= 9.29D-04

 Cycle   6  Pass 0  IDiag  1:
 E= -236.399382783422     Delta-E=       -0.000015740538 Rises=F Damp=F
 DIIS: error= 6.86D-05 at cycle   6 NSaved=   6.
 NSaved= 6 IEnMin= 6 EnMin= -236.399382783422     IErMin= 6 ErrMin= 6.86D-05
 ErrMax= 6.86D-05  0.00D+00 EMaxC= 1.00D-01 BMatC= 1.90D-06 BMatP= 5.89D-05
 IDIUse=1 WtCom= 1.00D+00 WtEn= 0.00D+00
 Coeff-Com:  0.211D-03-0.175D-02-0.173D-01-0.211D-01 0.131D-01 0.103D+01
 Coeff:      0.211D-03-0.175D-02-0.173D-01-0.211D-01 0.131D-01 0.103D+01
 Gap=     0.314 Goal=   None    Shift=    0.000
 Gap=     0.245 Goal=   None    Shift=    0.000
 RMSDP=1.34D-05 MaxDP=5.04D-04 DE=-1.57D-05 OVMax= 4.39D-04

 Cycle   7  Pass 0  IDiag  1:
 E= -236.399383690555     Delta-E=       -0.000000907133 Rises=F Damp=F
 DIIS: error= 4.37D-05 at cycle   7 NSaved=   7.
 NSaved= 7 IEnMin= 7 EnMin= -236.399383690555     IErMin= 7 ErrMin= 4.37D-05
 ErrMax= 4.37D-05  0.00D+00 EMaxC= 1.00D-01 BMatC= 9.46D-07 BMatP= 1.90D-06
 IDIUse=1 WtCom= 1.00D+00 WtEn= 0.00D+00
 Coeff-Com:  0.223D-03-0.128D-03-0.202D-01-0.372D-01-0.109D+00 0.486D+00
 Coeff-Com:  0.681D+00
 Coeff:      0.223D-03-0.128D-03-0.202D-01-0.372D-01-0.109D+00 0.486D+00
 Coeff:      0.681D+00
 Gap=     0.314 Goal=   None    Shift=    0.000
 Gap=     0.245 Goal=   None    Shift=    0.000
 RMSDP=5.68D-06 MaxDP=2.16D-04 DE=-9.07D-07 OVMax= 1.57D-04

 Initial convergence to 1.0D-05 achieved.  Increase integral accuracy.
 Cycle   8  Pass 1  IDiag  1:
 E= -236.399357181796     Delta-E=        0.000026508759 Rises=F Damp=F
 DIIS: error= 1.13D-05 at cycle   1 NSaved=   1.
 NSaved= 1 IEnMin= 1 EnMin= -236.399357181796     IErMin= 1 ErrMin= 1.13D-05
 ErrMax= 1.13D-05  0.00D+00 EMaxC= 1.00D-01 BMatC= 8.83D-08 BMatP= 8.83D-08
 IDIUse=1 WtCom= 1.00D+00 WtEn= 0.00D+00
 Coeff-Com:  0.100D+01
 Coeff:      0.100D+01
 Gap=     0.314 Goal=   None    Shift=    0.000
 Gap=     0.245 Goal=   None    Shift=    0.000
 RMSDP=5.68D-06 MaxDP=2.16D-04 DE= 2.65D-05 OVMax= 5.96D-05

 Cycle   9  Pass 1  IDiag  1:
 E= -236.399357201906     Delta-E=       -0.000000020109 Rises=F Damp=F
 DIIS: error= 1.01D-05 at cycle   2 NSaved=   2.
 NSaved= 2 IEnMin= 2 EnMin= -236.399357201906     IErMin= 2 ErrMin= 1.01D-05
 ErrMax= 1.01D-05  0.00D+00 EMaxC= 1.00D-01 BMatC= 5.30D-08 BMatP= 8.83D-08
 IDIUse=1 WtCom= 1.00D+00 WtEn= 0.00D+00
 Coeff-Com:  0.419D+00 0.581D+00
 Coeff:      0.419D+00 0.581D+00
 Gap=     0.314 Goal=   None    Shift=    0.000
 Gap=     0.245 Goal=   None    Shift=    0.000
 RMSDP=1.25D-06 MaxDP=3.05D-05 DE=-2.01D-08 OVMax= 3.29D-05

 Cycle  10  Pass 1  IDiag  1:
 E= -236.399357214998     Delta-E=       -0.000000013093 Rises=F Damp=F
 DIIS: error= 2.73D-06 at cycle   3 NSaved=   3.
 NSaved= 3 IEnMin= 3 EnMin= -236.399357214998     IErMin= 3 ErrMin= 2.73D-06
 ErrMax= 2.73D-06  0.00D+00 EMaxC= 1.00D-01 BMatC= 4.84D-09 BMatP= 5.30D-08
 IDIUse=1 WtCom= 1.00D+00 WtEn= 0.00D+00
 Coeff-Com: -0.516D-01 0.184D+00 0.868D+00
 Coeff:     -0.516D-01 0.184D+00 0.868D+00
 Gap=     0.314 Goal=   None    Shift=    0.000
 Gap=     0.245 Goal=   None    Shift=    0.000
 RMSDP=4.22D-07 MaxDP=1.40D-05 DE=-1.31D-08 OVMax= 1.01D-05

 Cycle  11  Pass 1  IDiag  1:
 E= -236.399357216634     Delta-E=       -0.000000001636 Rises=F Damp=F
 DIIS: error= 5.38D-07 at cycle   4 NSaved=   4.
 NSaved= 4 IEnMin= 4 EnMin= -236.399357216634     IErMin= 4 ErrMin= 5.38D-07
 ErrMax= 5.38D-07  0.00D+00 EMaxC= 1.00D-01 BMatC= 3.61D-10 BMatP= 4.84D-09
 IDIUse=1 WtCom= 1.00D+00 WtEn= 0.00D+00
 Coeff-Com: -0.419D-01-0.328D-02 0.194D+00 0.851D+00
 Coeff:     -0.419D-01-0.328D-02 0.194D+00 0.851D+00
 Gap=     0.314 Goal=   None    Shift=    0.000
 Gap=     0.245 Goal=   None    Shift=    0.000
 RMSDP=1.53D-07 MaxDP=3.53D-06 DE=-1.64D-09 OVMax= 4.13D-06

 Cycle  12  Pass 1  IDiag  1:
 E= -236.399357216784     Delta-E=       -0.000000000150 Rises=F Damp=F
 DIIS: error= 4.07D-07 at cycle   5 NSaved=   5.
 NSaved= 5 IEnMin= 5 EnMin= -236.399357216784     IErMin= 5 ErrMin= 4.07D-07
 ErrMax= 4.07D-07  0.00D+00 EMaxC= 1.00D-01 BMatC= 8.81D-11 BMatP= 3.61D-10
 IDIUse=1 WtCom= 1.00D+00 WtEn= 0.00D+00
 Coeff-Com: -0.582D-02-0.373D-01-0.976D-01 0.300D+00 0.840D+00
 Coeff:     -0.582D-02-0.373D-01-0.976D-01 0.300D+00 0.840D+00
 Gap=     0.314 Goal=   None    Shift=    0.000
 Gap=     0.245 Goal=   None    Shift=    0.000
 RMSDP=6.91D-08 MaxDP=2.28D-06 DE=-1.50D-10 OVMax= 2.12D-06

 Cycle  13  Pass 1  IDiag  1:
 E= -236.399357216817     Delta-E=       -0.000000000033 Rises=F Damp=F
 DIIS: error= 1.76D-07 at cycle   6 NSaved=   6.
 NSaved= 6 IEnMin= 6 EnMin= -236.399357216817     IErMin= 6 ErrMin= 1.76D-07
 ErrMax= 1.76D-07  0.00D+00 EMaxC= 1.00D-01 BMatC= 1.55D-11 BMatP= 8.81D-11
 IDIUse=1 WtCom= 1.00D+00 WtEn= 0.00D+00
 Coeff-Com:  0.317D-02-0.167D-01-0.721D-01 0.237D-01 0.389D+00 0.673D+00
 Coeff:      0.317D-02-0.167D-01-0.721D-01 0.237D-01 0.389D+00 0.673D+00
 Gap=     0.314 Goal=   None    Shift=    0.000
 Gap=     0.245 Goal=   None    Shift=    0.000
 RMSDP=2.13D-08 MaxDP=6.24D-07 DE=-3.27D-11 OVMax= 6.19D-07

 Cycle  14  Pass 1  IDiag  1:
 E= -236.399357216820     Delta-E=       -0.000000000003 Rises=F Damp=F
 DIIS: error= 1.86D-08 at cycle   7 NSaved=   7.
 NSaved= 7 IEnMin= 7 EnMin= -236.399357216820     IErMin= 7 ErrMin= 1.86D-08
 ErrMax= 1.86D-08  0.00D+00 EMaxC= 1.00D-01 BMatC= 2.73D-13 BMatP= 1.55D-11
 IDIUse=1 WtCom= 1.00D+00 WtEn= 0.00D+00
 Coeff-Com:  0.102D-02-0.342D-02-0.168D-01-0.312D-02 0.814D-01 0.188D+00
 Coeff-Com:  0.753D+00
 Coeff:      0.102D-02-0.342D-02-0.168D-01-0.312D-02 0.814D-01 0.188D+00
 Coeff:      0.753D+00
 Gap=     0.314 Goal=   None    Shift=    0.000
 Gap=     0.245 Goal=   None    Shift=    0.000
 RMSDP=3.82D-09 MaxDP=8.33D-08 DE=-3.18D-12 OVMax= 1.09D-07

 SCF Done:  E(UB3LYP) =  -236.399357217     A.U. after   14 cycles
            NFock= 14  Conv=0.38D-08     -V/T= 2.0104
 <Sx>= 0.0000 <Sy>= 0.0000 <Sz>= 0.5000 <S**2>= 0.7527 S= 0.5013
 <L.S>= 0.000000000000E+00
 KE= 2.339728558700D+02 PE=-1.047493429884D+03 EE= 3.261533161385D+02
 Annihilation of the first spin contaminant:
 S**2 before annihilation     0.7527,   after     0.7500
 Leave Link  502 at Sat Nov  7 02:12:37 2015, MaxMem=   805306368 cpu:       170.9
 (Enter /home/hetanjin/apps/g09D01/g09/l601.exe)
 Copying SCF densities to generalized density rwf, IOpCl= 1 IROHF=0.

 **********************************************************************

            Population analysis using the SCF density.

 **********************************************************************

 Orbital symmetries:
 Alpha Orbitals:
       Occupied  (A) (A) (A) (A) (A) (A) (A) (A) (A) (A) (A) (A)
                 (A) (A) (A) (A) (A) (A) (A) (A) (A) (A) (A) (A)
                 (A)
       Virtual   (A) (A) (A) (A) (A) (A) (A) (A) (A) (A) (A) (A)
                 (A) (A) (A) (A) (A) (A) (A) (A) (A) (A) (A) (A)
                 (A) (A) (A) (A) (A) (A) (A) (A) (A) (A) (A) (A)
                 (A) (A) (A) (A) (A) (A) (A) (A) (A) (A) (A) (A)
                 (A) (A) (A) (A) (A) (A) (A) (A) (A) (A) (A) (A)
                 (A) (A) (A) (A) (A) (A) (A) (A) (A) (A) (A) (A)
                 (A) (A) (A) (A) (A) (A) (A) (A) (A) (A) (A) (A)
                 (A) (A) (A) (A) (A) (A) (A)
 Beta  Orbitals:
       Occupied  (A) (A) (A) (A) (A) (A) (A) (A) (A) (A) (A) (A)
                 (A) (A) (A) (A) (A) (A) (A) (A) (A) (A) (A) (A)
       Virtual   (A) (A) (A) (A) (A) (A) (A) (A) (A) (A) (A) (A)
                 (A) (A) (A) (A) (A) (A) (A) (A) (A) (A) (A) (A)
                 (A) (A) (A) (A) (A) (A) (A) (A) (A) (A) (A) (A)
                 (A) (A) (A) (A) (A) (A) (A) (A) (A) (A) (A) (A)
                 (A) (A) (A) (A) (A) (A) (A) (A) (A) (A) (A) (A)
                 (A) (A) (A) (A) (A) (A) (A) (A) (A) (A) (A) (A)
                 (A) (A) (A) (A) (A) (A) (A) (A) (A) (A) (A) (A)
                 (A) (A) (A) (A) (A) (A) (A) (A)
 The electronic state is 2-A.
 Alpha  occ. eigenvalues --  -10.19295 -10.19044 -10.18505 -10.16999 -10.16928
 Alpha  occ. eigenvalues --  -10.16896  -0.81430  -0.74306  -0.68594  -0.66156
 Alpha  occ. eigenvalues --   -0.60286  -0.54173  -0.45517  -0.45130  -0.42431
 Alpha  occ. eigenvalues --   -0.41735  -0.39070  -0.38046  -0.36193  -0.35480
 Alpha  occ. eigenvalues --   -0.35412  -0.32180  -0.31160  -0.30902  -0.22889
 Alpha virt. eigenvalues --    0.08480   0.12236   0.12668   0.13562   0.14164
 Alpha virt. eigenvalues --    0.15993   0.16756   0.17691   0.18153   0.18570
 Alpha virt. eigenvalues --    0.20341   0.20539   0.23198   0.23753   0.25305
 Alpha virt. eigenvalues --    0.26437   0.27205   0.27890   0.49319   0.50495
 Alpha virt. eigenvalues --    0.51470   0.52001   0.54489   0.56334   0.59469
 Alpha virt. eigenvalues --    0.62832   0.63079   0.66653   0.70691   0.73800
 Alpha virt. eigenvalues --    0.74030   0.77860   0.81076   0.83730   0.84026
 Alpha virt. eigenvalues --    0.85700   0.88901   0.90201   0.91335   0.91516
 Alpha virt. eigenvalues --    0.91711   0.92468   0.93887   0.94858   0.96006
 Alpha virt. eigenvalues --    0.97481   0.98142   1.00664   1.04352   1.05964
 Alpha virt. eigenvalues --    1.16484   1.34878   1.40796   1.41011   1.50440
 Alpha virt. eigenvalues --    1.56756   1.57496   1.68939   1.74421   1.78824
 Alpha virt. eigenvalues --    1.80286   1.83869   1.86777   1.91514   1.94067
 Alpha virt. eigenvalues --    1.95598   2.01019   2.01694   2.06934   2.08095
 Alpha virt. eigenvalues --    2.11825   2.16397   2.18295   2.25081   2.25633
 Alpha virt. eigenvalues --    2.27771   2.33711   2.40838   2.44424   2.47866
 Alpha virt. eigenvalues --    2.51726   2.58541   2.75496   2.76582   2.77156
 Alpha virt. eigenvalues --    4.11306   4.18753   4.26320   4.29020   4.45758
 Alpha virt. eigenvalues --    4.62026
  Beta  occ. eigenvalues --  -10.19072 -10.18480 -10.17864 -10.16984 -10.16929
  Beta  occ. eigenvalues --  -10.16898  -0.81070  -0.73830  -0.68144  -0.65042
  Beta  occ. eigenvalues --   -0.59526  -0.53499  -0.45193  -0.44879  -0.42151
  Beta  occ. eigenvalues --   -0.41394  -0.38823  -0.38009  -0.35930  -0.35171
  Beta  occ. eigenvalues --   -0.34906  -0.31901  -0.30834  -0.30638
  Beta virt. eigenvalues --   -0.06128   0.08774   0.12321   0.12897   0.13858
  Beta virt. eigenvalues --    0.14411   0.16140   0.17010   0.17962   0.18231
  Beta virt. eigenvalues --    0.18749   0.20553   0.20983   0.23456   0.24068
  Beta virt. eigenvalues --    0.25587   0.26896   0.27453   0.28427   0.49528
  Beta virt. eigenvalues --    0.50679   0.51704   0.52854   0.55874   0.57697
  Beta virt. eigenvalues --    0.61383   0.63151   0.64954   0.67087   0.71189
  Beta virt. eigenvalues --    0.73943   0.74278   0.78437   0.81395   0.83950
  Beta virt. eigenvalues --    0.84577   0.86120   0.89027   0.90352   0.91600
  Beta virt. eigenvalues --    0.91825   0.91953   0.92872   0.94227   0.95144
  Beta virt. eigenvalues --    0.96432   0.97698   0.98887   1.01013   1.04555
  Beta virt. eigenvalues --    1.06320   1.18093   1.34989   1.41273   1.41623
  Beta virt. eigenvalues --    1.50977   1.56873   1.58297   1.69428   1.74790
  Beta virt. eigenvalues --    1.79362   1.81618   1.84651   1.90656   1.91920
  Beta virt. eigenvalues --    1.95650   1.96296   2.01093   2.01956   2.07703
  Beta virt. eigenvalues --    2.10145   2.12649   2.17934   2.19305   2.25242
  Beta virt. eigenvalues --    2.26329   2.28470   2.34240   2.41455   2.44825
  Beta virt. eigenvalues --    2.48395   2.52182   2.58812   2.75916   2.76849
  Beta virt. eigenvalues --    2.77613   4.12737   4.20671   4.26416   4.29026
  Beta virt. eigenvalues --    4.45967   4.62189
          Condensed to atoms (all electrons):
               1          2          3          4          5          6
     1  C    5.120733   0.370027   0.370880   0.369253   0.377843  -0.045354
     2  H    0.370027   0.570121  -0.032258  -0.029992  -0.027549  -0.003724
     3  H    0.370880  -0.032258   0.588451  -0.031963  -0.035793   0.005884
     4  H    0.369253  -0.029992  -0.031963   0.580670  -0.028984  -0.002842
     5  C    0.377843  -0.027549  -0.035793  -0.028984   4.867813   0.374305
     6  H   -0.045354  -0.003724   0.005884  -0.002842   0.374305   0.638288
     7  C   -0.043868  -0.004621  -0.006049   0.004629   0.390010  -0.047168
     8  H   -0.006157  -0.000064   0.005947  -0.000083  -0.045152   0.007199
     9  C    0.004571  -0.000020   0.000039  -0.000138  -0.044445  -0.005988
    10  H    0.000043  -0.000003   0.000011   0.000000  -0.005345   0.005869
    11  H   -0.000142  -0.000001   0.000000   0.000002   0.004560  -0.000062
    12  H   -0.000008  -0.000001  -0.000004  -0.000001  -0.005603  -0.000068
    13  C   -0.056126   0.005273  -0.004576  -0.005384   0.372095  -0.047224
    14  H    0.005160  -0.000184  -0.000058   0.000018  -0.027481  -0.003740
    15  H   -0.004463  -0.000058   0.004325  -0.000214  -0.035202   0.005892
    16  H   -0.005458   0.000014  -0.000201   0.005103  -0.029008  -0.002749
    17  C   -0.006027   0.003108  -0.000796   0.000158  -0.044766  -0.001942
    18  H    0.002458   0.001898   0.000626  -0.000064  -0.006784  -0.000005
    19  H    0.000158  -0.000084  -0.000034  -0.000002   0.004700  -0.000015
               7          8          9         10         11         12
     1  C   -0.043868  -0.006157   0.004571   0.000043  -0.000142  -0.000008
     2  H   -0.004621  -0.000064  -0.000020  -0.000003  -0.000001  -0.000001
     3  H   -0.006049   0.005947   0.000039   0.000011   0.000000  -0.000004
     4  H    0.004629  -0.000083  -0.000138   0.000000   0.000002  -0.000001
     5  C    0.390010  -0.045152  -0.044445  -0.005345   0.004560  -0.005603
     6  H   -0.047168   0.007199  -0.005988   0.005869  -0.000062  -0.000068
     7  C    4.904442   0.361450   0.373111  -0.035574  -0.029369  -0.027136
     8  H    0.361450   0.641179  -0.046908   0.005801  -0.002699  -0.003406
     9  C    0.373111  -0.046908   5.119275   0.374202   0.368540   0.367523
    10  H   -0.035574   0.005801   0.374202   0.574116  -0.031065  -0.031746
    11  H   -0.029369  -0.002699   0.368540  -0.031065   0.582953  -0.030858
    12  H   -0.027136  -0.003406   0.367523  -0.031746  -0.030858   0.577313
    13  C   -0.043471  -0.006196  -0.005505  -0.000803   0.000168   0.002363
    14  H   -0.005014  -0.000095   0.002023   0.000619  -0.000060   0.002117
    15  H   -0.006121   0.006077  -0.000743   0.000128  -0.000039   0.000642
    16  H    0.004640  -0.000077   0.000167  -0.000039  -0.000001  -0.000056
    17  C    0.369638  -0.045351  -0.053440  -0.001691  -0.005633   0.004943
    18  H   -0.036393  -0.001173   0.005183  -0.000004   0.000023  -0.000210
    19  H   -0.037682  -0.000385  -0.006966  -0.000058   0.005263  -0.000014
              13         14         15         16         17         18
     1  C   -0.056126   0.005160  -0.004463  -0.005458  -0.006027   0.002458
     2  H    0.005273  -0.000184  -0.000058   0.000014   0.003108   0.001898
     3  H   -0.004576  -0.000058   0.004325  -0.000201  -0.000796   0.000626
     4  H   -0.005384   0.000018  -0.000214   0.005103   0.000158  -0.000064
     5  C    0.372095  -0.027481  -0.035202  -0.029008  -0.044766  -0.006784
     6  H   -0.047224  -0.003740   0.005892  -0.002749  -0.001942  -0.000005
     7  C   -0.043471  -0.005014  -0.006121   0.004640   0.369638  -0.036393
     8  H   -0.006196  -0.000095   0.006077  -0.000077  -0.045351  -0.001173
     9  C   -0.005505   0.002023  -0.000743   0.000167  -0.053440   0.005183
    10  H   -0.000803   0.000619   0.000128  -0.000039  -0.001691  -0.000004
    11  H    0.000168  -0.000060  -0.000039  -0.000001  -0.005633   0.000023
    12  H    0.002363   0.002117   0.000642  -0.000056   0.004943  -0.000210
    13  C    5.125437   0.370763   0.370514   0.369238   0.004592  -0.000016
    14  H    0.370763   0.572338  -0.032181  -0.030254  -0.000021  -0.000002
    15  H    0.370514  -0.032181   0.587289  -0.031922   0.000018  -0.000005
    16  H    0.369238  -0.030254  -0.031922   0.580992  -0.000126  -0.000001
    17  C    0.004592  -0.000021   0.000018  -0.000126   5.374188   0.350625
    18  H   -0.000016  -0.000002  -0.000005  -0.000001   0.350625   0.591955
    19  H   -0.000160  -0.000001   0.000000   0.000002   0.348726  -0.044160
              19
     1  C    0.000158
     2  H   -0.000084
     3  H   -0.000034
     4  H   -0.000002
     5  C    0.004700
     6  H   -0.000015
     7  C   -0.037682
     8  H   -0.000385
     9  C   -0.006966
    10  H   -0.000058
    11  H    0.005263
    12  H   -0.000014
    13  C   -0.000160
    14  H   -0.000001
    15  H    0.000000
    16  H    0.000002
    17  C    0.348726
    18  H   -0.044160
    19  H    0.601981
          Atomic-Atomic Spin Densities.
               1          2          3          4          5          6
     1  C    0.000462  -0.001365  -0.000725   0.000620   0.000902  -0.000439
     2  H   -0.001365   0.001252   0.000390  -0.000379  -0.000408   0.000489
     3  H   -0.000725   0.000390   0.000652  -0.000210  -0.000205   0.000075
     4  H    0.000620  -0.000379  -0.000210   0.000471   0.000144  -0.000242
     5  C    0.000902  -0.000408  -0.000205   0.000144   0.026159  -0.007274
     6  H   -0.000439   0.000489   0.000075  -0.000242  -0.007274   0.003790
     7  C    0.000796  -0.000371  -0.000016  -0.000026   0.004574  -0.000853
     8  H   -0.001145   0.000384   0.000535  -0.000053  -0.009227   0.000858
     9  C    0.000059  -0.000028  -0.000016   0.000005   0.005707  -0.001241
    10  H   -0.000012   0.000007   0.000001  -0.000001  -0.001462   0.000513
    11  H    0.000001   0.000000   0.000000   0.000000   0.000062  -0.000017
    12  H    0.000000   0.000001   0.000002   0.000000  -0.000501   0.000132
    13  C   -0.000017   0.000061   0.000114  -0.000150  -0.004066   0.002088
    14  H   -0.000005   0.000000   0.000001   0.000000  -0.000227   0.000046
    15  H   -0.000001   0.000005   0.000017  -0.000014  -0.000178   0.000031
    16  H   -0.000024  -0.000001  -0.000007   0.000019   0.000146  -0.000087
    17  C   -0.000704   0.001206  -0.000135  -0.000040  -0.008294   0.005007
    18  H    0.001006  -0.000899  -0.000135   0.000003   0.001171  -0.000272
    19  H    0.000059  -0.000031  -0.000009   0.000001   0.000196  -0.000090
               7          8          9         10         11         12
     1  C    0.000796  -0.001145   0.000059  -0.000012   0.000001   0.000000
     2  H   -0.000371   0.000384  -0.000028   0.000007   0.000000   0.000001
     3  H   -0.000016   0.000535  -0.000016   0.000001   0.000000   0.000002
     4  H   -0.000026  -0.000053   0.000005  -0.000001   0.000000   0.000000
     5  C    0.004574  -0.009227   0.005707  -0.001462   0.000062  -0.000501
     6  H   -0.000853   0.000858  -0.001241   0.000513  -0.000017   0.000132
     7  C   -0.030045   0.010831   0.003433  -0.000517   0.000500   0.000602
     8  H    0.010831   0.074691  -0.006545   0.000695  -0.000503   0.001229
     9  C    0.003433  -0.006545   0.014729  -0.004489   0.000266  -0.001493
    10  H   -0.000517   0.000695  -0.004489   0.002586  -0.000296   0.001070
    11  H    0.000500  -0.000503   0.000266  -0.000296  -0.000640   0.000076
    12  H    0.000602   0.001229  -0.001493   0.001070   0.000076  -0.001824
    13  C    0.000573   0.001429  -0.000931   0.000278  -0.000003   0.000029
    14  H    0.000052   0.000017  -0.000061   0.000013  -0.000001   0.000031
    15  H    0.000106   0.000291  -0.000067   0.000005  -0.000001   0.000026
    16  H   -0.000045  -0.000014   0.000004  -0.000002   0.000000   0.000005
    17  C   -0.037598  -0.022096  -0.006845   0.003771  -0.000170   0.000096
    18  H    0.003475  -0.002765   0.000130  -0.000065   0.000021  -0.000002
    19  H    0.003788  -0.002541   0.000951  -0.000297   0.000154  -0.000064
              13         14         15         16         17         18
     1  C   -0.000017  -0.000005  -0.000001  -0.000024  -0.000704   0.001006
     2  H    0.000061   0.000000   0.000005  -0.000001   0.001206  -0.000899
     3  H    0.000114   0.000001   0.000017  -0.000007  -0.000135  -0.000135
     4  H   -0.000150   0.000000  -0.000014   0.000019  -0.000040   0.000003
     5  C   -0.004066  -0.000227  -0.000178   0.000146  -0.008294   0.001171
     6  H    0.002088   0.000046   0.000031  -0.000087   0.005007  -0.000272
     7  C    0.000573   0.000052   0.000106  -0.000045  -0.037598   0.003475
     8  H    0.001429   0.000017   0.000291  -0.000014  -0.022096  -0.002765
     9  C   -0.000931  -0.000061  -0.000067   0.000004  -0.006845   0.000130
    10  H    0.000278   0.000013   0.000005  -0.000002   0.003771  -0.000065
    11  H   -0.000003  -0.000001  -0.000001   0.000000  -0.000170   0.000021
    12  H    0.000029   0.000031   0.000026   0.000005   0.000096  -0.000002
    13  C    0.001015   0.000139   0.000045   0.000244   0.000220  -0.000045
    14  H    0.000139   0.000059   0.000033   0.000007   0.000000   0.000000
    15  H    0.000045   0.000033  -0.000210  -0.000035  -0.000010  -0.000002
    16  H    0.000244   0.000007  -0.000035  -0.000501  -0.000004   0.000000
    17  C    0.000220   0.000000  -0.000010  -0.000004   1.132814  -0.013737
    18  H   -0.000045   0.000000  -0.000002   0.000000  -0.013737  -0.023465
    19  H   -0.000008   0.000000  -0.000001   0.000000  -0.013511   0.006463
              19
     1  C    0.000059
     2  H   -0.000031
     3  H   -0.000009
     4  H    0.000001
     5  C    0.000196
     6  H   -0.000090
     7  C    0.003788
     8  H   -0.002541
     9  C    0.000951
    10  H   -0.000297
    11  H    0.000154
    12  H   -0.000064
    13  C   -0.000008
    14  H    0.000000
    15  H   -0.000001
    16  H    0.000000
    17  C   -0.013511
    18  H    0.006463
    19  H   -0.026323
 Mulliken charges and spin densities:
               1          2
     1  C   -0.453522  -0.000532
     2  H    0.148118   0.000316
     3  H    0.135569   0.000328
     4  H    0.139835   0.000146
     5  C   -0.055215   0.007219
     6  H    0.123443   0.002511
     7  C   -0.085454  -0.040741
     8  H    0.130092   0.046069
     9  C   -0.450483   0.003568
    10  H    0.145539   0.001798
    11  H    0.138421  -0.000551
    12  H    0.144209  -0.000586
    13  C   -0.450982   0.001014
    14  H    0.146052   0.000103
    15  H    0.136065   0.000041
    16  H    0.139736  -0.000295
    17  C   -0.296202   1.039970
    18  H    0.136048  -0.029117
    19  H    0.128731  -0.031262
 Sum of Mulliken charges =   0.00000   1.00000
 Mulliken charges and spin densities with hydrogens summed into heavy atoms:
               1          2
     1  C   -0.030000   0.000258
     5  C    0.068228   0.009730
     7  C    0.044637   0.005328
     9  C   -0.022314   0.004229
    13  C   -0.029130   0.000864
    17  C   -0.031422   0.979591
 Electronic spatial extent (au):  <R**2>=            726.6168
 Charge=              0.0000 electrons
 Dipole moment (field-independent basis, Debye):
    X=             -0.1298    Y=             -0.1632    Z=              0.5161  Tot=              0.5566
 Quadrupole moment (field-independent basis, Debye-Ang):
   XX=            -41.1339   YY=            -41.3262   ZZ=            -40.9022
   XY=             -0.2795   XZ=              1.1717   YZ=              0.8926
 Traceless Quadrupole moment (field-independent basis, Debye-Ang):
   XX=             -0.0132   YY=             -0.2054   ZZ=              0.2186
   XY=             -0.2795   XZ=              1.1717   YZ=              0.8926
 Octapole moment (field-independent basis, Debye-Ang**2):
  XXX=             -0.6824  YYY=             -0.4449  ZZZ=              1.1870  XYY=             -0.3779
  XXY=             -0.5671  XXZ=              1.2988  XZZ=             -1.1156  YZZ=             -1.2272
  YYZ=              1.2637  XYZ=              1.4211
 Hexadecapole moment (field-independent basis, Debye-Ang**3):
 XXXX=           -532.1953 YYYY=           -377.8195 ZZZZ=            -87.0849 XXXY=              0.9876
 XXXZ=             10.4309 YYYX=             -2.3860 YYYZ=              2.8181 ZZZX=             -0.3870
 ZZZY=              2.0224 XXYY=           -160.6881 XXZZ=           -106.2347 YYZZ=            -79.9977
 XXYZ=              3.0209 YYXZ=              3.3340 ZZXY=             -2.0538
 N-N= 2.509679006588D+02 E-N=-1.047493432311D+03  KE= 2.339728558700D+02
                          Isotropic Fermi Contact Couplings
        Atom                 a.u.       MegaHertz       Gauss      10(-4) cm-1
     1  C(13)             -0.00057      -0.64055      -0.22857      -0.21367
     2  H(1)               0.00003       0.13480       0.04810       0.04496
     3  H(1)               0.00012       0.52543       0.18749       0.17526
     4  H(1)               0.00008       0.37405       0.13347       0.12477
     5  C(13)              0.01185      13.32698       4.75540       4.44540
     6  H(1)              -0.00025      -1.10872      -0.39562      -0.36983
     7  C(13)             -0.01095     -12.31468      -4.39418      -4.10773
     8  H(1)               0.02434     108.79503      38.82077      36.29011
     9  C(13)              0.00733       8.24212       2.94099       2.74927
    10  H(1)              -0.00025      -1.10302      -0.39359      -0.36793
    11  H(1)              -0.00025      -1.11422      -0.39758      -0.37166
    12  H(1)              -0.00048      -2.14169      -0.76421      -0.71439
    13  C(13)             -0.00099      -1.11262      -0.39701      -0.37113
    14  H(1)               0.00007       0.30699       0.10954       0.10240
    15  H(1)               0.00016       0.70700       0.25228       0.23583
    16  H(1)              -0.00009      -0.38871      -0.13870      -0.12966
    17  C(13)              0.30250     340.06335     121.34306     113.43293
    18  H(1)              -0.00400     -17.87438      -6.37802      -5.96225
    19  H(1)              -0.00469     -20.96235      -7.47989      -6.99229
 --------------------------------------------------------
       Center         ----  Spin Dipole Couplings  ----
                      3XX-RR        3YY-RR        3ZZ-RR
 --------------------------------------------------------
     1   Atom        0.008382     -0.004823     -0.003560
     2   Atom        0.010619     -0.005052     -0.005567
     3   Atom        0.005023     -0.003202     -0.001820
     4   Atom        0.004046     -0.002062     -0.001984
     5   Atom        0.018607     -0.006494     -0.012113
     6   Atom        0.004548     -0.001558     -0.002990
     7   Atom       -0.014181      0.003461      0.010720
     8   Atom       -0.007324      0.000632      0.006692
     9   Atom       -0.006251      0.015144     -0.008894
    10   Atom       -0.006589      0.011243     -0.004654
    11   Atom       -0.002324      0.006795     -0.004470
    12   Atom       -0.003621      0.006327     -0.002707
    13   Atom        0.001163     -0.000529     -0.000634
    14   Atom       -0.000367      0.002055     -0.001688
    15   Atom        0.001054      0.000150     -0.001204
    16   Atom        0.001438     -0.000207     -0.001231
    17   Atom       -0.471284     -0.477667      0.948951
    18   Atom       -0.029367      0.030769     -0.001403
    19   Atom        0.057272     -0.059803      0.002532
 --------------------------------------------------------
                        XY            XZ            YZ
 --------------------------------------------------------
     1   Atom        0.000452     -0.001464     -0.000481
     2   Atom       -0.004986     -0.000719      0.000036
     3   Atom       -0.000347     -0.003270     -0.000142
     4   Atom        0.000377      0.000001     -0.000052
     5   Atom        0.011219      0.000514     -0.000569
     6   Atom        0.008666      0.005704      0.003265
     7   Atom        0.016659     -0.015591     -0.026954
     8   Atom        0.006883     -0.005430     -0.006193
     9   Atom       -0.005531      0.000667     -0.004001
    10   Atom       -0.001752     -0.001108      0.004437
    11   Atom       -0.006986      0.001615     -0.003762
    12   Atom        0.000096     -0.000277     -0.001456
    13   Atom        0.003358     -0.000930     -0.000913
    14   Atom        0.002543      0.000048      0.000051
    15   Atom        0.002888     -0.000941     -0.000929
    16   Atom        0.001954      0.000102     -0.000039
    17   Atom        0.000841     -0.080714     -0.041691
    18   Atom       -0.052496     -0.016230      0.022817
    19   Atom        0.002782      0.031699     -0.000119
 --------------------------------------------------------


 ---------------------------------------------------------------------------------
              Anisotropic Spin Dipole Couplings in Principal Axis System
 ---------------------------------------------------------------------------------

       Atom             a.u.   MegaHertz   Gauss  10(-4) cm-1        Axes

              Baa    -0.0050    -0.669    -0.239    -0.223  0.0033  0.9464  0.3230
     1 C(13)  Bbb    -0.0036    -0.482    -0.172    -0.161  0.1268 -0.3208  0.9386
              Bcc     0.0086     1.151     0.411     0.384  0.9919  0.0378 -0.1211
 
              Baa    -0.0065    -3.486    -1.244    -1.163  0.2816  0.9435  0.1745
     2 H(1)   Bbb    -0.0056    -2.969    -1.060    -0.990 -0.0113 -0.1786  0.9839
              Bcc     0.0121     6.455     2.303     2.153  0.9595 -0.2790 -0.0396
 
              Baa    -0.0034    -1.832    -0.654    -0.611  0.2624  0.7573  0.5981
     3 H(1)   Bbb    -0.0029    -1.551    -0.554    -0.517  0.2643 -0.6525  0.7102
              Bcc     0.0063     3.384     1.207     1.129  0.9281 -0.0282 -0.3713
 
              Baa    -0.0021    -1.124    -0.401    -0.375 -0.0565  0.9198  0.3882
     4 H(1)   Bbb    -0.0020    -1.047    -0.374    -0.349  0.0241 -0.3875  0.9216
              Bcc     0.0041     2.171     0.775     0.724  0.9981  0.0614 -0.0003
 
              Baa    -0.0124    -1.667    -0.595    -0.556 -0.1487  0.3693  0.9173
     5 C(13)  Bbb    -0.0105    -1.405    -0.501    -0.469 -0.3241  0.8582 -0.3980
              Bcc     0.0229     3.072     1.096     1.025  0.9343  0.3565  0.0079
 
              Baa    -0.0078    -4.188    -1.494    -1.397 -0.6278  0.7407  0.2393
     6 H(1)   Bbb    -0.0055    -2.914    -1.040    -0.972 -0.1500 -0.4168  0.8965
              Bcc     0.0133     7.102     2.534     2.369  0.7638  0.5270  0.3728
 
              Baa    -0.0242    -3.253    -1.161    -1.085  0.8293 -0.5557 -0.0586
     7 C(13)  Bbb    -0.0190    -2.554    -0.911    -0.852  0.4206  0.5517  0.7203
              Bcc     0.0433     5.807     2.072     1.937 -0.3679 -0.6220  0.6912
 
              Baa    -0.0115    -6.125    -2.185    -2.043  0.8876 -0.4466  0.1130
     8 H(1)   Bbb    -0.0024    -1.266    -0.452    -0.422  0.2743  0.7095  0.6491
              Bcc     0.0139     7.390     2.637     2.465 -0.3701 -0.5451  0.7522
 
              Baa    -0.0096    -1.284    -0.458    -0.428  0.1074  0.1823  0.9774
     9 C(13)  Bbb    -0.0076    -1.013    -0.362    -0.338  0.9668  0.2100 -0.1454
              Bcc     0.0171     2.297     0.820     0.766 -0.2317  0.9606 -0.1537
 
              Baa    -0.0071    -3.787    -1.351    -1.263  0.8946 -0.0225  0.4463
    10 H(1)   Bbb    -0.0055    -2.936    -1.048    -0.979 -0.4349 -0.2729  0.8581
              Bcc     0.0126     6.723     2.399     2.243 -0.1025  0.9618  0.2539
 
              Baa    -0.0063    -3.348    -1.195    -1.117  0.7497  0.5189  0.4108
    11 H(1)   Bbb    -0.0053    -2.847    -1.016    -0.950 -0.4787 -0.0034  0.8780
              Bcc     0.0116     6.195     2.211     2.066 -0.4570  0.8548 -0.2459
 
              Baa    -0.0037    -1.979    -0.706    -0.660  0.9484  0.0366  0.3150
    12 H(1)   Bbb    -0.0028    -1.520    -0.542    -0.507 -0.3168  0.1519  0.9363
              Bcc     0.0066     3.499     1.249     1.167  0.0136  0.9877 -0.1556
 
              Baa    -0.0032    -0.423    -0.151    -0.141 -0.6038  0.7945  0.0650
    13 C(13)  Bbb    -0.0010    -0.131    -0.047    -0.044  0.2473  0.1091  0.9628
              Bcc     0.0041     0.554     0.198     0.185  0.7578  0.5974 -0.2624
 
              Baa    -0.0020    -1.053    -0.376    -0.351  0.8450 -0.5329 -0.0459
    14 H(1)   Bbb    -0.0017    -0.901    -0.321    -0.300  0.0320 -0.0353  0.9989
              Bcc     0.0037     1.954     0.697     0.652  0.5339  0.8455  0.0128
 
              Baa    -0.0023    -1.244    -0.444    -0.415 -0.6264  0.7712  0.1131
    15 H(1)   Bbb    -0.0015    -0.819    -0.292    -0.273  0.2657  0.0748  0.9612
              Bcc     0.0039     2.064     0.736     0.688  0.7328  0.6321 -0.2518
 
              Baa    -0.0015    -0.817    -0.292    -0.273 -0.5338  0.7961  0.2852
    16 H(1)   Bbb    -0.0012    -0.643    -0.229    -0.215  0.1450 -0.2461  0.9583
              Bcc     0.0027     1.460     0.521     0.487  0.8331  0.5529  0.0160
 
              Baa    -0.4795   -64.346   -22.960   -21.463  0.3815  0.9231  0.0485
    17 C(13)  Bbb    -0.4752   -63.771   -22.755   -21.272  0.9226 -0.3835  0.0411
              Bcc     0.9547   128.116    45.715    42.735 -0.0565 -0.0291  0.9980
 
              Baa    -0.0599   -31.974   -11.409   -10.665  0.8698  0.4909  0.0498
    18 H(1)   Bbb    -0.0119    -6.347    -2.265    -2.117  0.1347 -0.3333  0.9331
              Bcc     0.0718    38.320    13.674    12.782 -0.4747  0.8049  0.3560
 
              Baa    -0.0599   -31.951   -11.401   -10.658 -0.0281  0.9995  0.0162
    19 H(1)   Bbb    -0.0119    -6.373    -2.274    -2.126 -0.4154 -0.0264  0.9093
              Bcc     0.0718    38.324    13.675    12.784  0.9092  0.0188  0.4159
 

 ---------------------------------------------------------------------------------

 No NMR shielding tensors so no spin-rotation constants.
 Leave Link  601 at Sat Nov  7 02:12:37 2015, MaxMem=   805306368 cpu:         1.2
 (Enter /home/hetanjin/apps/g09D01/g09/l701.exe)
 Compute integral first derivatives.
 ... and contract with generalized density number  0.
 Leave Link  701 at Sat Nov  7 02:12:38 2015, MaxMem=   805306368 cpu:         1.8
 (Enter /home/hetanjin/apps/g09D01/g09/l702.exe)
 L702 exits ... SP integral derivatives will be done elsewhere.
 Leave Link  702 at Sat Nov  7 02:12:38 2015, MaxMem=   805306368 cpu:         0.1
 (Enter /home/hetanjin/apps/g09D01/g09/l703.exe)
 Compute integral first derivatives, UseDBF=F ICtDFT=           0.
 Integral derivatives from FoFJK, PRISM(SPDF).
 Calling FoFJK, ICntrl=      2127 FMM=F ISym2X=0 I1Cent= 0 IOpClX= 1 NMat=1 NMatS=1 NMatT=0.
 FoFJK:  IHMeth= 1 ICntrl=    2127 DoSepK=F KAlg= 0 I1Cent=   0 FoldK=F
 IRaf=         0 NMat=   1 IRICut=       1 DoRegI=T DoRafI=F ISym2E= 0.
 FoFCou: FMM=F IPFlag=           0 FMFlag=      100000 FMFlg1=         800
         NFxFlg=           0 DoJE=F BraDBF=F KetDBF=F FulRan=T
         wScrn=  0.000000 ICntrl=    2127 IOpCl=  1 I1Cent=           0 NGrid=           0
         NMat0=    1 NMatS0=      1 NMatT0=    0 NMatD0=    1 NMtDS0=    0 NMtDT0=    0
 Symmetry not used in FoFCou.
 Leave Link  703 at Sat Nov  7 02:12:46 2015, MaxMem=   805306368 cpu:        32.3
 (Enter /home/hetanjin/apps/g09D01/g09/l716.exe)
 Dipole        =-5.10789279D-02-6.41963473D-02 2.03050582D-01
 ***** Axes restored to original set *****
 -------------------------------------------------------------------
 Center     Atomic                   Forces (Hartrees/Bohr)
 Number     Number              X              Y              Z
 -------------------------------------------------------------------
      1        6          -0.000179055   -0.000245450    0.000172615
      2        1           0.000146956   -0.000055510   -0.000179824
      3        1          -0.000131592    0.000217603    0.000016969
      4        1          -0.000045643   -0.000110695   -0.000075707
      5        6           0.001257013    0.002562172   -0.000366421
      6        1          -0.001007484   -0.000163637    0.000055039
      7        6           0.020911553   -0.006116511    0.004809906
      8        1          -0.002808742   -0.000892174    0.002950193
      9        6           0.000228026   -0.000589738   -0.001907238
     10        1          -0.000810565    0.000265237    0.000348478
     11        1           0.000008683    0.000020389    0.000067336
     12        1          -0.000335445   -0.000003517    0.000081285
     13        6          -0.000197957   -0.000141076   -0.000014931
     14        1          -0.000003311    0.000009181    0.000003698
     15        1          -0.000152971    0.000083854   -0.000099119
     16        1          -0.000031303   -0.000099274    0.000061344
     17        6          -0.044601699    0.010037900   -0.010080712
     18        1           0.014052367    0.001059601    0.004371171
     19        1           0.013701169   -0.005838354   -0.000214080
 -------------------------------------------------------------------
 Cartesian Forces:  Max     0.044601699 RMS     0.007447107
 Leave Link  716 at Sat Nov  7 02:12:46 2015, MaxMem=   805306368 cpu:         0.1
 (Enter /home/hetanjin/apps/g09D01/g09/l103.exe)

 GradGradGradGradGradGradGradGradGradGradGradGradGradGradGradGradGradGrad
 Berny optimization.
 FormGI is forming the generalized inverse of G from B-inverse, IUseBI=4.
 Internal  Forces:  Max     0.013599893 RMS     0.003251072
 Search for a local minimum.
 Step number   1 out of a maximum of  103
 All quantities printed in internal units (Hartrees-Bohrs-Radians)
 RMS Force = .32511D-02 SwitMx=.10000D-02 MixMth= 1
 Mixed Optimization -- RFO/linear search
 Second derivative matrix not updated -- first step.
 ITU=  0
     Eigenvalues ---    0.00230   0.00255   0.00255   0.00255   0.00255
     Eigenvalues ---    0.03324   0.03500   0.03622   0.04612   0.04690
     Eigenvalues ---    0.04914   0.05276   0.05276   0.05276   0.05491
     Eigenvalues ---    0.05491   0.05491   0.05726   0.16000   0.16000
     Eigenvalues ---    0.16000   0.16000   0.16000   0.16000   0.16000
     Eigenvalues ---    0.16000   0.16000   0.16000   0.16000   0.16647
     Eigenvalues ---    0.17030   0.17237   0.18157   0.27398   0.28641
     Eigenvalues ---    0.28641   0.28641   0.28641   0.33431   0.33431
     Eigenvalues ---    0.33862   0.33862   0.33862   0.34088   0.34088
     Eigenvalues ---    0.34088   0.34088   0.34333   0.34333   0.34333
     Eigenvalues ---    0.34333
 RFO step:  Lambda=-1.39275967D-02 EMin= 2.30000000D-03
 Linear search not attempted -- first point.
 Iteration  1 RMS(Cart)=  0.04271097 RMS(Int)=  0.00815373
 Iteration  2 RMS(Cart)=  0.00625074 RMS(Int)=  0.00578538
 Iteration  3 RMS(Cart)=  0.00007543 RMS(Int)=  0.00578509
 Iteration  4 RMS(Cart)=  0.00000169 RMS(Int)=  0.00578509
 Iteration  5 RMS(Cart)=  0.00000005 RMS(Int)=  0.00578509
 ITry= 1 IFail=0 DXMaxC= 2.00D-01 DCOld= 1.00D+10 DXMaxT= 3.00D-01 DXLimC= 3.00D+00 Rises=F
 Variable       Old X    -DE/DX   Delta X   Delta X   Delta X     New X
                                 (Linear)    (Quad)   (Total)
    R1        2.06772  -0.00008   0.00000  -0.00022  -0.00022   2.06750
    R2        2.07563   0.00016   0.00000   0.00045   0.00045   2.07608
    R3        2.07181  -0.00012   0.00000  -0.00033  -0.00033   2.07148
    R4        2.90759  -0.00011   0.00000  -0.00037  -0.00037   2.90722
    R5        2.08302  -0.00097   0.00000  -0.00278  -0.00278   2.08023
    R6        2.93474   0.00169   0.00000   0.00589   0.00589   2.94063
    R7        2.90759   0.00005   0.00000   0.00015   0.00015   2.90774
    R8        2.08302   0.00263   0.00000   0.00756   0.00756   2.09058
    R9        2.90759   0.00111   0.00000   0.00370   0.00370   2.91129
   R10        2.90759  -0.01140   0.00000  -0.03794  -0.03794   2.86964
   R11        2.07563  -0.00086   0.00000  -0.00245  -0.00245   2.07318
   R12        2.07181  -0.00002   0.00000  -0.00005  -0.00005   2.07176
   R13        2.06772   0.00004   0.00000   0.00011   0.00011   2.06783
   R14        2.06772  -0.00001   0.00000  -0.00002  -0.00002   2.06770
   R15        2.07563   0.00017   0.00000   0.00048   0.00048   2.07611
   R16        2.07181  -0.00010   0.00000  -0.00028  -0.00028   2.07153
   R17        2.06772  -0.00034   0.00000  -0.00096  -0.00096   2.06676
   R18        2.07181  -0.00048   0.00000  -0.00135  -0.00135   2.07046
    A1        1.88136   0.00011   0.00000   0.00138   0.00138   1.88275
    A2        1.87392   0.00013   0.00000   0.00010   0.00010   1.87402
    A3        1.96369  -0.00027   0.00000  -0.00150  -0.00150   1.96219
    A4        1.87509  -0.00008   0.00000  -0.00059  -0.00059   1.87450
    A5        1.93564   0.00025   0.00000   0.00177   0.00177   1.93741
    A6        1.93060  -0.00013   0.00000  -0.00114  -0.00114   1.92946
    A7        1.88020   0.00000   0.00000   0.00071   0.00070   1.88091
    A8        1.96138  -0.00001   0.00000  -0.00069  -0.00069   1.96068
    A9        1.90720   0.00010   0.00000   0.00062   0.00062   1.90782
   A10        1.86961  -0.00008   0.00000  -0.00154  -0.00154   1.86807
   A11        1.88020   0.00015   0.00000   0.00234   0.00234   1.88255
   A12        1.96138  -0.00015   0.00000  -0.00125  -0.00125   1.96013
   A13        1.86961   0.00032   0.00000  -0.00132  -0.00127   1.86835
   A14        1.96138  -0.00091   0.00000   0.00596   0.00571   1.96709
   A15        1.96138   0.00130   0.00000   0.01292   0.01273   1.97410
   A16        1.88020   0.00050   0.00000   0.00123   0.00130   1.88150
   A17        1.88020  -0.00245   0.00000  -0.03400  -0.03392   1.84629
   A18        1.90720   0.00110   0.00000   0.01237   0.01217   1.91937
   A19        1.93564  -0.00038   0.00000  -0.00200  -0.00200   1.93363
   A20        1.93060  -0.00001   0.00000  -0.00032  -0.00032   1.93027
   A21        1.96369  -0.00014   0.00000  -0.00071  -0.00071   1.96298
   A22        1.87509   0.00018   0.00000   0.00088   0.00088   1.87596
   A23        1.88137   0.00035   0.00000   0.00244   0.00244   1.88381
   A24        1.87392   0.00004   0.00000  -0.00009  -0.00009   1.87383
   A25        1.96369   0.00000   0.00000   0.00003   0.00003   1.96372
   A26        1.93564   0.00017   0.00000   0.00110   0.00110   1.93673
   A27        1.93060  -0.00013   0.00000  -0.00086  -0.00086   1.92973
   A28        1.88137  -0.00006   0.00000  -0.00012  -0.00013   1.88124
   A29        1.87392   0.00004   0.00000   0.00004   0.00004   1.87396
   A30        1.87509  -0.00003   0.00000  -0.00020  -0.00020   1.87489
   A31        1.96369   0.01360   0.00000   0.14527   0.11695   2.08064
   A32        1.93060   0.01322   0.00000   0.14527   0.11667   2.04727
   A33        1.87392  -0.00079   0.00000   0.12229   0.08680   1.96072
    D1       -0.96586   0.00019   0.00000   0.00274   0.00274  -0.96312
    D2        1.08954   0.00009   0.00000   0.00090   0.00089   1.09044
    D3       -3.00391  -0.00005   0.00000  -0.00077  -0.00077  -3.00468
    D4       -3.07463   0.00006   0.00000   0.00074   0.00074  -3.07389
    D5       -1.01923  -0.00005   0.00000  -0.00110  -0.00110  -1.02034
    D6        1.17049  -0.00018   0.00000  -0.00277  -0.00277   1.16773
    D7        1.12985   0.00008   0.00000   0.00107   0.00107   1.13092
    D8       -3.09793  -0.00002   0.00000  -0.00078  -0.00078  -3.09871
    D9       -0.90821  -0.00016   0.00000  -0.00244  -0.00244  -0.91064
   D10        1.07995  -0.00071   0.00000  -0.00991  -0.00991   1.07003
   D11       -3.14157  -0.00042   0.00000  -0.00584  -0.00587   3.13575
   D12       -0.98172   0.00134   0.00000   0.02512   0.02515  -0.95657
   D13       -3.14158  -0.00076   0.00000  -0.01041  -0.01042   3.13119
   D14       -1.07991  -0.00047   0.00000  -0.00635  -0.00637  -1.08628
   D15        1.07995   0.00129   0.00000   0.02461   0.02464   1.10459
   D16       -1.07991  -0.00071   0.00000  -0.00924  -0.00924  -1.08915
   D17        0.98176  -0.00042   0.00000  -0.00517  -0.00519   0.97657
   D18       -3.14157   0.00133   0.00000   0.02579   0.02582  -3.11575
   D19        3.00390   0.00004   0.00000   0.00072   0.00072   3.00462
   D20       -1.17051   0.00008   0.00000   0.00136   0.00136  -1.16915
   D21        0.90819   0.00007   0.00000   0.00126   0.00126   0.90945
   D22        0.96584  -0.00011   0.00000  -0.00174  -0.00175   0.96409
   D23        3.07462  -0.00006   0.00000  -0.00111  -0.00111   3.07351
   D24       -1.12986  -0.00007   0.00000  -0.00121  -0.00121  -1.13108
   D25       -1.08956  -0.00002   0.00000  -0.00062  -0.00062  -1.09018
   D26        1.01922   0.00003   0.00000   0.00002   0.00002   1.01924
   D27        3.09792   0.00002   0.00000  -0.00008  -0.00008   3.09784
   D28        1.01922   0.00053   0.00000   0.00582   0.00584   1.02506
   D29        3.09792   0.00050   0.00000   0.00541   0.00543   3.10335
   D30       -1.08956   0.00045   0.00000   0.00460   0.00462  -1.08494
   D31        3.07462   0.00071   0.00000   0.00843   0.00843   3.08305
   D32       -1.12986   0.00068   0.00000   0.00802   0.00803  -1.12184
   D33        0.96584   0.00063   0.00000   0.00721   0.00721   0.97305
   D34       -1.17051  -0.00133   0.00000  -0.02462  -0.02465  -1.19515
   D35        0.90819  -0.00136   0.00000  -0.02503  -0.02505   0.88314
   D36        3.00390  -0.00141   0.00000  -0.02584  -0.02587   2.97803
   D37        1.08954  -0.00888   0.00000  -0.18292  -0.18922   0.90033
   D38       -3.09793   0.00851   0.00000   0.17230   0.17845  -2.91948
   D39       -0.96586  -0.00847   0.00000  -0.16723  -0.17347  -1.13932
   D40        1.12985   0.00891   0.00000   0.18799   0.19420   1.32405
   D41       -3.00391  -0.00829   0.00000  -0.15651  -0.16265   3.11662
   D42       -0.90821   0.00909   0.00000   0.19871   0.20501  -0.70319
         Item               Value     Threshold  Converged?
 Maximum Force            0.013600     0.000015     NO 
 RMS     Force            0.003251     0.000010     NO 
 Maximum Displacement     0.199510     0.000060     NO 
 RMS     Displacement     0.040079     0.000040     NO 
 Predicted change in Energy=-1.010224D-02
 Lowest energy point so far.  Saving SCF results.
 GradGradGradGradGradGradGradGradGradGradGradGradGradGradGradGradGradGrad

 Leave Link  103 at Sat Nov  7 02:12:46 2015, MaxMem=   805306368 cpu:         0.2
 (Enter /home/hetanjin/apps/g09D01/g09/l202.exe)
                          Input orientation:                          
 ---------------------------------------------------------------------
 Center     Atomic      Atomic             Coordinates (Angstroms)
 Number     Number       Type             X           Y           Z
 ---------------------------------------------------------------------
      1          6           0       -0.017126    1.522843    1.251908
      2          1           0        0.317011    1.042500    2.176363
      3          1           0       -1.102077    1.678852    1.326067
      4          1           0        0.454009    2.511639    1.208015
      5          6           0        0.337451    0.699717    0.001502
      6          1           0        1.422709    0.515966    0.016902
      7          6           0       -0.360256   -0.691181   -0.008425
      8          1           0       -1.451065   -0.506839   -0.012900
      9          6           0       -0.017419   -1.519525   -1.261308
     10          1           0        1.065088   -1.680711   -1.337324
     11          1           0       -0.494743   -2.505370   -1.214365
     12          1           0       -0.352133   -1.038324   -2.185314
     13          6           0        0.016049    1.523351   -1.257845
     14          1           0        0.374036    1.044526   -2.174251
     15          1           0       -1.066789    1.677775   -1.360818
     16          1           0        0.484746    2.512669   -1.200927
     17          6           0       -0.084062   -1.505425    1.243259
     18          1           0       -0.253708   -1.051340    2.223651
     19          1           0       -0.356726   -2.566399    1.222889
 ---------------------------------------------------------------------
                    Distance matrix (angstroms):
                    1          2          3          4          5
     1  C    0.000000
     2  H    1.094073   0.000000
     3  H    1.098617   1.772501   0.000000
     4  H    1.096181   1.764890   1.768863   0.000000
     5  C    1.538432   2.201804   2.187560   2.179982   0.000000
     6  H    2.147595   2.482555   3.072582   2.517904   1.100812
     7  C    2.570618   2.870129   2.819260   3.521479   1.556114
     8  H    2.788464   3.212386   2.586865   3.772420   2.157492
     9  C    3.946170   4.300395   4.254481   4.750799   2.577917
    10  H    4.258880   4.507936   4.803844   4.942466   2.826366
    11  H    4.747328   4.974271   4.932582   5.651411   3.527529
    12  H    4.299570   4.878710   4.502806   4.976625   2.877234
    13  C    2.509972   3.480745   2.819750   2.692395   1.538709
    14  H    3.481431   4.350989   3.851430   3.687621   2.203210
    15  H    2.819952   3.850990   2.687117   3.099526   2.187327
    16  H    2.692217   3.687224   3.098219   2.409139   2.180442
    17  C    3.029020   2.742894   3.344074   4.053094   2.565596
    18  H    2.761643   2.170743   2.996554   3.771897   2.890262
    19  H    4.103421   3.793044   4.311421   5.142372   3.555444
                    6          7          8          9         10
     6  H    0.000000
     7  C    2.153325   0.000000
[...]
 864374,0.00112182,-0.00859040,-0.01354721,-0.00031817,0.00419675,0.008
 12884,0.00008790,0.12833938,0.25936570,0.00066685,0.00215423,-0.048755
 14,0.01605725,0.02289521,0.00104580,-0.00029127,0.00021715,-0.00095662
 ,-0.00178885,0.00046141,0.05188511,-0.08722517,0.01397875,0.02001497,0
 .00079641,-0.00537132,-0.00658888,-0.00810814,0.01894392,0.02831514,0.
 00382974,-0.00978626,-0.01575395,0.57071122,0.01421437,-0.10850511,-0.
 04346557,-0.00483552,0.01080202,0.01501347,0.00220742,-0.00551147,-0.0
 0635053,0.00789735,-0.01587232,-0.02302337,-0.04629980,0.44454861,0.01
 975102,-0.04681871,-0.14851596,0.00710772,-0.01603294,-0.02112421,0.00
 057428,-0.00019490,-0.00063447,0.00021168,0.00099557,-0.00044621,0.001
 60292,0.00025878,0.47121971,-0.00714562,0.00188525,0.00039279,0.000295
 70,-0.00017358,0.00044178,0.00117634,0.00067705,0.00129119,0.00063424,
 0.00045670,0.00011183,-0.28172731,0.05458121,-0.00643974,0.30781877,0.
 01864924,-0.00492219,-0.00103977,-0.00067276,0.00063503,0.00020457,0.0
 0078593,-0.00152109,-0.00334010,-0.00003522,0.00028869,0.00075259,0.05
 345526,-0.06079202,0.00166429,-0.05794486,0.07066584,0.02841959,-0.007
 56060,-0.00152837,-0.00012205,0.00088690,0.00103311,0.00160818,-0.0035
 0050,-0.00447484,-0.00067586,0.00042975,0.00106414,-0.00659541,0.00180
 414,-0.04829699,0.00683480,-0.00177688,0.05763202,0.00394775,0.0049014
 1,-0.00203936,-0.00012619,-0.00035907,-0.00042459,0.00035670,0.0018562
 1,0.00072312,-0.00004074,0.00256478,0.00201083,-0.09555027,-0.03029601
 ,0.00336675,-0.01957094,-0.02896188,-0.00016496,0.55685168,-0.00924893
 ,-0.02035560,-0.00518309,-0.00003425,0.00082045,0.00066252,-0.00077788
 ,0.00091138,0.00110891,0.00049579,-0.00061806,-0.00210098,-0.02122991,
 -0.10763804,0.00475052,0.00106334,0.00217361,-0.00007112,-0.07003959,0
 .41094614,-0.01422501,-0.02412617,-0.00006955,-0.00062279,0.00041507,0
 .00011184,-0.00026012,0.00061100,0.00091659,0.00112799,-0.00325041,-0.
 00466756,-0.00556605,-0.01048083,-0.07106994,0.00005868,-0.00037194,-0
 .00033435,0.00584097,-0.01449589,0.46806330,0.00041703,0.00117226,0.00
 056154,0.00002668,-0.00001854,0.00005078,0.00069675,-0.00079773,-0.000
 70369,0.00052436,-0.00014222,0.00007850,-0.02167776,0.00169478,-0.0004
 5749,-0.00099274,-0.00365475,0.00002185,-0.27849828,0.05671171,-0.0054
 9815,0.30548672,-0.00070108,0.00154949,0.00069904,0.00002308,-0.000071
 43,-0.00006021,0.00065451,-0.00012205,-0.00013723,0.00027169,0.0001957
 5,0.00030964,-0.02940767,0.00212123,-0.00075432,-0.00335419,-0.0045696
 7,0.00000003,0.05534716,-0.05879905,0.00008285,-0.05978155,0.07132803,
 -0.00103092,0.00029845,0.00014451,-0.00005171,0.00001138,0.00005509,0.
 00015752,-0.00022161,0.00008320,0.00017338,0.00002096,-0.00002435,-0.0
 0018706,-0.00061650,0.00028904,0.00009651,-0.00003678,0.00032294,-0.00
 527756,0.00031376,-0.05039145,0.00526285,-0.00200041,0.05775444,-0.002
 50538,-0.00289903,0.00078160,0.00001003,0.00025487,0.00018335,0.000475
 31,-0.00019915,-0.00001071,0.00057692,-0.00098218,-0.00088045,0.003831
 48,-0.00989165,-0.01368685,0.00045108,-0.00055408,-0.00099242,-0.08661
 161,0.01454622,0.01430318,-0.00623799,0.01796535,0.02786552,0.56599611
 ,-0.00308610,-0.00463131,0.00129333,-0.00016499,0.00007110,-0.00015339
 ,0.00000608,-0.00000051,0.00009495,0.00030658,-0.00080772,-0.00160991,
 0.00519798,-0.02025679,-0.02562847,0.00107733,0.00174991,0.00040864,0.
 01475594,-0.10372285,-0.03954386,0.00165335,-0.00465612,-0.00708984,0.
 01764708,0.54286584,0.00086579,0.00140749,0.00023612,0.00005396,0.0000
 5184,-0.00000261,-0.00002487,-0.00017738,-0.00010502,0.00016274,0.0005
 9562,0.00047059,-0.00135602,-0.00615541,0.00061442,0.00058075,0.000913
 01,0.00007867,0.01520083,-0.04740395,-0.13795534,0.00065258,-0.0004265
 1,-0.00146356,0.02217693,-0.05753966,0.50750199,0.00045369,0.00001274,
 -0.00006250,-0.00002046,-0.00001477,-0.00000042,-0.00002398,-0.0001811
 4,-0.00015320,0.00001017,0.00008198,0.00006844,0.00045881,-0.00091457,
 -0.00029575,0.00066225,0.00071428,0.00016721,-0.00732441,0.00217312,0.
 00089406,0.00118912,0.00059511,0.00154098,-0.29668882,0.04846336,0.009
 91200,0.32303431,-0.00017421,0.00000576,-0.00010916,0.00000922,0.00001
 042,0.00003510,-0.00018817,0.00011460,0.00011505,-0.00008485,-0.000011
 32,0.00000517,0.00185472,0.00108983,0.00063087,-0.00077313,-0.00009806
 ,-0.00020830,0.01953730,-0.00526972,-0.00105995,0.00063536,-0.00163175
 ,-0.00364445,0.04851371,-0.05870491,-0.00086920,-0.05501003,0.06012945
 ,-0.00002967,0.00012336,-0.00011575,0.00001317,-0.00000637,-0.00003015
 ,-0.00016047,0.00012493,0.00008019,-0.00009747,0.00001040,0.00001315,0
 .00077179,0.00136046,0.00117672,-0.00073998,-0.00015485,0.00005746,0.0
 2782167,-0.00564467,-0.00177805,0.00110569,-0.00322396,-0.00439667,0.0
 1001906,-0.00092337,-0.04988143,-0.01245137,0.00465116,0.05177784,0.00
 054111,0.00026542,0.00014648,-0.00001574,0.00000174,-0.00001495,0.0000
 0565,-0.00007368,-0.00009738,-0.00002775,0.00009337,0.00012632,-0.0001
 7782,0.00033546,0.00102245,0.00048862,0.00028072,0.00018692,0.00369302
 ,0.00798994,-0.00045215,0.00049334,-0.00005220,-0.00069505,-0.11422240
 ,-0.11359679,0.00578159,-0.01522760,-0.02917334,0.00202396,0.11926845,
 -0.00091851,-0.00083712,0.00041468,0.00000011,0.00004486,-0.00007861,0
 .00006667,-0.00000999,0.00001347,0.00011062,-0.00025604,-0.00039229,0.
 00206013,-0.00086382,-0.00321012,-0.00011231,0.00014579,0.00001410,-0.
 00866291,-0.01430769,0.00063245,0.00041175,0.00010359,0.00039873,-0.11
 351876,-0.24910159,0.01205607,0.00347871,0.00737831,-0.00018985,0.1243
 0751,0.26960229,-0.00100967,-0.00157166,0.00056999,-0.00004832,0.00003
 955,0.00002320,0.00007043,0.00000638,-0.00000309,0.00010630,-0.0004652
 2,-0.00052172,0.00240198,-0.00140043,-0.00528878,0.00004777,0.00023913
 ,-0.00001102,-0.01486759,-0.02406308,-0.00004772,0.00012011,0.00081195
 ,0.00094103,0.00643839,0.01305323,-0.04835869,0.00002221,0.00095052,-0
 .00098483,-0.00804316,-0.01110711,0.05281992,0.00005707,-0.00023451,0.
 00007730,-0.00002532,-0.00000784,0.00005085,-0.00001895,0.00000643,-0.
 00000812,-0.00001485,-0.00000498,-0.00005374,-0.00034185,0.00015672,-0
 .00088360,0.00009725,-0.00004034,-0.00005158,0.00148341,-0.00334970,0.
 00773717,0.00039274,-0.00061651,-0.00007434,-0.06931239,0.03331953,-0.
 06056598,-0.00756820,0.01593772,-0.02821373,0.00496383,-0.00750944,0.0
 1512096,0.06950813,0.00025210,0.00010013,0.00006527,0.00000197,0.00004
 626,0.00012997,-0.00000240,0.00000215,-0.00001419,-0.00000098,0.000027
 43,0.00009266,-0.00048120,0.00070806,0.00060956,-0.00002227,-0.0001047
 3,-0.00002110,-0.00647113,0.00978177,-0.01660353,-0.00017902,0.0008073
 8,0.00082005,0.03449410,-0.10785693,0.10574448,0.00069482,-0.00343622,
 0.00406810,0.00941192,-0.01295226,0.02376170,-0.03744829,0.11791048,0.
 00005070,-0.00009892,0.00019847,0.00003465,0.00012818,0.00023383,0.000
 02803,0.00001437,-0.00002727,-0.00003009,-0.00015896,0.00001843,0.0002
 4182,0.00128234,0.00004439,0.00001587,-0.00010662,0.00004416,-0.008049
 11,0.01282057,-0.02078807,0.00051388,0.00017792,0.00102662,-0.06112605
 ,0.10430576,-0.23566021,0.00027254,-0.00149442,0.00246922,0.00023109,0
 .00066233,-0.00045832,0.06540359,-0.11550560,0.25640255,0.00235600,-0.
 00435323,0.00719333,0.00003614,0.00068337,0.00223728,0.00041147,-0.000
 49250,0.00106288,-0.00008868,-0.00012126,-0.00091780,-0.08529198,0.012
 42328,-0.01620545,-0.00561177,0.01824538,-0.02868753,0.00234780,-0.010
 69817,0.01399428,0.00042277,-0.00063398,0.00101342,-0.00080991,-0.0002
 0098,-0.00064452,0.00013833,-0.00001144,-0.00016184,0.00015666,-0.0002
 4090,0.00048822,0.00076264,-0.00073171,0.00051338,0.56690869,-0.003746
 49,0.01023337,-0.01276506,0.00079639,-0.00231481,-0.00491627,-0.000101
 57,0.00023554,-0.00014468,-0.00010433,0.00041411,-0.00140926,0.0122113
 4,-0.10709490,0.04623432,0.00130933,-0.00454697,0.00734338,0.00301404,
 -0.02175977,0.02424912,0.00113691,0.00163860,-0.00043947,-0.00048033,-
 0.00041962,-0.00007204,0.00032573,-0.00017620,-0.00005358,0.00012044,0
 .00037771,0.00054021,-0.00024347,-0.00161584,0.00044282,0.01189243,0.5
 4204533,-0.00453921,0.01358848,-0.03319196,0.00119777,-0.00216285,-0.0
 0400336,-0.00065995,0.00095067,0.00179466,-0.00010932,0.00147382,0.001
 13800,-0.01674878,0.04207858,-0.14736469,-0.00054369,0.00181278,-0.003
 21462,0.00190140,0.00404990,0.00031673,-0.00054736,-0.00079522,0.00004
 464,0.00033496,0.00017746,0.00147677,0.00014620,-0.00006605,0.00011322
 ,0.00010607,-0.00012468,-0.00071974,-0.00064419,-0.00008147,-0.0005741
 6,-0.01898683,0.05501243,0.51447867,0.00015782,0.00066980,-0.00110677,
 0.00058657,0.00001559,-0.00046288,0.00038226,-0.00013811,-0.00039362,0
 .00000739,0.00035155,0.00017960,0.00101673,-0.00418442,-0.00620214,0.0
 0048496,-0.00065317,0.00009502,-0.00021829,0.00031867,0.00057524,0.000
 08827,-0.00001418,0.00004658,0.00066659,-0.00016882,0.00075245,-0.0001
 6691,0.00012253,-0.00008220,-0.00014258,0.00017735,-0.00031450,-0.0002
 3602,-0.00074136,-0.00051245,-0.07824529,0.04012505,0.07155883,0.07938
 378,0.00044075,-0.00219396,0.00238085,-0.00003005,0.00079200,0.0010145
 2,-0.00010550,-0.00014569,0.00001938,0.00029938,0.00026475,0.00017943,
 -0.00747605,0.01032892,0.01519202,-0.00015730,0.00081752,-0.00089874,-
 0.00032577,0.00088279,-0.00034810,-0.00001446,-0.00009148,0.00003540,-
 0.00072008,-0.00158369,-0.00004812,0.00011746,-0.00005671,-0.00007275,
 0.00009271,0.00001273,0.00008796,-0.00074644,-0.00257845,0.00033955,0.
 04097232,-0.10591968,-0.10199965,-0.04431785,0.11570729,-0.00197715,0.
 00507020,-0.00399291,0.00052116,-0.00107595,-0.00164795,0.00013702,0.0
 0009029,0.00028147,-0.00011914,0.00010856,0.00040984,0.00911935,-0.014
 35482,-0.02050293,-0.00050582,-0.00018426,0.00110418,-0.00008627,-0.00
 092433,-0.00024359,-0.00004885,0.00007102,0.00003922,-0.00052381,-0.00
 060191,-0.00048419,-0.00011114,0.00023076,-0.00006337,-0.00005012,-0.0
 0021769,0.00062703,0.00041051,-0.00036558,0.00122800,0.07152094,-0.100
 68464,-0.22950188,-0.07740621,0.11153749,0.24980242,0.00032563,-0.0001
 0686,0.00049625,0.00036158,-0.00007293,-0.00014654,0.00041660,-0.00028
 716,-0.00069732,-0.00002667,0.00006710,0.00002850,-0.00662818,0.001823
 61,-0.00101852,0.00131783,0.00050903,-0.00134458,0.00059513,-0.0007071
 1,0.00025769,0.00063202,0.00074213,-0.00018565,0.00014059,0.00029308,-
 0.00011800,0.00008862,-0.00017928,0.00006209,0.00003440,0.00005873,0.0
 0000833,-0.00019560,0.00011939,0.00012948,-0.29514317,0.04409862,-0.02
 367510,-0.00945149,0.00085676,-0.00089670,0.32176588,-0.00049471,0.000
 09914,-0.00090385,-0.00009938,-0.00010943,-0.00008869,-0.00026290,0.00
 046693,0.00013363,-0.00012878,0.00006222,0.00007114,0.01949942,-0.0049
 4426,0.00196415,0.00059996,-0.00156265,0.00372473,0.00186483,0.0010219
 6,-0.00052856,-0.00079783,-0.00007367,0.00017868,-0.00001727,-0.000139
 94,0.00006478,-0.00017239,0.00023795,0.00002098,-0.00009526,-0.0000097
 9,-0.00006158,0.00015096,-0.00005460,-0.00023173,0.04415061,-0.0571698
 1,0.00330571,0.01572757,-0.00315136,0.00231237,-0.05000448,0.05832862,
 -0.00122732,0.00020394,0.00171271,0.00045206,-0.00001122,0.00024424,0.
 00077779,-0.00024022,-0.00031008,0.00001831,-0.00000328,-0.00010258,-0
 .02843820,0.00487851,-0.00290452,-0.00093910,0.00323935,-0.00450499,-0
 .00077988,-0.00110663,0.00109416,0.00079403,0.00017870,0.00007145,0.00
 015002,0.00005673,0.00012877,-0.00003986,-0.00003518,-0.00014532,-0.00
 004409,0.00001682,0.00005461,0.00007627,0.00007288,-0.00005910,-0.0239
 4980,0.00346516,-0.05227395,0.02769581,-0.00350165,0.00398365,0.027849
 39,-0.00727365,0.05415516,0.00006651,-0.00015017,-0.00001179,-0.000031
 49,0.00031202,0.00011644,-0.00010254,-0.00016737,0.00001027,0.00030093
 ,0.00010132,0.00029103,0.00256534,0.00634921,0.00040389,0.00042319,-0.
 00003424,0.00064104,0.00026318,0.00071761,-0.00069343,0.00049266,0.000
 28236,-0.00015664,0.00018185,0.00009903,-0.00009710,0.00003143,-0.0000
 9899,0.00004850,0.00000486,0.00000851,-0.00007106,-0.00016059,0.000073
 19,0.00004503,-0.10767830,-0.10814547,-0.00830160,0.00563404,0.0108972
 5,0.00011668,-0.01457563,-0.02953543,-0.00271851,0.11219702,-0.0001810
 4,0.00061903,-0.00160268,0.00039858,0.00028457,-0.00018740,0.00003638,
 0.00005359,0.00007381,0.00013814,0.00096569,0.00059743,-0.00913059,-0.
 01667699,-0.00132059,0.00051453,0.00023113,-0.00030810,0.00226258,-0.0
 0046754,0.00296359,-0.00015180,0.00020156,-0.00005951,-0.00031411,0.00
 036050,0.00002577,0.00007364,-0.00002068,-0.00000942,0.00001243,-0.000
 08912,0.00007734,0.00017620,-0.00003724,0.00021968,-0.10854529,-0.2502
 4392,-0.01686035,-0.00711913,-0.01316484,-0.00108916,0.00297734,0.0068
 0994,0.00040020,0.11936646,0.27191532,0.00084552,0.00135533,0.00101413
 ,-0.00016480,-0.00019899,0.00046940,0.00003143,-0.00010270,-0.00009079
 ,-0.00031565,-0.00050554,-0.00059637,0.01452704,0.02458379,0.00066073,
 -0.00018830,-0.00073671,0.00089601,-0.00164018,0.00242866,-0.00503673,
 -0.00005098,-0.00027209,0.00002553,-0.00039205,-0.00067382,-0.00063439
 ,-0.00000737,0.00006002,0.00006584,0.00004565,-0.00013063,0.00031172,0
 .00023601,-0.00005806,0.00070732,-0.00862481,-0.01740340,-0.04898165,-
 0.01435734,-0.02373178,-0.00133255,-0.00085649,-0.00260073,-0.00116221
 ,0.01040137,0.01678792,0.05375939,0.00009283,-0.00014943,-0.00083519,0
 .00025770,-0.00018260,0.00058711,0.00014573,-0.00020992,-0.00000521,0.
 00004309,-0.00025278,0.00033269,0.00408706,-0.00515911,0.01211994,0.00
 076615,-0.00043469,0.00071590,-0.08546655,0.02995836,-0.01190537,-0.00
 543574,0.01861825,-0.02772877,0.00307171,-0.00591761,0.00689784,0.0005
 0745,-0.00073334,0.00094787,0.00053843,0.00054118,-0.00012750,0.000299
 56,0.00140159,0.00276895,-0.00117643,-0.00235118,-0.00071741,0.0000444
 1,0.00022211,0.00002609,0.00041755,-0.00029036,0.00023032,0.00044319,-
 0.00059195,0.00063881,0.48643713,-0.00020824,-0.00232275,-0.00016386,0
 .00004557,-0.00091577,0.00100871,0.00030045,-0.00012587,0.00006015,0.0
 0001148,0.00002032,0.00100409,0.00098449,-0.02194988,0.02125761,0.0010
 4568,0.00168122,-0.00045413,0.03478661,-0.09473977,0.07193166,0.002342
 71,-0.00754625,0.01015467,-0.00403940,0.00867354,-0.00824445,0.0002601
 7,0.00009088,-0.00081954,0.00008998,0.00074251,-0.00071047,0.00099939,
 -0.00128239,-0.00325756,-0.00208381,-0.00326344,-0.00040762,-0.0001997
 8,0.00001872,0.00023654,-0.00007153,0.00003820,-0.00021485,0.00002277,
 -0.00051755,0.00114257,-0.20699521,0.25249363,-0.00050979,-0.00196139,
 0.00129068,-0.00031949,0.00010398,0.00025597,0.00015833,-0.00003156,0.
 00013142,0.00011349,-0.00065257,-0.00033751,0.00610575,0.01563236,-0.0
 0592329,-0.00103588,-0.00118244,-0.00005974,-0.01617841,0.06892264,-0.
 16965082,-0.00036611,0.00245482,-0.00180412,-0.00236593,0.01057699,-0.
 03565830,-0.00074231,0.00093770,0.00172770,-0.00010291,0.00172575,0.00
 122453,0.00089280,-0.00184047,-0.00389646,-0.00050244,-0.00014725,0.00
 003150,-0.00005310,-0.00008471,0.00027696,0.00004623,0.00003840,-0.000
 06221,-0.00009312,-0.00000768,0.00024168,-0.12600564,-0.12322228,0.499
 38186,0.00032186,0.00001906,0.00045688,-0.00023056,-0.00024652,-0.0002
 7270,-0.00004123,0.00001392,0.00000057,-0.00002314,0.00014997,-0.00021
 108,-0.00048758,-0.00035377,-0.00082483,0.00027472,0.00007592,0.000000
 51,0.00569171,0.00238850,-0.00670518,0.00115208,-0.00096854,0.00015102
 ,0.00034110,0.00001065,-0.00099095,0.00022296,-0.00004947,-0.00028751,
 -0.00011339,-0.00009626,-0.00009034,0.00013197,-0.00005983,-0.00047848
 ,0.00034765,0.00004752,0.00008668,-0.00000303,-0.00000029,-0.00007902,
 -0.00002795,-0.00001498,0.00003217,-0.00004472,0.00005622,-0.00005947,
 -0.15294354,0.02636382,0.14982150,0.15521082,-0.00032540,-0.00013804,-
 0.00022702,-0.00033569,-0.00100606,-0.00009219,0.00009479,-0.00008554,
 -0.00000991,0.00009524,0.00006193,-0.00012320,0.00010744,-0.00079458,0
 .00061603,0.00007418,-0.00000662,0.00006920,-0.01088857,0.00656805,0.0
 1187942,0.00021075,0.00035123,-0.00088730,0.00080757,-0.00264786,0.000
 84590,-0.00030597,-0.00000248,0.00021483,0.00009442,0.00001528,-0.0002
 4918,-0.00035266,0.00068344,0.00045526,0.00004140,-0.00033257,-0.00002
 322,0.00002334,0.00005790,-0.00013198,0.00000126,0.00003321,0.00000691
 ,-0.00002433,-0.00013398,0.00000759,0.02947466,-0.02660997,0.00295448,
 -0.02721927,0.02157451,-0.00012004,-0.00012648,-0.00046928,0.00015444,
 -0.00032694,0.00051788,-0.00009644,0.00014042,-0.00003370,-0.00005285,
 0.00001565,0.00026984,-0.00080723,-0.00062914,-0.00175868,0.00007454,-
 0.00000784,0.00008196,0.01325524,-0.00425928,-0.01019702,-0.00025908,-
 0.00046566,0.00104371,-0.00098283,0.00314867,-0.00262807,0.00011665,-0
 .00003133,0.00016781,-0.00005788,-0.00018332,-0.00000749,0.00017991,-0
 .00067010,-0.00115287,0.00038045,0.00042859,0.00038812,-0.00003619,-0.
 00009719,0.00007079,-0.00004083,-0.00000822,-0.00001843,-0.00002913,0.
 00020848,-0.00017657,0.15205481,0.00504192,-0.23434420,-0.15984952,-0.
 00321682,0.24312954,0.00007812,0.00009587,0.00000213,-0.00010762,-0.00
 005238,-0.00009131,0.00002775,-0.00006046,-0.00000505,0.00002435,0.000
 06282,-0.00005469,-0.00008073,0.00025144,-0.00014627,0.00015728,0.0002
 7025,-0.00005662,-0.00182309,-0.00027774,0.00113900,0.00082797,0.00103
 029,-0.00092008,0.00064574,0.00030529,0.00075996,0.00022324,-0.0001343
 0,-0.00058957,-0.00026109,-0.00016218,-0.00025254,0.00017717,-0.000310
 89,-0.00005285,0.00015737,0.00009503,0.00014154,0.00001080,-0.00000496
 ,-0.00004752,-0.00004715,-0.00007958,0.00006059,-0.00001094,0.00002142
 ,-0.00006839,-0.25212972,0.14634482,-0.00886295,-0.00977974,0.00842684
 ,-0.00388403,0.26191028,-0.00013082,-0.00017525,0.00020485,0.00013021,
 -0.00016122,-0.00026950,-0.00011967,0.00021645,-0.00003110,-0.00003407
 ,-0.00003905,-0.00008114,0.00088933,0.00130151,-0.00021366,-0.00074690
 ,-0.00026475,0.00011859,0.01511406,-0.00542807,-0.00195593,-0.00043167
 ,-0.00073539,0.00276380,-0.00061286,0.00080894,-0.00076824,-0.00039226
 ,0.00035085,0.00052415,-0.00010479,0.00000435,0.00006076,-0.00019276,-
 0.00014845,0.00000504,-0.00029551,-0.00008713,0.00007130,0.00000536,0.
 00000324,-0.00002691,-0.00011770,0.00011734,-0.00013252,-0.00007373,-0
 .00008946,0.00004856,0.14305204,-0.10448538,0.02578323,-0.00011666,0.0
 0241215,0.00103858,-0.15582160,0.10639933,0.00002733,-0.00005698,-0.00
 009379,0.00012771,-0.00000183,0.00000890,-0.00003814,0.00002176,-0.000
 10598,-0.00002329,0.00003270,0.00009315,-0.00105918,-0.00041583,-0.000
 17433,0.00044601,0.00011249,0.00011026,-0.02061289,0.01019555,0.001727
 58,-0.00123009,0.00334966,-0.00376127,-0.00129190,0.00064845,0.0023244
 9,0.00072362,-0.00009832,-0.00025358,-0.00011282,-0.00030009,-0.000170
 63,0.00030988,-0.00020456,0.00024348,0.00027685,0.00031961,0.00004370,
 0.00002385,-0.00000389,-0.00005417,0.00010178,-0.00011756,0.00009866,0
 .00009813,0.00009067,-0.00014050,-0.00999525,0.02565685,-0.05282565,0.
 01929975,-0.01208879,0.00511667,0.01292865,-0.02713987,0.04781302\\0.0
 0000127,0.00000016,-0.00000122,0.00000104,0.00000115,-0.00000054,0.000
 00084,0.00000098,-0.00000030,0.00000108,0.00000050,-0.00000136,0.00000
 029,0.00000056,-0.00000021,0.00000013,-0.00000052,-0.00000081,0.000000
 20,-0.00000025,-0.00000011,-0.00000028,0.00000027,0.00000076,-0.000000
 98,-0.00000002,0.00000148,-0.00000097,-0.00000089,0.00000050,-0.000001
 07,-0.00000046,0.00000143,-0.00000119,-0.00000088,0.00000068,-0.000000
 19,-0.00000088,-0.00000044,-0.00000069,-0.00000110,-0.00000065,-0.0000
 0021,-0.00000031,-0.00000044,0.00000007,-0.00000066,-0.00000145,-0.000
 00045,0.00000088,0.00000094,0.00000084,0.00000105,0.00000108,0.0000002
 6,0.00000041,0.00000066\\\@


 POCKETA-POCKETA
 BARON VON RICHTOFEN
 SLAUGHTERED THE ALLIES WITH
 HARDLY A CARE.
 KILLED EIGHTY-ONE WITH HIS
 BLOOD-COLORED TRIPLANE, THEN
 UN-AEROBATICALLY
 PLUNGED FROM THE AIR.
   -- TONY HOFFMAN
 Job cpu time:       0 days  0 hours 29 minutes 20.0 seconds.
 File lengths (MBytes):  RWF=     64 Int=      0 D2E=      0 Chk=      3 Scr=      1
 Normal termination of Gaussian 09 at Sat Nov  7 02:48:30 2015.
