 Entering Gaussian System, Link 0=/home/hetanjin/apps/g09D01/g09/g09
 Input=C6H14_5_r007_C17_2_opt_B3L.gjf
 Output=C6H14_5_r007_C17_2_opt_B3L.log
 Initial command:
 /home/hetanjin/apps/g09D01/g09/l1.exe "/state/partition1/Gau-17649.inp" -scrdir="/state/partition1/"
 Entering Link 1 = /home/hetanjin/apps/g09D01/g09/l1.exe PID=     17650.
  
 Copyright (c) 1988,1990,1992,1993,1995,1998,2003,2009,2013,
            Gaussian, Inc.  All Rights Reserved.
  
 This is part of the Gaussian(R) 09 program.  It is based on
 the Gaussian(R) 03 system (copyright 2003, Gaussian, Inc.),
 the Gaussian(R) 98 system (copyright 1998, Gaussian, Inc.),
 the Gaussian(R) 94 system (copyright 1995, Gaussian, Inc.),
 the Gaussian 92(TM) system (copyright 1992, Gaussian, Inc.),
 the Gaussian 90(TM) system (copyright 1990, Gaussian, Inc.),
 the Gaussian 88(TM) system (copyright 1988, Gaussian, Inc.),
 the Gaussian 86(TM) system (copyright 1986, Carnegie Mellon
 University), and the Gaussian 82(TM) system (copyright 1983,
 Carnegie Mellon University). Gaussian is a federally registered
 trademark of Gaussian, Inc.
  
 This software contains proprietary and confidential information,
 including trade secrets, belonging to Gaussian, Inc.
  
 This software is provided under written license and may be
 used, copied, transmitted, or stored only in accord with that
 written license.
  
 The following legend is applicable only to US Government
 contracts under FAR:
  
                    RESTRICTED RIGHTS LEGEND
  
 Use, reproduction and disclosure by the US Government is
 subject to restrictions as set forth in subparagraphs (a)
 and (c) of the Commercial Computer Software - Restricted
 Rights clause in FAR 52.227-19.
  
 Gaussian, Inc.
 340 Quinnipiac St., Bldg. 40, Wallingford CT 06492
  
  
 ---------------------------------------------------------------
 Warning -- This program may not be used in any manner that
 competes with the business of Gaussian, Inc. or will provide
 assistance to any competitor of Gaussian, Inc.  The licensee
 of this program is prohibited from giving any competitor of
 Gaussian, Inc. access to this program.  By using this program,
 the user acknowledges that Gaussian, Inc. is engaged in the
 business of creating and licensing software in the field of
 computational chemistry and represents and warrants to the
 licensee that it is not a competitor of Gaussian, Inc. and that
 it will not use this program in any manner prohibited above.
 ---------------------------------------------------------------
  

 Cite this work as:
 Gaussian 09, Revision D.01,
 M. J. Frisch, G. W. Trucks, H. B. Schlegel, G. E. Scuseria, 
 M. A. Robb, J. R. Cheeseman, G. Scalmani, V. Barone, B. Mennucci, 
 G. A. Petersson, H. Nakatsuji, M. Caricato, X. Li, H. P. Hratchian, 
 A. F. Izmaylov, J. Bloino, G. Zheng, J. L. Sonnenberg, M. Hada, 
 M. Ehara, K. Toyota, R. Fukuda, J. Hasegawa, M. Ishida, T. Nakajima, 
 Y. Honda, O. Kitao, H. Nakai, T. Vreven, J. A. Montgomery, Jr., 
 J. E. Peralta, F. Ogliaro, M. Bearpark, J. J. Heyd, E. Brothers, 
 K. N. Kudin, V. N. Staroverov, T. Keith, R. Kobayashi, J. Normand, 
 K. Raghavachari, A. Rendell, J. C. Burant, S. S. Iyengar, J. Tomasi, 
 M. Cossi, N. Rega, J. M. Millam, M. Klene, J. E. Knox, J. B. Cross, 
 V. Bakken, C. Adamo, J. Jaramillo, R. Gomperts, R. E. Stratmann, 
 O. Yazyev, A. J. Austin, R. Cammi, C. Pomelli, J. W. Ochterski, 
 R. L. Martin, K. Morokuma, V. G. Zakrzewski, G. A. Voth, 
 P. Salvador, J. J. Dannenberg, S. Dapprich, A. D. Daniels, 
 O. Farkas, J. B. Foresman, J. V. Ortiz, J. Cioslowski, 
 and D. J. Fox, Gaussian, Inc., Wallingford CT, 2013.
 
 ******************************************
 Gaussian 09:  ES64L-G09RevD.01 24-Apr-2013
                 7-Nov-2015 
 ******************************************
 %mem=6GB
 %nprocshared=4
 Will use up to    4 processors via shared memory.
 ----------------------------------------------
 #p B3LYP/6-31G(d) opt=tight int=ultrafine freq
 ----------------------------------------------
 1/7=10,14=-1,18=20,19=15,26=4,38=1/1,3;
 2/9=110,12=2,17=6,18=5,40=1/2;
 3/5=1,6=6,7=1,11=2,16=1,25=1,30=1,71=1,74=-5,75=-5/1,2,3;
 4//1;
 5/5=2,38=5/2;
 6/7=2,8=2,9=2,10=2,28=1/1;
 7//1,2,3,16;
 1/7=10,14=-1,18=20,19=15,26=4/3(2);
 2/9=110/2;
 99//99;
 2/9=110/2;
 3/5=1,6=6,7=1,11=2,16=1,25=1,30=1,71=1,74=-5,75=-5/1,2,3;
 4/5=5,16=3,69=1/1;
 5/5=2,38=5/2;
 7//1,2,3,16;
 1/7=10,14=-1,18=20,19=15,26=4/3(-5);
 2/9=110/2;
 6/7=2,8=2,9=2,10=2,19=2,28=1/1;
 99/9=1/99;
 Leave Link    1 at Sat Nov  7 02:13:02 2015, MaxMem=   805306368 cpu:         0.2
 (Enter /home/hetanjin/apps/g09D01/g09/l101.exe)
 ---------------------------------------------
 using B3LYP/6-31G(d) to do opt and freq calc.
 ---------------------------------------------
 Symbolic Z-matrix:
 Charge =  0 Multiplicity = 2
 C                     1.61803   0.98966  -0.00005 
 H                     1.59367   1.63643   0.88596 
 H                     1.59367   1.63635  -0.88611 
 H                     2.57832   0.45929  -0.00002 
 C                     0.43635  -0.0005    0. 
 C                    -0.87859   0.82391  -0.00003 
 H                    -0.86571   1.48649  -0.87756 
 H                    -0.86571   1.48655   0.87745 
 C                    -2.19348   0.03388  0. 
 H                    -2.28903  -0.60502   0.88496 
 H                    -3.04849   0.71981  -0.00001 
 H                    -2.28904  -0.60506  -0.88493 
 C                     0.5289   -0.88501  -1.25865 
 H                    -0.26244  -1.64248  -1.28525 
 H                     0.44851  -0.28292  -2.17262 
 H                     1.4897   -1.41334  -1.29204 
 C                     0.52891  -0.8849    1.25873 
 H                     0.44854  -0.28273   2.17265 
 H                    -0.26244  -1.64236   1.2854 
 
 NAtoms=     19 NQM=       19 NQMF=       0 NMMI=      0 NMMIF=      0
                NMic=       0 NMicF=      0.
                    Isotopes and Nuclear Properties:
 (Nuclear quadrupole moments (NQMom) in fm**2, nuclear magnetic moments (NMagM)
  in nuclear magnetons)

  Atom         1           2           3           4           5           6           7           8           9          10
 IAtWgt=          12           1           1           1          12          12           1           1          12           1
 AtmWgt=  12.0000000   1.0078250   1.0078250   1.0078250  12.0000000  12.0000000   1.0078250   1.0078250  12.0000000   1.0078250
 NucSpn=           0           1           1           1           0           0           1           1           0           1
 AtZEff=   0.0000000   0.0000000   0.0000000   0.0000000   0.0000000   0.0000000   0.0000000   0.0000000   0.0000000   0.0000000
 NQMom=    0.0000000   0.0000000   0.0000000   0.0000000   0.0000000   0.0000000   0.0000000   0.0000000   0.0000000   0.0000000
 NMagM=    0.0000000   2.7928460   2.7928460   2.7928460   0.0000000   0.0000000   2.7928460   2.7928460   0.0000000   2.7928460
 AtZNuc=   6.0000000   1.0000000   1.0000000   1.0000000   6.0000000   6.0000000   1.0000000   1.0000000   6.0000000   1.0000000

  Atom        11          12          13          14          15          16          17          18          19
 IAtWgt=           1           1          12           1           1           1          12           1           1
 AtmWgt=   1.0078250   1.0078250  12.0000000   1.0078250   1.0078250   1.0078250  12.0000000   1.0078250   1.0078250
 NucSpn=           1           1           0           1           1           1           0           1           1
 AtZEff=   0.0000000   0.0000000   0.0000000   0.0000000   0.0000000   0.0000000   0.0000000   0.0000000   0.0000000
 NQMom=    0.0000000   0.0000000   0.0000000   0.0000000   0.0000000   0.0000000   0.0000000   0.0000000   0.0000000
 NMagM=    2.7928460   2.7928460   0.0000000   2.7928460   2.7928460   2.7928460   0.0000000   2.7928460   2.7928460
 AtZNuc=   1.0000000   1.0000000   6.0000000   1.0000000   1.0000000   1.0000000   6.0000000   1.0000000   1.0000000
 Leave Link  101 at Sat Nov  7 02:13:02 2015, MaxMem=   805306368 cpu:         0.8
 (Enter /home/hetanjin/apps/g09D01/g09/l103.exe)

 GradGradGradGradGradGradGradGradGradGradGradGradGradGradGradGradGradGrad
 Berny optimization.
 Initialization pass.
                           ----------------------------
                           !    Initial Parameters    !
                           ! (Angstroms and Degrees)  !
 --------------------------                            --------------------------
 ! Name  Definition              Value          Derivative Info.                !
 --------------------------------------------------------------------------------
 ! R1    R(1,2)                  1.0972         estimate D2E/DX2                !
 ! R2    R(1,3)                  1.0972         estimate D2E/DX2                !
 ! R3    R(1,4)                  1.097          estimate D2E/DX2                !
 ! R4    R(1,5)                  1.5417         estimate D2E/DX2                !
 ! R5    R(5,6)                  1.552          estimate D2E/DX2                !
 ! R6    R(5,13)                 1.5411         estimate D2E/DX2                !
 ! R7    R(5,17)                 1.5411         estimate D2E/DX2                !
 ! R8    R(6,7)                  1.0996         estimate D2E/DX2                !
 ! R9    R(6,8)                  1.0996         estimate D2E/DX2                !
 ! R10   R(6,9)                  1.534          estimate D2E/DX2                !
 ! R11   R(9,10)                 1.0957         estimate D2E/DX2                !
 ! R12   R(9,11)                 1.0961         estimate D2E/DX2                !
 ! R13   R(9,12)                 1.0957         estimate D2E/DX2                !
 ! R14   R(13,14)                1.0958         estimate D2E/DX2                !
 ! R15   R(13,15)                1.0974         estimate D2E/DX2                !
 ! R16   R(13,16)                1.097          estimate D2E/DX2                !
 ! R17   R(17,18)                1.0974         estimate D2E/DX2                !
 ! R18   R(17,19)                1.0958         estimate D2E/DX2                !
 ! A1    A(2,1,3)              107.7092         estimate D2E/DX2                !
 ! A2    A(2,1,4)              107.7219         estimate D2E/DX2                !
 ! A3    A(2,1,5)              111.195          estimate D2E/DX2                !
 ! A4    A(3,1,4)              107.722          estimate D2E/DX2                !
 ! A5    A(3,1,5)              111.195          estimate D2E/DX2                !
 ! A6    A(4,1,5)              111.1274         estimate D2E/DX2                !
 ! A7    A(1,5,6)              107.9534         estimate D2E/DX2                !
 ! A8    A(1,5,13)             108.8179         estimate D2E/DX2                !
 ! A9    A(1,5,17)             108.8179         estimate D2E/DX2                !
 ! A10   A(6,5,13)             110.8381         estimate D2E/DX2                !
 ! A11   A(6,5,17)             110.8381         estimate D2E/DX2                !
 ! A12   A(13,5,17)            109.5162         estimate D2E/DX2                !
 ! A13   A(5,6,7)              108.0687         estimate D2E/DX2                !
 ! A14   A(5,6,8)              108.0687         estimate D2E/DX2                !
 ! A15   A(5,6,9)              116.915          estimate D2E/DX2                !
 ! A16   A(7,6,8)              105.8765         estimate D2E/DX2                !
 ! A17   A(7,6,9)              108.6851         estimate D2E/DX2                !
 ! A18   A(8,6,9)              108.6852         estimate D2E/DX2                !
 ! A19   A(6,9,10)             112.0296         estimate D2E/DX2                !
 ! A20   A(6,9,11)             110.2629         estimate D2E/DX2                !
 ! A21   A(6,9,12)             112.0296         estimate D2E/DX2                !
 ! A22   A(10,9,11)            107.27           estimate D2E/DX2                !
 ! A23   A(10,9,12)            107.7399         estimate D2E/DX2                !
 ! A24   A(11,9,12)            107.27           estimate D2E/DX2                !
 ! A25   A(5,13,14)            111.913          estimate D2E/DX2                !
 ! A26   A(5,13,15)            111.1551         estimate D2E/DX2                !
 ! A27   A(5,13,16)            110.724          estimate D2E/DX2                !
 ! A28   A(14,13,15)           107.8276         estimate D2E/DX2                !
 ! A29   A(14,13,16)           107.389          estimate D2E/DX2                !
 ! A30   A(15,13,16)           107.6407         estimate D2E/DX2                !
 ! A31   A(5,17,18)            111.155          estimate D2E/DX2                !
 ! A32   A(5,17,19)            111.913          estimate D2E/DX2                !
 ! A33   A(18,17,19)           107.8276         estimate D2E/DX2                !
 ! D1    D(2,1,5,6)             60.0094         estimate D2E/DX2                !
 ! D2    D(2,1,5,13)          -179.6279         estimate D2E/DX2                !
 ! D3    D(2,1,5,17)           -60.3531         estimate D2E/DX2                !
 ! D4    D(3,1,5,6)            -60.01           estimate D2E/DX2                !
 ! D5    D(3,1,5,13)            60.3526         estimate D2E/DX2                !
 ! D6    D(3,1,5,17)           179.6274         estimate D2E/DX2                !
 ! D7    D(4,1,5,6)            179.9997         estimate D2E/DX2                !
 ! D8    D(4,1,5,13)           -59.6377         estimate D2E/DX2                !
 ! D9    D(4,1,5,17)            59.6371         estimate D2E/DX2                !
 ! D10   D(1,5,6,7)             57.0744         estimate D2E/DX2                !
 ! D11   D(1,5,6,8)            -57.0751         estimate D2E/DX2                !
 ! D12   D(1,5,6,9)            179.9996         estimate D2E/DX2                !
 ! D13   D(13,5,6,7)           -62.0124         estimate D2E/DX2                !
 ! D14   D(13,5,6,8)          -176.1619         estimate D2E/DX2                !
 ! D15   D(13,5,6,9)            60.9128         estimate D2E/DX2                !
 ! D16   D(17,5,6,7)           176.1612         estimate D2E/DX2                !
 ! D17   D(17,5,6,8)            62.0117         estimate D2E/DX2                !
 ! D18   D(17,5,6,9)           -60.9136         estimate D2E/DX2                !
 ! D19   D(1,5,13,14)          177.2395         estimate D2E/DX2                !
 ! D20   D(1,5,13,15)          -62.1296         estimate D2E/DX2                !
 ! D21   D(1,5,13,16)           57.4635         estimate D2E/DX2                !
 ! D22   D(6,5,13,14)          -64.1959         estimate D2E/DX2                !
 ! D23   D(6,5,13,15)           56.435          estimate D2E/DX2                !
 ! D24   D(6,5,13,16)          176.0282         estimate D2E/DX2                !
 ! D25   D(17,5,13,14)          58.4016         estimate D2E/DX2                !
 ! D26   D(17,5,13,15)         179.0325         estimate D2E/DX2                !
 ! D27   D(17,5,13,16)         -61.3744         estimate D2E/DX2                !
 ! D28   D(1,5,17,18)           62.129          estimate D2E/DX2                !
 ! D29   D(1,5,17,19)         -177.2401         estimate D2E/DX2                !
 ! D30   D(6,5,17,18)          -56.4356         estimate D2E/DX2                !
 ! D31   D(6,5,17,19)           64.1953         estimate D2E/DX2                !
 ! D32   D(13,5,17,18)        -179.0331         estimate D2E/DX2                !
 ! D33   D(13,5,17,19)         -58.4022         estimate D2E/DX2                !
 ! D34   D(5,6,9,10)            60.6085         estimate D2E/DX2                !
 ! D35   D(5,6,9,11)           179.9992         estimate D2E/DX2                !
 ! D36   D(5,6,9,12)           -60.6101         estimate D2E/DX2                !
 ! D37   D(7,6,9,10)          -176.7844         estimate D2E/DX2                !
 ! D38   D(7,6,9,11)           -57.3938         estimate D2E/DX2                !
 ! D39   D(7,6,9,12)            61.9969         estimate D2E/DX2                !
 ! D40   D(8,6,9,10)           -61.9986         estimate D2E/DX2                !
 ! D41   D(8,6,9,11)            57.3921         estimate D2E/DX2                !
 ! D42   D(8,6,9,12)           176.7828         estimate D2E/DX2                !
 --------------------------------------------------------------------------------
 Trust Radius=3.00D-01 FncErr=1.00D-07 GrdErr=1.00D-06
 Number of steps in this run=    103 maximum allowed number of steps=    114.
 GradGradGradGradGradGradGradGradGradGradGradGradGradGradGradGradGradGrad

 Leave Link  103 at Sat Nov  7 02:13:02 2015, MaxMem=   805306368 cpu:         0.0
 (Enter /home/hetanjin/apps/g09D01/g09/l202.exe)
                          Input orientation:                          
 ---------------------------------------------------------------------
 Center     Atomic      Atomic             Coordinates (Angstroms)
 Number     Number       Type             X           Y           Z
 ---------------------------------------------------------------------
      1          6           0        1.618032    0.989661   -0.000046
      2          1           0        1.593672    1.636429    0.885962
      3          1           0        1.593672    1.636347   -0.886113
      4          1           0        2.578316    0.459293   -0.000021
      5          6           0        0.436353   -0.000500    0.000000
      6          6           0       -0.878586    0.823914   -0.000030
      7          1           0       -0.865713    1.486486   -0.877558
      8          1           0       -0.865712    1.486551    0.877447
      9          6           0       -2.193477    0.033880   -0.000001
     10          1           0       -2.289029   -0.605019    0.884964
     11          1           0       -3.048488    0.719808   -0.000012
     12          1           0       -2.289041   -0.605062   -0.884933
     13          6           0        0.528897   -0.885012   -1.258652
     14          1           0       -0.262439   -1.642476   -1.285245
     15          1           0        0.448512   -0.282917   -2.172624
     16          1           0        1.489696   -1.413344   -1.292039
     17          6           0        0.528906   -0.884904    1.258727
     18          1           0        0.448537   -0.282728    2.172647
     19          1           0       -0.262436   -1.642360    1.285396
 ---------------------------------------------------------------------
                    Distance matrix (angstroms):
                    1          2          3          4          5
     1  C    0.000000
     2  H    1.097229   0.000000
     3  H    1.097229   1.772075   0.000000
     4  H    1.097012   1.772044   1.772044   0.000000
     5  C    1.541682   2.191769   2.191769   2.190757   0.000000
     6  C    2.502114   2.749040   2.749045   3.476078   1.552006
     7  H    2.680644   3.030026   2.463961   3.699531   2.162547
     8  H    2.680649   2.463961   3.030042   3.699532   2.162546
     9  C    3.929519   4.206613   4.206613   4.790719   2.630055
    10  H    4.311771   4.483242   4.820353   5.060337   2.928534
    11  H    4.674316   4.814021   4.814028   5.632832   3.558505
    12  H    4.311773   4.820354   4.483233   5.060344   2.928545
    13  C    2.506931   3.477180   2.762206   2.755254   1.541146
    14  H    3.480812   4.348621   3.788817   3.760202   2.199148
    15  H    2.776207   3.788170   2.578774   3.131636   2.190936
    16  H    2.731327   3.749082   3.078344   2.522137   2.185183
    17  C    2.506930   2.762209   3.477179   2.755248   1.541146
    18  H    2.776200   2.578770   3.788165   3.131619   2.190935
    19  H    3.480812   3.788818   4.348621   3.760201   2.199148
                    6          7          8          9         10
     6  C    0.000000
     7  H    1.099647   0.000000
     8  H    1.099645   1.755005   0.000000
     9  C    1.533979   2.154792   2.154792   0.000000
    10  H    2.194177   3.083295   2.529931   1.095667   0.000000
    11  H    2.172398   2.474346   2.474336   1.096148   1.764972
    12  H    2.194176   2.529919   3.083293   1.095666   1.769897
    13  C    2.546677   2.777440   3.483126   3.136859   3.551646
    14  H    2.848595   3.212562   3.851232   2.861980   3.145344
    15  H    2.776046   2.556398   3.763128   3.435223   4.116640
    16  H    3.504764   3.758824   4.320186   4.162882   4.435256
    17  C    2.546677   3.483126   2.777433   3.136866   2.856360
    18  H    2.776047   3.763127   2.556392   3.435241   3.042411
    19  H    2.848591   3.851232   3.212545   2.861983   2.311601
                   11         12         13         14         15
    11  H    0.000000
    12  H    1.764972   0.000000
    13  C    4.117925   2.856364   0.000000
    14  H    3.872245   2.311621   1.095752   0.000000
    15  H    4.237300   3.042388   1.097417   1.772369   0.000000
    16  H    5.178299   3.885603   1.096989   1.767067   1.771259
    17  C    4.117921   3.551678   2.517379   2.769826   3.484684
    18  H    4.237300   4.116677   3.484683   3.783044   4.345271
    19  H    3.872234   3.145384   2.769831   2.570641   3.783046
                   16         17         18         19
    16  H    0.000000
    17  C    2.776468   0.000000
    18  H    3.790297   1.097417   0.000000
    19  H    3.124994   1.095752   1.772370   0.000000
 Stoichiometry    C6H13(2)
 Framework group  C1[X(C6H13)]
 Deg. of freedom    51
 Full point group                 C1      NOp   1
 Largest Abelian subgroup         C1      NOp   1
 Largest concise Abelian subgroup C1      NOp   1
                         Standard orientation:                         
 ---------------------------------------------------------------------
 Center     Atomic      Atomic             Coordinates (Angstroms)
 Number     Number       Type             X           Y           Z
 ---------------------------------------------------------------------
      1          6           0       -1.683787   -0.695045   -0.568310
      2          1           0       -1.653116   -1.778530   -0.397924
      3          1           0       -1.717998   -0.528480   -1.652283
      4          1           0       -2.621245   -0.316462   -0.142537
      5          6           0       -0.463912    0.003492    0.064728
      6          6           0        0.815811   -0.584497   -0.587423
      7          1           0        0.744093   -0.435113   -1.674513
      8          1           0        0.808350   -1.673109   -0.432226
      9          6           0        2.160624   -0.028172   -0.102582
     10          1           0        2.314215   -0.199812    0.968602
     11          1           0        2.986690   -0.516736   -0.632167
     12          1           0        2.249423    1.048674   -0.284243
     13          6           0       -0.566719    1.518541   -0.198308
     14          1           0        0.253029    2.072010    0.273240
     15          1           0       -0.544211    1.736241   -1.273680
     16          1           0       -1.505997    1.919250    0.202408
     17          6           0       -0.474557   -0.257252    1.583619
     18          1           0       -0.385139   -1.328974    1.802119
     19          1           0        0.347147    0.258641    2.092864
 ---------------------------------------------------------------------
 Rotational constants (GHZ):      4.4029727      2.5398557      2.4920386
 Leave Link  202 at Sat Nov  7 02:13:02 2015, MaxMem=   805306368 cpu:         0.0
 (Enter /home/hetanjin/apps/g09D01/g09/l301.exe)
 Standard basis: 6-31G(d) (6D, 7F)
 Ernie: Thresh=  0.10000D-02 Tol=  0.10000D-05 Strict=F.
 There are   116 symmetry adapted cartesian basis functions of A   symmetry.
 There are   116 symmetry adapted basis functions of A   symmetry.
   116 basis functions,   220 primitive gaussians,   116 cartesian basis functions
    25 alpha electrons       24 beta electrons
       nuclear repulsion energy       254.2928735411 Hartrees.
 IExCor=  402 DFT=T Ex+Corr=B3LYP ExCW=0 ScaHFX=  0.200000
 ScaDFX=  0.800000  0.720000  1.000000  0.810000 ScalE2=  1.000000  1.000000
 IRadAn=      5 IRanWt=     -1 IRanGd=            0 ICorTp=0 IEmpDi=  4
 NAtoms=   19 NActive=   19 NUniq=   19 SFac= 1.00D+00 NAtFMM=   60 NAOKFM=F Big=F
 Integral buffers will be    131072 words long.
 Raffenetti 2 integral format.
 Two-electron integral symmetry is turned on.
 Leave Link  301 at Sat Nov  7 02:13:02 2015, MaxMem=   805306368 cpu:         0.1
 (Enter /home/hetanjin/apps/g09D01/g09/l302.exe)
 NPDir=0 NMtPBC=     1 NCelOv=     1 NCel=       1 NClECP=     1 NCelD=      1
         NCelK=      1 NCelE2=     1 NClLst=     1 CellRange=     0.0.
 One-electron integrals computed using PRISM.
 NBasis=   116 RedAO= T EigKep=  3.85D-03  NBF=   116
 NBsUse=   116 1.00D-06 EigRej= -1.00D+00 NBFU=   116
 Precomputing XC quadrature grid using
 IXCGrd= 4 IRadAn=           5 IRanWt=          -1 IRanGd=           0 AccXCQ= 0.00D+00.
 Generated NRdTot=       0 NPtTot=           0 NUsed=           0 NTot=          32
 NSgBfM=   116   116   116   116   116 MxSgAt=    19 MxSgA2=    19.
 Leave Link  302 at Sat Nov  7 02:13:03 2015, MaxMem=   805306368 cpu:         1.5
 (Enter /home/hetanjin/apps/g09D01/g09/l303.exe)
 DipDrv:  MaxL=1.
 Leave Link  303 at Sat Nov  7 02:13:03 2015, MaxMem=   805306368 cpu:         0.2
 (Enter /home/hetanjin/apps/g09D01/g09/l401.exe)
 ExpMin= 1.61D-01 ExpMax= 3.05D+03 ExpMxC= 4.57D+02 IAcc=3 IRadAn=         5 AccDes= 0.00D+00
 Harris functional with IExCor=  402 and IRadAn=       5 diagonalized for initial guess.
 HarFok:  IExCor=  402 AccDes= 0.00D+00 IRadAn=         5 IDoV= 1 UseB2=F ITyADJ=14
 ICtDFT=  3500011 ScaDFX=  1.000000  1.000000  1.000000  1.000000
 FoFCou: FMM=F IPFlag=           0 FMFlag=      100000 FMFlg1=           0
         NFxFlg=           0 DoJE=T BraDBF=F KetDBF=T FulRan=T
         wScrn=  0.000000 ICntrl=     500 IOpCl=  0 I1Cent=   200000004 NGrid=           0
         NMat0=    1 NMatS0=      1 NMatT0=    0 NMatD0=    1 NMtDS0=    0 NMtDT0=    0
 Petite list used in FoFCou.
 Harris En= -236.440404896834    
 JPrj=0 DoOrth=F DoCkMO=F.
 Initial guess <Sx>= 0.0000 <Sy>= 0.0000 <Sz>= 0.5000 <S**2>= 0.7500 S= 0.5000
 Leave Link  401 at Sat Nov  7 02:13:05 2015, MaxMem=   805306368 cpu:         8.6
 (Enter /home/hetanjin/apps/g09D01/g09/l502.exe)
 UHF open shell SCF:
 Using DIIS extrapolation, IDIIS=  1040.
 Integral symmetry usage will be decided dynamically.
 Keep R1 and R2 ints in memory in canonical form, NReq=47059932.
 IVT=       60514 IEndB=       60514 NGot=   805306368 MDV=   759189273
 LenX=   759189273 LenY=   759175376
 Requested convergence on RMS density matrix=1.00D-08 within 128 cycles.
 Requested convergence on MAX density matrix=1.00D-06.
 Requested convergence on             energy=1.00D-06.
 No special actions if energy rises.
 FoFCou: FMM=F IPFlag=           0 FMFlag=           0 FMFlg1=           0
         NFxFlg=           0 DoJE=F BraDBF=F KetDBF=F FulRan=T
         wScrn=  0.000000 ICntrl=     600 IOpCl=  0 I1Cent=           0 NGrid=           0
         NMat0=    1 NMatS0=   6786 NMatT0=    0 NMatD0=    1 NMtDS0=    0 NMtDT0=    0
 Symmetry not used in FoFCou.
 Integral accuracy reduced to 1.0D-05 until final iterations.

 Cycle   1  Pass 0  IDiag  1:
 E= -236.145181216819    
 DIIS: error= 4.87D-02 at cycle   1 NSaved=   1.
 NSaved= 1 IEnMin= 1 EnMin= -236.145181216819     IErMin= 1 ErrMin= 4.87D-02
 ErrMax= 4.87D-02  0.00D+00 EMaxC= 1.00D-01 BMatC= 9.14D-01 BMatP= 9.14D-01
 IDIUse=3 WtCom= 5.13D-01 WtEn= 4.87D-01
 Coeff-Com:  0.100D+01
 Coeff-En:   0.100D+01
 Coeff:      0.100D+01
 Gap=     0.273 Goal=   None    Shift=    0.000
 Gap=     0.233 Goal=   None    Shift=    0.000
 GapD=    0.233 DampG=1.000 DampE=0.500 DampFc=0.5000 IDamp=-1.
 Damping current iteration by 5.00D-01
 RMSDP=9.65D-03 MaxDP=1.37D-01              OVMax= 1.72D-01

 Cycle   2  Pass 0  IDiag  1:
 E= -236.258570087132     Delta-E=       -0.113388870313 Rises=F Damp=T
 DIIS: error= 7.51D-03 at cycle   2 NSaved=   2.
 NSaved= 2 IEnMin= 2 EnMin= -236.258570087132     IErMin= 2 ErrMin= 7.51D-03
 ErrMax= 7.51D-03  0.00D+00 EMaxC= 1.00D-01 BMatC= 3.93D-02 BMatP= 9.14D-01
 IDIUse=3 WtCom= 9.25D-01 WtEn= 7.51D-02
 Coeff-Com:  0.735D-01 0.926D+00
 Coeff-En:   0.124D+00 0.876D+00
 Coeff:      0.773D-01 0.923D+00
 Gap=     0.310 Goal=   None    Shift=    0.000
 Gap=     0.260 Goal=   None    Shift=    0.000
 RMSDP=1.69D-03 MaxDP=2.48D-02 DE=-1.13D-01 OVMax= 1.01D-01

 Cycle   3  Pass 0  IDiag  1:
 E= -236.398776687417     Delta-E=       -0.140206600285 Rises=F Damp=F
 DIIS: error= 3.31D-03 at cycle   3 NSaved=   3.
 NSaved= 3 IEnMin= 3 EnMin= -236.398776687417     IErMin= 3 ErrMin= 3.31D-03
 ErrMax= 3.31D-03  0.00D+00 EMaxC= 1.00D-01 BMatC= 6.85D-03 BMatP= 3.93D-02
 IDIUse=3 WtCom= 9.67D-01 WtEn= 3.31D-02
 Coeff-Com:  0.448D-03 0.233D+00 0.767D+00
 Coeff-En:   0.000D+00 0.000D+00 0.100D+01
 Coeff:      0.433D-03 0.225D+00 0.775D+00
 Gap=     0.309 Goal=   None    Shift=    0.000
 Gap=     0.243 Goal=   None    Shift=    0.000
 RMSDP=6.40D-04 MaxDP=1.47D-02 DE=-1.40D-01 OVMax= 1.42D-02

 Cycle   4  Pass 0  IDiag  1:
 E= -236.399685468947     Delta-E=       -0.000908781530 Rises=F Damp=F
 DIIS: error= 2.38D-03 at cycle   4 NSaved=   4.
 NSaved= 4 IEnMin= 4 EnMin= -236.399685468947     IErMin= 4 ErrMin= 2.38D-03
 ErrMax= 2.38D-03  0.00D+00 EMaxC= 1.00D-01 BMatC= 3.43D-03 BMatP= 6.85D-03
 IDIUse=3 WtCom= 9.76D-01 WtEn= 2.38D-02
 Coeff-Com: -0.558D-02 0.342D-01 0.421D+00 0.551D+00
 Coeff-En:   0.000D+00 0.000D+00 0.324D+00 0.676D+00
 Coeff:     -0.545D-02 0.334D-01 0.418D+00 0.554D+00
 Gap=     0.307 Goal=   None    Shift=    0.000
 Gap=     0.249 Goal=   None    Shift=    0.000
 RMSDP=2.51D-04 MaxDP=6.84D-03 DE=-9.09D-04 OVMax= 9.11D-03

 Cycle   5  Pass 0  IDiag  1:
 E= -236.400511163909     Delta-E=       -0.000825694962 Rises=F Damp=F
 DIIS: error= 2.61D-04 at cycle   5 NSaved=   5.
 NSaved= 5 IEnMin= 5 EnMin= -236.400511163909     IErMin= 5 ErrMin= 2.61D-04
 ErrMax= 2.61D-04  0.00D+00 EMaxC= 1.00D-01 BMatC= 5.53D-05 BMatP= 3.43D-03
 IDIUse=3 WtCom= 9.97D-01 WtEn= 2.61D-03
 Coeff-Com: -0.116D-02-0.365D-02 0.807D-01 0.171D+00 0.753D+00
 Coeff-En:   0.000D+00 0.000D+00 0.000D+00 0.000D+00 0.100D+01
 Coeff:     -0.116D-02-0.364D-02 0.805D-01 0.170D+00 0.754D+00
 Gap=     0.307 Goal=   None    Shift=    0.000
 Gap=     0.248 Goal=   None    Shift=    0.000
 RMSDP=3.91D-05 MaxDP=8.34D-04 DE=-8.26D-04 OVMax= 9.47D-04

 Cycle   6  Pass 0  IDiag  1:
 E= -236.400525783617     Delta-E=       -0.000014619708 Rises=F Damp=F
 DIIS: error= 7.09D-05 at cycle   6 NSaved=   6.
 NSaved= 6 IEnMin= 6 EnMin= -236.400525783617     IErMin= 6 ErrMin= 7.09D-05
 ErrMax= 7.09D-05  0.00D+00 EMaxC= 1.00D-01 BMatC= 2.98D-06 BMatP= 5.53D-05
 IDIUse=1 WtCom= 1.00D+00 WtEn= 0.00D+00
 Coeff-Com:  0.303D-04-0.230D-02-0.723D-02 0.311D-02 0.128D+00 0.878D+00
 Coeff:      0.303D-04-0.230D-02-0.723D-02 0.311D-02 0.128D+00 0.878D+00
 Gap=     0.308 Goal=   None    Shift=    0.000
 Gap=     0.249 Goal=   None    Shift=    0.000
 RMSDP=1.48D-05 MaxDP=4.58D-04 DE=-1.46D-05 OVMax= 4.66D-04

 Cycle   7  Pass 0  IDiag  1:
 E= -236.400526902053     Delta-E=       -0.000001118436 Rises=F Damp=F
 DIIS: error= 3.70D-05 at cycle   7 NSaved=   7.
 NSaved= 7 IEnMin= 7 EnMin= -236.400526902053     IErMin= 7 ErrMin= 3.70D-05
 ErrMax= 3.70D-05  0.00D+00 EMaxC= 1.00D-01 BMatC= 1.24D-06 BMatP= 2.98D-06
 IDIUse=1 WtCom= 1.00D+00 WtEn= 0.00D+00
 Coeff-Com:  0.217D-03-0.220D-03-0.198D-01-0.334D-01-0.102D+00 0.405D+00
 Coeff-Com:  0.750D+00
 Coeff:      0.217D-03-0.220D-03-0.198D-01-0.334D-01-0.102D+00 0.405D+00
 Coeff:      0.750D+00
 Gap=     0.308 Goal=   None    Shift=    0.000
 Gap=     0.249 Goal=   None    Shift=    0.000
 RMSDP=6.53D-06 MaxDP=1.93D-04 DE=-1.12D-06 OVMax= 2.10D-04

 Initial convergence to 1.0D-05 achieved.  Increase integral accuracy.
 Cycle   8  Pass 1  IDiag  1:
 E= -236.400522334856     Delta-E=        0.000004567197 Rises=F Damp=F
 DIIS: error= 9.29D-06 at cycle   1 NSaved=   1.
 NSaved= 1 IEnMin= 1 EnMin= -236.400522334856     IErMin= 1 ErrMin= 9.29D-06
 ErrMax= 9.29D-06  0.00D+00 EMaxC= 1.00D-01 BMatC= 8.22D-08 BMatP= 8.22D-08
 IDIUse=1 WtCom= 1.00D+00 WtEn= 0.00D+00
 Coeff-Com:  0.100D+01
 Coeff:      0.100D+01
 Gap=     0.308 Goal=   None    Shift=    0.000
 Gap=     0.249 Goal=   None    Shift=    0.000
 RMSDP=6.53D-06 MaxDP=1.93D-04 DE= 4.57D-06 OVMax= 5.53D-05

 Cycle   9  Pass 1  IDiag  1:
 E= -236.400522347561     Delta-E=       -0.000000012704 Rises=F Damp=F
 DIIS: error= 8.94D-06 at cycle   2 NSaved=   2.
 NSaved= 2 IEnMin= 2 EnMin= -236.400522347561     IErMin= 2 ErrMin= 8.94D-06
 ErrMax= 8.94D-06  0.00D+00 EMaxC= 1.00D-01 BMatC= 6.98D-08 BMatP= 8.22D-08
 IDIUse=1 WtCom= 1.00D+00 WtEn= 0.00D+00
 Coeff-Com:  0.476D+00 0.524D+00
 Coeff:      0.476D+00 0.524D+00
 Gap=     0.308 Goal=   None    Shift=    0.000
 Gap=     0.249 Goal=   None    Shift=    0.000
 RMSDP=1.06D-06 MaxDP=2.52D-05 DE=-1.27D-08 OVMax= 2.45D-05

 Cycle  10  Pass 1  IDiag  1:
 E= -236.400522364634     Delta-E=       -0.000000017073 Rises=F Damp=F
 DIIS: error= 1.75D-06 at cycle   3 NSaved=   3.
 NSaved= 3 IEnMin= 3 EnMin= -236.400522364634     IErMin= 3 ErrMin= 1.75D-06
 ErrMax= 1.75D-06  0.00D+00 EMaxC= 1.00D-01 BMatC= 3.06D-09 BMatP= 6.98D-08
 IDIUse=1 WtCom= 1.00D+00 WtEn= 0.00D+00
 Coeff-Com: -0.268D-01 0.964D-01 0.930D+00
 Coeff:     -0.268D-01 0.964D-01 0.930D+00
 Gap=     0.308 Goal=   None    Shift=    0.000
 Gap=     0.249 Goal=   None    Shift=    0.000
 RMSDP=4.50D-07 MaxDP=9.68D-06 DE=-1.71D-08 OVMax= 1.26D-05

 Cycle  11  Pass 1  IDiag  1:
 E= -236.400522365899     Delta-E=       -0.000000001265 Rises=F Damp=F
 DIIS: error= 1.10D-06 at cycle   4 NSaved=   4.
 NSaved= 4 IEnMin= 4 EnMin= -236.400522365899     IErMin= 4 ErrMin= 1.10D-06
 ErrMax= 1.10D-06  0.00D+00 EMaxC= 1.00D-01 BMatC= 6.69D-10 BMatP= 3.06D-09
 IDIUse=1 WtCom= 1.00D+00 WtEn= 0.00D+00
 Coeff-Com: -0.112D+00-0.834D-01 0.314D+00 0.882D+00
 Coeff:     -0.112D+00-0.834D-01 0.314D+00 0.882D+00
 Gap=     0.308 Goal=   None    Shift=    0.000
 Gap=     0.249 Goal=   None    Shift=    0.000
 RMSDP=2.30D-07 MaxDP=6.62D-06 DE=-1.27D-09 OVMax= 6.06D-06

 Cycle  12  Pass 1  IDiag  1:
 E= -236.400522366194     Delta-E=       -0.000000000295 Rises=F Damp=F
 DIIS: error= 2.16D-07 at cycle   5 NSaved=   5.
 NSaved= 5 IEnMin= 5 EnMin= -236.400522366194     IErMin= 5 ErrMin= 2.16D-07
 ErrMax= 2.16D-07  0.00D+00 EMaxC= 1.00D-01 BMatC= 3.31D-11 BMatP= 6.69D-10
 IDIUse=1 WtCom= 1.00D+00 WtEn= 0.00D+00
 Coeff-Com: -0.292D-01-0.281D-01 0.298D-01 0.232D+00 0.795D+00
 Coeff:     -0.292D-01-0.281D-01 0.298D-01 0.232D+00 0.795D+00
 Gap=     0.308 Goal=   None    Shift=    0.000
 Gap=     0.249 Goal=   None    Shift=    0.000
 RMSDP=4.44D-08 MaxDP=1.61D-06 DE=-2.95D-10 OVMax= 1.50D-06

 Cycle  13  Pass 1  IDiag  1:
 E= -236.400522366204     Delta-E=       -0.000000000010 Rises=F Damp=F
 DIIS: error= 1.11D-07 at cycle   6 NSaved=   6.
 NSaved= 6 IEnMin= 6 EnMin= -236.400522366204     IErMin= 6 ErrMin= 1.11D-07
 ErrMax= 1.11D-07  0.00D+00 EMaxC= 1.00D-01 BMatC= 9.87D-12 BMatP= 3.31D-11
 IDIUse=1 WtCom= 1.00D+00 WtEn= 0.00D+00
 Coeff-Com:  0.233D-02-0.124D-02-0.306D-01-0.165D-01 0.382D+00 0.664D+00
 Coeff:      0.233D-02-0.124D-02-0.306D-01-0.165D-01 0.382D+00 0.664D+00
 Gap=     0.308 Goal=   None    Shift=    0.000
 Gap=     0.249 Goal=   None    Shift=    0.000
 RMSDP=1.67D-08 MaxDP=6.57D-07 DE=-1.01D-11 OVMax= 6.05D-07

 Cycle  14  Pass 1  IDiag  1:
 E= -236.400522366205     Delta-E=       -0.000000000001 Rises=F Damp=F
 DIIS: error= 1.37D-08 at cycle   7 NSaved=   7.
 NSaved= 7 IEnMin= 7 EnMin= -236.400522366205     IErMin= 7 ErrMin= 1.37D-08
 ErrMax= 1.37D-08  0.00D+00 EMaxC= 1.00D-01 BMatC= 1.91D-13 BMatP= 9.87D-12
 IDIUse=1 WtCom= 1.00D+00 WtEn= 0.00D+00
 Coeff-Com:  0.182D-02 0.927D-03-0.823D-02-0.146D-01 0.526D-01 0.155D+00
 Coeff-Com:  0.813D+00
 Coeff:      0.182D-02 0.927D-03-0.823D-02-0.146D-01 0.526D-01 0.155D+00
 Coeff:      0.813D+00
 Gap=     0.308 Goal=   None    Shift=    0.000
 Gap=     0.249 Goal=   None    Shift=    0.000
 RMSDP=3.39D-09 MaxDP=5.98D-08 DE=-1.08D-12 OVMax= 9.63D-08

 SCF Done:  E(UB3LYP) =  -236.400522366     A.U. after   14 cycles
            NFock= 14  Conv=0.34D-08     -V/T= 2.0103
 <Sx>= 0.0000 <Sy>= 0.0000 <Sz>= 0.5000 <S**2>= 0.7527 S= 0.5014
 <L.S>= 0.000000000000E+00
 KE= 2.339802455699D+02 PE=-1.054116120981D+03 EE= 3.294424795042D+02
 Annihilation of the first spin contaminant:
 S**2 before annihilation     0.7527,   after     0.7500
 Leave Link  502 at Sat Nov  7 02:13:52 2015, MaxMem=   805306368 cpu:       178.7
 (Enter /home/hetanjin/apps/g09D01/g09/l601.exe)
 Copying SCF densities to generalized density rwf, IOpCl= 1 IROHF=0.

 **********************************************************************

            Population analysis using the SCF density.

 **********************************************************************

 Orbital symmetries:
 Alpha Orbitals:
       Occupied  (A) (A) (A) (A) (A) (A) (A) (A) (A) (A) (A) (A)
                 (A) (A) (A) (A) (A) (A) (A) (A) (A) (A) (A) (A)
                 (A)
       Virtual   (A) (A) (A) (A) (A) (A) (A) (A) (A) (A) (A) (A)
                 (A) (A) (A) (A) (A) (A) (A) (A) (A) (A) (A) (A)
                 (A) (A) (A) (A) (A) (A) (A) (A) (A) (A) (A) (A)
                 (A) (A) (A) (A) (A) (A) (A) (A) (A) (A) (A) (A)
                 (A) (A) (A) (A) (A) (A) (A) (A) (A) (A) (A) (A)
                 (A) (A) (A) (A) (A) (A) (A) (A) (A) (A) (A) (A)
                 (A) (A) (A) (A) (A) (A) (A) (A) (A) (A) (A) (A)
                 (A) (A) (A) (A) (A) (A) (A)
 Beta  Orbitals:
       Occupied  (A) (A) (A) (A) (A) (A) (A) (A) (A) (A) (A) (A)
                 (A) (A) (A) (A) (A) (A) (A) (A) (A) (A) (A) (A)
       Virtual   (A) (A) (A) (A) (A) (A) (A) (A) (A) (A) (A) (A)
                 (A) (A) (A) (A) (A) (A) (A) (A) (A) (A) (A) (A)
                 (A) (A) (A) (A) (A) (A) (A) (A) (A) (A) (A) (A)
                 (A) (A) (A) (A) (A) (A) (A) (A) (A) (A) (A) (A)
                 (A) (A) (A) (A) (A) (A) (A) (A) (A) (A) (A) (A)
                 (A) (A) (A) (A) (A) (A) (A) (A) (A) (A) (A) (A)
                 (A) (A) (A) (A) (A) (A) (A) (A) (A) (A) (A) (A)
                 (A) (A) (A) (A) (A) (A) (A) (A)
 The electronic state is 2-A.
 Alpha  occ. eigenvalues --  -10.19669 -10.19195 -10.18276 -10.17354 -10.16864
 Alpha  occ. eigenvalues --  -10.16864  -0.82036  -0.73357  -0.67907  -0.67222
 Alpha  occ. eigenvalues --   -0.62090  -0.52186  -0.45577  -0.44487  -0.43452
 Alpha  occ. eigenvalues --   -0.42107  -0.39670  -0.37753  -0.36309  -0.35703
 Alpha  occ. eigenvalues --   -0.34528  -0.32364  -0.31671  -0.31315  -0.22813
 Alpha virt. eigenvalues --    0.07968   0.12218   0.13095   0.13812   0.14383
 Alpha virt. eigenvalues --    0.15105   0.16151   0.17476   0.18833   0.20225
 Alpha virt. eigenvalues --    0.20675   0.21245   0.22601   0.24168   0.24760
 Alpha virt. eigenvalues --    0.25668   0.26350   0.27123   0.49264   0.50481
 Alpha virt. eigenvalues --    0.51461   0.51667   0.53387   0.57465   0.59133
 Alpha virt. eigenvalues --    0.61635   0.62620   0.65719   0.70867   0.71376
 Alpha virt. eigenvalues --    0.72676   0.75457   0.82236   0.82900   0.86210
 Alpha virt. eigenvalues --    0.88800   0.90152   0.90773   0.91206   0.91567
 Alpha virt. eigenvalues --    0.92418   0.92580   0.93741   0.95357   0.96141
 Alpha virt. eigenvalues --    0.97594   0.99040   0.99253   1.00623   1.02976
 Alpha virt. eigenvalues --    1.24988   1.32566   1.39559   1.40426   1.50633
 Alpha virt. eigenvalues --    1.60268   1.63360   1.67255   1.71620   1.72782
 Alpha virt. eigenvalues --    1.78864   1.85598   1.87778   1.92611   1.93179
 Alpha virt. eigenvalues --    1.95531   1.98709   2.09591   2.10092   2.10735
 Alpha virt. eigenvalues --    2.12646   2.15667   2.24227   2.25121   2.25770
 Alpha virt. eigenvalues --    2.26915   2.29338   2.35333   2.36149   2.48459
 Alpha virt. eigenvalues --    2.56469   2.68686   2.71336   2.73620   2.75766
 Alpha virt. eigenvalues --    4.10770   4.22277   4.25920   4.31357   4.44293
 Alpha virt. eigenvalues --    4.66672
  Beta  occ. eigenvalues --  -10.19698 -10.18169 -10.17757 -10.17352 -10.16849
  Beta  occ. eigenvalues --  -10.16842  -0.81544  -0.73177  -0.67869  -0.65014
  Beta  occ. eigenvalues --   -0.61673  -0.51657  -0.45339  -0.44008  -0.43095
  Beta  occ. eigenvalues --   -0.41894  -0.39457  -0.37731  -0.35975  -0.35636
  Beta  occ. eigenvalues --   -0.34287  -0.31559  -0.31282  -0.31029
  Beta virt. eigenvalues --   -0.06166   0.08138   0.12462   0.13317   0.14102
  Beta virt. eigenvalues --    0.14680   0.15251   0.16334   0.17656   0.19088
  Beta virt. eigenvalues --    0.20489   0.20899   0.21435   0.22984   0.24446
  Beta virt. eigenvalues --    0.25127   0.25874   0.27132   0.27487   0.49443
  Beta virt. eigenvalues --    0.50650   0.51750   0.51914   0.55741   0.58665
  Beta virt. eigenvalues --    0.61077   0.62799   0.62965   0.66504   0.71098
  Beta virt. eigenvalues --    0.72207   0.73039   0.75701   0.82427   0.83439
  Beta virt. eigenvalues --    0.86528   0.88883   0.90511   0.90935   0.91402
  Beta virt. eigenvalues --    0.92028   0.92801   0.93062   0.94213   0.95746
  Beta virt. eigenvalues --    0.96354   0.98058   0.99330   0.99429   1.01155
  Beta virt. eigenvalues --    1.03027   1.26218   1.33116   1.40317   1.41151
  Beta virt. eigenvalues --    1.50748   1.60445   1.63672   1.68503   1.72073
  Beta virt. eigenvalues --    1.74285   1.80100   1.87028   1.87945   1.92981
  Beta virt. eigenvalues --    1.93684   1.96991   2.01449   2.10349   2.10929
  Beta virt. eigenvalues --    2.12333   2.12867   2.18567   2.25000   2.25265
  Beta virt. eigenvalues --    2.26310   2.28062   2.29471   2.35561   2.36322
  Beta virt. eigenvalues --    2.48769   2.57229   2.69127   2.72090   2.74082
  Beta virt. eigenvalues --    2.75913   4.11890   4.24392   4.26258   4.31386
  Beta virt. eigenvalues --    4.44553   4.66827
          Condensed to atoms (all electrons):
               1          2          3          4          5          6
     1  C    5.150479   0.365781   0.363763   0.366537   0.382834  -0.055963
     2  H    0.365781   0.584372  -0.031226  -0.029849  -0.029545  -0.005198
     3  H    0.363763  -0.031226   0.588712  -0.030826  -0.029660  -0.005095
     4  H    0.366537  -0.029849  -0.030826   0.575596  -0.028468   0.005293
     5  C    0.382834  -0.029545  -0.029660  -0.028468   4.747587   0.386279
     6  C   -0.055963  -0.005198  -0.005095   0.005293   0.386279   5.038085
     7  H   -0.005457  -0.000245   0.005100  -0.000049  -0.033134   0.364750
     8  H   -0.005368   0.005333  -0.000235  -0.000046  -0.035997   0.366734
     9  C    0.004741  -0.000005  -0.000007  -0.000159  -0.037111   0.368262
    10  H    0.000059  -0.000004   0.000000   0.000001  -0.005324  -0.034009
    11  H   -0.000131  -0.000003  -0.000005   0.000002   0.004030  -0.027088
    12  H    0.000060   0.000002  -0.000004   0.000001  -0.005667  -0.033983
    13  C   -0.062453   0.005803  -0.005000  -0.004555   0.381658  -0.056666
    14  H    0.005559  -0.000196  -0.000051  -0.000044  -0.028258  -0.005535
    15  H   -0.004736  -0.000068   0.004151  -0.000142  -0.030021  -0.004496
    16  H   -0.005334  -0.000015  -0.000164   0.004500  -0.029472   0.005400
    17  C   -0.060082  -0.005016   0.005662  -0.001484   0.385384  -0.057602
    18  H   -0.006262   0.004040  -0.000077  -0.000062  -0.038248  -0.001956
    19  H    0.005659  -0.000044  -0.000209  -0.000020  -0.036525  -0.002949
               7          8          9         10         11         12
     1  C   -0.005457  -0.005368   0.004741   0.000059  -0.000131   0.000060
     2  H   -0.000245   0.005333  -0.000005  -0.000004  -0.000003   0.000002
     3  H    0.005100  -0.000235  -0.000007   0.000000  -0.000005  -0.000004
     4  H   -0.000049  -0.000046  -0.000159   0.000001   0.000002   0.000001
     5  C   -0.033134  -0.035997  -0.037111  -0.005324   0.004030  -0.005667
     6  C    0.364750   0.366734   0.368262  -0.034009  -0.027088  -0.033983
     7  H    0.611463  -0.037163  -0.040124   0.005252  -0.003089  -0.004106
     8  H   -0.037163   0.615374  -0.040024  -0.004116  -0.003260   0.005186
     9  C   -0.040124  -0.040024   5.081809   0.375606   0.371121   0.377792
    10  H    0.005252  -0.004116   0.375606   0.575129  -0.030800  -0.032750
    11  H   -0.003089  -0.003260   0.371121  -0.030800   0.576574  -0.031144
    12  H   -0.004106   0.005186   0.377792  -0.032750  -0.031144   0.570473
    13  C   -0.006714   0.006330  -0.005634  -0.000442   0.000081   0.003457
    14  H   -0.000096  -0.000059   0.001797   0.000201  -0.000055   0.002798
    15  H    0.004454  -0.000035  -0.000253   0.000039  -0.000035   0.000299
    16  H   -0.000075  -0.000180   0.000090  -0.000020   0.000000  -0.000119
    17  C    0.006190  -0.006286  -0.007172   0.004684   0.000215  -0.000358
    18  H   -0.000126   0.004836  -0.000268   0.000270  -0.000024   0.000047
    19  H   -0.000152  -0.000130   0.001765   0.002462  -0.000033   0.000183
              13         14         15         16         17         18
     1  C   -0.062453   0.005559  -0.004736  -0.005334  -0.060082  -0.006262
     2  H    0.005803  -0.000196  -0.000068  -0.000015  -0.005016   0.004040
     3  H   -0.005000  -0.000051   0.004151  -0.000164   0.005662  -0.000077
     4  H   -0.004555  -0.000044  -0.000142   0.004500  -0.001484  -0.000062
     5  C    0.381658  -0.028258  -0.030021  -0.029472   0.385384  -0.038248
     6  C   -0.056666  -0.005535  -0.004496   0.005400  -0.057602  -0.001956
     7  H   -0.006714  -0.000096   0.004454  -0.000075   0.006190  -0.000126
     8  H    0.006330  -0.000059  -0.000035  -0.000180  -0.006286   0.004836
     9  C   -0.005634   0.001797  -0.000253   0.000090  -0.007172  -0.000268
    10  H   -0.000442   0.000201   0.000039  -0.000020   0.004684   0.000270
    11  H    0.000081  -0.000055  -0.000035   0.000000   0.000215  -0.000024
    12  H    0.003457   0.002798   0.000299  -0.000119  -0.000358   0.000047
    13  C    5.150125   0.367226   0.364170   0.369297  -0.061186   0.005869
    14  H    0.367226   0.578502  -0.031560  -0.030173  -0.004904  -0.000028
    15  H    0.364170  -0.031560   0.589307  -0.030976   0.005518  -0.000214
    16  H    0.369297  -0.030173  -0.030976   0.574582  -0.001641  -0.000030
    17  C   -0.061186  -0.004904   0.005518  -0.001641   5.389578   0.347354
    18  H    0.005869  -0.000028  -0.000214  -0.000030   0.347354   0.603529
    19  H   -0.006419   0.003964  -0.000049  -0.000095   0.350173  -0.045153
              19
     1  C    0.005659
     2  H   -0.000044
     3  H   -0.000209
     4  H   -0.000020
     5  C   -0.036525
     6  C   -0.002949
     7  H   -0.000152
     8  H   -0.000130
     9  C    0.001765
    10  H    0.002462
    11  H   -0.000033
    12  H    0.000183
    13  C   -0.006419
    14  H    0.003964
    15  H   -0.000049
    16  H   -0.000095
    17  C    0.350173
    18  H   -0.045153
    19  H    0.596258
          Atomic-Atomic Spin Densities.
               1          2          3          4          5          6
     1  C    0.015629   0.000027  -0.001451  -0.003498   0.006232  -0.005976
     2  H    0.000027  -0.000716   0.000035  -0.000012   0.000479  -0.000261
     3  H   -0.001451   0.000035   0.000034   0.001043   0.000219   0.001416
     4  H   -0.003498  -0.000012   0.001043   0.000774  -0.000714   0.000519
     5  C    0.006232   0.000479   0.000219  -0.000714  -0.036218   0.010354
     6  C   -0.005976  -0.000261   0.001416   0.000519   0.010354   0.082105
     7  H    0.001195   0.000064  -0.000948  -0.000092  -0.001697  -0.012627
     8  H    0.000116  -0.000003  -0.000037  -0.000014   0.000519  -0.001420
     9  C    0.000044   0.000001  -0.000014  -0.000003   0.000482  -0.000081
    10  H    0.000028   0.000001  -0.000002  -0.000002  -0.000351  -0.002018
    11  H    0.000001   0.000000   0.000000   0.000000  -0.000093   0.000194
    12  H    0.000005   0.000000  -0.000002   0.000000   0.000022  -0.000511
    13  C    0.003245   0.000005  -0.000414  -0.000730   0.004967  -0.004393
    14  H    0.000023   0.000000   0.000001  -0.000009   0.000442  -0.000333
    15  H   -0.000334   0.000003  -0.000039   0.000108   0.000331   0.001109
    16  H   -0.000827  -0.000005   0.000136   0.000272  -0.000496   0.000457
    17  C   -0.009329  -0.000127   0.000202   0.003653  -0.031006  -0.026096
    18  H    0.001191   0.000008  -0.000053  -0.000219   0.002221  -0.002305
    19  H    0.000161   0.000009  -0.000003  -0.000061   0.002064  -0.002122
               7          8          9         10         11         12
     1  C    0.001195   0.000116   0.000044   0.000028   0.000001   0.000005
     2  H    0.000064  -0.000003   0.000001   0.000001   0.000000   0.000000
     3  H   -0.000948  -0.000037  -0.000014  -0.000002   0.000000  -0.000002
     4  H   -0.000092  -0.000014  -0.000003  -0.000002   0.000000   0.000000
     5  C   -0.001697   0.000519   0.000482  -0.000351  -0.000093   0.000022
     6  C   -0.012627  -0.001420  -0.000081  -0.002018   0.000194  -0.000511
     7  H    0.021779   0.000627   0.000704   0.000416   0.000050   0.000225
     8  H    0.000627  -0.002230   0.000131   0.000147   0.000023  -0.000009
     9  C    0.000704   0.000131   0.006984  -0.003837   0.000414  -0.000364
    10  H    0.000416   0.000147  -0.003837   0.002060  -0.000142   0.000422
    11  H    0.000050   0.000023   0.000414  -0.000142  -0.001057   0.000056
    12  H    0.000225  -0.000009  -0.000364   0.000422   0.000056   0.000213
    13  C    0.000799   0.000027   0.000106   0.000028   0.000004   0.000006
    14  H    0.000066   0.000001   0.000017   0.000032   0.000000   0.000021
    15  H   -0.000652  -0.000005  -0.000070  -0.000011   0.000001  -0.000029
    16  H   -0.000075  -0.000003  -0.000013  -0.000009   0.000000  -0.000006
    17  C    0.002047   0.000706  -0.002861   0.004019   0.000035   0.000202
    18  H    0.000128   0.000083  -0.000180   0.000279   0.000003   0.000006
    19  H    0.000110   0.000051  -0.000408   0.001226  -0.000002   0.000039
              13         14         15         16         17         18
     1  C    0.003245   0.000023  -0.000334  -0.000827  -0.009329   0.001191
     2  H    0.000005   0.000000   0.000003  -0.000005  -0.000127   0.000008
     3  H   -0.000414   0.000001  -0.000039   0.000136   0.000202  -0.000053
     4  H   -0.000730  -0.000009   0.000108   0.000272   0.003653  -0.000219
     5  C    0.004967   0.000442   0.000331  -0.000496  -0.031006   0.002221
     6  C   -0.004393  -0.000333   0.001109   0.000457  -0.026096  -0.002305
     7  H    0.000799   0.000066  -0.000652  -0.000075   0.002047   0.000128
     8  H    0.000027   0.000001  -0.000005  -0.000003   0.000706   0.000083
     9  C    0.000106   0.000017  -0.000070  -0.000013  -0.002861  -0.000180
    10  H    0.000028   0.000032  -0.000011  -0.000009   0.004019   0.000279
    11  H    0.000004   0.000000   0.000001   0.000000   0.000035   0.000003
    12  H    0.000006   0.000021  -0.000029  -0.000006   0.000202   0.000006
    13  C    0.010764   0.000033  -0.000704  -0.002749  -0.007727   0.000101
    14  H    0.000033  -0.000597   0.000044  -0.000076  -0.000124   0.000011
    15  H   -0.000704   0.000044  -0.001117   0.000808   0.000138  -0.000001
    16  H   -0.002749  -0.000076   0.000808   0.000509   0.003070  -0.000056
    17  C   -0.007727  -0.000124   0.000138   0.003070   1.128182  -0.011959
    18  H    0.000101   0.000011  -0.000001  -0.000056  -0.011959  -0.026177
    19  H    0.000942   0.000053  -0.000044  -0.000197  -0.012120   0.006097
              19
     1  C    0.000161
     2  H    0.000009
     3  H   -0.000003
     4  H   -0.000061
     5  C    0.002064
     6  C   -0.002122
     7  H    0.000110
     8  H    0.000051
     9  C   -0.000408
    10  H    0.001226
    11  H   -0.000002
    12  H    0.000039
    13  C    0.000942
    14  H    0.000053
    15  H   -0.000044
    16  H   -0.000197
    17  C   -0.012120
    18  H    0.006097
    19  H   -0.026900
 Mulliken charges and spin densities:
               1          2
     1  C   -0.439687   0.006481
     2  H    0.136084  -0.000494
     3  H    0.135171   0.000122
     4  H    0.143773   0.001014
     5  C    0.079658  -0.042244
     6  C   -0.244265   0.038008
     7  H    0.133322   0.012118
     8  H    0.129107  -0.001290
     9  C   -0.452225   0.001050
    10  H    0.143762   0.002287
    11  H    0.143644  -0.000513
    12  H    0.147833   0.000296
    13  C   -0.444951   0.004309
    14  H    0.140912  -0.000396
    15  H    0.134647  -0.000462
    16  H    0.144425   0.000738
    17  C   -0.289027   1.040905
    18  H    0.126504  -0.030823
    19  H    0.131315  -0.031107
 Sum of Mulliken charges =   0.00000   1.00000
 Mulliken charges and spin densities with hydrogens summed into heavy atoms:
               1          2
     1  C   -0.024659   0.007123
     5  C    0.079658  -0.042244
     6  C    0.018163   0.048835
     9  C   -0.016987   0.003120
    13  C   -0.024967   0.004189
    17  C   -0.031208   0.978976
 Electronic spatial extent (au):  <R**2>=            683.3583
 Charge=              0.0000 electrons
 Dipole moment (field-independent basis, Debye):
    X=              0.5178    Y=             -0.1577    Z=             -0.4149  Tot=              0.6820
 Quadrupole moment (field-independent basis, Debye-Ang):
   XX=            -41.4729   YY=            -40.6348   ZZ=            -41.6688
   XY=             -0.1557   XZ=              0.8603   YZ=             -0.2489
 Traceless Quadrupole moment (field-independent basis, Debye-Ang):
   XX=             -0.2140   YY=              0.6240   ZZ=             -0.4100
   XY=             -0.1557   XZ=              0.8603   YZ=             -0.2489
 Octapole moment (field-independent basis, Debye-Ang**2):
  XXX=              0.7367  YYY=             -1.8906  ZZZ=             -5.0370  XYY=              0.8587
  XXY=              0.7320  XXZ=             -1.1391  XZZ=              3.3576  YZZ=              0.1161
  YYZ=              0.6629  XYZ=              0.2900
 Hexadecapole moment (field-independent basis, Debye-Ang**3):
 XXXX=           -489.2176 YYYY=           -238.1481 ZZZZ=           -227.6914 XXXY=             -5.9688
 XXXZ=             -2.7927 YYYX=              1.9895 YYYZ=             -0.6508 ZZZX=              8.3193
 ZZZY=             -1.2691 XXYY=           -120.6329 XXZZ=           -120.9439 YYZZ=            -77.3628
 XXYZ=              1.2918 YYXZ=             -0.6096 ZZXY=             -0.5977
 N-N= 2.542928735411D+02 E-N=-1.054116122910D+03  KE= 2.339802455699D+02
                          Isotropic Fermi Contact Couplings
        Atom                 a.u.       MegaHertz       Gauss      10(-4) cm-1
     1  C(13)              0.00963      10.82495       3.86261       3.61081
     2  H(1)              -0.00022      -0.98289      -0.35072      -0.32786
     3  H(1)               0.00005       0.23639       0.08435       0.07885
     4  H(1)              -0.00020      -0.89063      -0.31780      -0.29708
     5  C(13)             -0.01045     -11.75183      -4.19335      -3.91999
     6  C(13)              0.04245      47.72627      17.02992      15.91977
     7  H(1)               0.00460      20.57332       7.34107       6.86252
     8  H(1)              -0.00041      -1.83842      -0.65599      -0.61323
     9  C(13)              0.00142       1.59196       0.56805       0.53102
    10  H(1)              -0.00010      -0.43387      -0.15482      -0.14472
    11  H(1)              -0.00010      -0.43105      -0.15381      -0.14378
    12  H(1)               0.00008       0.34711       0.12386       0.11578
    13  C(13)              0.00587       6.59341       2.35269       2.19933
    14  H(1)              -0.00020      -0.91381      -0.32607      -0.30481
    15  H(1)              -0.00016      -0.69993      -0.24975      -0.23347
    16  H(1)              -0.00020      -0.87598      -0.31257      -0.29220
    17  C(13)              0.30580     343.78210     122.67000     114.67336
    18  H(1)              -0.00451     -20.17879      -7.20029      -6.73092
    19  H(1)              -0.00427     -19.06975      -6.80456      -6.36098
 --------------------------------------------------------
       Center         ----  Spin Dipole Couplings  ----
                      3XX-RR        3YY-RR        3ZZ-RR
 --------------------------------------------------------
     1   Atom       -0.006282     -0.006817      0.013099
     2   Atom       -0.003449      0.000437      0.003012
     3   Atom       -0.001998     -0.003610      0.005608
     4   Atom        0.004436     -0.008084      0.003648
     5   Atom       -0.009558     -0.021716      0.031274
     6   Atom        0.016480     -0.025490      0.009010
     7   Atom       -0.002702     -0.005457      0.008159
     8   Atom       -0.004478      0.003873      0.000605
     9   Atom        0.003870     -0.005409      0.001539
    10   Atom        0.009959     -0.006404     -0.003555
    11   Atom        0.002803     -0.002526     -0.000276
    12   Atom        0.002159     -0.001340     -0.000818
    13   Atom       -0.008495      0.004969      0.003525
    14   Atom       -0.003590      0.005417     -0.001826
    15   Atom       -0.003219     -0.000102      0.003321
    16   Atom       -0.005318      0.005393     -0.000075
    17   Atom        0.593305     -0.320122     -0.273183
    18   Atom       -0.020303      0.066116     -0.045813
    19   Atom        0.039462     -0.019406     -0.020056
 --------------------------------------------------------
                        XY            XZ            YZ
 --------------------------------------------------------
     1   Atom        0.005030      0.011239      0.010667
     2   Atom        0.003671      0.004000      0.007349
     3   Atom        0.000270      0.002909      0.000816
     4   Atom        0.000865      0.009852      0.001252
     5   Atom       -0.001899     -0.021561     -0.000089
     6   Atom       -0.018389     -0.045082      0.016443
     7   Atom       -0.001171     -0.001814     -0.000577
     8   Atom       -0.005962     -0.005478      0.005848
     9   Atom        0.000560     -0.004713     -0.002078
    10   Atom        0.000769     -0.003250     -0.000093
    11   Atom       -0.000345     -0.002396      0.000289
    12   Atom        0.002938     -0.003046     -0.001300
    13   Atom        0.003737     -0.003488     -0.013976
    14   Atom        0.004395     -0.002905     -0.006212
    15   Atom       -0.000212     -0.000286     -0.004458
    16   Atom       -0.004944      0.002414     -0.008806
    17   Atom       -0.409540     -0.470505      0.180334
    18   Atom       -0.014348     -0.016918     -0.022407
    19   Atom        0.030139      0.027302      0.040435
 --------------------------------------------------------


 ---------------------------------------------------------------------------------
              Anisotropic Spin Dipole Couplings in Principal Axis System
 ---------------------------------------------------------------------------------

       Atom             a.u.   MegaHertz   Gauss  10(-4) cm-1        Axes

              Baa    -0.0116    -1.555    -0.555    -0.519 -0.6780  0.7350 -0.0089
     1 C(13)  Bbb    -0.0113    -1.521    -0.543    -0.507  0.6240  0.5691 -0.5354
              Bcc     0.0229     3.076     1.098     1.026  0.3885  0.3686  0.8445
 
              Baa    -0.0059    -3.127    -1.116    -1.043 -0.4567  0.7753 -0.4363
     2 H(1)   Bbb    -0.0053    -2.846    -1.016    -0.949  0.8190  0.1749 -0.5465
              Bcc     0.0112     5.973     2.131     1.992  0.3474  0.6069  0.7148
 
              Baa    -0.0037    -1.965    -0.701    -0.655 -0.0180  0.9965 -0.0819
     3 H(1)   Bbb    -0.0030    -1.592    -0.568    -0.531  0.9474 -0.0092 -0.3199
              Bcc     0.0067     3.556     1.269     1.186  0.3196  0.0833  0.9439
 
              Baa    -0.0082    -4.387    -1.565    -1.463  0.0383  0.9900 -0.1361
     4 H(1)   Bbb    -0.0058    -3.084    -1.100    -1.029 -0.6942  0.1243  0.7090
              Bcc     0.0140     7.471     2.666     2.492  0.7188  0.0674  0.6920
 
              Baa    -0.0226    -3.029    -1.081    -1.010  0.3988  0.9028  0.1612
     5 C(13)  Bbb    -0.0180    -2.414    -0.861    -0.805  0.8274 -0.4300  0.3613
              Bcc     0.0406     5.442     1.942     1.815 -0.3955  0.0107  0.9184
 
              Baa    -0.0327    -4.392    -1.567    -1.465  0.6664  0.5504  0.5029
     6 C(13)  Bbb    -0.0320    -4.293    -1.532    -1.432 -0.2265  0.7921 -0.5667
              Bcc     0.0647     8.686     3.099     2.897  0.7103 -0.2637 -0.6526
 
              Baa    -0.0060    -3.195    -1.140    -1.066  0.3761  0.9226  0.0859
     7 H(1)   Bbb    -0.0025    -1.322    -0.472    -0.441  0.9131 -0.3848  0.1349
              Bcc     0.0085     4.517     1.612     1.507 -0.1575 -0.0277  0.9871
 
              Baa    -0.0085    -4.521    -1.613    -1.508  0.8918  0.2529  0.3752
     8 H(1)   Bbb    -0.0037    -1.995    -0.712    -0.665 -0.1225 -0.6632  0.7383
              Bcc     0.0122     6.516     2.325     2.174 -0.4356  0.7044  0.5604
 
              Baa    -0.0061    -0.812    -0.290    -0.271  0.0983  0.9426  0.3191
     9 C(13)  Bbb    -0.0017    -0.233    -0.083    -0.078  0.6304 -0.3071  0.7130
              Bcc     0.0078     1.045     0.373     0.349  0.7700  0.1310 -0.6244
 
              Baa    -0.0064    -3.437    -1.226    -1.146 -0.0520  0.9983 -0.0264
    10 H(1)   Bbb    -0.0043    -2.291    -0.817    -0.764  0.2203  0.0372  0.9747
              Bcc     0.0107     5.727     2.044     1.910  0.9741  0.0449 -0.2218
 
              Baa    -0.0026    -1.368    -0.488    -0.456  0.0146  0.9938 -0.1105
    11 H(1)   Bbb    -0.0016    -0.841    -0.300    -0.281  0.4835  0.0897  0.8708
              Bcc     0.0041     2.209     0.788     0.737  0.8752 -0.0661 -0.4791
 
              Baa    -0.0032    -1.698    -0.606    -0.566 -0.6077  0.6811 -0.4085
    12 H(1)   Bbb    -0.0024    -1.256    -0.448    -0.419  0.1418  0.5991  0.7880
              Bcc     0.0055     2.954     1.054     0.985  0.7814  0.4209 -0.4607
 
              Baa    -0.0098    -1.309    -0.467    -0.437 -0.1364  0.7000  0.7010
    13 C(13)  Bbb    -0.0094    -1.266    -0.452    -0.422  0.9739 -0.0349  0.2244
              Bcc     0.0192     2.575     0.919     0.859  0.1816  0.7133 -0.6770
 
              Baa    -0.0058    -3.074    -1.097    -1.025  0.7186  0.0999  0.6882
    14 H(1)   Bbb    -0.0051    -2.739    -0.977    -0.914  0.6059 -0.5757 -0.5491
              Bcc     0.0109     5.813     2.074     1.939  0.3413  0.8115 -0.4742
 
              Baa    -0.0035    -1.884    -0.672    -0.628  0.7352  0.5538  0.3909
    15 H(1)   Bbb    -0.0029    -1.523    -0.544    -0.508  0.6777 -0.6108 -0.4095
              Bcc     0.0064     3.407     1.216     1.137 -0.0120 -0.5660  0.8243
 
              Baa    -0.0077    -4.100    -1.463    -1.368  0.7350  0.5474  0.4002
    16 H(1)   Bbb    -0.0058    -3.073    -1.097    -1.025 -0.6186  0.2994  0.7265
              Bcc     0.0134     7.174     2.560     2.393 -0.2778  0.7815 -0.5586
 
              Baa    -0.4797   -64.368   -22.968   -21.471  0.3228 -0.2135  0.9221
    17 C(13)  Bbb    -0.4768   -63.986   -22.832   -21.343  0.3860  0.9192  0.0777
              Bcc     0.9565   128.354    45.800    42.814  0.8642 -0.3308 -0.3792
 
              Baa    -0.0598   -31.912   -11.387   -10.645  0.4474  0.2058  0.8703
    18 H(1)   Bbb    -0.0120    -6.379    -2.276    -2.128  0.8860  0.0301 -0.4626
              Bcc     0.0718    38.291    13.663    12.773 -0.1214  0.9781 -0.1689
 
              Baa    -0.0602   -32.126   -11.463   -10.716 -0.0232  0.7123 -0.7015
    19 H(1)   Bbb    -0.0116    -6.180    -2.205    -2.061  0.6220 -0.5390 -0.5679
              Bcc     0.0718    38.305    13.668    12.777  0.7827  0.4495  0.4305
 

 ---------------------------------------------------------------------------------

 No NMR shielding tensors so no spin-rotation constants.
 Leave Link  601 at Sat Nov  7 02:13:52 2015, MaxMem=   805306368 cpu:         1.1
 (Enter /home/hetanjin/apps/g09D01/g09/l701.exe)
 Compute integral first derivatives.
 ... and contract with generalized density number  0.
 Leave Link  701 at Sat Nov  7 02:13:53 2015, MaxMem=   805306368 cpu:         1.0
 (Enter /home/hetanjin/apps/g09D01/g09/l702.exe)
 L702 exits ... SP integral derivatives will be done elsewhere.
 Leave Link  702 at Sat Nov  7 02:13:53 2015, MaxMem=   805306368 cpu:         0.1
 (Enter /home/hetanjin/apps/g09D01/g09/l703.exe)
 Compute integral first derivatives, UseDBF=F ICtDFT=           0.
 Integral derivatives from FoFJK, PRISM(SPDF).
 Calling FoFJK, ICntrl=      2127 FMM=F ISym2X=0 I1Cent= 0 IOpClX= 1 NMat=1 NMatS=1 NMatT=0.
 FoFJK:  IHMeth= 1 ICntrl=    2127 DoSepK=F KAlg= 0 I1Cent=   0 FoldK=F
 IRaf=         0 NMat=   1 IRICut=       1 DoRegI=T DoRafI=F ISym2E= 0.
 FoFCou: FMM=F IPFlag=           0 FMFlag=      100000 FMFlg1=         800
         NFxFlg=           0 DoJE=F BraDBF=F KetDBF=F FulRan=T
         wScrn=  0.000000 ICntrl=    2127 IOpCl=  1 I1Cent=           0 NGrid=           0
         NMat0=    1 NMatS0=      1 NMatT0=    0 NMatD0=    1 NMtDS0=    0 NMtDT0=    0
 Symmetry not used in FoFCou.
 Leave Link  703 at Sat Nov  7 02:14:02 2015, MaxMem=   805306368 cpu:        35.0
 (Enter /home/hetanjin/apps/g09D01/g09/l716.exe)
 Dipole        = 2.03704271D-01-6.20464924D-02-1.63216489D-01
 ***** Axes restored to original set *****
 -------------------------------------------------------------------
 Center     Atomic                   Forces (Hartrees/Bohr)
 Number     Number              X              Y              Z
 -------------------------------------------------------------------
      1        6           0.001701539    0.001112034   -0.000235414
      2        1          -0.000040187   -0.000076310    0.000013871
      3        1          -0.000254613    0.000120781   -0.000088800
      4        1          -0.000758188    0.000120728    0.000171843
      5        6           0.016084846   -0.011555154    0.003016413
      6        6          -0.004065642    0.000125139    0.004390536
      7        1           0.001455901   -0.000464730   -0.000424927
      8        1          -0.000120022    0.000091643   -0.000315543
      9        6          -0.000599154   -0.000203210   -0.000143619
     10        1           0.000009477    0.000122179   -0.000075150
     11        1           0.000155955    0.000089764   -0.000094252
     12        1           0.000067240    0.000051809    0.000081835
     13        6           0.000299005   -0.000726917   -0.001525442
     14        1           0.000021155   -0.000010519    0.000061377
     15        1          -0.000224069    0.000133526   -0.000025091
     16        1          -0.000590776    0.000350660    0.000320830
     17        6          -0.037755629    0.025356147   -0.007848008
     18        1           0.013647639   -0.004089834    0.003375900
     19        1           0.010965523   -0.010547736   -0.000656358
 -------------------------------------------------------------------
 Cartesian Forces:  Max     0.037755629 RMS     0.007285068
 Leave Link  716 at Sat Nov  7 02:14:02 2015, MaxMem=   805306368 cpu:         0.1
 (Enter /home/hetanjin/apps/g09D01/g09/l103.exe)

 GradGradGradGradGradGradGradGradGradGradGradGradGradGradGradGradGradGrad
 Berny optimization.
 FormGI is forming the generalized inverse of G from B-inverse, IUseBI=4.
 Internal  Forces:  Max     0.013866851 RMS     0.003257325
 Search for a local minimum.
 Step number   1 out of a maximum of  103
 All quantities printed in internal units (Hartrees-Bohrs-Radians)
 RMS Force = .32573D-02 SwitMx=.10000D-02 MixMth= 1
 Mixed Optimization -- RFO/linear search
 Second derivative matrix not updated -- first step.
 ITU=  0
     Eigenvalues ---    0.00230   0.00230   0.00230   0.00230   0.00316
     Eigenvalues ---    0.03068   0.03455   0.04674   0.04701   0.05073
     Eigenvalues ---    0.05293   0.05319   0.05397   0.05404   0.05446
     Eigenvalues ---    0.05447   0.05522   0.09014   0.12691   0.14837
     Eigenvalues ---    0.15122   0.16000   0.16000   0.16000   0.16000
     Eigenvalues ---    0.16000   0.16000   0.16000   0.16000   0.16000
     Eigenvalues ---    0.16000   0.16000   0.21977   0.27481   0.28370
     Eigenvalues ---    0.28418   0.28418   0.29059   0.33721   0.33721
     Eigenvalues ---    0.33969   0.33969   0.33990   0.33990   0.34015
     Eigenvalues ---    0.34017   0.34112   0.34156   0.34156   0.34166
     Eigenvalues ---    0.34166
 RFO step:  Lambda=-1.40753066D-02 EMin= 2.30000000D-03
 Linear search not attempted -- first point.
 Iteration  1 RMS(Cart)=  0.05106951 RMS(Int)=  0.00904136
 Iteration  2 RMS(Cart)=  0.00716908 RMS(Int)=  0.00597032
 Iteration  3 RMS(Cart)=  0.00011037 RMS(Int)=  0.00596976
 Iteration  4 RMS(Cart)=  0.00000246 RMS(Int)=  0.00596976
 Iteration  5 RMS(Cart)=  0.00000008 RMS(Int)=  0.00596976
 ITry= 1 IFail=0 DXMaxC= 2.40D-01 DCOld= 1.00D+10 DXMaxT= 3.00D-01 DXLimC= 3.00D+00 Rises=F
 Variable       Old X    -DE/DX   Delta X   Delta X   Delta X     New X
                                 (Linear)    (Quad)   (Total)
    R1        2.07346  -0.00003   0.00000  -0.00009  -0.00009   2.07337
    R2        2.07346   0.00015   0.00000   0.00042   0.00042   2.07388
    R3        2.07305  -0.00072   0.00000  -0.00204  -0.00204   2.07101
    R4        2.91336   0.00132   0.00000   0.00442   0.00442   2.91778
    R5        2.93287   0.00252   0.00000   0.00874   0.00874   2.94160
    R6        2.91234   0.00107   0.00000   0.00359   0.00359   2.91593
    R7        2.91234  -0.01113   0.00000  -0.03731  -0.03731   2.87503
    R8        2.07803   0.00008   0.00000   0.00022   0.00022   2.07825
    R9        2.07803  -0.00020   0.00000  -0.00056  -0.00056   2.07746
   R10        2.89880   0.00028   0.00000   0.00093   0.00093   2.89973
   R11        2.07051  -0.00013   0.00000  -0.00037  -0.00037   2.07014
   R12        2.07142  -0.00007   0.00000  -0.00018  -0.00018   2.07124
   R13        2.07051  -0.00010   0.00000  -0.00029  -0.00029   2.07022
   R14        2.07067  -0.00001   0.00000  -0.00003  -0.00003   2.07064
   R15        2.07382   0.00011   0.00000   0.00031   0.00031   2.07413
   R16        2.07301  -0.00070   0.00000  -0.00196  -0.00196   2.07104
   R17        2.07382  -0.00043   0.00000  -0.00122  -0.00122   2.07260
   R18        2.07067  -0.00064   0.00000  -0.00181  -0.00181   2.06886
    A1        1.87988   0.00009   0.00000   0.00040   0.00040   1.88028
    A2        1.88010   0.00012   0.00000   0.00020   0.00020   1.88030
    A3        1.94072  -0.00004   0.00000  -0.00055  -0.00055   1.94016
    A4        1.88010   0.00033   0.00000   0.00248   0.00248   1.88258
    A5        1.94072  -0.00016   0.00000  -0.00066  -0.00066   1.94006
    A6        1.93954  -0.00030   0.00000  -0.00169  -0.00169   1.93785
    A7        1.88414   0.00044   0.00000   0.00063   0.00062   1.88477
    A8        1.89923  -0.00060   0.00000   0.00357   0.00352   1.90275
    A9        1.89923   0.00077   0.00000   0.00626   0.00618   1.90541
   A10        1.93449   0.00056   0.00000   0.00236   0.00238   1.93687
   A11        1.93449  -0.00215   0.00000  -0.02092  -0.02090   1.91359
   A12        1.91142   0.00099   0.00000   0.00848   0.00843   1.91985
   A13        1.88615  -0.00180   0.00000  -0.01604  -0.01603   1.87012
   A14        1.88616   0.00010   0.00000   0.00432   0.00429   1.89044
   A15        2.04055   0.00130   0.00000   0.00565   0.00563   2.04618
   A16        1.84789   0.00027   0.00000   0.00078   0.00078   1.84868
   A17        1.89691   0.00051   0.00000   0.00245   0.00245   1.89936
   A18        1.89691  -0.00047   0.00000   0.00240   0.00236   1.89927
   A19        1.95529   0.00003   0.00000   0.00034   0.00034   1.95563
   A20        1.92445  -0.00023   0.00000  -0.00149  -0.00150   1.92296
   A21        1.95528  -0.00003   0.00000  -0.00019  -0.00019   1.95509
   A22        1.87221   0.00011   0.00000   0.00067   0.00067   1.87289
   A23        1.88042   0.00004   0.00000   0.00048   0.00048   1.88089
   A24        1.87221   0.00010   0.00000   0.00027   0.00027   1.87248
   A25        1.95325  -0.00001   0.00000  -0.00033  -0.00034   1.95291
   A26        1.94002  -0.00007   0.00000  -0.00014  -0.00014   1.93988
   A27        1.93250  -0.00034   0.00000  -0.00194  -0.00194   1.93056
   A28        1.88195   0.00003   0.00000   0.00015   0.00015   1.88209
   A29        1.87429   0.00012   0.00000   0.00017   0.00017   1.87446
   A30        1.87869   0.00030   0.00000   0.00226   0.00226   1.88095
   A31        1.94002   0.01306   0.00000   0.14496   0.11536   2.05538
   A32        1.95325   0.01387   0.00000   0.14871   0.11925   2.07250
   A33        1.88195  -0.00084   0.00000   0.12352   0.08702   1.96897
    D1        1.04736  -0.00080   0.00000  -0.00798  -0.00799   1.03937
    D2       -3.13510  -0.00021   0.00000  -0.00272  -0.00272  -3.13782
    D3       -1.05336   0.00109   0.00000   0.01322   0.01323  -1.04013
    D4       -1.04737  -0.00077   0.00000  -0.00767  -0.00768  -1.05505
    D5        1.05335  -0.00018   0.00000  -0.00241  -0.00241   1.05094
    D6        3.13509   0.00111   0.00000   0.01353   0.01354  -3.13455
    D7        3.14159  -0.00088   0.00000  -0.00923  -0.00924   3.13235
    D8       -1.04087  -0.00029   0.00000  -0.00397  -0.00397  -1.04484
    D9        1.04086   0.00101   0.00000   0.01197   0.01199   1.05285
   D10        0.99614  -0.00030   0.00000   0.00140   0.00138   0.99752
   D11       -0.99615   0.00024   0.00000   0.00640   0.00639  -0.98976
   D12        3.14159  -0.00014   0.00000  -0.00438  -0.00441   3.13718
   D13       -1.08232  -0.00016   0.00000  -0.00471  -0.00470  -1.08702
   D14       -3.07460   0.00037   0.00000   0.00028   0.00031  -3.07430
   D15        1.06313  -0.00001   0.00000  -0.01049  -0.01049   1.05264
   D16        3.07459  -0.00034   0.00000  -0.00278  -0.00277   3.07182
   D17        1.08231   0.00020   0.00000   0.00222   0.00223   1.08454
   D18       -1.06314  -0.00019   0.00000  -0.00856  -0.00857  -1.07171
   D19        3.09341   0.00017   0.00000   0.00142   0.00142   3.09484
   D20       -1.08437   0.00016   0.00000   0.00128   0.00128  -1.08308
   D21        1.00293   0.00026   0.00000   0.00275   0.00275   1.00568
   D22       -1.12043   0.00067   0.00000   0.00580   0.00581  -1.11462
   D23        0.98498   0.00066   0.00000   0.00566   0.00567   0.99065
   D24        3.07227   0.00076   0.00000   0.00713   0.00714   3.07941
   D25        1.01930  -0.00099   0.00000  -0.01323  -0.01323   1.00607
   D26        3.12471  -0.00100   0.00000  -0.01337  -0.01337   3.11133
   D27       -1.07118  -0.00090   0.00000  -0.01190  -0.01191  -1.08309
   D28        1.08436  -0.00886   0.00000  -0.18047  -0.18680   0.89756
   D29       -3.09342   0.00871   0.00000   0.18076   0.18703  -2.90639
   D30       -0.98499  -0.00859   0.00000  -0.17266  -0.17896  -1.16395
   D31        1.12042   0.00897   0.00000   0.18857   0.19486   1.31528
   D32       -3.12472  -0.00855   0.00000  -0.16749  -0.17376   2.98471
   D33       -1.01931   0.00902   0.00000   0.19374   0.20007  -0.81924
   D34        1.05782   0.00063   0.00000   0.01147   0.01148   1.06930
   D35        3.14158   0.00063   0.00000   0.01154   0.01155  -3.13006
   D36       -1.05785   0.00058   0.00000   0.01075   0.01075  -1.04709
   D37       -3.08547  -0.00041   0.00000  -0.00385  -0.00386  -3.08933
   D38       -1.00171  -0.00040   0.00000  -0.00379  -0.00379  -1.00550
   D39        1.08205  -0.00046   0.00000  -0.00458  -0.00458   1.07747
   D40       -1.08208  -0.00006   0.00000  -0.00037  -0.00037  -1.08245
   D41        1.00168  -0.00006   0.00000  -0.00030  -0.00031   1.00137
   D42        3.08544  -0.00011   0.00000  -0.00110  -0.00110   3.08434
         Item               Value     Threshold  Converged?
 Maximum Force            0.013867     0.000015     NO 
 RMS     Force            0.003257     0.000010     NO 
 Maximum Displacement     0.239831     0.000060     NO 
 RMS     Displacement     0.048352     0.000040     NO 
 Predicted change in Energy=-1.027564D-02
 Lowest energy point so far.  Saving SCF results.
 GradGradGradGradGradGradGradGradGradGradGradGradGradGradGradGradGradGrad

 Leave Link  103 at Sat Nov  7 02:14:02 2015, MaxMem=   805306368 cpu:         1.5
 (Enter /home/hetanjin/apps/g09D01/g09/l202.exe)
                          Input orientation:                          
 ---------------------------------------------------------------------
 Center     Atomic      Atomic             Coordinates (Angstroms)
 Number     Number       Type             X           Y           Z
 ---------------------------------------------------------------------
      1          6           0        1.609154    0.995315    0.004521
      2          1           0        1.576630    1.648273    0.885653
      3          1           0        1.594317    1.635571   -0.886685
      4          1           0        2.566446    0.461986    0.019421
      5          6           0        0.423716    0.006011   -0.000229
      6          6           0       -0.893986    0.834684   -0.007833
      7          1           0       -0.860653    1.488756   -0.891324
      8          1           0       -0.885827    1.504572    0.863802
      9          6           0       -2.214745    0.053623   -0.019537
     10          1           0       -2.326811   -0.578109    0.868386
     11          1           0       -3.063692    0.746695   -0.035900
     12          1           0       -2.303255   -0.590385   -0.901337
     13          6           0        0.520624   -0.888931   -1.253493
     14          1           0       -0.274395   -1.642514   -1.279901
     15          1           0        0.449358   -0.292728   -2.172269
     16          1           0        1.478079   -1.421816   -1.273973
     17          6           0        0.482260   -0.849959    1.256173
     18          1           0        0.575450   -0.336076    2.220614
     19          1           0       -0.142996   -1.746920    1.311781
 ---------------------------------------------------------------------
                    Distance matrix (angstroms):
                    1          2          3          4          5
     1  C    0.000000
     2  H    1.097181   0.000000
     3  H    1.097450   1.772472   0.000000
     4  H    1.095934   1.771262   1.772953   0.000000
     5  C    1.544023   2.193404   2.193531   2.190797   0.000000
     6  C    2.508318   2.750306   2.757798   3.480551   1.556630
     7  H    2.673194   3.020503   2.459361   3.691710   2.154574
     8  H    2.687496   2.466743   3.038500   3.703803   2.169594
     9  C    3.938218   4.211508   4.214672   4.798757   2.638961
    10  H    4.325938   4.493765   4.832795   5.074102   2.942972
    11  H    4.679630   4.816086   4.817779   5.637604   3.565375
    12  H    4.317634   4.822699   4.488448   5.066485   2.933267
    13  C    2.513539   3.482599   2.767757   2.762368   1.543043
    14  H    3.486493   4.352608   3.793751   3.766635   2.200580
    15  H    2.782552   3.793298   2.584955   3.139293   2.192638
    16  H    2.737562   3.754882   3.084010   2.531032   2.184673
    17  C    2.498311   2.752470   3.465022   2.755829   1.521400
    18  H    2.784280   2.592706   3.818481   3.073471   2.252153
    19  H    3.506966   3.829625   4.392352   3.727001   2.261702
                    6          7          8          9         10
     6  C    0.000000
     7  H    1.099762   0.000000
[...]
 6245,-0.00961117,-0.00071514,-0.12890803,0.13320738,-0.00778582,0.0048
 0987,-0.04978627,0.02345636,-0.01372534,0.00173071,-0.02435186,0.01445
 038,0.00005778,0.00825801,-0.00524395,0.04866882,-0.11988875,-0.041014
 81,0.00790201,0.00033343,0.00121665,-0.00025583,-0.00246516,-0.0007297
 6,-0.00094677,-0.02155261,-0.01745919,0.00046289,0.42079484,-0.0307796
 4,-0.09848881,0.00266346,-0.01504977,-0.01300531,0.00082026,-0.0153748
 9,-0.01232452,-0.00087475,0.01339717,0.01034957,-0.00002732,-0.0255346
 3,0.46576625,-0.00808948,-0.00876854,-0.07111238,-0.02074757,-0.014897
 30,-0.00027145,0.02186339,0.01667745,-0.00075408,-0.00022901,-0.000720
 45,-0.00177164,-0.00269365,-0.00380110,0.49959785,-0.03581829,0.012230
 75,-0.00105641,0.00140730,0.00148822,0.00055663,0.00131013,0.00155581,
 -0.00055692,-0.00377012,-0.00249079,0.00002874,-0.12312085,0.03318327,
 -0.00055037,0.44686129,-0.01509113,0.01066177,-0.00097615,-0.00107892,
 0.00024044,-0.00000998,-0.00079875,0.00019767,0.00007153,-0.00519759,-
 0.00268462,0.00006598,0.04153912,-0.10115648,-0.00200854,0.02430906,0.
 52258290,-0.00068523,-0.00072118,0.00170904,-0.00122082,0.00003209,-0.
 00015056,0.00115385,-0.00016887,-0.00023160,0.00008883,-0.00003195,-0.
 00033767,-0.00469331,0.00007116,-0.07963048,-0.00350154,-0.00100544,0.
 59703275,0.00113195,0.00101758,-0.00106563,-0.00008580,-0.00008800,-0.
 00002792,-0.00062509,-0.00034249,0.00049330,0.00035924,-0.00014376,0.0
 0022835,-0.00171507,0.01526096,-0.02226799,-0.04862326,-0.00812701,0.0
 1153671,0.05884848,-0.00167891,0.00038075,-0.00018865,0.00010571,0.000
 06627,-0.00012977,0.00040578,0.00082493,-0.00035644,-0.00011562,0.0000
 1961,-0.00040599,0.00071941,-0.01280419,0.01715056,-0.00786872,-0.1365
 0387,0.11800635,0.00942056,0.14785495,0.00055159,0.00000219,-0.0000988
 1,-0.00002177,0.00010597,-0.00008898,-0.00058509,-0.00033664,0.0005388
 7,-0.00009535,-0.00033319,0.00031631,0.00072559,0.00000534,-0.00203734
 ,0.01068838,0.11824635,-0.21394831,-0.01216330,-0.13163095,0.23058971,
 0.00110508,0.00114904,0.00130182,-0.00051420,-0.00033319,-0.00049290,-
 0.00011201,-0.00004179,0.00002168,0.00032578,-0.00015550,-0.00023804,-
 0.00200929,0.01623330,0.02207550,-0.04708832,-0.00232904,-0.00329261,-
 0.00035897,0.00107773,0.00127379,0.05873295,-0.00148438,0.00041407,0.0
 0012366,0.00037705,0.00077862,0.00028767,0.00007725,0.00004297,0.00012
 628,-0.00011409,0.00001430,0.00037776,0.00124856,-0.01394474,-0.017011
 65,-0.00236139,-0.13779026,-0.11827006,0.00022270,0.01268979,0.0157526
 8,0.00255298,0.14910489,-0.00042810,0.00009062,-0.00017053,0.00057023,
 0.00033974,0.00049382,-0.00001309,-0.00011684,-0.00002495,0.00010320,0
 .00030368,0.00029527,-0.00025993,0.00065292,-0.00079441,-0.00246208,-0
 .11846103,-0.21315773,-0.00018266,-0.01597609,-0.02194933,0.00384015,0
 .13189654,0.22951083,-0.00278994,0.00354813,-0.00012656,0.00014254,-0.
 00008895,-0.00023361,0.00009423,-0.00005962,0.00022385,-0.00067980,-0.
 00107192,0.00000130,-0.02543268,-0.01021732,-0.00025601,-0.16206143,-0
 .05086849,-0.00180969,-0.00294659,-0.00197632,-0.00030300,-0.00296238,
 -0.00143715,-0.00026387,0.49890358,0.00370998,-0.00317951,0.00027616,0
 .00010575,0.00006137,0.00026802,0.00006268,0.00002876,-0.00031247,0.00
 169742,0.00117118,-0.00002376,0.01374805,0.01437869,0.00046651,-0.0482
 5743,-0.11354700,-0.00040220,-0.01863286,-0.01072129,-0.00149717,-0.01
 864499,-0.01049700,0.00036221,-0.04346152,0.55540443,0.00005657,0.0000
 4823,-0.00039349,0.00027834,0.00027504,0.00025356,-0.00022993,-0.00025
 238,0.00033953,-0.00000079,0.00000376,0.00073857,-0.00073222,-0.000354
 01,-0.00044345,-0.00113170,-0.00120947,-0.08255944,0.02483213,0.013992
 95,0.00170995,-0.02543017,-0.01427278,0.00045380,0.00119713,0.00001631
 ,0.57569351,-0.00014571,-0.00017703,-0.00026068,0.00002080,-0.00001733
 ,0.00004367,0.00023356,0.00024947,-0.00020935,-0.00002891,0.00012577,-
 0.00010508,0.00181340,-0.00002123,0.00078932,-0.00188292,-0.01900189,0
 .02514957,-0.00534496,-0.00337392,-0.00041122,0.00108870,0.00064909,-0
 .00048238,-0.04951320,-0.00990090,0.01322063,0.05272241,-0.00008217,-0
 .00002845,-0.00002713,0.00000200,-0.00004040,0.00001363,0.00012885,0.0
 0008223,-0.00009003,-0.00007315,0.00004751,-0.00006024,0.00080854,0.00
 034580,-0.00021158,-0.00136796,-0.01080495,0.01336302,-0.00327883,-0.0
 0083555,-0.00064021,0.00050873,0.00005208,-0.00014555,-0.01028418,-0.1
 5003125,0.12595858,0.01415527,0.16089330,0.00022419,-0.00010569,0.0000
 7435,-0.00003114,-0.00001381,-0.00002198,-0.00006204,-0.00005713,0.000
 02201,0.00008810,0.00002049,-0.00000813,-0.00010027,0.00073225,-0.0000
 6679,0.00105182,-0.00116041,0.00141500,-0.00049210,-0.00017318,0.00151
 189,0.00054153,0.00004720,0.00066710,0.01353493,0.12585296,-0.21095611
 ,-0.01436665,-0.14021491,0.22634457,-0.00126453,0.00149507,-0.00009698
 ,0.00001357,-0.00003072,-0.00007909,0.00003210,-0.00002135,0.00008813,
 -0.00061717,-0.00043951,0.00000113,-0.00258226,-0.00518242,-0.00005908
 ,-0.02233145,0.02003328,0.00081683,0.00089325,-0.00001297,0.00061461,0
 .00117270,0.00015203,-0.00065841,-0.19998475,0.12987151,0.00884119,0.0
 0238434,-0.00201870,-0.00099995,0.21885187,-0.00079966,0.00058748,-0.0
 0006435,0.00002774,0.00001685,-0.00001647,0.00005407,0.00002487,0.0000
 2787,-0.00032227,-0.00018238,-0.00000857,-0.00257360,-0.00211043,-0.00
 006410,-0.01573201,0.01260127,0.00053968,0.00082210,0.00066851,0.00003
 426,0.00071908,0.00098212,0.00009455,0.13064671,-0.15927314,-0.0072517
 1,0.01472812,-0.01313987,-0.00236850,-0.14076651,0.17137092,0.00005897
 ,0.00018207,0.00025099,0.00001273,0.00003562,-0.00000679,-0.00004124,-
 0.00005653,0.00000041,-0.00005040,-0.00000567,0.00001048,-0.00031095,-
 0.00039342,0.00013015,-0.00074678,0.00043424,-0.00109663,0.00015711,-0
 .00032786,-0.00002104,-0.00025093,0.00040039,0.00020411,0.00904887,-0.
 00730702,-0.05011082,-0.02121195,0.01687719,0.00225286,-0.00926884,0.0
 0860141,0.04859387,-0.00000647,0.00002616,0.00016983,0.00019325,0.0001
 9425,0.00015643,0.00001246,-0.00003794,-0.00000954,-0.00009078,0.00012
 368,0.00011600,0.00119143,-0.00039837,-0.00079618,-0.00171266,-0.01627
 120,-0.02643310,0.00135950,0.00071295,0.00047761,-0.00530298,-0.003225
 66,0.00001244,-0.05135465,-0.01274813,-0.02034300,-0.00072425,0.001440
 15,0.00119737,0.00305077,0.01268287,0.02262442,0.05501844,-0.00001995,
 0.00006858,-0.00015882,0.00005549,0.00006872,0.00010554,0.00001833,-0.
 00002236,0.00000835,-0.00010210,0.00003767,0.00006734,0.00061253,-0.00
 006569,0.00021556,-0.00146436,-0.00995642,-0.01426458,0.00055381,0.000
 21129,0.00014225,-0.00357673,-0.00086027,0.00041720,-0.01311254,-0.124
 70323,-0.11713052,0.00211620,0.01306685,0.01797459,-0.00248654,-0.0116
 4502,-0.01852410,0.01605543,0.13376541,-0.00017417,0.00016471,0.000117
 54,0.00003769,0.00008545,0.00005134,-0.00000162,-0.00002149,-0.0000091
 4,-0.00011325,-0.00002813,-0.00001109,0.00019719,-0.00077796,-0.000316
 38,-0.00069132,0.00095298,0.00113837,-0.00055096,-0.00006433,0.0009300
 6,0.00040562,0.00030386,0.00164328,-0.02120300,-0.11735530,-0.23532730
 ,-0.00165687,-0.01471550,-0.02099937,0.00069092,0.00027727,-0.00049837
 ,0.02195961,0.13109545,0.25297112,-0.00158327,-0.01913723,-0.02206029,
 -0.00448585,-0.00416864,-0.00084664,0.00085446,0.00073660,-0.00026295,
 0.00057904,-0.00048520,-0.00085169,-0.07766866,0.00565582,0.00307034,-
 0.00247469,0.01818960,0.02333256,0.00077670,-0.00089325,0.00016555,-0.
 00494732,0.00378033,0.00054069,0.00040529,0.00066034,0.00046359,-0.000
 17725,-0.00012309,0.00032305,0.00021122,-0.00017292,0.00006113,-0.0007
 2753,0.00050413,0.00009776,0.58138350,-0.00422970,-0.01847297,-0.02104
 326,-0.00280064,-0.00255498,-0.00016480,0.00094908,0.00053781,-0.00072
 022,0.00159600,0.00119892,0.00058426,0.00386977,-0.10965863,-0.0425311
 1,0.00579744,-0.01458672,-0.01591713,-0.00070250,0.00029342,-0.0006482
 7,0.00258720,-0.00132419,0.00017212,0.00054454,0.00053452,0.00128962,0
 .00013441,0.00011350,0.00000298,-0.00048853,-0.00054097,-0.00043448,-0
 .00001732,-0.00009309,-0.00113727,0.00885177,0.54207790,-0.00316165,-0
 .00624945,-0.00260489,0.00076365,0.00113028,0.00079620,0.00070172,0.00
 122350,0.00057451,0.00070232,0.00053199,0.00005520,-0.00079638,-0.0461
 0527,-0.13727424,0.00521912,-0.00360795,-0.00068754,-0.00084946,0.0014
 7249,0.00064197,-0.00121479,0.00181489,0.00095595,-0.00004729,0.000628
 84,0.00010240,0.00002763,-0.00008436,-0.00000052,-0.00045325,-0.000157
 04,0.00012746,0.00009966,-0.00023973,0.00005866,0.00841164,-0.05784782
 ,0.50155256,0.00035615,-0.00002502,-0.00058213,0.00024013,-0.00012154,
 0.00016392,-0.00003412,0.00012898,0.00013511,0.00047046,0.00010959,0.0
 0021514,0.00243964,0.00245902,-0.00053485,-0.00002840,0.00007259,-0.00
 052826,-0.00004283,0.00007429,0.00001956,0.00012573,-0.00019767,-0.000
 02535,-0.00093624,0.00054786,0.00006852,0.00002329,-0.00006496,-0.0000
 3629,0.00011290,0.00015754,0.00012202,-0.00107150,0.00102833,0.0007744
 1,-0.20122003,-0.13150442,-0.00346719,0.21831556,0.00118576,-0.0021440
 1,-0.00409814,-0.00129451,-0.00058141,-0.00029725,0.00041863,0.0004493
 2,0.00003052,-0.00016763,0.00017689,-0.00000085,-0.01383935,-0.0118552
 3,0.00091979,-0.00120132,-0.00008162,0.00042340,0.00005767,-0.00002189
 ,-0.00011068,0.00016092,0.00018675,-0.00001211,-0.00028812,-0.00022538
 ,-0.00086354,0.00006485,0.00001621,0.00001122,0.00009489,0.00041003,0.
 00043769,0.00115608,0.00011768,0.00059085,-0.13055840,-0.16233687,-0.0
 0246920,0.14396918,0.17395239,0.00120578,-0.00273010,-0.00490860,-0.00
 136862,-0.00148071,0.00018422,0.00011980,-0.00026031,0.00022989,0.0001
 8298,0.00023469,-0.00007665,-0.02166392,-0.01633842,-0.00026944,-0.000
 40146,0.00074271,0.00071498,0.00009261,-0.00003279,-0.00000704,-0.0001
 0835,0.00014110,-0.00001825,0.00040295,-0.00011078,0.00034295,0.000145
 15,-0.00001097,-0.00023394,0.00002585,0.00014664,-0.00005231,0.0003152
 0,-0.00018672,0.00012369,-0.00285278,-0.00163218,-0.04965349,0.0029983
 4,0.00491142,0.05121414,-0.00011260,0.00042062,-0.00088376,-0.00010353
 ,-0.00000310,0.00019727,0.00019430,-0.00032618,-0.00010094,-0.00000679
 ,0.00005976,-0.00011207,-0.00113185,-0.00079117,0.00222404,0.00026624,
 -0.00062919,0.00093395,0.00011506,0.00026540,-0.00004154,-0.00002325,-
 0.00001959,-0.00017311,-0.00001009,0.00008058,0.00008805,0.00010750,-0
 .00000080,-0.00018011,-0.00001732,0.00003223,-0.00007030,-0.00012177,-
 0.00019652,0.00000371,-0.05015415,0.00333699,-0.00629795,0.00181183,-0
 .01350340,0.02230738,0.04819857,0.00034755,0.00107416,-0.00026049,0.00
 021742,0.00022490,0.00014952,-0.00004945,-0.00006431,0.00010328,-0.000
 10500,-0.00009134,0.00004106,-0.00126273,0.01050079,-0.01690768,-0.000
 14253,0.00119719,-0.00033296,-0.00006268,-0.00005947,0.00023952,-0.000
 27947,0.00018915,0.00013568,-0.00001540,0.00007195,0.00012531,-0.00004
 165,-0.00007604,-0.00010955,0.00000318,0.00005187,0.00000682,-0.000025
 54,-0.00011505,0.00005624,0.00368110,-0.12818202,0.11991109,0.00240030
 ,-0.01152606,0.01729836,-0.00444471,0.13730004,0.00070759,0.00163943,0
 .00075986,0.00017361,-0.00020189,0.00045421,-0.00061857,-0.00102467,0.
 00047697,-0.00003084,-0.00010574,-0.00001274,-0.00120224,0.01540269,-0
 .02243488,-0.00079741,0.00167485,0.00043908,0.00052404,-0.00101964,0.0
 0048594,-0.00020331,-0.00016215,0.00045460,0.00028883,-0.00020516,-0.0
 0002308,-0.00022058,-0.00004930,0.00014370,0.00007970,0.00000803,0.000
 03550,0.00017095,0.00014166,-0.00008687,-0.00660025,0.11894514,-0.2294
 7223,0.00058212,-0.00083979,0.00157796,0.00663183,-0.12991992,0.251603
 36,0.00069103,-0.00087481,-0.00053048,0.00023284,-0.00007934,0.0001511
 2,-0.00002492,-0.00002422,0.00007064,0.00059702,0.00017762,-0.00005976
 ,-0.00220130,0.00034913,-0.00015040,0.00089236,-0.00054575,0.00068130,
 0.00002548,-0.00004354,-0.00012600,-0.00003066,0.00021499,0.00007042,0
 .00001853,0.00007743,-0.00037579,-0.00000544,-0.00002219,0.00006402,-0
 .00001064,0.00014636,0.00016296,0.00031262,0.00011592,0.00031936,-0.24
 149283,0.11481858,-0.00294344,-0.02084109,0.01335189,-0.00088669,0.000
 28862,-0.00076084,-0.00044954,0.26112392,0.00150886,0.00031519,0.00080
 725,-0.00028286,0.00039067,0.00013344,0.00000143,-0.00013636,-0.000018
 82,-0.00093641,-0.00008611,-0.00042233,0.01698110,-0.01157701,0.000755
 34,-0.00132942,-0.00183812,-0.00419583,-0.00030264,0.00037635,0.000017
 44,0.00138099,-0.00073031,-0.00035907,-0.00067301,-0.00007313,-0.00026
 195,0.00009397,0.00003167,-0.00006310,0.00010767,0.00016994,0.00017799
 ,0.00014658,0.00015096,0.00038922,0.11409640,-0.11676046,0.00273710,-0
 .01915325,0.01287497,-0.00045656,0.01560947,-0.00941844,-0.00034448,-0
 .12654887,0.12549278,0.00101572,0.00077178,0.00087125,0.00007836,0.000
 37154,-0.00002536,-0.00019401,-0.00000363,-0.00002822,-0.00058074,-0.0
 0007400,0.00010054,0.02392591,-0.01413791,-0.00036997,-0.00098509,-0.0
 0236626,-0.00473345,-0.00004486,-0.00029366,0.00019515,0.00140208,-0.0
 0122475,0.00017432,-0.00051393,-0.00024114,-0.00006357,0.00002308,0.00
 006388,0.00002656,0.00005729,0.00007253,0.00007072,0.00013377,0.000237
 03,0.00011013,-0.00365064,0.00323826,-0.04869094,0.00017794,0.00032396
 ,-0.00085490,-0.02498942,0.01331683,0.00050947,0.00387018,0.00013280,0
 .05133322,-0.00140852,-0.01394697,0.01839761,0.00049039,0.00094412,-0.
 00004478,-0.00257806,-0.00390311,0.00145459,0.00130871,-0.00044331,0.0
 0051234,-0.05153374,0.01764244,0.00509804,-0.00206214,0.01589452,-0.02
 053140,-0.00360625,0.00316425,-0.00068678,0.00051758,-0.00019939,-0.00
 020430,-0.00110202,0.00085486,-0.00042264,-0.00019154,0.00023642,-0.00
 077967,0.00011090,0.00048265,-0.00038344,0.00001343,-0.00009954,-0.000
 05402,-0.00008915,-0.00245567,0.00336589,0.00062566,0.00042475,-0.0001
 8366,0.00043143,0.00081061,0.00120804,0.00020771,-0.00055610,0.0005949
 6,0.18470655,-0.00808399,-0.01885369,0.01887143,0.00095675,0.00081421,
 0.00109482,-0.00276140,-0.00226122,0.00144818,0.00138289,0.00125188,-0
 .00066652,0.01687854,-0.11565461,0.06053260,0.00579973,-0.01923171,0.0
 1978825,0.00368305,-0.00206693,0.00066422,-0.00079400,0.00068849,0.001
 01639,-0.00111808,0.00068060,0.00015010,0.00040647,0.00030313,-0.00033
 370,-0.00042958,-0.00001192,-0.00016635,0.00018726,-0.00001007,0.00008
 384,-0.00072499,0.01110013,-0.01323716,-0.00013474,0.00044383,-0.00054
 408,0.00047007,-0.00207320,-0.00466368,0.00044591,0.00028491,-0.001022
 31,-0.20700477,0.51305846,0.00997625,0.01240815,-0.00583500,-0.0011059
 9,-0.00132600,0.00082031,-0.00028715,0.00001943,0.00059143,-0.00107688
 ,-0.00055581,-0.00015407,0.00738459,0.05781111,-0.17142476,-0.00705569
 ,0.00804799,-0.00223469,0.00107124,-0.00128938,0.00076959,0.00081301,-
 0.00164291,0.00065162,0.00008342,-0.00099881,0.00032425,0.00012958,0.0
 0047148,-0.00018259,0.00061209,0.00031185,-0.00002327,0.00001326,0.000
 17302,-0.00010653,0.00167779,0.01213634,-0.03519716,0.00027606,0.00133
 838,0.00170968,0.00022476,-0.00264203,-0.00379309,-0.00060646,0.001193
 49,0.00142169,-0.09171159,0.00576546,0.54005064,0.00014216,0.00073601,
 -0.00092311,-0.00004026,-0.00039470,-0.00003396,0.00019311,0.00013070,
 -0.00019612,-0.00007647,-0.00003087,0.00014397,0.00148591,0.00154379,0
 .00009204,0.00062766,-0.00086561,-0.00078944,-0.00012189,-0.00010569,0
 .00016361,0.00023736,-0.00002110,0.00002371,0.00009385,0.00007197,-0.0
 0018357,-0.00040023,-0.00004448,-0.00014325,-0.00001832,-0.00008292,0.
 00009397,0.00002313,-0.00001106,0.00007086,0.00041784,-0.00063744,-0.0
 0059720,-0.00000784,0.00007015,-0.00006035,0.00031717,0.00005021,-0.00
 020666,0.00012092,-0.00013391,-0.00016579,-0.04119341,0.04785115,0.073
 81591,0.03871318,0.00051212,0.00073492,-0.00021461,-0.00011000,-0.0001
 8466,-0.00024227,0.00007723,-0.00006295,-0.00018605,-0.00015175,-0.000
 10305,0.00006195,-0.00474526,0.00947490,0.01407724,-0.00015465,0.00134
 007,0.00032636,-0.00023678,0.00002630,-0.00018971,-0.00003809,-0.00023
 598,-0.00028822,0.00020454,0.00007287,-0.00020593,-0.00018674,-0.00005
 902,0.00004826,0.00002144,-0.00003991,0.00007260,-0.00006372,-0.000060
 18,0.00003286,0.00025625,-0.00202433,0.00187776,0.00019076,0.00004315,
 0.00003714,-0.00014217,0.00087247,0.00077018,-0.00034121,0.00004965,0.
 00021190,0.05193711,-0.09737444,-0.09918798,-0.05279557,0.09299909,-0.
 00057449,-0.00066513,-0.00014239,0.00036527,0.00057200,0.00029263,0.00
 010184,0.00032236,0.00009498,0.00000668,0.00004735,0.00001489,0.005183
 13,-0.01403195,-0.01419149,0.00121128,-0.00154680,0.00035599,0.0000022
 8,0.00015038,0.00040918,-0.00045788,0.00100318,0.00038133,-0.00018824,
 0.00037422,-0.00016454,-0.00038313,-0.00029978,0.00000268,-0.00011297,
 -0.00010181,0.00012679,0.00017396,-0.00002030,0.00020719,-0.00002509,0
 .00461899,-0.00309709,-0.00010045,-0.00006621,0.00015970,0.00011664,-0
 .00093833,-0.00143461,0.00014304,-0.00004286,0.00024653,0.07932185,-0.
 09675369,-0.27208887,-0.08296854,0.10485923,0.28489625,-0.00044171,0.0
 0053704,-0.00084680,0.00000065,-0.00013988,0.00011561,0.00003999,0.000
 28365,0.00004911,-0.00019624,0.00003077,0.00008009,0.00324358,-0.00237
 544,0.00116193,-0.00039045,0.00076640,-0.00020820,-0.00003894,0.000122
 87,-0.00024624,0.00004351,-0.00021454,-0.00000754,0.00011576,0.0001574
 3,-0.00019634,0.00002041,0.00008057,0.00016645,-0.00000719,-0.00004959
 ,-0.00000736,-0.00006245,0.00000915,-0.00011191,0.00039269,0.00035045,
 0.00053695,-0.00033929,-0.00010203,-0.00027022,-0.00004937,-0.00032038
 ,-0.00003730,0.00009583,-0.00001000,-0.00015482,-0.08464753,0.14298974
 ,0.00576579,-0.00051388,0.00576648,-0.00181516,0.08273461,0.00045771,0
 .00029699,-0.00031821,0.00002601,0.00003259,0.00007233,-0.00022303,0.0
 0009520,0.00014942,-0.00063513,-0.00009204,0.00012628,0.00953706,-0.00
 817036,-0.00387298,-0.00199370,-0.00063953,0.00275988,0.00087913,-0.00
 039898,0.00017659,-0.00017715,0.00023953,-0.00012272,-0.00027129,-0.00
 015343,-0.00005761,-0.00000294,0.00006324,-0.00008997,0.00009775,0.000
 05979,-0.00001058,0.00006248,0.00004420,0.00006725,-0.00014861,0.00067
 901,-0.00132994,0.00006317,0.00010125,0.00027155,-0.00021827,0.0001234
 1,-0.00004555,-0.00045705,0.00048283,0.00062316,0.13621714,-0.27108786
 ,0.00796624,0.00466940,-0.00546890,0.00251917,-0.14788269,0.28379306,-
 0.00085058,0.00002309,-0.00077384,0.00009524,0.00009320,0.00002373,0.0
 0041078,0.00018876,-0.00005683,0.00035982,-0.00003884,0.00016967,-0.01
 212584,0.01868292,0.00343519,0.00118081,0.00211541,-0.00403712,-0.0012
 9290,0.00111601,0.00005221,0.00001379,0.00030910,0.00022917,0.00016392
 ,0.00020861,0.00008328,-0.00022075,-0.00019823,0.00000871,-0.00009918,
 -0.00008155,0.00000587,-0.00003867,-0.00005321,0.00000367,-0.00099376,
 0.00108882,0.00181319,-0.00025864,-0.00022946,-0.00018260,0.00012156,-
 0.00027275,0.00031684,0.00059552,-0.00017906,-0.00029317,0.00504899,0.
 00797222,-0.05529918,0.01186392,-0.02186072,0.00393083,-0.00397403,-0.
 00888433,0.05057038\\-0.00000016,-0.00000021,-0.00000035,0.00000026,0.
 00000017,-0.00000037,0.00000007,-0.00000020,-0.00000043,0.00000002,-0.
 00000008,-0.00000023,-0.00000042,0.00000072,0.00000056,0.00000070,-0.0
 0000032,-0.00000034,0.00000004,-0.00000002,-0.00000029,0.00000018,0.00
 000013,-0.00000023,0.,0.00000008,0.00000019,0.00000003,0.00000023,0.00
 000035,0.00000012,0.00000022,0.00000007,-0.00000006,-0.00000008,0.0000
 0025,-0.00000025,-0.00000072,-0.00000027,-0.00000031,-0.00000017,0.000
 00038,-0.00000018,-0.00000041,0.00000003,-0.00000023,-0.00000011,0.000
 00037,0.00000035,0.00000012,-0.00000024,0.00000007,0.00000036,0.000000
 11,-0.00000022,0.00000030,0.00000045\\\@


 THE MOST SERIOUS THREAT TO THE SURVIVAL OF MANKIND IS NOT NOW
 IGNORANCE IN THE TRADITIONAL SENSE,
 BUT A MORALLY NEUTRAL, AN INSENSITIVE OR INHIBITED HUMAN INTELLIGENCE.

                     -- MARGO JEFFERSON IN NEWSWEEK, SEPTEMBER 2, 1974
 Job cpu time:       0 days  0 hours 29 minutes 30.0 seconds.
 File lengths (MBytes):  RWF=     64 Int=      0 D2E=      0 Chk=      3 Scr=      1
 Normal termination of Gaussian 09 at Sat Nov  7 02:36:26 2015.
