 Entering Gaussian System, Link 0=/share/apps/g09/g09
 Input=C6H14_5_02_1_opt_B3L.gjf
 Output=C6H14_5_02_1_opt_B3L.log
 Initial command:
 /share/apps/g09/l1.exe /state/partition1/Gau-596.inp -scrdir=/state/partition1/
 Entering Link 1 = /share/apps/g09/l1.exe PID=       597.
  
 Copyright (c) 1988,1990,1992,1993,1995,1998,2003,2009, Gaussian, Inc.
                  All Rights Reserved.
  
 This is part of the Gaussian(R) 09 program.  It is based on
 the Gaussian(R) 03 system (copyright 2003, Gaussian, Inc.),
 the Gaussian(R) 98 system (copyright 1998, Gaussian, Inc.),
 the Gaussian(R) 94 system (copyright 1995, Gaussian, Inc.),
 the Gaussian 92(TM) system (copyright 1992, Gaussian, Inc.),
 the Gaussian 90(TM) system (copyright 1990, Gaussian, Inc.),
 the Gaussian 88(TM) system (copyright 1988, Gaussian, Inc.),
 the Gaussian 86(TM) system (copyright 1986, Carnegie Mellon
 University), and the Gaussian 82(TM) system (copyright 1983,
 Carnegie Mellon University). Gaussian is a federally registered
 trademark of Gaussian, Inc.
  
 This software contains proprietary and confidential information,
 including trade secrets, belonging to Gaussian, Inc.
  
 This software is provided under written license and may be
 used, copied, transmitted, or stored only in accord with that
 written license.
  
 The following legend is applicable only to US Government
 contracts under FAR:
  
                    RESTRICTED RIGHTS LEGEND
  
 Use, reproduction and disclosure by the US Government is
 subject to restrictions as set forth in subparagraphs (a)
 and (c) of the Commercial Computer Software - Restricted
 Rights clause in FAR 52.227-19.
  
 Gaussian, Inc.
 340 Quinnipiac St., Bldg. 40, Wallingford CT 06492
  
  
 ---------------------------------------------------------------
 Warning -- This program may not be used in any manner that
 competes with the business of Gaussian, Inc. or will provide
 assistance to any competitor of Gaussian, Inc.  The licensee
 of this program is prohibited from giving any competitor of
 Gaussian, Inc. access to this program.  By using this program,
 the user acknowledges that Gaussian, Inc. is engaged in the
 business of creating and licensing software in the field of
 computational chemistry and represents and warrants to the
 licensee that it is not a competitor of Gaussian, Inc. and that
 it will not use this program in any manner prohibited above.
 ---------------------------------------------------------------
  

 Cite this work as:
 Gaussian 09, Revision A.01,
 M. J. Frisch, G. W. Trucks, H. B. Schlegel, G. E. Scuseria, 
 M. A. Robb, J. R. Cheeseman, G. Scalmani, V. Barone, B. Mennucci, 
 G. A. Petersson, H. Nakatsuji, M. Caricato, X. Li, H. P. Hratchian, 
 A. F. Izmaylov, J. Bloino, G. Zheng, J. L. Sonnenberg, M. Hada, 
 M. Ehara, K. Toyota, R. Fukuda, J. Hasegawa, M. Ishida, T. Nakajima, 
 Y. Honda, O. Kitao, H. Nakai, T. Vreven, J. A. Montgomery, Jr., 
 J. E. Peralta, F. Ogliaro, M. Bearpark, J. J. Heyd, E. Brothers, 
 K. N. Kudin, V. N. Staroverov, R. Kobayashi, J. Normand, 
 K. Raghavachari, A. Rendell, J. C. Burant, S. S. Iyengar, J. Tomasi, 
 M. Cossi, N. Rega, J. M. Millam, M. Klene, J. E. Knox, J. B. Cross, 
 V. Bakken, C. Adamo, J. Jaramillo, R. Gomperts, R. E. Stratmann, 
 O. Yazyev, A. J. Austin, R. Cammi, C. Pomelli, J. W. Ochterski, 
 R. L. Martin, K. Morokuma, V. G. Zakrzewski, G. A. Voth, 
 P. Salvador, J. J. Dannenberg, S. Dapprich, A. D. Daniels, 
 O. Farkas, J. B. Foresman, J. V. Ortiz, J. Cioslowski, 
 and D. J. Fox, Gaussian, Inc., Wallingford CT, 2009.
 
 ******************************************
 Gaussian 09:  EM64L-G09RevA.01  8-May-2009
                18-Sep-2015 
 ******************************************
 %mem=3GB
 %nprocshared=2
 Will use up to    2 processors via shared memory.
 -----------------------------------------
 #p B3LYP/6-31G(d) opt=tight int=ultrafine
 -----------------------------------------
 1/7=10,14=-1,18=20,19=15,26=3,38=1/1,3;
 2/9=110,12=2,17=6,18=5,40=1/2;
 3/5=1,6=6,7=1,11=2,16=1,25=1,30=1,71=1,74=-5,75=-5/1,2,3;
 4//1;
 5/5=2,38=5/2;
 6/7=2,8=2,9=2,10=2,28=1/1;
 7//1,2,3,16;
 1/7=10,14=-1,18=20,19=15/3(2);
 2/9=110/2;
 99//99;
 2/9=110/2;
 3/5=1,6=6,7=1,11=2,16=1,25=1,30=1,71=1,74=-5,75=-5/1,2,3;
 4/5=5,16=3/1;
 5/5=2,38=5/2;
 7//1,2,3,16;
 1/7=10,14=-1,18=20,19=15/3(-5);
 2/9=110/2;
 6/7=2,8=2,9=2,10=2,19=2,28=1/1;
 99/9=1/99;
 Leave Link    1 at Fri Sep 18 13:24:31 2015, MaxMem=  402653184 cpu:       0.1
 (Enter /share/apps/g09/l101.exe)
 ---------------------------------------------
 using B3LYP/6-31G(d) to do opt and freq calc.
 ---------------------------------------------
 Symbolic Z-matrix:
 Charge =  0 Multiplicity = 1
 C                    -0.49414  -0.88653   1.25861 
 H                    -0.42502  -0.28826   2.17207 
 H                     0.32563  -1.61173   1.27787 
 H                    -1.43064  -1.45074   1.30333 
 C                    -0.43171  -0.00157   0. 
 C                     0.86307   0.85616  -0.00071 
 H                     0.8511    1.52562   0.88114 
 H                     0.85104   1.52422  -0.88364 
 C                     2.15741   0.04785  -0.00005 
 H                     2.23124  -0.59854  -0.88202 
 H                     3.03153   0.70854  -0.00288 
 H                     2.23333  -0.5937    0.88525 
 C                    -0.49556  -0.88639  -1.25867 
 H                    -0.42936  -0.28785  -2.17217 
 H                     0.3253   -1.61032  -1.27987 
 H                    -1.4313   -1.45201  -1.30144 
 C                    -1.64219   0.95772   0.00074 
 H                    -2.58651   0.40446   0.00072 
 H                    -1.64361   1.603     0.88416 
 H                    -1.64407   1.60383  -0.88206 
 
 NAtoms=     20 NQM=     20 NQMF=      0 NMic=      0 NMicF=      0 NTot=     20.
                    Isotopes and Nuclear Properties:
 (Nuclear quadrupole moments (NQMom) in fm**2, nuclear magnetic moments (NMagM)
  in nuclear magnetons)

  Atom         1           2           3           4           5           6           7           8           9          10
 IAtWgt=          12           1           1           1          12          12           1           1          12           1
 AtmWgt=  12.0000000   1.0078250   1.0078250   1.0078250  12.0000000  12.0000000   1.0078250   1.0078250  12.0000000   1.0078250
 NucSpn=           0           1           1           1           0           0           1           1           0           1
 AtZEff=   0.0000000   0.0000000   0.0000000   0.0000000   0.0000000   0.0000000   0.0000000   0.0000000   0.0000000   0.0000000
 NQMom=    0.0000000   0.0000000   0.0000000   0.0000000   0.0000000   0.0000000   0.0000000   0.0000000   0.0000000   0.0000000
 NMagM=    0.0000000   2.7928460   2.7928460   2.7928460   0.0000000   0.0000000   2.7928460   2.7928460   0.0000000   2.7928460

  Atom        11          12          13          14          15          16          17          18          19          20
 IAtWgt=           1           1          12           1           1           1          12           1           1           1
 AtmWgt=   1.0078250   1.0078250  12.0000000   1.0078250   1.0078250   1.0078250  12.0000000   1.0078250   1.0078250   1.0078250
 NucSpn=           1           1           0           1           1           1           0           1           1           1
 AtZEff=   0.0000000   0.0000000   0.0000000   0.0000000   0.0000000   0.0000000   0.0000000   0.0000000   0.0000000   0.0000000
 NQMom=    0.0000000   0.0000000   0.0000000   0.0000000   0.0000000   0.0000000   0.0000000   0.0000000   0.0000000   0.0000000
 NMagM=    2.7928460   2.7928460   0.0000000   2.7928460   2.7928460   2.7928460   0.0000000   2.7928460   2.7928460   2.7928460
 Leave Link  101 at Fri Sep 18 13:24:31 2015, MaxMem=  402653184 cpu:       0.2
 (Enter /share/apps/g09/l103.exe)

 GradGradGradGradGradGradGradGradGradGradGradGradGradGradGradGradGradGrad
 Berny optimization.
 Initialization pass.
                           ----------------------------
                           !    Initial Parameters    !
                           ! (Angstroms and Degrees)  !
 --------------------------                            --------------------------
 ! Name  Definition              Value          Derivative Info.                !
 --------------------------------------------------------------------------------
 ! R1    R(1,2)                  1.0941         estimate D2E/DX2                !
 ! R2    R(1,3)                  1.0947         estimate D2E/DX2                !
 ! R3    R(1,4)                  1.0942         estimate D2E/DX2                !
 ! R4    R(1,5)                  1.5399         estimate D2E/DX2                !
 ! R5    R(5,6)                  1.5531         estimate D2E/DX2                !
 ! R6    R(5,13)                 1.5399         estimate D2E/DX2                !
 ! R7    R(5,17)                 1.5445         estimate D2E/DX2                !
 ! R8    R(6,7)                  1.1072         estimate D2E/DX2                !
 ! R9    R(6,8)                  1.1072         estimate D2E/DX2                !
 ! R10   R(6,9)                  1.526          estimate D2E/DX2                !
 ! R11   R(9,10)                 1.096          estimate D2E/DX2                !
 ! R12   R(9,11)                 1.0957         estimate D2E/DX2                !
 ! R13   R(9,12)                 1.0959         estimate D2E/DX2                !
 ! R14   R(13,14)                1.0941         estimate D2E/DX2                !
 ! R15   R(13,15)                1.0947         estimate D2E/DX2                !
 ! R16   R(13,16)                1.0942         estimate D2E/DX2                !
 ! R17   R(17,18)                1.0944         estimate D2E/DX2                !
 ! R18   R(17,19)                1.094          estimate D2E/DX2                !
 ! R19   R(17,20)                1.094          estimate D2E/DX2                !
 ! A1    A(2,1,3)              107.4728         estimate D2E/DX2                !
 ! A2    A(2,1,4)              107.5709         estimate D2E/DX2                !
 ! A3    A(2,1,5)              111.4437         estimate D2E/DX2                !
 ! A4    A(3,1,4)              107.3735         estimate D2E/DX2                !
 ! A5    A(3,1,5)              111.3926         estimate D2E/DX2                !
 ! A6    A(4,1,5)              111.3722         estimate D2E/DX2                !
 ! A7    A(1,5,6)              110.5828         estimate D2E/DX2                !
 ! A8    A(1,5,13)             109.6447         estimate D2E/DX2                !
 ! A9    A(1,5,17)             108.9523         estimate D2E/DX2                !
 ! A10   A(6,5,13)             110.5805         estimate D2E/DX2                !
 ! A11   A(6,5,17)             108.0812         estimate D2E/DX2                !
 ! A12   A(13,5,17)            108.9524         estimate D2E/DX2                !
 ! A13   A(5,6,7)              108.937          estimate D2E/DX2                !
 ! A14   A(5,6,8)              108.9362         estimate D2E/DX2                !
 ! A15   A(5,6,9)              114.4927         estimate D2E/DX2                !
 ! A16   A(7,6,8)              105.6748         estimate D2E/DX2                !
 ! A17   A(7,6,9)              109.2132         estimate D2E/DX2                !
 ! A18   A(8,6,9)              109.2174         estimate D2E/DX2                !
 ! A19   A(6,9,10)             111.666          estimate D2E/DX2                !
 ! A20   A(6,9,11)             110.9316         estimate D2E/DX2                !
 ! A21   A(6,9,12)             111.6647         estimate D2E/DX2                !
 ! A22   A(10,9,11)            107.4463         estimate D2E/DX2                !
 ! A23   A(10,9,12)            107.4663         estimate D2E/DX2                !
 ! A24   A(11,9,12)            107.4457         estimate D2E/DX2                !
 ! A25   A(5,13,14)            111.4447         estimate D2E/DX2                !
 ! A26   A(5,13,15)            111.3913         estimate D2E/DX2                !
 ! A27   A(5,13,16)            111.372          estimate D2E/DX2                !
 ! A28   A(14,13,15)           107.4714         estimate D2E/DX2                !
 ! A29   A(14,13,16)           107.5705         estimate D2E/DX2                !
 ! A30   A(15,13,16)           107.3758         estimate D2E/DX2                !
 ! A31   A(5,17,18)            111.2383         estimate D2E/DX2                !
 ! A32   A(5,17,19)            111.5771         estimate D2E/DX2                !
 ! A33   A(5,17,20)            111.5787         estimate D2E/DX2                !
 ! A34   A(18,17,19)           107.2817         estimate D2E/DX2                !
 ! A35   A(18,17,20)           107.281          estimate D2E/DX2                !
 ! A36   A(19,17,20)           107.6544         estimate D2E/DX2                !
 ! D1    D(2,1,5,6)             56.3545         estimate D2E/DX2                !
 ! D2    D(2,1,5,13)           178.5459         estimate D2E/DX2                !
 ! D3    D(2,1,5,17)           -62.2974         estimate D2E/DX2                !
 ! D4    D(3,1,5,6)            -63.6667         estimate D2E/DX2                !
 ! D5    D(3,1,5,13)            58.5246         estimate D2E/DX2                !
 ! D6    D(3,1,5,17)           177.6814         estimate D2E/DX2                !
 ! D7    D(4,1,5,6)            176.4866         estimate D2E/DX2                !
 ! D8    D(4,1,5,13)           -61.322          estimate D2E/DX2                !
 ! D9    D(4,1,5,17)            57.8348         estimate D2E/DX2                !
 ! D10   D(1,5,6,7)            -61.8299         estimate D2E/DX2                !
 ! D11   D(1,5,6,8)           -176.645          estimate D2E/DX2                !
 ! D12   D(1,5,6,9)             60.7602         estimate D2E/DX2                !
 ! D13   D(13,5,6,7)           176.529          estimate D2E/DX2                !
 ! D14   D(13,5,6,8)            61.7139         estimate D2E/DX2                !
 ! D15   D(13,5,6,9)           -60.881          estimate D2E/DX2                !
 ! D16   D(17,5,6,7)            57.3501         estimate D2E/DX2                !
 ! D17   D(17,5,6,8)           -57.465          estimate D2E/DX2                !
 ! D18   D(17,5,6,9)           179.9402         estimate D2E/DX2                !
 ! D19   D(1,5,13,14)         -178.6523         estimate D2E/DX2                !
 ! D20   D(1,5,13,15)          -58.633          estimate D2E/DX2                !
 ! D21   D(1,5,13,16)           61.2157         estimate D2E/DX2                !
 ! D22   D(6,5,13,14)          -56.4595         estimate D2E/DX2                !
 ! D23   D(6,5,13,15)           63.5597         estimate D2E/DX2                !
 ! D24   D(6,5,13,16)         -176.5916         estimate D2E/DX2                !
 ! D25   D(17,5,13,14)          62.191          estimate D2E/DX2                !
 ! D26   D(17,5,13,15)        -177.7897         estimate D2E/DX2                !
 ! D27   D(17,5,13,16)         -57.941          estimate D2E/DX2                !
 ! D28   D(1,5,17,18)          -59.823          estimate D2E/DX2                !
 ! D29   D(1,5,17,19)           59.941          estimate D2E/DX2                !
 ! D30   D(1,5,17,20)         -179.5872         estimate D2E/DX2                !
 ! D31   D(6,5,17,18)          179.9694         estimate D2E/DX2                !
 ! D32   D(6,5,17,19)          -60.2666         estimate D2E/DX2                !
 ! D33   D(6,5,17,20)           60.2051         estimate D2E/DX2                !
 ! D34   D(13,5,17,18)          59.7645         estimate D2E/DX2                !
 ! D35   D(13,5,17,19)         179.5285         estimate D2E/DX2                !
 ! D36   D(13,5,17,20)         -59.9998         estimate D2E/DX2                !
 ! D37   D(5,6,9,10)            60.0476         estimate D2E/DX2                !
 ! D38   D(5,6,9,11)           179.8723         estimate D2E/DX2                !
 ! D39   D(5,6,9,12)           -60.3047         estimate D2E/DX2                !
 ! D40   D(7,6,9,10)          -177.5122         estimate D2E/DX2                !
 ! D41   D(7,6,9,11)           -57.6875         estimate D2E/DX2                !
 ! D42   D(7,6,9,12)            62.1355         estimate D2E/DX2                !
 ! D43   D(8,6,9,10)           -62.3947         estimate D2E/DX2                !
 ! D44   D(8,6,9,11)            57.4299         estimate D2E/DX2                !
 ! D45   D(8,6,9,12)           177.253          estimate D2E/DX2                !
 --------------------------------------------------------------------------------
 Trust Radius=3.00D-01 FncErr=1.00D-07 GrdErr=1.00D-06
 Number of steps in this run= 110 maximum allowed number of steps= 120.
 GradGradGradGradGradGradGradGradGradGradGradGradGradGradGradGradGradGrad

 Leave Link  103 at Fri Sep 18 13:24:31 2015, MaxMem=  402653184 cpu:       0.0
 (Enter /share/apps/g09/l202.exe)
                          Input orientation:                          
 ---------------------------------------------------------------------
 Center     Atomic      Atomic             Coordinates (Angstroms)
 Number     Number       Type             X           Y           Z
 ---------------------------------------------------------------------
      1          6           0       -0.494136   -0.886527    1.258610
      2          1           0       -0.425022   -0.288260    2.172074
      3          1           0        0.325625   -1.611732    1.277871
      4          1           0       -1.430636   -1.450743    1.303325
      5          6           0       -0.431711   -0.001568    0.000000
      6          6           0        0.863073    0.856163   -0.000713
      7          1           0        0.851102    1.525618    0.881144
      8          1           0        0.851042    1.524220   -0.883638
      9          6           0        2.157415    0.047846   -0.000049
     10          1           0        2.231242   -0.598543   -0.882016
     11          1           0        3.031528    0.708536   -0.002879
     12          1           0        2.233325   -0.593703    0.885250
     13          6           0       -0.495557   -0.886387   -1.258670
     14          1           0       -0.429358   -0.287851   -2.172173
     15          1           0        0.325297   -1.610319   -1.279873
     16          1           0       -1.431295   -1.452012   -1.301440
     17          6           0       -1.642194    0.957722    0.000744
     18          1           0       -2.586505    0.404464    0.000722
     19          1           0       -1.643612    1.603000    0.884161
     20          1           0       -1.644073    1.603833   -0.882062
 ---------------------------------------------------------------------
                    Distance matrix (angstroms):
                    1          2          3          4          5
     1  C    0.000000
     2  H    1.094128   0.000000
     3  H    1.094670   1.764837   0.000000
     4  H    1.094245   1.765602   1.763808   0.000000
     5  C    1.539853   2.190923   2.190694   2.190118   0.000000
     6  C    2.542613   2.773066   2.830924   3.504773   1.553116
     7  H    2.787578   2.566154   3.205695   3.774028   2.180441
     8  H    3.494343   3.775023   3.844786   4.340422   2.180436
     9  C    3.080259   3.391175   2.782577   4.101056   2.589597
    10  H    3.477485   4.059493   3.053365   4.348714   2.868039
    11  H    4.070121   4.203779   3.787595   5.126360   3.535291
    12  H    2.768427   2.969178   2.197693   3.786016   2.869967
    13  C    2.517280   3.483208   2.763061   2.785083   1.539880
    14  H    3.483229   4.344249   3.771666   3.799205   2.190958
    15  H    2.763918   3.771837   2.557744   3.127567   2.190711
    16  H    2.784223   3.798974   3.124920   2.604765   2.190137
    17  C    2.510283   2.783640   3.479290   2.746303   1.544509
    18  H    2.761693   3.141122   3.765190   2.544524   2.192715
    19  H    2.767535   2.592402   3.790436   3.089725   2.196607
    20  H    3.479472   3.793923   4.345674   3.761902   2.196626
                    6          7          8          9         10
     6  C    0.000000
     7  H    1.107242   0.000000
     8  H    1.107250   1.764783   0.000000
     9  C    1.526007   2.160270   2.160329   0.000000
    10  H    2.182831   3.086354   2.532011   1.095963   0.000000
    11  H    2.173475   2.490658   2.489095   1.095716   1.766860
    12  H    2.182804   2.530233   3.086303   1.095948   1.767274
    13  C    2.542599   3.494290   2.786576   3.081425   2.767699
    14  H    2.773875   3.775049   2.565804   3.394438   2.973185
    15  H    2.830015   3.844550   3.202928   2.782825   2.194221
    16  H    3.504809   4.340425   3.773801   4.101467   3.783980
    17  C    2.507325   2.704466   2.705416   3.907033   4.266700
    18  H    3.479026   3.721461   3.721918   4.757305   4.999594
    19  H    2.761202   2.495916   3.058532   4.200969   4.793815
    20  H    2.760719   3.056290   2.496385   4.201232   4.457413
                   11         12         13         14         15
    11  H    0.000000
    12  H    1.766841   0.000000
    13  C    4.069535   3.482650   0.000000
    14  H    4.204326   4.065865   1.094128   0.000000
    15  H    3.785695   3.059712   1.094682   1.764830   0.000000
    16  H    5.125526   4.352901   1.094242   1.765595   1.763843
    17  C    4.680362   4.267191   2.510306   2.782803   3.479344
    18  H    5.626257   5.000949   2.761237   3.139117   3.765351
    19  H    4.841884   4.456024   3.479483   3.793535   4.345695
    20  H    4.841050   4.794452   2.768053   2.591985   3.790441
                   16         17         18         19         20
    16  H    0.000000
    17  C    2.747177   0.000000
    18  H    2.544924   1.094449   0.000000
    19  H    3.762317   1.093989   1.762385   0.000000
    20  H    3.091818   1.093988   1.762377   1.766223   0.000000
 Stoichiometry    C6H14
 Framework group  C1[X(C6H14)]
 Deg. of freedom    54
 Full point group                 C1      NOp   1
 Largest Abelian subgroup         C1      NOp   1
 Largest concise Abelian subgroup C1      NOp   1
                         Standard orientation:                         
 ---------------------------------------------------------------------
 Center     Atomic      Atomic             Coordinates (Angstroms)
 Number     Number       Type             X           Y           Z
 ---------------------------------------------------------------------
      1          6           0       -0.494136   -0.886527    1.258610
      2          1           0       -0.425022   -0.288260    2.172074
      3          1           0        0.325625   -1.611732    1.277871
      4          1           0       -1.430636   -1.450743    1.303325
      5          6           0       -0.431711   -0.001568    0.000000
      6          6           0        0.863073    0.856163   -0.000713
      7          1           0        0.851102    1.525618    0.881144
      8          1           0        0.851042    1.524220   -0.883638
      9          6           0        2.157415    0.047846   -0.000049
     10          1           0        2.231242   -0.598543   -0.882016
     11          1           0        3.031528    0.708536   -0.002879
     12          1           0        2.233325   -0.593703    0.885250
     13          6           0       -0.495557   -0.886387   -1.258670
     14          1           0       -0.429358   -0.287851   -2.172173
     15          1           0        0.325297   -1.610319   -1.279873
     16          1           0       -1.431295   -1.452012   -1.301440
     17          6           0       -1.642194    0.957722    0.000744
     18          1           0       -2.586505    0.404464    0.000722
     19          1           0       -1.643612    1.603000    0.884161
     20          1           0       -1.644073    1.603833   -0.882062
 ---------------------------------------------------------------------
 Rotational constants (GHZ):      4.2633793      2.5031064      2.4954762
 Leave Link  202 at Fri Sep 18 13:24:31 2015, MaxMem=  402653184 cpu:       0.0
 (Enter /share/apps/g09/l301.exe)
 Standard basis: 6-31G(d) (6D, 7F)
 Ernie: Thresh=  0.10000D-02 Tol=  0.10000D-05 Strict=F.
 There are   118 symmetry adapted basis functions of A   symmetry.
 Integral buffers will be    131072 words long.
 Raffenetti 2 integral format.
 Two-electron integral symmetry is turned on.
   118 basis functions,   224 primitive gaussians,   118 cartesian basis functions
    25 alpha electrons       25 beta electrons
       nuclear repulsion energy       265.5762917967 Hartrees.
 IExCor=  402 DFT=T Ex+Corr=B3LYP ExCW=0 ScaHFX=  0.200000
 ScaDFX=  0.800000  0.720000  1.000000  0.810000 ScalE2=  1.000000  1.000000
 IRadAn=      5 IRanWt=     -1 IRanGd=            0 ICorTp=0
 NAtoms=   20 NActive=   20 NUniq=   20 SFac= 7.50D-01 NAtFMM=   80 NAOKFM=F Big=F
 Leave Link  301 at Fri Sep 18 13:24:31 2015, MaxMem=  402653184 cpu:       0.1
 (Enter /share/apps/g09/l302.exe)
 NPDir=0 NMtPBC=     1 NCelOv=     1 NCel=       1 NClECP=     1 NCelD=      1
         NCelK=      1 NCelE2=     1 NClLst=     1 CellRange=     0.0.
 One-electron integrals computed using PRISM.
 NBasis=   118 RedAO= T  NBF=   118
 NBsUse=   118 1.00D-06 NBFU=   118
 Precomputing XC quadrature grid using
 IXCGrd= 2 IRadAn=           5 IRanWt=          -1 IRanGd=           0 AccXCQ= 1.00D-10.
 NRdTot=    1640 NPtTot=      438216 NUsed=      449969 NTot=      450001
 NSgBfM=   118   118   118   118   118 NAtAll=    20    20.
 Leave Link  302 at Fri Sep 18 13:24:32 2015, MaxMem=  402653184 cpu:       1.5
 (Enter /share/apps/g09/l303.exe)
 DipDrv:  MaxL=1.
 Leave Link  303 at Fri Sep 18 13:24:32 2015, MaxMem=  402653184 cpu:       0.1
 (Enter /share/apps/g09/l401.exe)
 Harris functional with IExCor=  402 diagonalized for initial guess.
 ExpMin= 1.61D-01 ExpMax= 3.05D+03 ExpMxC= 4.57D+02 IAcc=3 IRadAn=         5 AccDes= 0.00D+00
 HarFok:  IExCor=  402 AccDes= 0.00D+00 IRadAn=         5 IDoV= 1
 ScaDFX=  1.000000  1.000000  1.000000  1.000000
 FoFCou: FMM=F IPFlag=           0 FMFlag=      100000 FMFlg1=           0
         NFxFlg=           0 DoJE=T BraDBF=F KetDBF=T FulRan=T
         Omega=  0.000000  0.000000  1.000000  0.000000  0.000000 ICntrl=     500 IOpCl=  0
         NMat0=    1 NMatS0=    1 NMatT0=    0 NMatD0=    1 NMtDS0=    0 NMtDT0=    0
         I1Cent=           4 NGrid=           0.
 Petite list used in FoFCou.
 Harris En= -237.179112612411    
 Initial guess orbital symmetries:
       Occupied  (A) (A) (A) (A) (A) (A) (A) (A) (A) (A) (A) (A)
                 (A) (A) (A) (A) (A) (A) (A) (A) (A) (A) (A) (A)
                 (A)
       Virtual   (A) (A) (A) (A) (A) (A) (A) (A) (A) (A) (A) (A)
                 (A) (A) (A) (A) (A) (A) (A) (A) (A) (A) (A) (A)
                 (A) (A) (A) (A) (A) (A) (A) (A) (A) (A) (A) (A)
                 (A) (A) (A) (A) (A) (A) (A) (A) (A) (A) (A) (A)
                 (A) (A) (A) (A) (A) (A) (A) (A) (A) (A) (A) (A)
                 (A) (A) (A) (A) (A) (A) (A) (A) (A) (A) (A) (A)
                 (A) (A) (A) (A) (A) (A) (A) (A) (A) (A) (A) (A)
                 (A) (A) (A) (A) (A) (A) (A) (A) (A)
 The electronic state of the initial guess is 1-A.
 Leave Link  401 at Fri Sep 18 13:24:39 2015, MaxMem=  402653184 cpu:      14.2
 (Enter /share/apps/g09/l502.exe)
 Closed shell SCF:
 Requested convergence on RMS density matrix=1.00D-08 within 128 cycles.
 Requested convergence on MAX density matrix=1.00D-06.
 Requested convergence on             energy=1.00D-06.
 No special actions if energy rises.
 Using DIIS extrapolation, IDIIS=  1040.
 Integral symmetry usage will be decided dynamically.
       449776 words used for storage of precomputed grid.
 Keep R1 ints in memory in canonical form, NReq=26103831.
 IEnd=      511320 IEndB=      511320 NGot=   402653184 MDV=   377521788
 LenX=   377521788 LenY=   377507423
 Symmetry not used in FoFDir.
 MinBra= 0 MaxBra= 2 Meth= 1.
 IRaf=       0 NMat=   1 IRICut=       1 DoRegI=T DoRafI=F ISym2E= 0 JSym2E=0.
 Integral accuracy reduced to 1.0D-05 until final iterations.

 Cycle   1  Pass 0  IDiag  1:
 E= -236.786901846367    
 DIIS: error= 5.82D-02 at cycle   1 NSaved=   1.
 NSaved= 1 IEnMin= 1 EnMin= -236.786901846367     IErMin= 1 ErrMin= 5.82D-02
 ErrMax= 5.82D-02 EMaxC= 1.00D-01 BMatC= 2.66D-01 BMatP= 2.66D-01
 IDIUse=3 WtCom= 4.18D-01 WtEn= 5.82D-01
 Coeff-Com:  0.100D+01
 Coeff-En:   0.100D+01
 Coeff:      0.100D+01
 Gap=     0.308 Goal=   None    Shift=    0.000
 GapD=    0.308 DampG=1.000 DampE=0.500 DampFc=0.5000 IDamp=-1.
 Damping current iteration by 5.00D-01
 RMSDP=1.04D-02 MaxDP=1.44D-01              OVMax= 1.81D-01

 Cycle   2  Pass 0  IDiag  1:
 E= -236.915620185173     Delta-E=       -0.128718338807 Rises=F Damp=T
 DIIS: error= 8.89D-03 at cycle   2 NSaved=   2.
 NSaved= 2 IEnMin= 2 EnMin= -236.915620185173     IErMin= 2 ErrMin= 8.89D-03
 ErrMax= 8.89D-03 EMaxC= 1.00D-01 BMatC= 1.05D-02 BMatP= 2.66D-01
 IDIUse=3 WtCom= 9.11D-01 WtEn= 8.89D-02
 Coeff-Com:  0.901D-01 0.910D+00
 Coeff-En:   0.153D+00 0.847D+00
 Coeff:      0.957D-01 0.904D+00
 Gap=     0.392 Goal=   None    Shift=    0.000
 RMSDP=1.86D-03 MaxDP=2.77D-02 DE=-1.29D-01 OVMax= 1.08D-01

 Cycle   3  Pass 0  IDiag  1:
 E= -237.081409333942     Delta-E=       -0.165789148769 Rises=F Damp=F
 DIIS: error= 4.08D-03 at cycle   3 NSaved=   3.
 NSaved= 3 IEnMin= 3 EnMin= -237.081409333942     IErMin= 3 ErrMin= 4.08D-03
 ErrMax= 4.08D-03 EMaxC= 1.00D-01 BMatC= 1.70D-03 BMatP= 1.05D-02
 IDIUse=3 WtCom= 9.59D-01 WtEn= 4.08D-02
 Coeff-Com:  0.144D-01 0.236D+00 0.750D+00
 Coeff-En:   0.000D+00 0.000D+00 0.100D+01
 Coeff:      0.138D-01 0.226D+00 0.760D+00
 Gap=     0.377 Goal=   None    Shift=    0.000
 RMSDP=6.39D-04 MaxDP=1.59D-02 DE=-1.66D-01 OVMax= 1.36D-02

 Cycle   4  Pass 0  IDiag  1:
 E= -237.082296602030     Delta-E=       -0.000887268088 Rises=F Damp=F
 DIIS: error= 2.45D-03 at cycle   4 NSaved=   4.
 NSaved= 4 IEnMin= 4 EnMin= -237.082296602030     IErMin= 4 ErrMin= 2.45D-03
 ErrMax= 2.45D-03 EMaxC= 1.00D-01 BMatC= 8.19D-04 BMatP= 1.70D-03
 IDIUse=3 WtCom= 9.75D-01 WtEn= 2.45D-02
 Coeff-Com:  0.118D-03 0.311D-01 0.411D+00 0.558D+00
 Coeff-En:   0.000D+00 0.000D+00 0.323D+00 0.677D+00
 Coeff:      0.116D-03 0.303D-01 0.409D+00 0.561D+00
 Gap=     0.382 Goal=   None    Shift=    0.000
 RMSDP=2.48D-04 MaxDP=5.99D-03 DE=-8.87D-04 OVMax= 6.46D-03

 Cycle   5  Pass 0  IDiag  1:
 E= -237.083065219294     Delta-E=       -0.000768617264 Rises=F Damp=F
 DIIS: error= 1.96D-04 at cycle   5 NSaved=   5.
 NSaved= 5 IEnMin= 5 EnMin= -237.083065219294     IErMin= 5 ErrMin= 1.96D-04
 ErrMax= 1.96D-04 EMaxC= 1.00D-01 BMatC= 9.48D-06 BMatP= 8.19D-04
 IDIUse=3 WtCom= 9.98D-01 WtEn= 1.96D-03
 Coeff-Com:  0.139D-03-0.188D-02 0.918D-01 0.175D+00 0.734D+00
 Coeff-En:   0.000D+00 0.000D+00 0.000D+00 0.000D+00 0.100D+01
 Coeff:      0.139D-03-0.187D-02 0.916D-01 0.175D+00 0.735D+00
 Gap=     0.381 Goal=   None    Shift=    0.000
 RMSDP=2.70D-05 MaxDP=6.39D-04 DE=-7.69D-04 OVMax= 5.97D-04

 Cycle   6  Pass 0  IDiag  1:
 E= -237.083073707914     Delta-E=       -0.000008488621 Rises=F Damp=F
 DIIS: error= 4.10D-05 at cycle   6 NSaved=   6.
 NSaved= 6 IEnMin= 6 EnMin= -237.083073707914     IErMin= 6 ErrMin= 4.10D-05
 ErrMax= 4.10D-05 EMaxC= 1.00D-01 BMatC= 1.59D-07 BMatP= 9.48D-06
 IDIUse=1 WtCom= 1.00D+00 WtEn= 0.00D+00
 Coeff-Com:  0.145D-03-0.108D-02 0.250D-01 0.499D-01 0.242D+00 0.684D+00
 Coeff:      0.145D-03-0.108D-02 0.250D-01 0.499D-01 0.242D+00 0.684D+00
 Gap=     0.381 Goal=   None    Shift=    0.000
 RMSDP=5.78D-06 MaxDP=7.60D-05 DE=-8.49D-06 OVMax= 1.26D-04

 Initial convergence to 1.0D-05 achieved.  Increase integral accuracy.
 Cycle   7  Pass 1  IDiag  1:
 E= -237.083059209516     Delta-E=        0.000014498398 Rises=F Damp=F
 DIIS: error= 1.02D-05 at cycle   1 NSaved=   1.
 NSaved= 1 IEnMin= 1 EnMin= -237.083059209516     IErMin= 1 ErrMin= 1.02D-05
 ErrMax= 1.02D-05 EMaxC= 1.00D-01 BMatC= 2.36D-08 BMatP= 2.36D-08
 IDIUse=1 WtCom= 1.00D+00 WtEn= 0.00D+00
 Coeff-Com:  0.100D+01
 Coeff:      0.100D+01
 Gap=     0.381 Goal=   None    Shift=    0.000
 RMSDP=5.78D-06 MaxDP=7.60D-05 DE= 1.45D-05 OVMax= 6.30D-05

 Cycle   8  Pass 1  IDiag  1:
 E= -237.083059200769     Delta-E=        0.000000008748 Rises=F Damp=F
 DIIS: error= 1.31D-05 at cycle   2 NSaved=   2.
 NSaved= 2 IEnMin= 1 EnMin= -237.083059209516     IErMin= 1 ErrMin= 1.02D-05
 ErrMax= 1.31D-05 EMaxC= 1.00D-01 BMatC= 3.43D-08 BMatP= 2.36D-08
 IDIUse=1 WtCom= 1.00D+00 WtEn= 0.00D+00
 Coeff-Com:  0.549D+00 0.451D+00
 Coeff:      0.549D+00 0.451D+00
 Gap=     0.381 Goal=   None    Shift=    0.000
 RMSDP=1.51D-06 MaxDP=2.94D-05 DE= 8.75D-09 OVMax= 3.66D-05

 Cycle   9  Pass 1  IDiag  1:
 E= -237.083059235044     Delta-E=       -0.000000034275 Rises=F Damp=F
 DIIS: error= 5.23D-07 at cycle   3 NSaved=   3.
 NSaved= 3 IEnMin= 3 EnMin= -237.083059235044     IErMin= 3 ErrMin= 5.23D-07
 ErrMax= 5.23D-07 EMaxC= 1.00D-01 BMatC= 7.40D-11 BMatP= 2.36D-08
 IDIUse=1 WtCom= 1.00D+00 WtEn= 0.00D+00
 Coeff-Com:  0.119D-01 0.433D-01 0.945D+00
 Coeff:      0.119D-01 0.433D-01 0.945D+00
 Gap=     0.381 Goal=   None    Shift=    0.000
 RMSDP=1.32D-07 MaxDP=2.63D-06 DE=-3.43D-08 OVMax= 2.93D-06

 Cycle  10  Pass 1  IDiag  1:
 E= -237.083059235109     Delta-E=       -0.000000000065 Rises=F Damp=F
 DIIS: error= 2.67D-07 at cycle   4 NSaved=   4.
 NSaved= 4 IEnMin= 4 EnMin= -237.083059235109     IErMin= 4 ErrMin= 2.67D-07
 ErrMax= 2.67D-07 EMaxC= 1.00D-01 BMatC= 1.41D-11 BMatP= 7.40D-11
 IDIUse=1 WtCom= 1.00D+00 WtEn= 0.00D+00
 Coeff-Com: -0.926D-02 0.591D-02 0.386D+00 0.617D+00
 Coeff:     -0.926D-02 0.591D-02 0.386D+00 0.617D+00
 Gap=     0.381 Goal=   None    Shift=    0.000
 RMSDP=4.00D-08 MaxDP=7.72D-07 DE=-6.52D-11 OVMax= 1.12D-06

 Cycle  11  Pass 1  IDiag  1:
 E= -237.083059235121     Delta-E=       -0.000000000012 Rises=F Damp=F
 DIIS: error= 6.95D-08 at cycle   5 NSaved=   5.
 NSaved= 5 IEnMin= 5 EnMin= -237.083059235121     IErMin= 5 ErrMin= 6.95D-08
 ErrMax= 6.95D-08 EMaxC= 1.00D-01 BMatC= 1.22D-12 BMatP= 1.41D-11
 IDIUse=1 WtCom= 1.00D+00 WtEn= 0.00D+00
 Coeff-Com: -0.497D-02 0.140D-03 0.122D+00 0.287D+00 0.596D+00
 Coeff:     -0.497D-02 0.140D-03 0.122D+00 0.287D+00 0.596D+00
 Gap=     0.381 Goal=   None    Shift=    0.000
 RMSDP=9.26D-09 MaxDP=2.26D-07 DE=-1.18D-11 OVMax= 2.69D-07

 SCF Done:  E(RB3LYP) =  -237.083059235     A.U. after   11 cycles
             Convg  =    0.9263D-08             -V/T =  2.0103
 KE= 2.346634875705D+02 PE=-1.078095131063D+03 EE= 3.407722924607D+02
 Leave Link  502 at Fri Sep 18 13:25:43 2015, MaxMem=  402653184 cpu:     127.5
 (Enter /share/apps/g09/l601.exe)
 Copying SCF densities to generalized density rwf, IOpCl= 0 IROHF=0.

 **********************************************************************

            Population analysis using the SCF density.

 **********************************************************************

 Orbital symmetries:
       Occupied  (A) (A) (A) (A) (A) (A) (A) (A) (A) (A) (A) (A)
                 (A) (A) (A) (A) (A) (A) (A) (A) (A) (A) (A) (A)
                 (A)
       Virtual   (A) (A) (A) (A) (A) (A) (A) (A) (A) (A) (A) (A)
                 (A) (A) (A) (A) (A) (A) (A) (A) (A) (A) (A) (A)
                 (A) (A) (A) (A) (A) (A) (A) (A) (A) (A) (A) (A)
                 (A) (A) (A) (A) (A) (A) (A) (A) (A) (A) (A) (A)
                 (A) (A) (A) (A) (A) (A) (A) (A) (A) (A) (A) (A)
                 (A) (A) (A) (A) (A) (A) (A) (A) (A) (A) (A) (A)
                 (A) (A) (A) (A) (A) (A) (A) (A) (A) (A) (A) (A)
                 (A) (A) (A) (A) (A) (A) (A) (A) (A)
 The electronic state is 1-A.
 Alpha  occ. eigenvalues --  -10.19095 -10.17556 -10.16836 -10.16636 -10.16636
 Alpha  occ. eigenvalues --  -10.16562  -0.81654  -0.73059  -0.67854  -0.67791
 Alpha  occ. eigenvalues --   -0.61620  -0.52260  -0.45355  -0.45033  -0.43077
 Alpha  occ. eigenvalues --   -0.41852  -0.39301  -0.37612  -0.37145  -0.35874
 Alpha  occ. eigenvalues --   -0.35398  -0.33808  -0.31154  -0.30872  -0.30302
 Alpha virt. eigenvalues --    0.07823   0.12464   0.13388   0.13886   0.14317
 Alpha virt. eigenvalues --    0.14503   0.16163   0.17683   0.17751   0.19741
 Alpha virt. eigenvalues --    0.20697   0.20990   0.22510   0.22697   0.24821
 Alpha virt. eigenvalues --    0.25002   0.26309   0.26654   0.27216   0.49660
 Alpha virt. eigenvalues --    0.50594   0.51480   0.52357   0.52638   0.58795
 Alpha virt. eigenvalues --    0.60507   0.62355   0.63836   0.70370   0.71551
 Alpha virt. eigenvalues --    0.71996   0.74931   0.76160   0.82418   0.86575
 Alpha virt. eigenvalues --    0.87918   0.89042   0.90668   0.90771   0.90955
 Alpha virt. eigenvalues --    0.91530   0.91998   0.93919   0.93954   0.95770
 Alpha virt. eigenvalues --    0.96538   0.96833   0.98190   0.99945   1.00080
 Alpha virt. eigenvalues --    1.03933   1.05162   1.31206   1.39698   1.40694
 Alpha virt. eigenvalues --    1.48700   1.50503   1.61150   1.64243   1.67829
 Alpha virt. eigenvalues --    1.73090   1.73140   1.81057   1.87593   1.88073
 Alpha virt. eigenvalues --    1.93465   1.93738   1.98621   2.09052   2.10357
 Alpha virt. eigenvalues --    2.10572   2.12056   2.13588   2.24892   2.25537
 Alpha virt. eigenvalues --    2.25881   2.27821   2.27951   2.30353   2.36275
 Alpha virt. eigenvalues --    2.36456   2.49867   2.58710   2.68448   2.71693
 Alpha virt. eigenvalues --    2.74608   2.77136   4.13699   4.25912   4.31582
 Alpha virt. eigenvalues --    4.31605   4.44637   4.67891
          Condensed to atoms (all electrons):
              1          2          3          4          5          6
     1  C    5.152691   0.366606   0.367410   0.367200   0.388107  -0.057466
     2  H    0.366606   0.584110  -0.031841  -0.031267  -0.029371  -0.004645
     3  H    0.367410  -0.031841   0.579656  -0.030839  -0.028887  -0.006057
     4  H    0.367200  -0.031267  -0.030839   0.582851  -0.028545   0.005441
     5  C    0.388107  -0.029371  -0.028887  -0.028545   4.702639   0.397268
     6  C   -0.057466  -0.004645  -0.006057   0.005441   0.397268   5.023592
     7  H   -0.006804   0.004596  -0.000064  -0.000072  -0.034014   0.366970
     8  H    0.006090  -0.000033  -0.000056  -0.000170  -0.034016   0.366995
     9  C   -0.006676  -0.000275   0.001432   0.000135  -0.040030   0.370142
    10  H   -0.000525   0.000064   0.000272  -0.000030  -0.006384  -0.034887
    11  H    0.000143  -0.000034  -0.000069   0.000000   0.004325  -0.027190
    12  H    0.003294   0.000368   0.003365  -0.000129  -0.006377  -0.034819
    13  C   -0.064548   0.005799  -0.004930  -0.004346   0.388126  -0.057436
    14  H    0.005799  -0.000195  -0.000034  -0.000065  -0.029361  -0.004643
    15  H   -0.004919  -0.000034   0.004003  -0.000175  -0.028897  -0.006055
    16  H   -0.004355  -0.000065  -0.000174   0.003684  -0.028549   0.005438
    17  C   -0.061220  -0.004535   0.005696  -0.005563   0.389184  -0.057107
    18  H   -0.004843  -0.000142  -0.000059   0.004310  -0.028021   0.005393
    19  H   -0.004796   0.003868  -0.000047  -0.000152  -0.028697  -0.005175
    20  H    0.005822  -0.000062  -0.000196  -0.000028  -0.028697  -0.005174
              7          8          9         10         11         12
     1  C   -0.006804   0.006090  -0.006676  -0.000525   0.000143   0.003294
     2  H    0.004596  -0.000033  -0.000275   0.000064  -0.000034   0.000368
     3  H   -0.000064  -0.000056   0.001432   0.000272  -0.000069   0.003365
     4  H   -0.000072  -0.000170   0.000135  -0.000030   0.000000  -0.000129
     5  C   -0.034014  -0.034016  -0.040030  -0.006384   0.004325  -0.006377
     6  C    0.366970   0.366995   0.370142  -0.034887  -0.027190  -0.034819
     7  H    0.619934  -0.038128  -0.039639   0.005273  -0.003108  -0.004289
     8  H   -0.038128   0.619928  -0.039643  -0.004243  -0.003154   0.005271
     9  C   -0.039639  -0.039643   5.082838   0.377915   0.370567   0.377935
    10  H    0.005273  -0.004243   0.377915   0.574339  -0.030948  -0.033459
    11  H   -0.003108  -0.003154   0.370567  -0.030948   0.580013  -0.030958
    12  H   -0.004289   0.005271   0.377935  -0.033459  -0.030958   0.574310
    13  C    0.006088  -0.006820  -0.006717   0.003278   0.000143  -0.000509
    14  H   -0.000033   0.004599  -0.000264   0.000360  -0.000034   0.000062
    15  H   -0.000056  -0.000064   0.001402   0.003431  -0.000071   0.000266
    16  H   -0.000170  -0.000071   0.000136  -0.000131   0.000000  -0.000030
    17  C   -0.005194  -0.005182   0.004761   0.000085  -0.000138   0.000083
    18  H   -0.000044  -0.000046  -0.000175   0.000001   0.000002   0.000001
    19  H    0.005024  -0.000239   0.000009   0.000003  -0.000003  -0.000005
    20  H   -0.000238   0.005019   0.000010  -0.000005  -0.000003   0.000003
             13         14         15         16         17         18
     1  C   -0.064548   0.005799  -0.004919  -0.004355  -0.061220  -0.004843
     2  H    0.005799  -0.000195  -0.000034  -0.000065  -0.004535  -0.000142
     3  H   -0.004930  -0.000034   0.004003  -0.000174   0.005696  -0.000059
     4  H   -0.004346  -0.000065  -0.000175   0.003684  -0.005563   0.004310
     5  C    0.388126  -0.029361  -0.028897  -0.028549   0.389184  -0.028021
     6  C   -0.057436  -0.004643  -0.006055   0.005438  -0.057107   0.005393
     7  H    0.006088  -0.000033  -0.000056  -0.000170  -0.005194  -0.000044
     8  H   -0.006820   0.004599  -0.000064  -0.000071  -0.005182  -0.000046
     9  C   -0.006717  -0.000264   0.001402   0.000136   0.004761  -0.000175
    10  H    0.003278   0.000360   0.003431  -0.000131   0.000085   0.000001
    11  H    0.000143  -0.000034  -0.000071   0.000000  -0.000138   0.000002
    12  H   -0.000509   0.000062   0.000266  -0.000030   0.000083   0.000001
    13  C    5.152707   0.366613   0.367381   0.367192  -0.061214  -0.004843
    14  H    0.366613   0.584095  -0.031843  -0.031267  -0.004550  -0.000142
    15  H    0.367381  -0.031843   0.579669  -0.030823   0.005697  -0.000059
    16  H    0.367192  -0.031267  -0.030823   0.582844  -0.005549   0.004306
    17  C   -0.061214  -0.004550   0.005697  -0.005549   5.150195   0.364186
    18  H   -0.004843  -0.000142  -0.000059   0.004306   0.364186   0.587771
    19  H    0.005822  -0.000062  -0.000196  -0.000028   0.366434  -0.031546
    20  H   -0.004792   0.003871  -0.000048  -0.000153   0.366432  -0.031547
             19         20
     1  C   -0.004796   0.005822
     2  H    0.003868  -0.000062
     3  H   -0.000047  -0.000196
     4  H   -0.000152  -0.000028
     5  C   -0.028697  -0.028697
     6  C   -0.005175  -0.005174
     7  H    0.005024  -0.000238
     8  H   -0.000239   0.005019
     9  C    0.000009   0.000010
    10  H    0.000003  -0.000005
    11  H   -0.000003  -0.000003
    12  H   -0.000005   0.000003
    13  C    0.005822  -0.004792
    14  H   -0.000062   0.003871
    15  H   -0.000196  -0.000048
    16  H   -0.000028  -0.000153
    17  C    0.366434   0.366432
    18  H   -0.031546  -0.031547
    19  H    0.584408  -0.031168
    20  H   -0.031168   0.584408
 Mulliken atomic charges:
              1
     1  C   -0.447008
     2  H    0.137089
     3  H    0.141418
     4  H    0.137759
     5  C    0.110196
     6  C   -0.240585
     7  H    0.123968
     8  H    0.123962
     9  C   -0.453864
    10  H    0.145590
    11  H    0.140516
    12  H    0.145615
    13  C   -0.446993
    14  H    0.137094
    15  H    0.141391
    16  H    0.137764
    17  C   -0.442500
    18  H    0.135494
    19  H    0.136547
    20  H    0.136547
 Sum of Mulliken atomic charges =   0.00000
 Mulliken charges with hydrogens summed into heavy atoms:
              1
     1  C   -0.030741
     5  C    0.110196
     6  C    0.007345
     9  C   -0.022144
    13  C   -0.030744
    17  C   -0.033912
 Sum of Mulliken charges with hydrogens summed into heavy atoms =   0.00000
 Electronic spatial extent (au):  <R**2>=            699.6070
 Charge=              0.0000 electrons
 Dipole moment (field-independent basis, Debye):
    X=              0.0309    Y=             -0.0018    Z=              0.0001  Tot=              0.0309
 Quadrupole moment (field-independent basis, Debye-Ang):
   XX=            -41.8659   YY=            -41.6440   ZZ=            -41.5306
   XY=              0.2753   XZ=             -0.0001   YZ=             -0.0001
 Traceless Quadrupole moment (field-independent basis, Debye-Ang):
   XX=             -0.1857   YY=              0.0362   ZZ=              0.1495
   XY=              0.2753   XZ=             -0.0001   YZ=             -0.0001
 Octapole moment (field-independent basis, Debye-Ang**2):
  XXX=             -0.9870  YYY=             -0.1855  ZZZ=              0.0042  XYY=              0.6805
  XXY=             -1.1604  XXZ=             -0.0009  XZZ=              0.5298  YZZ=              1.8298
  YYZ=             -0.0028  XYZ=              0.0012
 Hexadecapole moment (field-independent basis, Debye-Ang**3):
 XXXX=           -492.3213 YYYY=           -242.8667 ZZZZ=           -238.9095 XXXY=              8.4844
 XXXZ=             -0.0128 YYYX=              0.0413 YYYZ=              0.0023 ZZZX=              0.0142
 ZZZY=             -0.0023 XXYY=           -120.1338 XXZZ=           -122.4625 YYZZ=            -79.3574
 XXYZ=             -0.0113 YYXZ=             -0.0066 ZZXY=             -1.9675
 N-N= 2.655762917967D+02 E-N=-1.078095125605D+03  KE= 2.346634875705D+02
 No NMR shielding tensors so no spin-rotation constants.
 Leave Link  601 at Fri Sep 18 13:25:43 2015, MaxMem=  402653184 cpu:       0.4
 (Enter /share/apps/g09/l701.exe)
 Compute integral first derivatives.
 ... and contract with generalized density number  0.
 Leave Link  701 at Fri Sep 18 13:25:44 2015, MaxMem=  402653184 cpu:       0.4
 (Enter /share/apps/g09/l702.exe)
 L702 exits ... SP integral derivatives will be done elsewhere.
 Leave Link  702 at Fri Sep 18 13:25:44 2015, MaxMem=  402653184 cpu:       0.0
 (Enter /share/apps/g09/l703.exe)
 Compute integral first derivatives, UseDBF=F ICtDFT=           0.
 Integral derivatives from FoFDir, PRISM(SPDF).
 Calling FoFJK, ICntrl=      2127 FMM=F ISym2X=0 I1Cent= 0 IOpClX= 0 NMat=1 NMatS=1 NMatT=0.
 FoFCou: FMM=F IPFlag=           0 FMFlag=      100000 FMFlg1=         800
         NFxFlg=           0 DoJE=F BraDBF=F KetDBF=F FulRan=T
         Omega=  0.000000  0.000000  1.000000  0.000000  0.000000 ICntrl=    2127 IOpCl=  0
         NMat0=    1 NMatS0=    1 NMatT0=    0 NMatD0=    1 NMtDS0=    0 NMtDT0=    0
         I1Cent=           0 NGrid=           0.
 Symmetry not used in FoFCou.
 Leave Link  703 at Fri Sep 18 13:25:58 2015, MaxMem=  402653184 cpu:      28.4
 (Enter /share/apps/g09/l716.exe)
 Dipole        = 1.21425123D-02-6.99718700D-04 4.16151240D-05
 ***** Axes restored to original set *****
 -------------------------------------------------------------------
 Center     Atomic                   Forces (Hartrees/Bohr)
 Number     Number              X              Y              Z
 -------------------------------------------------------------------
      1        6           0.001725297   -0.000880716   -0.000779996
      2        1          -0.000097819    0.001764440    0.001451561
      3        1          -0.000270309   -0.001093705    0.000314373
      4        1          -0.001692706   -0.000466939   -0.000777100
      5        6          -0.003908632    0.005426183   -0.000007157
      6        6          -0.001995076    0.003304511   -0.000010390
      7        1          -0.000639451   -0.003438472   -0.003396413
      8        1          -0.000645324   -0.003442688    0.003401091
      9        6           0.004832209   -0.000327907    0.000001070
     10        1           0.000959903    0.000686783    0.000232492
     11        1           0.000347898    0.000074454    0.000004118
     12        1           0.000943418    0.000667756   -0.000230704
     13        6           0.001729217   -0.000869970    0.000782426
     14        1          -0.000099584    0.001767421   -0.001447037
     15        1          -0.000292605   -0.001096985   -0.000315178
     16        1          -0.001690810   -0.000470472    0.000778802
     17        6           0.000174787   -0.002291127   -0.000001698
     18        1          -0.001389168   -0.001557188    0.000000754
     19        1           0.001004203    0.001121894    0.001834214
     20        1           0.001004552    0.001122728   -0.001835228
 -------------------------------------------------------------------
 Cartesian Forces:  Max     0.005426183 RMS     0.001750508
 Leave Link  716 at Fri Sep 18 13:25:58 2015, MaxMem=  402653184 cpu:       0.0
 (Enter /share/apps/g09/l103.exe)

 GradGradGradGradGradGradGradGradGradGradGradGradGradGradGradGradGradGrad
 Berny optimization.
 Internal  Forces:  Max     0.011550129 RMS     0.001838481
 Search for a local minimum.
 Step number   1 out of a maximum of  110
 All quantities printed in internal units (Hartrees-Bohrs-Radians)
 RMS Force = .18385D-02 SwitMx=.10000D-02 MixMth= 1
 Mixed Optimization -- RFO/linear search
 Second derivative matrix not updated -- first step.
     Eigenvalues ---    0.00230   0.00230   0.00238   0.00239   0.00422
     Eigenvalues ---    0.03306   0.04450   0.04748   0.04878   0.04894
     Eigenvalues ---    0.05317   0.05356   0.05356   0.05371   0.05371
     Eigenvalues ---    0.05376   0.05441   0.05526   0.08651   0.12436
     Eigenvalues ---    0.14269   0.14494   0.16000   0.16000   0.16000
     Eigenvalues ---    0.16000   0.16000   0.16000   0.16000   0.16000
     Eigenvalues ---    0.16000   0.16000   0.16000   0.16000   0.21915
     Eigenvalues ---    0.27388   0.28123   0.28530   0.28532   0.29795
     Eigenvalues ---    0.32893   0.32894   0.34133   0.34134   0.34160
     Eigenvalues ---    0.34277   0.34279   0.34304   0.34327   0.34327
     Eigenvalues ---    0.34340   0.34340   0.34356   0.343561000.00000
     Eigenvalues --- 1000.000001000.000001000.000001000.000001000.00000
     Eigenvalues --- 1000.000001000.000001000.000001000.000001000.00000
     Eigenvalues --- 1000.000001000.000001000.000001000.000001000.00000
     Eigenvalues --- 1000.000001000.000001000.000001000.000001000.00000
     Eigenvalues --- 1000.000001000.000001000.000001000.000001000.00000
     Eigenvalues --- 1000.000001000.000001000.000001000.000001000.00000
     Eigenvalues --- 1000.000001000.000001000.000001000.000001000.00000
     Eigenvalues --- 1000.000001000.000001000.000001000.000001000.00000
     Eigenvalues --- 1000.000001000.000001000.000001000.000001000.00000
 RFO step:  Lambda=-1.65185957D-03 EMin= 2.30000000D-03
 Linear search not attempted -- first point.
 Iteration  1 RMS(Cart)=  0.04773106 RMS(Int)=  0.00078537
 Iteration  2 RMS(Cart)=  0.00102159 RMS(Int)=  0.00007279
 Iteration  3 RMS(Cart)=  0.00000040 RMS(Int)=  0.00007279
 Variable       Old X    -DE/DX   Delta X   Delta X   Delta X     New X
                                 (Linear)    (Quad)   (Total)
    R1        2.06760   0.00217   0.00000   0.00629   0.00629   2.07389
    R2        2.06863   0.00053   0.00000   0.00153   0.00153   2.07016
    R3        2.06782   0.00166   0.00000   0.00481   0.00481   2.07263
    R4        2.90990   0.00057   0.00000   0.00200   0.00200   2.91190
    R5        2.93496   0.00181   0.00000   0.00655   0.00655   2.94152
    R6        2.90995   0.00056   0.00000   0.00197   0.00197   2.91192
    R7        2.91870  -0.00162   0.00000  -0.00572  -0.00572   2.91297
    R8        2.09238  -0.00478   0.00000  -0.01445  -0.01445   2.07794
    R9        2.09240  -0.00478   0.00000  -0.01447  -0.01447   2.07793
   R10        2.88374   0.00542   0.00000   0.01810   0.01810   2.90183
   R11        2.07107  -0.00053   0.00000  -0.00154  -0.00154   2.06953
   R12        2.07060   0.00032   0.00000   0.00094   0.00094   2.07154
   R13        2.07104  -0.00051   0.00000  -0.00149  -0.00149   2.06955
   R14        2.06760   0.00217   0.00000   0.00629   0.00629   2.07389
   R15        2.06865   0.00051   0.00000   0.00149   0.00149   2.07014
   R16        2.06782   0.00166   0.00000   0.00481   0.00481   2.07263
   R17        2.06821   0.00199   0.00000   0.00576   0.00576   2.07397
   R18        2.06734   0.00214   0.00000   0.00620   0.00620   2.07354
   R19        2.06734   0.00214   0.00000   0.00620   0.00620   2.07354
    A1        1.87575   0.00017   0.00000   0.00648   0.00646   1.88221
    A2        1.87747   0.00084   0.00000   0.00089   0.00080   1.87827
    A3        1.94506  -0.00083   0.00000  -0.00454  -0.00459   1.94047
    A4        1.87402  -0.00011   0.00000  -0.00178  -0.00174   1.87228
    A5        1.94417   0.00160   0.00000   0.01219   0.01220   1.95637
    A6        1.94381  -0.00161   0.00000  -0.01286  -0.01288   1.93093
    A7        1.93003   0.00071   0.00000   0.01161   0.01154   1.94158
    A8        1.91366  -0.00038   0.00000  -0.00037  -0.00055   1.91311
    A9        1.90158  -0.00023   0.00000  -0.00850  -0.00850   1.89308
   A10        1.92999   0.00073   0.00000   0.01175   0.01168   1.94168
   A11        1.88637  -0.00062   0.00000  -0.00658  -0.00651   1.87986
   A12        1.90158  -0.00024   0.00000  -0.00860  -0.00859   1.89299
   A13        1.90131  -0.00404   0.00000  -0.01949  -0.01970   1.88161
   A14        1.90130  -0.00404   0.00000  -0.01938  -0.01960   1.88170
   A15        1.99827   0.01155   0.00000   0.05580   0.05582   2.05409
   A16        1.84437   0.00209   0.00000  -0.00277  -0.00314   1.84124
   A17        1.90613  -0.00313   0.00000  -0.00940  -0.00930   1.89683
   A18        1.90620  -0.00312   0.00000  -0.00923  -0.00915   1.89706
   A19        1.94894   0.00093   0.00000   0.00746   0.00741   1.95635
   A20        1.93612  -0.00037   0.00000  -0.00566  -0.00565   1.93047
   A21        1.94892   0.00091   0.00000   0.00734   0.00730   1.95621
   A22        1.87529  -0.00064   0.00000  -0.00710  -0.00709   1.86821
   A23        1.87564  -0.00031   0.00000   0.00427   0.00417   1.87982
   A24        1.87528  -0.00063   0.00000  -0.00706  -0.00705   1.86823
   A25        1.94508  -0.00084   0.00000  -0.00458  -0.00464   1.94044
   A26        1.94415   0.00161   0.00000   0.01229   0.01230   1.95645
   A27        1.94381  -0.00161   0.00000  -0.01288  -0.01290   1.93091
   A28        1.87573   0.00017   0.00000   0.00652   0.00650   1.88223
   A29        1.87746   0.00084   0.00000   0.00089   0.00081   1.87826
   A30        1.87406  -0.00012   0.00000  -0.00187  -0.00182   1.87224
   A31        1.94147  -0.00035   0.00000  -0.00047  -0.00047   1.94100
   A32        1.94739  -0.00104   0.00000  -0.00729  -0.00732   1.94007
   A33        1.94742  -0.00104   0.00000  -0.00731  -0.00734   1.94008
   A34        1.87242   0.00091   0.00000   0.00725   0.00725   1.87967
   A35        1.87241   0.00091   0.00000   0.00725   0.00726   1.87967
   A36        1.87892   0.00079   0.00000   0.00170   0.00164   1.88057
    D1        0.98357  -0.00018   0.00000  -0.02356  -0.02358   0.95999
    D2        3.11621   0.00095   0.00000  -0.00143  -0.00145   3.11476
    D3       -1.08729   0.00029   0.00000  -0.01720  -0.01720  -1.10450
    D4       -1.11119  -0.00092   0.00000  -0.03701  -0.03703  -1.14823
    D5        1.02145   0.00021   0.00000  -0.01487  -0.01490   1.00655
    D6        3.10113  -0.00045   0.00000  -0.03065  -0.03065   3.07047
    D7        3.08027  -0.00077   0.00000  -0.03429  -0.03426   3.04601
    D8       -1.07027   0.00036   0.00000  -0.01215  -0.01213  -1.08240
    D9        1.00941  -0.00030   0.00000  -0.02793  -0.02788   0.98153
   D10       -1.07913  -0.00068   0.00000  -0.00504  -0.00484  -1.08397
   D11       -3.08304   0.00117   0.00000   0.01910   0.01899  -3.06405
   D12        1.06047   0.00024   0.00000   0.00688   0.00693   1.06739
   D13        3.08101  -0.00117   0.00000  -0.02028  -0.02018   3.06084
   D14        1.07711   0.00068   0.00000   0.00386   0.00365   1.08076
   D15       -1.06257  -0.00025   0.00000  -0.00836  -0.00841  -1.07099
   D16        1.00095  -0.00092   0.00000  -0.01265  -0.01249   0.98846
   D17       -1.00295   0.00093   0.00000   0.01149   0.01134  -0.99162
   D18        3.14055   0.00000   0.00000  -0.00073  -0.00073   3.13982
   D19       -3.11807  -0.00095   0.00000   0.00246   0.00249  -3.11558
   D20       -1.02334  -0.00020   0.00000   0.01600   0.01602  -1.00732
   D21        1.06841  -0.00035   0.00000   0.01323   0.01320   1.08162
   D22       -0.98540   0.00018   0.00000   0.02451   0.02454  -0.96087
   D23        1.10933   0.00093   0.00000   0.03805   0.03807   1.14740
   D24       -3.08210   0.00077   0.00000   0.03528   0.03525  -3.04686
   D25        1.08544  -0.00029   0.00000   0.01818   0.01818   1.10362
   D26       -3.10302   0.00045   0.00000   0.03171   0.03172  -3.07130
   D27       -1.01126   0.00030   0.00000   0.02894   0.02889  -0.98237
   D28       -1.04411   0.00037   0.00000   0.00534   0.00535  -1.03876
   D29        1.04617   0.00059   0.00000   0.00931   0.00929   1.05546
   D30       -3.13439   0.00015   0.00000   0.00138   0.00140  -3.13299
   D31        3.14106   0.00000   0.00000   0.00013   0.00013   3.14119
   D32       -1.05185   0.00022   0.00000   0.00410   0.00408  -1.04777
   D33        1.05078  -0.00021   0.00000  -0.00383  -0.00381   1.04697
   D34        1.04309  -0.00037   0.00000  -0.00519  -0.00519   1.03789
   D35        3.13336  -0.00016   0.00000  -0.00123  -0.00125   3.13212
   D36       -1.04719  -0.00059   0.00000  -0.00915  -0.00914  -1.05633
   D37        1.04803   0.00045   0.00000   0.00872   0.00875   1.05678
   D38        3.13936   0.00001   0.00000   0.00088   0.00088   3.14024
   D39       -1.05252  -0.00043   0.00000  -0.00700  -0.00702  -1.05954
   D40       -3.09817   0.00091   0.00000   0.01534   0.01542  -3.08275
   D41       -1.00684   0.00047   0.00000   0.00750   0.00755  -0.99929
   D42        1.08447   0.00003   0.00000  -0.00038  -0.00036   1.08411
   D43       -1.08899  -0.00002   0.00000   0.00183   0.00181  -1.08719
   D44        1.00234  -0.00046   0.00000  -0.00602  -0.00606   0.99628
   D45        3.09365  -0.00090   0.00000  -0.01389  -0.01397   3.07968
         Item               Value     Threshold  Converged?
 Maximum Force            0.011550     0.000015     NO 
 RMS     Force            0.001838     0.000010     NO 
 Maximum Displacement     0.182031     0.000060     NO 
 RMS     Displacement     0.047715     0.000040     NO 
 Predicted change in Energy=-8.416169D-04
 GradGradGradGradGradGradGradGradGradGradGradGradGradGradGradGradGradGrad

 Leave Link  103 at Fri Sep 18 13:25:58 2015, MaxMem=  402653184 cpu:       0.1
 (Enter /share/apps/g09/l202.exe)
                          Input orientation:                          
 ---------------------------------------------------------------------
 Center     Atomic      Atomic             Coordinates (Angstroms)
 Number     Number       Type             X           Y           Z
 ---------------------------------------------------------------------
      1          6           0       -0.522186   -0.902548    1.259096
      2          1           0       -0.432805   -0.301077    2.172690
      3          1           0        0.262409   -1.666718    1.282213
      4          1           0       -1.486168   -1.424237    1.298114
      5          6           0       -0.433559   -0.018871   -0.000138
      6          6           0        0.869437    0.832688   -0.001023
      7          1           0        0.836605    1.498549    0.873427
      8          1           0        0.836900    1.496453   -0.877075
      9          6           0        2.210628    0.084875    0.000309
     10          1           0        2.327569   -0.552683   -0.882410
     11          1           0        3.047304    0.793150   -0.001866
     12          1           0        2.328225   -0.548074    0.886263
     13          6           0       -0.524239   -0.902297   -1.259413
     14          1           0       -0.437180   -0.300516   -2.173023
     15          1           0        0.260746   -1.665990   -1.284422
     16          1           0       -1.487973   -1.424582   -1.296536
     17          6           0       -1.629385    0.953836    0.000854
     18          1           0       -2.583057    0.410685    0.001101
     19          1           0       -1.613420    1.600189    0.887406
     20          1           0       -1.614301    1.600924   -0.885179
 ---------------------------------------------------------------------
                    Distance matrix (angstroms):
                    1          2          3          4          5
     1  C    0.000000
     2  H    1.097457   0.000000
     3  H    1.095481   1.772356   0.000000
     4  H    1.096788   1.770860   1.765381   0.000000
     5  C    1.540912   2.191078   2.200953   2.183689   0.000000
     6  C    2.556474   2.776020   2.874406   3.511459   1.556584
     7  H    2.785735   2.556978   3.242795   3.757434   2.163098
     8  H    3.487914   3.760895   3.872752   4.319551   2.163167
     9  C    3.166673   3.443245   2.916661   4.198573   2.646221
    10  H    3.581837   4.125119   3.192420   4.478714   2.947404
    11  H    4.148093   4.247020   3.931341   5.211441   3.574324
    12  H    2.896463   3.056008   2.382380   3.935337   2.948426
    13  C    2.518509   3.485564   2.768215   2.781847   1.540921
    14  H    3.485557   4.345716   3.780819   3.796304   2.191066
    15  H    2.768629   3.780955   2.566636   3.127242   2.201010
    16  H    2.781460   3.796205   3.126086   2.594651   2.183680
    17  C    2.501045   2.779116   3.476790   2.712680   1.541480
    18  H    2.748513   3.137832   3.748804   2.500470   2.191999
    19  H    2.755475   2.580817   3.787781   3.054837   2.191155
    20  H    3.472463   3.790000   4.347081   3.732933   2.191160
                    6          7          8          9         10
     6  C    0.000000
     7  H    1.099596   0.000000
     8  H    1.099595   1.750504   0.000000
     9  C    1.535584   2.156095   2.156266   0.000000
    10  H    2.195961   3.084395   2.533985   1.095148   0.000000
    11  H    2.178226   2.480104   2.479216   1.096214   1.762000
    12  H    2.195870   2.532540   3.084397   1.095157   1.768679
    13  C    2.556571   3.487831   2.784400   3.168739   2.897787
    14  H    2.776506   3.760322   2.555749   3.447141   3.061553
    15  H    2.874197   3.873271   3.240205   2.918579   2.381769
    16  H    3.511553   4.319386   3.756783   4.199990   3.935742
    17  C    2.501758   2.671928   2.673528   3.937104   4.325187
    18  H    3.478190   3.693032   3.694074   4.804744   5.081625
    19  H    2.746442   2.452171   3.021295   4.207904   4.826852
    20  H    2.746064   3.018296   2.453439   4.208630   4.491811
                   11         12         13         14         15
    11  H    0.000000
    12  H    1.762024   0.000000
    13  C    4.148721   3.586914   0.000000
    14  H    4.248724   4.131341   1.097454   0.000000
    15  H    3.931568   3.199387   1.095470   1.772352   0.000000
    16  H    5.211837   4.482883   1.096787   1.770853   1.765345
    17  C    4.679449   4.324622   2.500970   2.778577   3.476782
    18  H    5.643337   5.081675   2.748007   3.136464   3.748648
    19  H    4.812947   4.489053   3.472403   3.789782   4.347098
    20  H    4.812826   4.826977   2.755794   2.580626   3.787865
                   16         17         18         19         20
    16  H    0.000000
    17  C    2.712948   0.000000
    18  H    2.500255   1.097499   0.000000
    19  H    3.732905   1.097271   1.772189   0.000000
    20  H    3.055954   1.097271   1.772187   1.772586   0.000000
 Stoichiometry    C6H14
 Framework group  C1[X(C6H14)]
 Deg. of freedom    54
 Full point group                 C1      NOp   1
 Largest Abelian subgroup         C1      NOp   1
 Largest concise Abelian subgroup C1      NOp   1
                         Standard orientation:                         
 ---------------------------------------------------------------------
 Center     Atomic      Atomic             Coordinates (Angstroms)
 Number     Number       Type             X           Y           Z
 ---------------------------------------------------------------------
      1          6           0        0.550786   -0.883943   -1.257875
      2          1           0        0.442616   -0.286956   -2.172379
      3          1           0       -0.209807   -1.672046   -1.279565
      4          1           0        1.530431   -1.375632   -1.296371
      5          6           0        0.435193   -0.001457    0.000006
      6          6           0       -0.893515    0.809401   -0.000043
      7          1           0       -0.881512    1.474586   -0.875540
      8          1           0       -0.881298    1.475226    0.874964
      9          6           0       -2.210938    0.020468    0.000195
     10          1           0       -2.307882   -0.619019    0.883942
     11          1           0       -3.069117    0.702532    0.001518
     12          1           0       -2.309129   -0.617204   -0.884736
     13          6           0        0.553469   -0.879681    1.260629
     14          1           0        0.448072   -0.279449    2.173327
     15          1           0       -0.207516   -1.667244    1.287066
     16          1           0        1.532903   -1.371853    1.298276
     17          6           0        1.600365    1.007764   -0.002862
     18          1           0        2.570378    0.494365   -0.002550
     19          1           0        1.564194    1.651924   -0.890417
     20          1           0        1.565501    1.655463    0.882165
 ---------------------------------------------------------------------
 Rotational constants (GHZ):      4.2579020      2.4512738      2.4428292
 Leave Link  202 at Fri Sep 18 13:25:58 2015, MaxMem=  402653184 cpu:       0.0
 (Enter /share/apps/g09/l301.exe)
 Standard basis: 6-31G(d) (6D, 7F)
 Ernie: Thresh=  0.10000D-02 Tol=  0.10000D-05 Strict=F.
 There are   118 symmetry adapted basis functions of A   symmetry.
 Integral buffers will be    131072 words long.
 Raffenetti 2 integral format.
 Two-electron integral symmetry is turned on.
   118 basis functions,   224 primitive gaussians,   118 cartesian basis functions
    25 alpha electrons       25 beta electrons
       nuclear repulsion energy       264.4539047631 Hartrees.
 IExCor=  402 DFT=T Ex+Corr=B3LYP ExCW=0 ScaHFX=  0.200000
 ScaDFX=  0.800000  0.720000  1.000000  0.810000 ScalE2=  1.000000  1.000000
 IRadAn=      5 IRanWt=     -1 IRanGd=            0 ICorTp=0
 NAtoms=   20 NActive=   20 NUniq=   20 SFac= 7.50D-01 NAtFMM=   80 NAOKFM=F Big=F
 Leave Link  301 at Fri Sep 18 13:25:58 2015, MaxMem=  402653184 cpu:       0.1
 (Enter /share/apps/g09/l302.exe)
 NPDir=0 NMtPBC=     1 NCelOv=     1 NCel=       1 NClECP=     1 NCelD=      1
         NCelK=      1 NCelE2=     1 NClLst=     1 CellRange=     0.0.
 One-electron integrals computed using PRISM.
 NBasis=   118 RedAO= T  NBF=   118
 NBsUse=   118 1.00D-06 NBFU=   118
 Precomputing XC quadrature grid using
 IXCGrd= 2 IRadAn=           5 IRanWt=          -1 IRanGd=           0 AccXCQ= 1.00D-10.
 NRdTot=    1640 NPtTot=      438820 NUsed=      450573 NTot=      450605
 NSgBfM=   118   118   118   118   118 NAtAll=    20    20.
 Leave Link  302 at Fri Sep 18 13:25:59 2015, MaxMem=  402653184 cpu:       1.5
 (Enter /share/apps/g09/l303.exe)
 DipDrv:  MaxL=1.
 Leave Link  303 at Fri Sep 18 13:25:59 2015, MaxMem=  402653184 cpu:       0.1
 (Enter /share/apps/g09/l401.exe)
 Initial guess read from the read-write file.
 B after Tr=     0.000000    0.000000    0.000000
         Rot=    1.000000    0.000000    0.000000    0.000000 Ang=   0.00 deg.
 Guess basis will be translated and rotated to current coordinates.
 Initial guess orbital symmetries:
       Occupied  (A) (A) (A) (A) (A) (A) (A) (A) (A) (A) (A) (A)
                 (A) (A) (A) (A) (A) (A) (A) (A) (A) (A) (A) (A)
                 (A)
       Virtual   (A) (A) (A) (A) (A) (A) (A) (A) (A) (A) (A) (A)
                 (A) (A) (A) (A) (A) (A) (A) (A) (A) (A) (A) (A)
                 (A) (A) (A) (A) (A) (A) (A) (A) (A) (A) (A) (A)
                 (A) (A) (A) (A) (A) (A) (A) (A) (A) (A) (A) (A)
                 (A) (A) (A) (A) (A) (A) (A) (A) (A) (A) (A) (A)
                 (A) (A) (A) (A) (A) (A) (A) (A) (A) (A) (A) (A)
                 (A) (A) (A) (A) (A) (A) (A) (A) (A) (A) (A) (A)
                 (A) (A) (A) (A) (A) (A) (A) (A) (A)
 The electronic state of the initial guess is 1-A.
 Generating alternative initial guess.
 Harris functional with IExCor=  402 diagonalized for initial guess.
 ExpMin= 1.61D-01 ExpMax= 3.05D+03 ExpMxC= 4.57D+02 IAcc=3 IRadAn=         5 AccDes= 0.00D+00
 HarFok:  IExCor=  402 AccDes= 0.00D+00 IRadAn=         5 IDoV= 1
 ScaDFX=  1.000000  1.000000  1.000000  1.000000
 FoFCou: FMM=F IPFlag=           0 FMFlag=      100000 FMFlg1=           0
         NFxFlg=           0 DoJE=T BraDBF=F KetDBF=T FulRan=T
         Omega=  0.000000  0.000000  1.000000  0.000000  0.000000 ICntrl=     500 IOpCl=  0
         NMat0=    1 NMatS0=    1 NMatT0=    0 NMatD0=    1 NMtDS0=    0 NMtDT0=    0
         I1Cent=           4 NGrid=           0.
 Petite list used in FoFCou.
 Harris En= -237.179177235723    
 Leave Link  401 at Fri Sep 18 13:26:05 2015, MaxMem=  402653184 cpu:      12.5
 (Enter /share/apps/g09/l502.exe)
 Closed shell SCF:
 Requested convergence on RMS density matrix=1.00D-08 within 128 cycles.
 Requested convergence on MAX density matrix=1.00D-06.
 Requested convergence on             energy=1.00D-06.
 No special actions if energy rises.
 Using DIIS extrapolation, IDIIS=  1040.
 Integral symmetry usage will be decided dynamically.
       450380 words used for storage of precomputed grid.
 Keep R1 ints in memory in canonical form, NReq=26104435.
 IEnd=      511924 IEndB=      511924 NGot=   402653184 MDV=   377521184
 LenX=   377521184 LenY=   377506819
 Symmetry not used in FoFDir.
 MinBra= 0 MaxBra= 2 Meth= 1.
 IRaf=       0 NMat=   1 IRICut=       1 DoRegI=T DoRafI=F ISym2E= 0 JSym2E=0.
 Integral accuracy reduced to 1.0D-05 until final iterations.

 Cycle   1  Pass 0  IDiag  1:
 E= -224.387581110490    
 DIIS: error= 8.40D-02 at cycle   1 NSaved=   1.
 NSaved= 1 IEnMin= 1 EnMin= -224.387581110490     IErMin= 1 ErrMin= 8.40D-02
 ErrMax= 8.40D-02 EMaxC= 1.00D-01 BMatC= 2.58D+00 BMatP= 2.58D+00
 IDIUse=3 WtCom= 1.60D-01 WtEn= 8.40D-01
 Coeff-Com:  0.100D+01
 Coeff-En:   0.100D+01
 Coeff:      0.100D+01
 Recover alternate guess density for next cycle.
 RMSDP=4.69D-02 MaxDP=5.91D-01              OVMax= 0.00D+00

 Cycle   2  Pass 0  IDiag  1:
 E= -236.788989049786     Delta-E=      -12.401407939296 Rises=F Damp=F
 DIIS: error= 5.86D-02 at cycle   2 NSaved=   2.
 NSaved= 2 IEnMin= 2 EnMin= -236.788989049786     IErMin= 2 ErrMin= 5.86D-02
 ErrMax= 5.86D-02 EMaxC= 1.00D-01 BMatC= 2.64D-01 BMatP= 2.58D+00
 IDIUse=3 WtCom= 4.14D-01 WtEn= 5.86D-01
 Coeff-Com:  0.506D-01 0.949D+00
 Coeff-En:   0.000D+00 0.100D+01
 Coeff:      0.210D-01 0.979D+00
 Gap=     0.304 Goal=   None    Shift=    0.000
 RMSDP=1.05D-02 MaxDP=1.46D-01 DE=-1.24D+01 OVMax= 1.82D-01

 Cycle   3  Pass 0  IDiag  1:
 E= -236.663695711317     Delta-E=        0.125293338469 Rises=F Damp=F
 DIIS: error= 6.43D-02 at cycle   3 NSaved=   3.
 NSaved= 3 IEnMin= 2 EnMin= -236.788989049786     IErMin= 2 ErrMin= 5.86D-02
 ErrMax= 6.43D-02 EMaxC= 1.00D-01 BMatC= 3.80D-01 BMatP= 2.64D-01
 IDIUse=2 WtCom= 0.00D+00 WtEn= 1.00D+00
 Coeff-En:   0.000D+00 0.584D+00 0.416D+00
 Coeff:      0.000D+00 0.584D+00 0.416D+00
 Gap=     0.385 Goal=   None    Shift=    0.000
 RMSDP=6.12D-03 MaxDP=9.32D-02 DE= 1.25D-01 OVMax= 1.04D-01

 Cycle   4  Pass 0  IDiag  1:
 E= -237.080548182330     Delta-E=       -0.416852471014 Rises=F Damp=F
 DIIS: error= 5.26D-03 at cycle   4 NSaved=   4.
 NSaved= 4 IEnMin= 4 EnMin= -237.080548182330     IErMin= 4 ErrMin= 5.26D-03
 ErrMax= 5.26D-03 EMaxC= 1.00D-01 BMatC= 3.16D-03 BMatP= 2.64D-01
 IDIUse=3 WtCom= 9.47D-01 WtEn= 5.26D-02
 Coeff-Com:  0.840D-03 0.144D+00 0.698D-01 0.785D+00
 Coeff-En:   0.000D+00 0.000D+00 0.000D+00 0.100D+01
 Coeff:      0.796D-03 0.137D+00 0.662D-01 0.796D+00
 Gap=     0.375 Goal=   None    Shift=    0.000
 RMSDP=6.05D-04 MaxDP=1.36D-02 DE=-4.17D-01 OVMax= 1.60D-02

 Cycle   5  Pass 0  IDiag  1:
 E= -237.082610404699     Delta-E=       -0.002062222368 Rises=F Damp=F
 DIIS: error= 2.76D-03 at cycle   5 NSaved=   5.
 NSaved= 5 IEnMin= 5 EnMin= -237.082610404699     IErMin= 5 ErrMin= 2.76D-03
 ErrMax= 2.76D-03 EMaxC= 1.00D-01 BMatC= 1.02D-03 BMatP= 3.16D-03
 IDIUse=3 WtCom= 9.72D-01 WtEn= 2.76D-02
 Coeff-Com:  0.736D-04 0.203D-01-0.116D-01 0.439D+00 0.553D+00
 Coeff-En:   0.000D+00 0.000D+00 0.000D+00 0.188D+00 0.812D+00
 Coeff:      0.715D-04 0.197D-01-0.113D-01 0.432D+00 0.560D+00
 Gap=     0.380 Goal=   None    Shift=    0.000
 RMSDP=2.66D-04 MaxDP=6.80D-03 DE=-2.06D-03 OVMax= 7.25D-03

 Cycle   6  Pass 0  IDiag  1:
 E= -237.083562265846     Delta-E=       -0.000951861148 Rises=F Damp=F
 DIIS: error= 2.19D-04 at cycle   6 NSaved=   6.
 NSaved= 6 IEnMin= 6 EnMin= -237.083562265846     IErMin= 6 ErrMin= 2.19D-04
 ErrMax= 2.19D-04 EMaxC= 1.00D-01 BMatC= 1.06D-05 BMatP= 1.02D-03
 IDIUse=3 WtCom= 9.98D-01 WtEn= 2.19D-03
 Coeff-Com:  0.542D-04 0.167D-02-0.626D-02 0.993D-01 0.171D+00 0.734D+00
 Coeff-En:   0.000D+00 0.000D+00 0.000D+00 0.000D+00 0.000D+00 0.100D+01
 Coeff:      0.541D-04 0.166D-02-0.625D-02 0.991D-01 0.171D+00 0.734D+00
 Gap=     0.379 Goal=   None    Shift=    0.000
 RMSDP=2.95D-05 MaxDP=6.38D-04 DE=-9.52D-04 OVMax= 6.01D-04

 Cycle   7  Pass 0  IDiag  1:
 E= -237.083571689114     Delta-E=       -0.000009423268 Rises=F Damp=F
 DIIS: error= 5.62D-05 at cycle   7 NSaved=   7.
 NSaved= 7 IEnMin= 7 EnMin= -237.083571689114     IErMin= 7 ErrMin= 5.62D-05
 ErrMax= 5.62D-05 EMaxC= 1.00D-01 BMatC= 3.07D-07 BMatP= 1.06D-05
 IDIUse=1 WtCom= 1.00D+00 WtEn= 0.00D+00
 Coeff-Com:  0.166D-04 0.400D-03-0.209D-02 0.265D-01 0.478D-01 0.248D+00
 Coeff-Com:  0.680D+00
 Coeff:      0.166D-04 0.400D-03-0.209D-02 0.265D-01 0.478D-01 0.248D+00
 Coeff:      0.680D+00
 Gap=     0.380 Goal=   None    Shift=    0.000
 RMSDP=7.30D-06 MaxDP=9.91D-05 DE=-9.42D-06 OVMax= 1.72D-04

 Initial convergence to 1.0D-05 achieved.  Increase integral accuracy.
 Cycle   8  Pass 1  IDiag  1:
 E= -237.083540923475     Delta-E=        0.000030765639 Rises=F Damp=F
 DIIS: error= 1.49D-05 at cycle   1 NSaved=   1.
 NSaved= 1 IEnMin= 1 EnMin= -237.083540923475     IErMin= 1 ErrMin= 1.49D-05
 ErrMax= 1.49D-05 EMaxC= 1.00D-01 BMatC= 4.93D-08 BMatP= 4.93D-08
 IDIUse=1 WtCom= 1.00D+00 WtEn= 0.00D+00
 Coeff-Com:  0.100D+01
 Coeff:      0.100D+01
 Gap=     0.380 Goal=   None    Shift=    0.000
 RMSDP=7.30D-06 MaxDP=9.91D-05 DE= 3.08D-05 OVMax= 9.23D-05

 Cycle   9  Pass 1  IDiag  1:
 E= -237.083540904092     Delta-E=        0.000000019383 Rises=F Damp=F
 DIIS: error= 1.96D-05 at cycle   2 NSaved=   2.
 NSaved= 2 IEnMin= 1 EnMin= -237.083540923475     IErMin= 1 ErrMin= 1.49D-05
 ErrMax= 1.96D-05 EMaxC= 1.00D-01 BMatC= 7.19D-08 BMatP= 4.93D-08
 IDIUse=1 WtCom= 1.00D+00 WtEn= 0.00D+00
 Coeff-Com:  0.549D+00 0.451D+00
 Coeff:      0.549D+00 0.451D+00
 Gap=     0.380 Goal=   None    Shift=    0.000
 RMSDP=2.15D-06 MaxDP=4.83D-05 DE= 1.94D-08 OVMax= 5.23D-05

 Cycle  10  Pass 1  IDiag  1:
 E= -237.083540976214     Delta-E=       -0.000000072122 Rises=F Damp=F
 DIIS: error= 7.48D-07 at cycle   3 NSaved=   3.
 NSaved= 3 IEnMin= 3 EnMin= -237.083540976214     IErMin= 3 ErrMin= 7.48D-07
 ErrMax= 7.48D-07 EMaxC= 1.00D-01 BMatC= 1.35D-10 BMatP= 4.93D-08
 IDIUse=1 WtCom= 1.00D+00 WtEn= 0.00D+00
 Coeff-Com:  0.175D-01 0.439D-01 0.939D+00
 Coeff:      0.175D-01 0.439D-01 0.939D+00
 Gap=     0.380 Goal=   None    Shift=    0.000
 RMSDP=1.80D-07 MaxDP=3.75D-06 DE=-7.21D-08 OVMax= 3.33D-06

 Cycle  11  Pass 1  IDiag  1:
 E= -237.083540976329     Delta-E=       -0.000000000115 Rises=F Damp=F
 DIIS: error= 4.31D-07 at cycle   4 NSaved=   4.
 NSaved= 4 IEnMin= 4 EnMin= -237.083540976329     IErMin= 4 ErrMin= 4.31D-07
 ErrMax= 4.31D-07 EMaxC= 1.00D-01 BMatC= 3.15D-11 BMatP= 1.35D-10
 IDIUse=1 WtCom= 1.00D+00 WtEn= 0.00D+00
 Coeff-Com: -0.807D-02 0.584D-02 0.398D+00 0.604D+00
 Coeff:     -0.807D-02 0.584D-02 0.398D+00 0.604D+00
 Gap=     0.380 Goal=   None    Shift=    0.000
 RMSDP=5.20D-08 MaxDP=1.16D-06 DE=-1.15D-10 OVMax= 1.32D-06

 Cycle  12  Pass 1  IDiag  1:
 E= -237.083540976356     Delta-E=       -0.000000000027 Rises=F Damp=F
 DIIS: error= 1.34D-07 at cycle   5 NSaved=   5.
 NSaved= 5 IEnMin= 5 EnMin= -237.083540976356     IErMin= 5 ErrMin= 1.34D-07
 ErrMax= 1.34D-07 EMaxC= 1.00D-01 BMatC= 2.67D-12 BMatP= 3.15D-11
 IDIUse=1 WtCom= 1.00D+00 WtEn= 0.00D+00
 Coeff-Com: -0.487D-02-0.348D-03 0.116D+00 0.278D+00 0.611D+00
 Coeff:     -0.487D-02-0.348D-03 0.116D+00 0.278D+00 0.611D+00
 Gap=     0.380 Goal=   None    Shift=    0.000
 RMSDP=1.29D-08 MaxDP=3.24D-07 DE=-2.69D-11 OVMax= 3.33D-07

 Cycle  13  Pass 1  IDiag  1:
 E= -237.083540976359     Delta-E=       -0.000000000004 Rises=F Damp=F
 DIIS: error= 9.40D-09 at cycle   6 NSaved=   6.
 NSaved= 6 IEnMin= 6 EnMin= -237.083540976359     IErMin= 6 ErrMin= 9.40D-09
 ErrMax= 9.40D-09 EMaxC= 1.00D-01 BMatC= 1.68D-14 BMatP= 2.67D-12
 IDIUse=1 WtCom= 1.00D+00 WtEn= 0.00D+00
 Coeff-Com: -0.676D-03-0.145D-03 0.124D-01 0.323D-01 0.111D+00 0.845D+00
 Coeff:     -0.676D-03-0.145D-03 0.124D-01 0.323D-01 0.111D+00 0.845D+00
 Gap=     0.380 Goal=   None    Shift=    0.000
 RMSDP=1.71D-09 MaxDP=3.48D-08 DE=-3.69D-12 OVMax= 4.31D-08

 SCF Done:  E(RB3LYP) =  -237.083540976     A.U. after   13 cycles
             Convg  =    0.1711D-08             -V/T =  2.0105
 KE= 2.346266389841D+02 PE=-1.075823612668D+03 EE= 3.396595279445D+02
 Leave Link  502 at Fri Sep 18 13:27:19 2015, MaxMem=  402653184 cpu:     148.7
 (Enter /share/apps/g09/l701.exe)
 Compute integral first derivatives.
 ... and contract with generalized density number  0.
 Leave Link  701 at Fri Sep 18 13:27:20 2015, MaxMem=  402653184 cpu:       0.4
 (Enter /share/apps/g09/l702.exe)
 L702 exits ... SP integral derivatives will be done elsewhere.
 Leave Link  702 at Fri Sep 18 13:27:20 2015, MaxMem=  402653184 cpu:       0.0
 (Enter /share/apps/g09/l703.exe)
 Compute integral first derivatives, UseDBF=F ICtDFT=           0.
 Integral derivatives from FoFDir, PRISM(SPDF).
 Calling FoFJK, ICntrl=      2127 FMM=F ISym2X=0 I1Cent= 0 IOpClX= 0 NMat=1 NMatS=1 NMatT=0.
 FoFCou: FMM=F IPFlag=           0 FMFlag=      100000 FMFlg1=         800
         NFxFlg=           0 DoJE=F BraDBF=F KetDBF=F FulRan=T
         Omega=  0.000000  0.000000  1.000000  0.000000  0.000000 ICntrl=    2127 IOpCl=  0
         NMat0=    1 NMatS0=    1 NMatT0=    0 NMatD0=    1 NMtDS0=    0 NMtDT0=    0
         I1Cent=           0 NGrid=           0.
 Symmetry not used in FoFCou.
 Leave Link  703 at Fri Sep 18 13:27:35 2015, MaxMem=  402653184 cpu:      31.4
 (Enter /share/apps/g09/l716.exe)
 Dipole        =-1.45585547D-02 5.86044232D-03-3.14145704D-05
 ***** Axes restored to original set *****
 -------------------------------------------------------------------
 Center     Atomic                   Forces (Hartrees/Bohr)
 Number     Number              X              Y              Z
 -------------------------------------------------------------------
      1        6           0.000798307   -0.000044675    0.000072440
      2        1          -0.000034643    0.000000586   -0.000059204
      3        1           0.000640415    0.000043896   -0.000078237
      4        1          -0.000112144   -0.000077467   -0.000034185
      5        6           0.000485072    0.000617285    0.000005401
      6        6          -0.000852397    0.000132715    0.000006459
[...]

 Largest change from initial coordinates is atom    4       0.060 Angstoms.
 Leave Link  103 at Fri Sep 18 13:40:22 2015, MaxMem=  402653184 cpu:       0.0
 (Enter /share/apps/g09/l202.exe)
                          Input orientation:                          
 ---------------------------------------------------------------------
 Center     Atomic      Atomic             Coordinates (Angstroms)
 Number     Number       Type             X           Y           Z
 ---------------------------------------------------------------------
      1          6           0       -0.512780   -0.896422    1.259037
      2          1           0       -0.442342   -0.292873    2.172871
      3          1           0        0.291398   -1.640244    1.285454
      4          1           0       -1.464393   -1.441094    1.292896
      5          6           0       -0.435861   -0.010686    0.000195
      6          6           0        0.864795    0.836083   -0.000439
      7          1           0        0.840945    1.498494    0.876980
      8          1           0        0.840250    1.498248   -0.878025
      9          6           0        2.192996    0.068639   -0.000857
     10          1           0        2.299108   -0.568682   -0.885756
     11          1           0        3.036159    0.769079   -0.001293
     12          1           0        2.299811   -0.568428    0.884140
     13          6           0       -0.513782   -0.896769   -1.258341
     14          1           0       -0.444072   -0.293473   -2.172398
     15          1           0        0.290377   -1.640598   -1.285194
     16          1           0       -1.465420   -1.441452   -1.291292
     17          6           0       -1.634291    0.959135    0.000537
     18          1           0       -2.585371    0.412432    0.000991
     19          1           0       -1.620635    1.606305    0.886481
     20          1           0       -1.621340    1.606061   -0.885595
 ---------------------------------------------------------------------
                    Distance matrix (angstroms):
                    1          2          3          4          5
     1  C    0.000000
     2  H    1.097418   0.000000
     3  H    1.095752   1.772369   0.000000
     4  H    1.096987   1.771258   1.767065   0.000000
     5  C    1.541145   2.190935   2.199149   2.185182   0.000000
     6  C    2.546678   2.776045   2.848597   3.504764   1.552007
     7  H    2.777438   2.556395   3.212558   3.758823   2.162547
     8  H    3.483126   3.763127   3.851235   4.320186   2.162547
     9  C    3.136862   3.435228   2.861984   4.162882   2.630054
    10  H    3.551656   4.116651   3.145361   4.435264   2.928536
    11  H    4.117924   4.237299   3.872243   5.178297   3.558505
    12  H    2.856361   3.042394   2.311615   3.885597   2.928539
    13  C    2.517378   3.484683   2.769831   2.776466   1.541145
    14  H    3.484682   4.345270   3.783048   3.790297   2.190935
    15  H    2.769832   3.783048   2.570648   3.124991   2.199149
    16  H    2.776465   3.790297   3.124988   2.584188   2.185182
    17  C    2.506930   2.776203   3.480814   2.731329   1.541684
    18  H    2.755251   3.131628   3.760203   2.522136   2.190758
    19  H    2.762206   2.578770   3.788817   3.078348   2.191770
    20  H    3.477178   3.788166   4.348623   3.749081   2.191770
                    6          7          8          9         10
     6  C    0.000000
     7  H    1.099646   0.000000
     8  H    1.099646   1.755005   0.000000
     9  C    1.533978   2.154791   2.154792   0.000000
    10  H    2.194175   3.083293   2.529926   1.095666   0.000000
    11  H    2.172398   2.474343   2.474341   1.096148   1.764972
    12  H    2.194175   2.529923   3.083293   1.095666   1.769897
    13  C    2.546678   3.483126   2.777435   3.136865   2.856362
    14  H    2.776047   3.763126   2.556393   3.435236   3.042404
    15  H    2.848596   3.851236   3.212553   2.861987   2.311612
    16  H    3.504764   4.320186   3.758821   4.162884   3.885596
    17  C    2.502114   2.680644   2.680647   3.929518   4.311771
    18  H    3.476079   3.699531   3.699533   4.790719   5.060339
    19  H    2.749042   2.463958   3.030035   4.206610   4.820351
    20  H    2.749042   3.030030   2.463961   4.206612   4.483237
                   11         12         13         14         15
    11  H    0.000000
    12  H    1.764972   0.000000
    13  C    4.117924   3.551667   0.000000
    14  H    4.237301   4.116664   1.097418   0.000000
    15  H    3.872243   3.145375   1.095752   1.772369   0.000000
    16  H    5.178297   4.435273   1.096987   1.771258   1.767065
    17  C    4.674316   4.311770   2.506930   2.776202   3.480814
    18  H    5.632832   5.060340   2.755251   3.131626   3.760203
    19  H    4.814024   4.483232   3.477178   3.788165   4.348623
    20  H    4.814024   4.820352   2.762207   2.578769   3.788817
                   16         17         18         19         20
    16  H    0.000000
    17  C    2.731329   0.000000
    18  H    2.522136   1.097013   0.000000
    19  H    3.749082   1.097229   1.772044   0.000000
    20  H    3.078350   1.097229   1.772044   1.772076   0.000000
 Stoichiometry    C6H14
 Framework group  C1[X(C6H14)]
 Deg. of freedom    54
 Full point group                 C1      NOp   1
 Largest Abelian subgroup         C1      NOp   1
 Largest concise Abelian subgroup C1      NOp   1
                         Standard orientation:                         
 ---------------------------------------------------------------------
 Center     Atomic      Atomic             Coordinates (Angstroms)
 Number     Number       Type             X           Y           Z
 ---------------------------------------------------------------------
      1          6           0       -0.528900   -0.884957    1.258690
      2          1           0       -0.448520   -0.282820    2.172635
      3          1           0        0.262437   -1.642420    1.285323
      4          1           0       -1.489697   -1.413289    1.292097
      5          6           0       -0.436352   -0.000501    0.000000
      6          6           0        0.878587    0.823914   -0.000003
      7          1           0        0.865713    1.486521    0.877498
      8          1           0        0.865713    1.486515   -0.877507
      9          6           0        2.193477    0.033880    0.000000
     10          1           0        2.289032   -0.605047   -0.884945
     11          1           0        3.048489    0.719806   -0.000006
     12          1           0        2.289035   -0.605036    0.884952
     13          6           0       -0.528905   -0.884959   -1.258688
     14          1           0       -0.448531   -0.282822   -2.172635
     15          1           0        0.262433   -1.642420   -1.285325
     16          1           0       -1.489702   -1.413292   -1.292091
     17          6           0       -1.618031    0.989662    0.000002
     18          1           0       -2.578316    0.459295    0.000003
     19          1           0       -1.593668    1.636389    0.886039
     20          1           0       -1.593671    1.636388   -0.886037
 ---------------------------------------------------------------------
 Rotational constants (GHZ):      4.2614449      2.4695890      2.4611502
 Leave Link  202 at Fri Sep 18 13:40:22 2015, MaxMem=  402653184 cpu:       0.0
 (Enter /share/apps/g09/l601.exe)
 Copying SCF densities to generalized density rwf, IOpCl= 0 IROHF=0.

 **********************************************************************

            Population analysis using the SCF density.

 **********************************************************************

 Orbital symmetries:
       Occupied  (A) (A) (A) (A) (A) (A) (A) (A) (A) (A) (A) (A)
                 (A) (A) (A) (A) (A) (A) (A) (A) (A) (A) (A) (A)
                 (A)
       Virtual   (A) (A) (A) (A) (A) (A) (A) (A) (A) (A) (A) (A)
                 (A) (A) (A) (A) (A) (A) (A) (A) (A) (A) (A) (A)
                 (A) (A) (A) (A) (A) (A) (A) (A) (A) (A) (A) (A)
                 (A) (A) (A) (A) (A) (A) (A) (A) (A) (A) (A) (A)
                 (A) (A) (A) (A) (A) (A) (A) (A) (A) (A) (A) (A)
                 (A) (A) (A) (A) (A) (A) (A) (A) (A) (A) (A) (A)
                 (A) (A) (A) (A) (A) (A) (A) (A) (A) (A) (A) (A)
                 (A) (A) (A) (A) (A) (A) (A) (A) (A)
 The electronic state is 1-A.
 Alpha  occ. eigenvalues --  -10.19076 -10.17436 -10.16949 -10.16703 -10.16702
 Alpha  occ. eigenvalues --  -10.16691  -0.81596  -0.73038  -0.67745  -0.67728
 Alpha  occ. eigenvalues --   -0.61747  -0.52183  -0.45194  -0.45090  -0.43035
 Alpha  occ. eigenvalues --   -0.41750  -0.39343  -0.37696  -0.37166  -0.35836
 Alpha  occ. eigenvalues --   -0.35236  -0.33908  -0.31107  -0.30915  -0.30319
 Alpha virt. eigenvalues --    0.07666   0.12426   0.13492   0.13722   0.14285
 Alpha virt. eigenvalues --    0.14615   0.16126   0.17675   0.17805   0.19652
 Alpha virt. eigenvalues --    0.20522   0.20875   0.22602   0.22710   0.24418
 Alpha virt. eigenvalues --    0.25052   0.25955   0.26376   0.27386   0.49453
 Alpha virt. eigenvalues --    0.50718   0.51532   0.51940   0.52588   0.58829
 Alpha virt. eigenvalues --    0.60661   0.62256   0.63815   0.69666   0.71226
 Alpha virt. eigenvalues --    0.71594   0.75126   0.76590   0.82131   0.86413
 Alpha virt. eigenvalues --    0.88203   0.89100   0.90635   0.90803   0.91124
 Alpha virt. eigenvalues --    0.91195   0.91728   0.93368   0.93886   0.95725
 Alpha virt. eigenvalues --    0.96245   0.96918   0.98220   1.00069   1.00113
 Alpha virt. eigenvalues --    1.02878   1.04091   1.29488   1.39600   1.40800
 Alpha virt. eigenvalues --    1.48798   1.51245   1.60971   1.64393   1.68253
 Alpha virt. eigenvalues --    1.73247   1.73282   1.80644   1.87326   1.88284
 Alpha virt. eigenvalues --    1.93326   1.93699   1.97878   2.09238   2.10331
 Alpha virt. eigenvalues --    2.10539   2.12027   2.13110   2.24763   2.25217
 Alpha virt. eigenvalues --    2.25535   2.27361   2.27562   2.30833   2.35841
 Alpha virt. eigenvalues --    2.36653   2.49128   2.58406   2.69360   2.71788
 Alpha virt. eigenvalues --    2.74321   2.76394   4.13254   4.25497   4.31456
 Alpha virt. eigenvalues --    4.31517   4.44976   4.67751
          Condensed to atoms (all electrons):
              1          2          3          4          5          6
     1  C    5.151348   0.366071   0.367360   0.366901   0.387364  -0.057429
     2  H    0.366071   0.585322  -0.031248  -0.030965  -0.029653  -0.004797
     3  H    0.367360  -0.031248   0.578765  -0.031124  -0.028058  -0.005686
     4  H    0.366901  -0.030965  -0.031124   0.584865  -0.029205   0.005486
     5  C    0.387364  -0.029653  -0.028058  -0.029205   4.705910   0.398737
     6  C   -0.057429  -0.004797  -0.005686   0.005486   0.398737   5.019639
     7  H   -0.006970   0.004697  -0.000085  -0.000076  -0.035349   0.367322
     8  H    0.006302  -0.000036  -0.000052  -0.000183  -0.035349   0.367322
     9  C   -0.005550  -0.000221   0.001784   0.000087  -0.036771   0.369580
    10  H   -0.000428   0.000053   0.000198  -0.000021  -0.005649  -0.033910
    11  H    0.000090  -0.000031  -0.000063   0.000000   0.004081  -0.026919
    12  H    0.003343   0.000287   0.002814  -0.000117  -0.005649  -0.033910
    13  C   -0.064453   0.005797  -0.004813  -0.004447   0.387364  -0.057429
    14  H    0.005797  -0.000196  -0.000033  -0.000069  -0.029653  -0.004797
    15  H   -0.004813  -0.000033   0.003933  -0.000184  -0.028058  -0.005686
    16  H   -0.004447  -0.000069  -0.000184   0.003850  -0.029205   0.005486
    17  C   -0.061884  -0.004610   0.005656  -0.005801   0.388815  -0.057155
    18  H   -0.004930  -0.000137  -0.000056   0.004462  -0.028137   0.005375
    19  H   -0.004914   0.003971  -0.000049  -0.000151  -0.029292  -0.005347
    20  H    0.005892  -0.000065  -0.000195  -0.000026  -0.029292  -0.005347
              7          8          9         10         11         12
     1  C   -0.006970   0.006302  -0.005550  -0.000428   0.000090   0.003343
     2  H    0.004697  -0.000036  -0.000221   0.000053  -0.000031   0.000287
     3  H   -0.000085  -0.000052   0.001784   0.000198  -0.000063   0.002814
     4  H   -0.000076  -0.000183   0.000087  -0.000021   0.000000  -0.000117
     5  C   -0.035349  -0.035349  -0.036771  -0.005649   0.004081  -0.005649
     6  C    0.367322   0.367322   0.369580  -0.033910  -0.026919  -0.033910
     7  H    0.620359  -0.037919  -0.040132   0.005239  -0.003284  -0.004145
     8  H   -0.037919   0.620359  -0.040132  -0.004144  -0.003285   0.005239
     9  C   -0.040132  -0.040132   5.078469   0.377363   0.371468   0.377363
    10  H    0.005239  -0.004144   0.377363   0.574140  -0.031496  -0.032863
    11  H   -0.003284  -0.003285   0.371468  -0.031496   0.579523  -0.031496
    12  H   -0.004145   0.005239   0.377363  -0.032863  -0.031496   0.574140
    13  C    0.006302  -0.006970  -0.005550   0.003343   0.000090  -0.000428
    14  H   -0.000036   0.004697  -0.000221   0.000287  -0.000031   0.000053
    15  H   -0.000052  -0.000085   0.001783   0.002814  -0.000063   0.000198
    16  H   -0.000183  -0.000076   0.000087  -0.000117   0.000000  -0.000021
    17  C   -0.005442  -0.005442   0.004652   0.000061  -0.000132   0.000061
    18  H   -0.000041  -0.000041  -0.000164   0.000001   0.000002   0.000001
    19  H    0.005312  -0.000242  -0.000003   0.000002  -0.000003  -0.000004
    20  H   -0.000242   0.005312  -0.000003  -0.000004  -0.000003   0.000002
             13         14         15         16         17         18
     1  C   -0.064453   0.005797  -0.004813  -0.004447  -0.061884  -0.004930
     2  H    0.005797  -0.000196  -0.000033  -0.000069  -0.004610  -0.000137
     3  H   -0.004813  -0.000033   0.003933  -0.000184   0.005656  -0.000056
     4  H   -0.004447  -0.000069  -0.000184   0.003850  -0.005801   0.004462
     5  C    0.387364  -0.029653  -0.028058  -0.029205   0.388815  -0.028137
     6  C   -0.057429  -0.004797  -0.005686   0.005486  -0.057155   0.005375
     7  H    0.006302  -0.000036  -0.000052  -0.000183  -0.005442  -0.000041
     8  H   -0.006970   0.004697  -0.000085  -0.000076  -0.005442  -0.000041
     9  C   -0.005550  -0.000221   0.001783   0.000087   0.004652  -0.000164
    10  H    0.003343   0.000287   0.002814  -0.000117   0.000061   0.000001
    11  H    0.000090  -0.000031  -0.000063   0.000000  -0.000132   0.000002
    12  H   -0.000428   0.000053   0.000198  -0.000021   0.000061   0.000001
    13  C    5.151348   0.366071   0.367360   0.366901  -0.061884  -0.004930
    14  H    0.366071   0.585321  -0.031248  -0.030965  -0.004610  -0.000137
    15  H    0.367360  -0.031248   0.578765  -0.031124   0.005656  -0.000056
    16  H    0.366901  -0.030965  -0.031124   0.584865  -0.005801   0.004462
    17  C   -0.061884  -0.004610   0.005656  -0.005801   5.152579   0.364013
    18  H   -0.004930  -0.000137  -0.000056   0.004462   0.364013   0.586068
    19  H    0.005892  -0.000065  -0.000195  -0.000026   0.365870  -0.030793
    20  H   -0.004914   0.003971  -0.000049  -0.000151   0.365870  -0.030793
             19         20
     1  C   -0.004914   0.005892
     2  H    0.003971  -0.000065
     3  H   -0.000049  -0.000195
     4  H   -0.000151  -0.000026
     5  C   -0.029292  -0.029292
     6  C   -0.005347  -0.005347
     7  H    0.005312  -0.000242
     8  H   -0.000242   0.005312
     9  C   -0.000003  -0.000003
    10  H    0.000002  -0.000004
    11  H   -0.000003  -0.000003
    12  H   -0.000004   0.000002
    13  C    0.005892  -0.004914
    14  H   -0.000065   0.003971
    15  H   -0.000195  -0.000049
    16  H   -0.000026  -0.000151
    17  C    0.365870   0.365870
    18  H   -0.030793  -0.030793
    19  H    0.584623  -0.030898
    20  H   -0.030898   0.584623
 Mulliken atomic charges:
              1
     1  C   -0.444652
     2  H    0.135863
     3  H    0.141135
     4  H    0.136720
     5  C    0.107047
     6  C   -0.240535
     7  H    0.124726
     8  H    0.124726
     9  C   -0.453889
    10  H    0.145132
    11  H    0.141550
    12  H    0.145132
    13  C   -0.444652
    14  H    0.135863
    15  H    0.141135
    16  H    0.136720
    17  C   -0.440472
    18  H    0.135829
    19  H    0.136311
    20  H    0.136311
 Sum of Mulliken atomic charges =   0.00000
 Mulliken charges with hydrogens summed into heavy atoms:
              1
     1  C   -0.030934
     5  C    0.107047
     6  C    0.008916
     9  C   -0.022075
    13  C   -0.030934
    17  C   -0.032021
 Sum of Mulliken charges with hydrogens summed into heavy atoms =   0.00000
 Electronic spatial extent (au):  <R**2>=            705.7498
 Charge=              0.0000 electrons
 Dipole moment (field-independent basis, Debye):
    X=              0.0374    Y=              0.0165    Z=              0.0000  Tot=              0.0409
 Quadrupole moment (field-independent basis, Debye-Ang):
   XX=            -41.7875   YY=            -41.6710   ZZ=            -41.5862
   XY=              0.2725   XZ=              0.0000   YZ=              0.0000
 Traceless Quadrupole moment (field-independent basis, Debye-Ang):
   XX=             -0.1060   YY=              0.0106   ZZ=              0.0953
   XY=              0.2725   XZ=              0.0000   YZ=              0.0000
 Octapole moment (field-independent basis, Debye-Ang**2):
  XXX=             -0.8801  YYY=             -0.2587  ZZZ=              0.0000  XYY=              0.8983
  XXY=             -1.1194  XXZ=              0.0000  XZZ=              0.7118  YZZ=              1.9070
  YYZ=              0.0000  XYZ=              0.0000
 Hexadecapole moment (field-independent basis, Debye-Ang**3):
 XXXX=           -499.7570 YYYY=           -243.1452 ZZZZ=           -239.3835 XXXY=              8.8214
 XXXZ=              0.0000 YYYX=             -0.1378 YYYZ=              0.0000 ZZZX=              0.0000
 ZZZY=              0.0000 XXYY=           -121.9926 XXZZ=           -123.9811 YYZZ=            -79.4872
 XXYZ=              0.0000 YYXZ=              0.0000 ZZXY=             -2.1498
 N-N= 2.648706638433D+02 E-N=-1.076665366612D+03  KE= 2.346367969865D+02
 No NMR shielding tensors so no spin-rotation constants.
 Leave Link  601 at Fri Sep 18 13:40:22 2015, MaxMem=  402653184 cpu:       0.4
 (Enter /share/apps/g09/l9999.exe)
 1\1\GINC-COMPUTE-0-14\FOpt\RB3LYP\6-31G(d)\C6H14\HETANJIN\18-Sep-2015\
 0\\#p B3LYP/6-31G(d) opt=tight int=ultrafine\\using B3LYP/6-31G(d) to 
 do opt and freq calc.\\0,1\C,-0.5127803193,-0.896421756,1.2590365381\H
 ,-0.4423418605,-0.2928734982,2.1728710678\H,0.2913983564,-1.6402441774
 ,1.2854538136\H,-1.4643932116,-1.441094125,1.2928955674\C,-0.435861108
 5,-0.0106862486,0.0001945741\C,0.8647947683,0.8360834874,-0.0004394022
 \H,0.8409446713,1.4984941025,0.8769797028\H,0.8402496044,1.4982477993,
 -0.8780252419\C,2.1929959391,0.068639287,-0.0008573807\H,2.2991075756,
 -0.5686820584,-0.885756426\H,3.0361590354,0.7690791363,-0.0012932945\H
 ,2.2998111741,-0.5684276422,0.8841401944\C,-0.513781621,-0.8967690252,
 -1.2583414067\H,-0.4440723543,-0.2934726571,-2.1723980876\H,0.29037697
 47,-1.6405975786,-1.2851943737\H,-1.4654202478,-1.4414521451,-1.291291
 9648\C,-1.6342912379,0.9591352867,0.0005373901\H,-2.5853709221,0.41243
 19625,0.000990778\H,-1.6206353953,1.606305491,0.8864807182\H,-1.621339
 8209,1.6060613591,-0.8855948062\\Version=EM64L-G09RevA.01\State=1-A\HF
 =-237.0836718\RMSD=9.400e-09\RMSF=2.383e-07\Dipole=0.0146096,0.0067347
 ,-0.0000067\Quadrupole=-0.0856729,0.0147861,0.0708867,0.2010288,0.0000
 34,-0.0000717\PG=C01 [X(C6H14)]\\@


 MANHOOD BEGINS BY TRYING TO SHAVE FACE,
 AND ENDS BY TRYING TO SAVE FACE.
 Job cpu time:  0 days  0 hours 31 minutes 37.4 seconds.
 File lengths (MBytes):  RWF=     15 Int=      0 D2E=      0 Chk=      2 Scr=      1
 Normal termination of Gaussian 09 at Fri Sep 18 13:40:22 2015.
