 Entering Gaussian System, Link 0=/home/hetanjin/apps/g09D01/g09/g09
 Input=C6H14_3_r009_C1_2_opt_B3L.gjf
 Output=C6H14_3_r009_C1_2_opt_B3L.log
 Initial command:
 /home/hetanjin/apps/g09D01/g09/l1.exe "/state/partition1/Gau-24755.inp" -scrdir="/state/partition1/"
 Entering Link 1 = /home/hetanjin/apps/g09D01/g09/l1.exe PID=     24756.
  
 Copyright (c) 1988,1990,1992,1993,1995,1998,2003,2009,2013,
            Gaussian, Inc.  All Rights Reserved.
  
 This is part of the Gaussian(R) 09 program.  It is based on
 the Gaussian(R) 03 system (copyright 2003, Gaussian, Inc.),
 the Gaussian(R) 98 system (copyright 1998, Gaussian, Inc.),
 the Gaussian(R) 94 system (copyright 1995, Gaussian, Inc.),
 the Gaussian 92(TM) system (copyright 1992, Gaussian, Inc.),
 the Gaussian 90(TM) system (copyright 1990, Gaussian, Inc.),
 the Gaussian 88(TM) system (copyright 1988, Gaussian, Inc.),
 the Gaussian 86(TM) system (copyright 1986, Carnegie Mellon
 University), and the Gaussian 82(TM) system (copyright 1983,
 Carnegie Mellon University). Gaussian is a federally registered
 trademark of Gaussian, Inc.
  
 This software contains proprietary and confidential information,
 including trade secrets, belonging to Gaussian, Inc.
  
 This software is provided under written license and may be
 used, copied, transmitted, or stored only in accord with that
 written license.
  
 The following legend is applicable only to US Government
 contracts under FAR:
  
                    RESTRICTED RIGHTS LEGEND
  
 Use, reproduction and disclosure by the US Government is
 subject to restrictions as set forth in subparagraphs (a)
 and (c) of the Commercial Computer Software - Restricted
 Rights clause in FAR 52.227-19.
  
 Gaussian, Inc.
 340 Quinnipiac St., Bldg. 40, Wallingford CT 06492
  
  
 ---------------------------------------------------------------
 Warning -- This program may not be used in any manner that
 competes with the business of Gaussian, Inc. or will provide
 assistance to any competitor of Gaussian, Inc.  The licensee
 of this program is prohibited from giving any competitor of
 Gaussian, Inc. access to this program.  By using this program,
 the user acknowledges that Gaussian, Inc. is engaged in the
 business of creating and licensing software in the field of
 computational chemistry and represents and warrants to the
 licensee that it is not a competitor of Gaussian, Inc. and that
 it will not use this program in any manner prohibited above.
 ---------------------------------------------------------------
  

 Cite this work as:
 Gaussian 09, Revision D.01,
 M. J. Frisch, G. W. Trucks, H. B. Schlegel, G. E. Scuseria, 
 M. A. Robb, J. R. Cheeseman, G. Scalmani, V. Barone, B. Mennucci, 
 G. A. Petersson, H. Nakatsuji, M. Caricato, X. Li, H. P. Hratchian, 
 A. F. Izmaylov, J. Bloino, G. Zheng, J. L. Sonnenberg, M. Hada, 
 M. Ehara, K. Toyota, R. Fukuda, J. Hasegawa, M. Ishida, T. Nakajima, 
 Y. Honda, O. Kitao, H. Nakai, T. Vreven, J. A. Montgomery, Jr., 
 J. E. Peralta, F. Ogliaro, M. Bearpark, J. J. Heyd, E. Brothers, 
 K. N. Kudin, V. N. Staroverov, T. Keith, R. Kobayashi, J. Normand, 
 K. Raghavachari, A. Rendell, J. C. Burant, S. S. Iyengar, J. Tomasi, 
 M. Cossi, N. Rega, J. M. Millam, M. Klene, J. E. Knox, J. B. Cross, 
 V. Bakken, C. Adamo, J. Jaramillo, R. Gomperts, R. E. Stratmann, 
 O. Yazyev, A. J. Austin, R. Cammi, C. Pomelli, J. W. Ochterski, 
 R. L. Martin, K. Morokuma, V. G. Zakrzewski, G. A. Voth, 
 P. Salvador, J. J. Dannenberg, S. Dapprich, A. D. Daniels, 
 O. Farkas, J. B. Foresman, J. V. Ortiz, J. Cioslowski, 
 and D. J. Fox, Gaussian, Inc., Wallingford CT, 2013.
 
 ******************************************
 Gaussian 09:  ES64L-G09RevD.01 24-Apr-2013
                 7-Nov-2015 
 ******************************************
 %mem=6GB
 %nprocshared=4
 Will use up to    4 processors via shared memory.
 ----------------------------------------------
 #p B3LYP/6-31G(d) opt=tight int=ultrafine freq
 ----------------------------------------------
 1/7=10,14=-1,18=20,19=15,26=4,38=1/1,3;
 2/9=110,12=2,17=6,18=5,40=1/2;
 3/5=1,6=6,7=1,11=2,16=1,25=1,30=1,71=1,74=-5,75=-5/1,2,3;
 4//1;
 5/5=2,38=5/2;
 6/7=2,8=2,9=2,10=2,28=1/1;
 7//1,2,3,16;
 1/7=10,14=-1,18=20,19=15,26=4/3(2);
 2/9=110/2;
 99//99;
 2/9=110/2;
 3/5=1,6=6,7=1,11=2,16=1,25=1,30=1,71=1,74=-5,75=-5/1,2,3;
 4/5=5,16=3,69=1/1;
 5/5=2,38=5/2;
 7//1,2,3,16;
 1/7=10,14=-1,18=20,19=15,26=4/3(-5);
 2/9=110/2;
 6/7=2,8=2,9=2,10=2,19=2,28=1/1;
 99/9=1/99;
 Leave Link    1 at Sat Nov  7 02:05:32 2015, MaxMem=   805306368 cpu:         0.2
 (Enter /home/hetanjin/apps/g09D01/g09/l101.exe)
 ---------------------------------------------
 using B3LYP/6-31G(d) to do opt and freq calc.
 ---------------------------------------------
 Symbolic Z-matrix:
 Charge =  0 Multiplicity = 2
 C                    -2.58543  -0.17306  -0.29185 
 H                    -2.56946  -0.21059  -1.38848 
 H                    -2.79867   0.86056   0.00159 
 C                    -1.2643   -0.68112   0.2975 
 H                    -1.30509  -0.61825   1.39536 
 H                    -1.16192  -1.74928   0.0599 
 C                     0.        0.05117  -0.19883 
 H                     0.        0.00139  -1.30033 
 C                     1.2643   -0.68112   0.29751 
 H                     1.16193  -1.74928   0.05992 
 H                     1.30509  -0.61823   1.39536 
 C                     2.58543  -0.17306  -0.29185 
 H                     2.79867   0.86057   0.00157 
 H                     3.42636  -0.78859   0.04789 
 H                     2.56946  -0.21061  -1.38848 
 C                    0.         1.53336   0.20729 
 H                    -0.88093   2.05894  -0.1759 
 H                    -0.00001   1.63604   1.30101 
 H                     0.88093   2.05894  -0.17589 
 
 NAtoms=     19 NQM=       19 NQMF=       0 NMMI=      0 NMMIF=      0
                NMic=       0 NMicF=      0.
                    Isotopes and Nuclear Properties:
 (Nuclear quadrupole moments (NQMom) in fm**2, nuclear magnetic moments (NMagM)
  in nuclear magnetons)

  Atom         1           2           3           4           5           6           7           8           9          10
 IAtWgt=          12           1           1          12           1           1          12           1          12           1
 AtmWgt=  12.0000000   1.0078250   1.0078250  12.0000000   1.0078250   1.0078250  12.0000000   1.0078250  12.0000000   1.0078250
 NucSpn=           0           1           1           0           1           1           0           1           0           1
 AtZEff=   0.0000000   0.0000000   0.0000000   0.0000000   0.0000000   0.0000000   0.0000000   0.0000000   0.0000000   0.0000000
 NQMom=    0.0000000   0.0000000   0.0000000   0.0000000   0.0000000   0.0000000   0.0000000   0.0000000   0.0000000   0.0000000
 NMagM=    0.0000000   2.7928460   2.7928460   0.0000000   2.7928460   2.7928460   0.0000000   2.7928460   0.0000000   2.7928460
 AtZNuc=   6.0000000   1.0000000   1.0000000   6.0000000   1.0000000   1.0000000   6.0000000   1.0000000   6.0000000   1.0000000

  Atom        11          12          13          14          15          16          17          18          19
 IAtWgt=           1          12           1           1           1          12           1           1           1
 AtmWgt=   1.0078250  12.0000000   1.0078250   1.0078250   1.0078250  12.0000000   1.0078250   1.0078250   1.0078250
 NucSpn=           1           0           1           1           1           0           1           1           1
 AtZEff=   0.0000000   0.0000000   0.0000000   0.0000000   0.0000000   0.0000000   0.0000000   0.0000000   0.0000000
 NQMom=    0.0000000   0.0000000   0.0000000   0.0000000   0.0000000   0.0000000   0.0000000   0.0000000   0.0000000
 NMagM=    2.7928460   0.0000000   2.7928460   2.7928460   2.7928460   0.0000000   2.7928460   2.7928460   2.7928460
 AtZNuc=   1.0000000   6.0000000   1.0000000   1.0000000   1.0000000   6.0000000   1.0000000   1.0000000   1.0000000
 Leave Link  101 at Sat Nov  7 02:05:33 2015, MaxMem=   805306368 cpu:         0.6
 (Enter /home/hetanjin/apps/g09D01/g09/l103.exe)

 GradGradGradGradGradGradGradGradGradGradGradGradGradGradGradGradGradGrad
 Berny optimization.
 Initialization pass.
                           ----------------------------
                           !    Initial Parameters    !
                           ! (Angstroms and Degrees)  !
 --------------------------                            --------------------------
 ! Name  Definition              Value          Derivative Info.                !
 --------------------------------------------------------------------------------
 ! R1    R(1,2)                  1.0974         estimate D2E/DX2                !
 ! R2    R(1,3)                  1.0954         estimate D2E/DX2                !
 ! R3    R(1,4)                  1.5332         estimate D2E/DX2                !
 ! R4    R(4,5)                  1.1004         estimate D2E/DX2                !
 ! R5    R(4,6)                  1.099          estimate D2E/DX2                !
 ! R6    R(4,7)                  1.5431         estimate D2E/DX2                !
 ! R7    R(7,8)                  1.1026         estimate D2E/DX2                !
 ! R8    R(7,9)                  1.5431         estimate D2E/DX2                !
 ! R9    R(7,16)                 1.5368         estimate D2E/DX2                !
 ! R10   R(9,10)                 1.099          estimate D2E/DX2                !
 ! R11   R(9,11)                 1.1004         estimate D2E/DX2                !
 ! R12   R(9,12)                 1.5332         estimate D2E/DX2                !
 ! R13   R(12,13)                1.0954         estimate D2E/DX2                !
 ! R14   R(12,14)                1.0961         estimate D2E/DX2                !
 ! R15   R(12,15)                1.0974         estimate D2E/DX2                !
 ! R16   R(16,17)                1.095          estimate D2E/DX2                !
 ! R17   R(16,18)                1.0985         estimate D2E/DX2                !
 ! R18   R(16,19)                1.095          estimate D2E/DX2                !
 ! A1    A(2,1,3)              107.6254         estimate D2E/DX2                !
 ! A2    A(2,1,4)              111.115          estimate D2E/DX2                !
 ! A3    A(3,1,4)              112.1749         estimate D2E/DX2                !
 ! A4    A(1,4,5)              109.4277         estimate D2E/DX2                !
 ! A5    A(1,4,6)              108.6152         estimate D2E/DX2                !
 ! A6    A(1,4,7)              115.1572         estimate D2E/DX2                !
 ! A7    A(5,4,6)              105.9422         estimate D2E/DX2                !
 ! A8    A(5,4,7)              108.915          estimate D2E/DX2                !
 ! A9    A(6,4,7)              108.3832         estimate D2E/DX2                !
 ! A10   A(4,7,8)              107.4517         estimate D2E/DX2                !
 ! A11   A(4,7,9)              110.0384         estimate D2E/DX2                !
 ! A12   A(4,7,16)             111.882          estimate D2E/DX2                !
 ! A13   A(8,7,9)              107.4518         estimate D2E/DX2                !
 ! A14   A(8,7,16)             107.9103         estimate D2E/DX2                !
 ! A15   A(9,7,16)             111.882          estimate D2E/DX2                !
 ! A16   A(7,9,10)             108.3833         estimate D2E/DX2                !
 ! A17   A(7,9,11)             108.915          estimate D2E/DX2                !
 ! A18   A(7,9,12)             115.1571         estimate D2E/DX2                !
 ! A19   A(10,9,11)            105.9423         estimate D2E/DX2                !
 ! A20   A(10,9,12)            108.6152         estimate D2E/DX2                !
 ! A21   A(11,9,12)            109.4277         estimate D2E/DX2                !
 ! A22   A(9,12,13)            112.1749         estimate D2E/DX2                !
 ! A23   A(9,12,14)            110.8451         estimate D2E/DX2                !
 ! A24   A(9,12,15)            111.1149         estimate D2E/DX2                !
 ! A25   A(13,12,14)           107.3082         estimate D2E/DX2                !
 ! A26   A(13,12,15)           107.6254         estimate D2E/DX2                !
 ! A27   A(14,12,15)           107.559          estimate D2E/DX2                !
 ! A28   A(7,16,17)            111.7423         estimate D2E/DX2                !
 ! A29   A(7,16,18)            110.6857         estimate D2E/DX2                !
 ! A30   A(7,16,19)            111.7423         estimate D2E/DX2                !
 ! A31   A(17,16,18)           107.6699         estimate D2E/DX2                !
 ! A32   A(17,16,19)           107.12           estimate D2E/DX2                !
 ! A33   A(18,16,19)           107.67           estimate D2E/DX2                !
 ! D1    D(2,1,4,5)            179.2076         estimate D2E/DX2                !
 ! D2    D(2,1,4,6)            -65.5701         estimate D2E/DX2                !
 ! D3    D(2,1,4,7)             56.1554         estimate D2E/DX2                !
 ! D4    D(3,1,4,5)             58.6833         estimate D2E/DX2                !
 ! D5    D(3,1,4,6)            173.9055         estimate D2E/DX2                !
 ! D6    D(3,1,4,7)            -64.369          estimate D2E/DX2                !
 ! D7    D(1,4,7,8)            -54.8991         estimate D2E/DX2                !
 ! D8    D(1,4,7,9)           -171.5975         estimate D2E/DX2                !
 ! D9    D(1,4,7,16)            63.3728         estimate D2E/DX2                !
 ! D10   D(5,4,7,8)           -178.2239         estimate D2E/DX2                !
 ! D11   D(5,4,7,9)             65.0777         estimate D2E/DX2                !
 ! D12   D(5,4,7,16)           -59.952          estimate D2E/DX2                !
 ! D13   D(6,4,7,8)             66.9516         estimate D2E/DX2                !
 ! D14   D(6,4,7,9)            -49.7467         estimate D2E/DX2                !
 ! D15   D(6,4,7,16)          -174.7765         estimate D2E/DX2                !
 ! D16   D(4,7,9,10)            49.746          estimate D2E/DX2                !
 ! D17   D(4,7,9,11)           -65.0785         estimate D2E/DX2                !
 ! D18   D(4,7,9,12)           171.5967         estimate D2E/DX2                !
 ! D19   D(8,7,9,10)           -66.9523         estimate D2E/DX2                !
 ! D20   D(8,7,9,11)           178.2232         estimate D2E/DX2                !
 ! D21   D(8,7,9,12)            54.8984         estimate D2E/DX2                !
 ! D22   D(16,7,9,10)          174.7757         estimate D2E/DX2                !
 ! D23   D(16,7,9,11)           59.9512         estimate D2E/DX2                !
 ! D24   D(16,7,9,12)          -63.3736         estimate D2E/DX2                !
 ! D25   D(4,7,16,17)          -57.9911         estimate D2E/DX2                !
 ! D26   D(4,7,16,18)           62.0011         estimate D2E/DX2                !
 ! D27   D(4,7,16,19)         -178.0067         estimate D2E/DX2                !
 ! D28   D(8,7,16,17)           60.0075         estimate D2E/DX2                !
 ! D29   D(8,7,16,18)          179.9997         estimate D2E/DX2                !
 ! D30   D(8,7,16,19)          -60.0081         estimate D2E/DX2                !
 ! D31   D(9,7,16,17)          178.0062         estimate D2E/DX2                !
 ! D32   D(9,7,16,18)          -62.0016         estimate D2E/DX2                !
 ! D33   D(9,7,16,19)           57.9905         estimate D2E/DX2                !
 ! D34   D(7,9,12,13)           64.3686         estimate D2E/DX2                !
 ! D35   D(7,9,12,14)         -175.6996         estimate D2E/DX2                !
 ! D36   D(7,9,12,15)          -56.1557         estimate D2E/DX2                !
 ! D37   D(10,9,12,13)        -173.9059         estimate D2E/DX2                !
 ! D38   D(10,9,12,14)         -53.9741         estimate D2E/DX2                !
 ! D39   D(10,9,12,15)          65.5698         estimate D2E/DX2                !
 ! D40   D(11,9,12,13)         -58.6837         estimate D2E/DX2                !
 ! D41   D(11,9,12,14)          61.2481         estimate D2E/DX2                !
 ! D42   D(11,9,12,15)        -179.208          estimate D2E/DX2                !
 --------------------------------------------------------------------------------
 Trust Radius=3.00D-01 FncErr=1.00D-07 GrdErr=1.00D-06
 Number of steps in this run=    103 maximum allowed number of steps=    114.
 GradGradGradGradGradGradGradGradGradGradGradGradGradGradGradGradGradGrad

 Leave Link  103 at Sat Nov  7 02:05:33 2015, MaxMem=   805306368 cpu:         0.0
 (Enter /home/hetanjin/apps/g09D01/g09/l202.exe)
                          Input orientation:                          
 ---------------------------------------------------------------------
 Center     Atomic      Atomic             Coordinates (Angstroms)
 Number     Number       Type             X           Y           Z
 ---------------------------------------------------------------------
      1          6           0       -2.585432   -0.173063   -0.291849
      2          1           0       -2.569458   -0.210592   -1.388477
      3          1           0       -2.798673    0.860561    0.001587
      4          6           0       -1.264298   -0.681121    0.297502
      5          1           0       -1.305088   -0.618252    1.395357
      6          1           0       -1.161923   -1.749281    0.059899
      7          6           0        0.000001    0.051166   -0.198829
      8          1           0        0.000003    0.001388   -1.300329
      9          6           0        1.264300   -0.681115    0.297508
     10          1           0        1.161927   -1.749278    0.059916
     11          1           0        1.305092   -0.618234    1.395362
     12          6           0        2.585433   -0.173062   -0.291851
     13          1           0        2.798671    0.860567    0.001568
     14          1           0        3.426361   -0.788588    0.047886
     15          1           0        2.569459   -0.210609   -1.388479
     16          6           0       -0.000004    1.533363    0.207287
     17          1           0       -0.880930    2.058937   -0.175897
     18          1           0       -0.000012    1.636037    1.301012
     19          1           0        0.880926    2.058939   -0.175885
 ---------------------------------------------------------------------
                    Distance matrix (angstroms):
                    1          2          3          4          5
     1  C    0.000000
     2  H    1.097386   0.000000
     3  H    1.095425   1.769798   0.000000
     4  C    1.533249   2.183430   2.195144   0.000000
     5  H    2.164287   3.084566   2.521959   1.100410   0.000000
     6  H    2.152805   2.538998   3.081173   1.099046   1.755896
     7  C    2.596805   2.843572   2.920251   1.543062   2.166289
     8  H    2.780636   2.579697   3.204021   2.148800   3.058421
     9  C    3.927581   4.214456   4.355696   2.528598   2.794813
    10  H    4.080550   4.288197   4.743523   2.661574   3.024696
    11  H    4.263923   4.788326   4.579337   2.794820   2.610180
    12  C    5.170865   5.270379   5.490271   3.927581   4.263921
    13  H    5.490269   5.647691   5.597344   4.355697   4.579344
    14  H    6.052763   6.192501   6.439944   4.698525   4.922530
    15  H    5.270380   5.138917   5.647701   4.214452   4.788322
    16  C    3.137748   3.491409   2.885745   2.551572   2.782841
    17  H    2.810800   3.077700   2.268335   2.806955   3.133064
    18  H    3.534748   4.152763   3.181567   2.823946   2.606519
    19  H    4.124429   4.304219   3.873894   3.511981   3.796684
                    6          7          8          9         10
     6  H    0.000000
     7  C    2.158383   0.000000
     8  H    2.503025   1.102624   0.000000
     9  C    2.661577   1.543061   2.148800   0.000000
    10  H    2.323850   2.158384   2.503031   1.099046   0.000000
    11  H    3.024713   2.166288   3.058421   1.100410   1.755897
    12  C    4.080548   2.596804   2.780631   1.533250   2.152804
    13  H    4.743523   2.920247   3.204008   2.195144   3.081173
    14  H    4.687795   3.536382   3.765856   2.179075   2.459823
    15  H    4.288184   2.843573   2.579693   2.183430   2.538995
    16  C    3.485331   1.536827   2.149384   2.551572   3.485331
    17  H    3.825844   2.192649   2.504775   3.511981   4.327976
    18  H    3.788242   2.182049   3.072304   2.823951   3.788242
    19  H    4.327975   2.192649   2.504779   2.806951   3.825844
                   11         12         13         14         15
    11  H    0.000000
    12  C    2.164287   0.000000
    13  H    2.521962   1.095424   0.000000
    14  H    2.518828   1.096108   1.765178   0.000000
    15  H    3.084567   1.097387   1.769799   1.769600   0.000000
    16  C    2.782834   3.137755   2.885751   4.142082   3.491425
    17  H    3.796682   4.124432   3.873893   5.168291   4.304228
    18  H    2.606518   3.534767   3.181593   4.380544   4.152788
    19  H    3.133048   2.810804   2.268332   3.825928   3.077723
                   16         17         18         19
    16  C    0.000000
    17  H    1.095029   0.000000
    18  H    1.098534   1.770910   0.000000
    19  H    1.095029   1.761856   1.770910   0.000000
 Stoichiometry    C6H13(2)
 Framework group  C1[X(C6H13)]
 Deg. of freedom    51
 Full point group                 C1      NOp   1
 Largest Abelian subgroup         C1      NOp   1
 Largest concise Abelian subgroup C1      NOp   1
                         Standard orientation:                         
 ---------------------------------------------------------------------
 Center     Atomic      Atomic             Coordinates (Angstroms)
 Number     Number       Type             X           Y           Z
 ---------------------------------------------------------------------
      1          6           0       -2.649978   -0.257815   -0.287158
      2          1           0       -2.634409   -0.296698   -1.383744
      3          1           0       -2.889352    0.770461    0.004910
      4          6           0       -1.315489   -0.730793    0.301301
      5          1           0       -1.356516   -0.667213    1.399106
      6          1           0       -1.185987   -1.796352    0.065263
      7          6           0       -0.071049    0.032942   -0.197817
      8          1           0       -0.071138   -0.018604   -1.299236
      9          6           0        1.212271   -0.665796    0.298057
     10          1           0        1.137093   -1.736621    0.062293
     11          1           0        1.252800   -0.600107    1.395756
     12          6           0        2.519175   -0.124910   -0.293806
     13          1           0        2.706138    0.914332   -0.002304
     14          1           0        3.376068   -0.718068    0.045827
     15          1           0        2.502807   -0.164633   -1.390352
     16          6           0       -0.108648    1.515306    0.205943
     17          1           0       -1.003268    2.017443   -0.176942
     18          1           0       -0.109934    1.619719    1.299503
     19          1           0        0.758004    2.062729   -0.179195
 ---------------------------------------------------------------------
 Rotational constants (GHZ):      6.5719758      1.9158679      1.6419926
 Leave Link  202 at Sat Nov  7 02:05:33 2015, MaxMem=   805306368 cpu:         0.1
 (Enter /home/hetanjin/apps/g09D01/g09/l301.exe)
 Standard basis: 6-31G(d) (6D, 7F)
 Ernie: Thresh=  0.10000D-02 Tol=  0.10000D-05 Strict=F.
 There are   116 symmetry adapted cartesian basis functions of A   symmetry.
 There are   116 symmetry adapted basis functions of A   symmetry.
   116 basis functions,   220 primitive gaussians,   116 cartesian basis functions
    25 alpha electrons       24 beta electrons
       nuclear repulsion energy       246.0907564311 Hartrees.
 IExCor=  402 DFT=T Ex+Corr=B3LYP ExCW=0 ScaHFX=  0.200000
 ScaDFX=  0.800000  0.720000  1.000000  0.810000 ScalE2=  1.000000  1.000000
 IRadAn=      5 IRanWt=     -1 IRanGd=            0 ICorTp=0 IEmpDi=  4
 NAtoms=   19 NActive=   19 NUniq=   19 SFac= 1.00D+00 NAtFMM=   60 NAOKFM=F Big=F
 Integral buffers will be    131072 words long.
 Raffenetti 2 integral format.
 Two-electron integral symmetry is turned on.
 Leave Link  301 at Sat Nov  7 02:05:33 2015, MaxMem=   805306368 cpu:         0.2
 (Enter /home/hetanjin/apps/g09D01/g09/l302.exe)
 NPDir=0 NMtPBC=     1 NCelOv=     1 NCel=       1 NClECP=     1 NCelD=      1
         NCelK=      1 NCelE2=     1 NClLst=     1 CellRange=     0.0.
 One-electron integrals computed using PRISM.
 NBasis=   116 RedAO= T EigKep=  3.71D-03  NBF=   116
 NBsUse=   116 1.00D-06 EigRej= -1.00D+00 NBFU=   116
 Precomputing XC quadrature grid using
 IXCGrd= 4 IRadAn=           5 IRanWt=          -1 IRanGd=           0 AccXCQ= 0.00D+00.
 Generated NRdTot=       0 NPtTot=           0 NUsed=           0 NTot=          32
 NSgBfM=   116   116   116   116   116 MxSgAt=    19 MxSgA2=    19.
 Leave Link  302 at Sat Nov  7 02:05:33 2015, MaxMem=   805306368 cpu:         1.7
 (Enter /home/hetanjin/apps/g09D01/g09/l303.exe)
 DipDrv:  MaxL=1.
 Leave Link  303 at Sat Nov  7 02:05:33 2015, MaxMem=   805306368 cpu:         0.1
 (Enter /home/hetanjin/apps/g09D01/g09/l401.exe)
 ExpMin= 1.61D-01 ExpMax= 3.05D+03 ExpMxC= 4.57D+02 IAcc=3 IRadAn=         5 AccDes= 0.00D+00
 Harris functional with IExCor=  402 and IRadAn=       5 diagonalized for initial guess.
 HarFok:  IExCor=  402 AccDes= 0.00D+00 IRadAn=         5 IDoV= 1 UseB2=F ITyADJ=14
 ICtDFT=  3500011 ScaDFX=  1.000000  1.000000  1.000000  1.000000
 FoFCou: FMM=F IPFlag=           0 FMFlag=      100000 FMFlg1=           0
         NFxFlg=           0 DoJE=T BraDBF=F KetDBF=T FulRan=T
         wScrn=  0.000000 ICntrl=     500 IOpCl=  0 I1Cent=   200000004 NGrid=           0
         NMat0=    1 NMatS0=      1 NMatT0=    0 NMatD0=    1 NMtDS0=    0 NMtDT0=    0
 Petite list used in FoFCou.
 Harris En= -236.438368838212    
 JPrj=0 DoOrth=F DoCkMO=F.
 Initial guess <Sx>= 0.0000 <Sy>= 0.0000 <Sz>= 0.5000 <S**2>= 0.7500 S= 0.5000
 Leave Link  401 at Sat Nov  7 02:05:36 2015, MaxMem=   805306368 cpu:         8.7
 (Enter /home/hetanjin/apps/g09D01/g09/l502.exe)
 UHF open shell SCF:
 Using DIIS extrapolation, IDIIS=  1040.
 Integral symmetry usage will be decided dynamically.
 Keep R1 and R2 ints in memory in canonical form, NReq=47059932.
 IVT=       60514 IEndB=       60514 NGot=   805306368 MDV=   759189273
 LenX=   759189273 LenY=   759175376
 Requested convergence on RMS density matrix=1.00D-08 within 128 cycles.
 Requested convergence on MAX density matrix=1.00D-06.
 Requested convergence on             energy=1.00D-06.
 No special actions if energy rises.
 FoFCou: FMM=F IPFlag=           0 FMFlag=           0 FMFlg1=           0
         NFxFlg=           0 DoJE=F BraDBF=F KetDBF=F FulRan=T
         wScrn=  0.000000 ICntrl=     600 IOpCl=  0 I1Cent=           0 NGrid=           0
         NMat0=    1 NMatS0=   6786 NMatT0=    0 NMatD0=    1 NMtDS0=    0 NMtDT0=    0
 Symmetry not used in FoFCou.
 Integral accuracy reduced to 1.0D-05 until final iterations.

 Cycle   1  Pass 0  IDiag  1:
 E= -236.155361031406    
 DIIS: error= 4.45D-02 at cycle   1 NSaved=   1.
 NSaved= 1 IEnMin= 1 EnMin= -236.155361031406     IErMin= 1 ErrMin= 4.45D-02
 ErrMax= 4.45D-02  0.00D+00 EMaxC= 1.00D-01 BMatC= 8.66D-01 BMatP= 8.66D-01
 IDIUse=3 WtCom= 5.55D-01 WtEn= 4.45D-01
 Coeff-Com:  0.100D+01
 Coeff-En:   0.100D+01
 Coeff:      0.100D+01
 Gap=     0.282 Goal=   None    Shift=    0.000
 Gap=     0.242 Goal=   None    Shift=    0.000
 GapD=    0.242 DampG=1.000 DampE=0.500 DampFc=0.5000 IDamp=-1.
 Damping current iteration by 5.00D-01
 RMSDP=9.44D-03 MaxDP=1.37D-01              OVMax= 1.82D-01

 Cycle   2  Pass 0  IDiag  1:
 E= -236.264491524397     Delta-E=       -0.109130492991 Rises=F Damp=T
 DIIS: error= 8.70D-03 at cycle   2 NSaved=   2.
 NSaved= 2 IEnMin= 2 EnMin= -236.264491524397     IErMin= 2 ErrMin= 8.70D-03
 ErrMax= 8.70D-03  0.00D+00 EMaxC= 1.00D-01 BMatC= 3.96D-02 BMatP= 8.66D-01
 IDIUse=3 WtCom= 9.13D-01 WtEn= 8.70D-02
 Coeff-Com:  0.714D-01 0.929D+00
 Coeff-En:   0.116D+00 0.884D+00
 Coeff:      0.753D-01 0.925D+00
 Gap=     0.319 Goal=   None    Shift=    0.000
 Gap=     0.266 Goal=   None    Shift=    0.000
 RMSDP=1.54D-03 MaxDP=2.36D-02 DE=-1.09D-01 OVMax= 1.01D-01

 Cycle   3  Pass 0  IDiag  1:
 E= -236.398750972389     Delta-E=       -0.134259447992 Rises=F Damp=F
 DIIS: error= 3.21D-03 at cycle   3 NSaved=   3.
 NSaved= 3 IEnMin= 3 EnMin= -236.398750972389     IErMin= 3 ErrMin= 3.21D-03
 ErrMax= 3.21D-03  0.00D+00 EMaxC= 1.00D-01 BMatC= 7.35D-03 BMatP= 3.96D-02
 IDIUse=3 WtCom= 9.68D-01 WtEn= 3.21D-02
 Coeff-Com: -0.225D-02 0.243D+00 0.759D+00
 Coeff-En:   0.000D+00 0.000D+00 0.100D+01
 Coeff:     -0.218D-02 0.236D+00 0.767D+00
 Gap=     0.318 Goal=   None    Shift=    0.000
 Gap=     0.241 Goal=   None    Shift=    0.000
 RMSDP=6.65D-04 MaxDP=1.80D-02 DE=-1.34D-01 OVMax= 1.90D-02

 Cycle   4  Pass 0  IDiag  1:
 E= -236.399858173825     Delta-E=       -0.001107201435 Rises=F Damp=F
 DIIS: error= 2.11D-03 at cycle   4 NSaved=   4.
 NSaved= 4 IEnMin= 4 EnMin= -236.399858173825     IErMin= 4 ErrMin= 2.11D-03
 ErrMax= 2.11D-03  0.00D+00 EMaxC= 1.00D-01 BMatC= 3.21D-03 BMatP= 7.35D-03
 IDIUse=3 WtCom= 9.79D-01 WtEn= 2.11D-02
 Coeff-Com: -0.620D-02 0.402D-01 0.406D+00 0.560D+00
 Coeff-En:   0.000D+00 0.000D+00 0.294D+00 0.706D+00
 Coeff:     -0.607D-02 0.394D-01 0.404D+00 0.563D+00
 Gap=     0.311 Goal=   None    Shift=    0.000
 Gap=     0.250 Goal=   None    Shift=    0.000
 RMSDP=2.55D-04 MaxDP=5.26D-03 DE=-1.11D-03 OVMax= 9.51D-03

 Cycle   5  Pass 0  IDiag  1:
 E= -236.400670106665     Delta-E=       -0.000811932840 Rises=F Damp=F
 DIIS: error= 3.17D-04 at cycle   5 NSaved=   5.
 NSaved= 5 IEnMin= 5 EnMin= -236.400670106665     IErMin= 5 ErrMin= 3.17D-04
 ErrMax= 3.17D-04  0.00D+00 EMaxC= 1.00D-01 BMatC= 7.83D-05 BMatP= 3.21D-03
 IDIUse=3 WtCom= 9.97D-01 WtEn= 3.17D-03
 Coeff-Com: -0.147D-02-0.266D-02 0.845D-01 0.194D+00 0.725D+00
 Coeff-En:   0.000D+00 0.000D+00 0.000D+00 0.000D+00 0.100D+01
 Coeff:     -0.147D-02-0.265D-02 0.842D-01 0.194D+00 0.726D+00
 Gap=     0.311 Goal=   None    Shift=    0.000
 Gap=     0.249 Goal=   None    Shift=    0.000
 RMSDP=4.56D-05 MaxDP=8.98D-04 DE=-8.12D-04 OVMax= 1.07D-03

 Cycle   6  Pass 0  IDiag  1:
 E= -236.400690240860     Delta-E=       -0.000020134195 Rises=F Damp=F
 DIIS: error= 9.20D-05 at cycle   6 NSaved=   6.
 NSaved= 6 IEnMin= 6 EnMin= -236.400690240860     IErMin= 6 ErrMin= 9.20D-05
 ErrMax= 9.20D-05  0.00D+00 EMaxC= 1.00D-01 BMatC= 4.73D-06 BMatP= 7.83D-05
 IDIUse=1 WtCom= 1.00D+00 WtEn= 0.00D+00
 Coeff-Com: -0.113D-03-0.286D-02-0.844D-03 0.213D-01 0.190D+00 0.793D+00
 Coeff:     -0.113D-03-0.286D-02-0.844D-03 0.213D-01 0.190D+00 0.793D+00
 Gap=     0.312 Goal=   None    Shift=    0.000
 Gap=     0.249 Goal=   None    Shift=    0.000
 RMSDP=1.67D-05 MaxDP=5.19D-04 DE=-2.01D-05 OVMax= 5.12D-04

 Cycle   7  Pass 0  IDiag  1:
 E= -236.400691801629     Delta-E=       -0.000001560769 Rises=F Damp=F
 DIIS: error= 3.31D-05 at cycle   7 NSaved=   7.
 NSaved= 7 IEnMin= 7 EnMin= -236.400691801629     IErMin= 7 ErrMin= 3.31D-05
 ErrMax= 3.31D-05  0.00D+00 EMaxC= 1.00D-01 BMatC= 1.38D-06 BMatP= 4.73D-06
 IDIUse=1 WtCom= 1.00D+00 WtEn= 0.00D+00
 Coeff-Com:  0.239D-03-0.528D-03-0.188D-01-0.331D-01-0.832D-01 0.331D+00
 Coeff-Com:  0.805D+00
 Coeff:      0.239D-03-0.528D-03-0.188D-01-0.331D-01-0.832D-01 0.331D+00
 Coeff:      0.805D+00
 Gap=     0.312 Goal=   None    Shift=    0.000
 Gap=     0.249 Goal=   None    Shift=    0.000
 RMSDP=7.49D-06 MaxDP=2.34D-04 DE=-1.56D-06 OVMax= 2.42D-04

 Initial convergence to 1.0D-05 achieved.  Increase integral accuracy.
 Cycle   8  Pass 1  IDiag  1:
 E= -236.400672729335     Delta-E=        0.000019072294 Rises=F Damp=F
 DIIS: error= 8.69D-06 at cycle   1 NSaved=   1.
 NSaved= 1 IEnMin= 1 EnMin= -236.400672729335     IErMin= 1 ErrMin= 8.69D-06
 ErrMax= 8.69D-06  0.00D+00 EMaxC= 1.00D-01 BMatC= 1.01D-07 BMatP= 1.01D-07
 IDIUse=1 WtCom= 1.00D+00 WtEn= 0.00D+00
 Coeff-Com:  0.100D+01
 Coeff:      0.100D+01
 Gap=     0.312 Goal=   None    Shift=    0.000
 Gap=     0.249 Goal=   None    Shift=    0.000
 RMSDP=7.49D-06 MaxDP=2.34D-04 DE= 1.91D-05 OVMax= 6.17D-05

 Cycle   9  Pass 1  IDiag  1:
 E= -236.400672743500     Delta-E=       -0.000000014165 Rises=F Damp=F
 DIIS: error= 1.04D-05 at cycle   2 NSaved=   2.
 NSaved= 2 IEnMin= 2 EnMin= -236.400672743500     IErMin= 1 ErrMin= 8.69D-06
 ErrMax= 1.04D-05  0.00D+00 EMaxC= 1.00D-01 BMatC= 9.18D-08 BMatP= 1.01D-07
 IDIUse=1 WtCom= 1.00D+00 WtEn= 0.00D+00
 Coeff-Com:  0.487D+00 0.513D+00
 Coeff:      0.487D+00 0.513D+00
 Gap=     0.312 Goal=   None    Shift=    0.000
 Gap=     0.249 Goal=   None    Shift=    0.000
 RMSDP=1.44D-06 MaxDP=3.19D-05 DE=-1.42D-08 OVMax= 3.18D-05

 Cycle  10  Pass 1  IDiag  1:
 E= -236.400672767099     Delta-E=       -0.000000023599 Rises=F Damp=F
 DIIS: error= 1.97D-06 at cycle   3 NSaved=   3.
 NSaved= 3 IEnMin= 3 EnMin= -236.400672767099     IErMin= 3 ErrMin= 1.97D-06
 ErrMax= 1.97D-06  0.00D+00 EMaxC= 1.00D-01 BMatC= 4.24D-09 BMatP= 9.18D-08
 IDIUse=1 WtCom= 1.00D+00 WtEn= 0.00D+00
 Coeff-Com: -0.218D-01 0.103D+00 0.918D+00
 Coeff:     -0.218D-01 0.103D+00 0.918D+00
 Gap=     0.312 Goal=   None    Shift=    0.000
 Gap=     0.249 Goal=   None    Shift=    0.000
 RMSDP=5.04D-07 MaxDP=1.14D-05 DE=-2.36D-08 OVMax= 1.15D-05

 Cycle  11  Pass 1  IDiag  1:
 E= -236.400672768861     Delta-E=       -0.000000001761 Rises=F Damp=F
 DIIS: error= 9.51D-07 at cycle   4 NSaved=   4.
 NSaved= 4 IEnMin= 4 EnMin= -236.400672768861     IErMin= 4 ErrMin= 9.51D-07
 ErrMax= 9.51D-07  0.00D+00 EMaxC= 1.00D-01 BMatC= 9.49D-10 BMatP= 4.24D-09
 IDIUse=1 WtCom= 1.00D+00 WtEn= 0.00D+00
 Coeff-Com: -0.124D+00-0.893D-01 0.313D+00 0.900D+00
 Coeff:     -0.124D+00-0.893D-01 0.313D+00 0.900D+00
 Gap=     0.312 Goal=   None    Shift=    0.000
 Gap=     0.249 Goal=   None    Shift=    0.000
 RMSDP=2.62D-07 MaxDP=8.18D-06 DE=-1.76D-09 OVMax= 6.58D-06

 Cycle  12  Pass 1  IDiag  1:
 E= -236.400672769279     Delta-E=       -0.000000000418 Rises=F Damp=F
 DIIS: error= 2.69D-07 at cycle   5 NSaved=   5.
 NSaved= 5 IEnMin= 5 EnMin= -236.400672769279     IErMin= 5 ErrMin= 2.69D-07
 ErrMax= 2.69D-07  0.00D+00 EMaxC= 1.00D-01 BMatC= 6.84D-11 BMatP= 9.49D-10
 IDIUse=1 WtCom= 1.00D+00 WtEn= 0.00D+00
 Coeff-Com: -0.462D-01-0.402D-01 0.666D-01 0.344D+00 0.676D+00
 Coeff:     -0.462D-01-0.402D-01 0.666D-01 0.344D+00 0.676D+00
 Gap=     0.312 Goal=   None    Shift=    0.000
 Gap=     0.249 Goal=   None    Shift=    0.000
 RMSDP=4.74D-08 MaxDP=1.69D-06 DE=-4.18D-10 OVMax= 1.46D-06

 Cycle  13  Pass 1  IDiag  1:
 E= -236.400672769297     Delta-E=       -0.000000000018 Rises=F Damp=F
 DIIS: error= 1.01D-07 at cycle   6 NSaved=   6.
 NSaved= 6 IEnMin= 6 EnMin= -236.400672769297     IErMin= 6 ErrMin= 1.01D-07
 ErrMax= 1.01D-07  0.00D+00 EMaxC= 1.00D-01 BMatC= 7.26D-12 BMatP= 6.84D-11
 IDIUse=1 WtCom= 1.00D+00 WtEn= 0.00D+00
 Coeff-Com: -0.290D-02-0.486D-02-0.123D-01 0.264D-01 0.261D+00 0.733D+00
 Coeff:     -0.290D-02-0.486D-02-0.123D-01 0.264D-01 0.261D+00 0.733D+00
 Gap=     0.312 Goal=   None    Shift=    0.000
 Gap=     0.249 Goal=   None    Shift=    0.000
 RMSDP=1.71D-08 MaxDP=4.75D-07 DE=-1.82D-11 OVMax= 4.65D-07

 Cycle  14  Pass 1  IDiag  1:
 E= -236.400672769295     Delta-E=        0.000000000002 Rises=F Damp=F
 DIIS: error= 2.91D-08 at cycle   7 NSaved=   7.
 NSaved= 7 IEnMin= 6 EnMin= -236.400672769297     IErMin= 7 ErrMin= 2.91D-08
 ErrMax= 2.91D-08  0.00D+00 EMaxC= 1.00D-01 BMatC= 5.40D-13 BMatP= 7.26D-12
 IDIUse=1 WtCom= 1.00D+00 WtEn= 0.00D+00
 Coeff-Com:  0.229D-02 0.115D-02-0.893D-02-0.152D-01 0.401D-01 0.255D+00
 Coeff-Com:  0.725D+00
 Coeff:      0.229D-02 0.115D-02-0.893D-02-0.152D-01 0.401D-01 0.255D+00
 Coeff:      0.725D+00
 Gap=     0.312 Goal=   None    Shift=    0.000
 Gap=     0.249 Goal=   None    Shift=    0.000
 RMSDP=5.00D-09 MaxDP=1.16D-07 DE= 2.05D-12 OVMax= 1.25D-07

 SCF Done:  E(UB3LYP) =  -236.400672769     A.U. after   14 cycles
            NFock= 14  Conv=0.50D-08     -V/T= 2.0104
 <Sx>= 0.0000 <Sy>= 0.0000 <Sz>= 0.5000 <S**2>= 0.7528 S= 0.5014
 <L.S>= 0.000000000000E+00
 KE= 2.339647692771D+02 PE=-1.037652820115D+03 EE= 3.211966216375D+02
 Annihilation of the first spin contaminant:
 S**2 before annihilation     0.7528,   after     0.7500
 Leave Link  502 at Sat Nov  7 02:06:19 2015, MaxMem=   805306368 cpu:       167.5
 (Enter /home/hetanjin/apps/g09D01/g09/l601.exe)
 Copying SCF densities to generalized density rwf, IOpCl= 1 IROHF=0.

 **********************************************************************

            Population analysis using the SCF density.

 **********************************************************************

 Orbital symmetries:
 Alpha Orbitals:
       Occupied  (A) (A) (A) (A) (A) (A) (A) (A) (A) (A) (A) (A)
                 (A) (A) (A) (A) (A) (A) (A) (A) (A) (A) (A) (A)
                 (A)
       Virtual   (A) (A) (A) (A) (A) (A) (A) (A) (A) (A) (A) (A)
                 (A) (A) (A) (A) (A) (A) (A) (A) (A) (A) (A) (A)
                 (A) (A) (A) (A) (A) (A) (A) (A) (A) (A) (A) (A)
                 (A) (A) (A) (A) (A) (A) (A) (A) (A) (A) (A) (A)
                 (A) (A) (A) (A) (A) (A) (A) (A) (A) (A) (A) (A)
                 (A) (A) (A) (A) (A) (A) (A) (A) (A) (A) (A) (A)
                 (A) (A) (A) (A) (A) (A) (A) (A) (A) (A) (A) (A)
                 (A) (A) (A) (A) (A) (A) (A)
 Beta  Orbitals:
       Occupied  (A) (A) (A) (A) (A) (A) (A) (A) (A) (A) (A) (A)
                 (A) (A) (A) (A) (A) (A) (A) (A) (A) (A) (A) (A)
       Virtual   (A) (A) (A) (A) (A) (A) (A) (A) (A) (A) (A) (A)
                 (A) (A) (A) (A) (A) (A) (A) (A) (A) (A) (A) (A)
                 (A) (A) (A) (A) (A) (A) (A) (A) (A) (A) (A) (A)
                 (A) (A) (A) (A) (A) (A) (A) (A) (A) (A) (A) (A)
                 (A) (A) (A) (A) (A) (A) (A) (A) (A) (A) (A) (A)
                 (A) (A) (A) (A) (A) (A) (A) (A) (A) (A) (A) (A)
                 (A) (A) (A) (A) (A) (A) (A) (A) (A) (A) (A) (A)
                 (A) (A) (A) (A) (A) (A) (A) (A)
 The electronic state is 2-A.
 Alpha  occ. eigenvalues --  -10.19426 -10.19043 -10.18076 -10.17964 -10.17366
 Alpha  occ. eigenvalues --  -10.17185  -0.81344  -0.74598  -0.70460  -0.64891
 Alpha  occ. eigenvalues --   -0.59158  -0.55475  -0.46707  -0.44875  -0.42958
 Alpha  occ. eigenvalues --   -0.41668  -0.39021  -0.38094  -0.36399  -0.35456
 Alpha  occ. eigenvalues --   -0.33930  -0.33017  -0.31887  -0.31305  -0.22645
 Alpha virt. eigenvalues --    0.08551   0.11838   0.12194   0.12542   0.14887
 Alpha virt. eigenvalues --    0.15653   0.16196   0.17115   0.17681   0.18160
 Alpha virt. eigenvalues --    0.19998   0.22231   0.22664   0.24321   0.24678
 Alpha virt. eigenvalues --    0.25019   0.28310   0.29098   0.49469   0.50914
 Alpha virt. eigenvalues --    0.51218   0.52530   0.53763   0.58074   0.58931
 Alpha virt. eigenvalues --    0.59532   0.62797   0.65020   0.67869   0.69356
 Alpha virt. eigenvalues --    0.69796   0.74174   0.79879   0.82393   0.84389
 Alpha virt. eigenvalues --    0.86239   0.88229   0.89674   0.90212   0.91183
 Alpha virt. eigenvalues --    0.92305   0.92927   0.94648   0.95899   0.96200
 Alpha virt. eigenvalues --    0.97105   0.98903   1.00061   1.03011   1.07542
 Alpha virt. eigenvalues --    1.22469   1.31414   1.40507   1.42424   1.48764
 Alpha virt. eigenvalues --    1.57035   1.59666   1.65813   1.73626   1.73742
 Alpha virt. eigenvalues --    1.78814   1.86570   1.88803   1.92365   1.95079
 Alpha virt. eigenvalues --    1.96173   1.99321   1.99579   2.01804   2.08270
 Alpha virt. eigenvalues --    2.09490   2.12224   2.23966   2.27716   2.28895
 Alpha virt. eigenvalues --    2.30718   2.33637   2.35106   2.41614   2.50813
 Alpha virt. eigenvalues --    2.52005   2.58999   2.67940   2.76452   2.78600
 Alpha virt. eigenvalues --    4.08205   4.18028   4.25749   4.38843   4.41367
 Alpha virt. eigenvalues --    4.58887
  Beta  occ. eigenvalues --  -10.18913 -10.18111 -10.17981 -10.17950 -10.17360
  Beta  occ. eigenvalues --  -10.17183  -0.81018  -0.73928  -0.69795  -0.64104
  Beta  occ. eigenvalues --   -0.57937  -0.55269  -0.46540  -0.44527  -0.42592
  Beta  occ. eigenvalues --   -0.41402  -0.38675  -0.37950  -0.36126  -0.35052
  Beta  occ. eigenvalues --   -0.33493  -0.32341  -0.31799  -0.31006
  Beta virt. eigenvalues --   -0.06070   0.08747   0.11938   0.12573   0.12660
  Beta virt. eigenvalues --    0.15041   0.15800   0.16432   0.17358   0.17773
  Beta virt. eigenvalues --    0.18458   0.20313   0.22565   0.23116   0.24609
  Beta virt. eigenvalues --    0.24842   0.25355   0.29062   0.29735   0.49801
  Beta virt. eigenvalues --    0.51029   0.51812   0.52629   0.54955   0.58923
  Beta virt. eigenvalues --    0.59396   0.62926   0.64190   0.65300   0.68307
  Beta virt. eigenvalues --    0.69837   0.70802   0.74378   0.80122   0.82557
  Beta virt. eigenvalues --    0.84464   0.86562   0.88356   0.89825   0.90597
  Beta virt. eigenvalues --    0.91255   0.92776   0.93133   0.94920   0.96043
  Beta virt. eigenvalues --    0.97003   0.97440   0.99088   1.00312   1.03222
  Beta virt. eigenvalues --    1.08218   1.23734   1.31562   1.41263   1.42795
  Beta virt. eigenvalues --    1.49293   1.57992   1.60105   1.66894   1.73927
  Beta virt. eigenvalues --    1.74604   1.80142   1.87724   1.89718   1.94154
  Beta virt. eigenvalues --    1.96341   1.97563   1.99819   2.00519   2.02299
  Beta virt. eigenvalues --    2.09666   2.11244   2.12865   2.25261   2.28037
  Beta virt. eigenvalues --    2.29058   2.31140   2.34481   2.35594   2.42642
  Beta virt. eigenvalues --    2.51012   2.52252   2.59669   2.68283   2.76853
  Beta virt. eigenvalues --    2.79153   4.09655   4.19361   4.26058   4.39556
  Beta virt. eigenvalues --    4.41442   4.59040
          Condensed to atoms (all electrons):
               1          2          3          4          5          6
     1  C    5.302489   0.360717   0.363003   0.381477  -0.037532  -0.038041
     2  H    0.360717   0.596940  -0.047058  -0.045405   0.005507  -0.005026
     3  H    0.363003  -0.047058   0.588863  -0.041819  -0.005787   0.005177
     4  C    0.381477  -0.045405  -0.041819   5.026202   0.365270   0.367688
     5  H   -0.037532   0.005507  -0.005787   0.365270   0.610828  -0.038223
     6  H   -0.038041  -0.005026   0.005177   0.367688  -0.038223   0.606362
     7  C   -0.041391  -0.002559  -0.003221   0.375159  -0.037214  -0.037203
     8  H   -0.004483   0.005949  -0.000300  -0.047715   0.006594  -0.003552
     9  C    0.004075  -0.000011  -0.000042  -0.041596  -0.004524  -0.005843
    10  H    0.000104  -0.000003   0.000003  -0.005044  -0.000345   0.007294
    11  H   -0.000019   0.000008   0.000003  -0.004162   0.004775  -0.000329
    12  C   -0.000128   0.000002   0.000003   0.003832  -0.000030   0.000098
    13  H    0.000001   0.000000   0.000000   0.000025   0.000002   0.000003
    14  H    0.000001   0.000000   0.000000  -0.000114   0.000003  -0.000008
    15  H   -0.000001  -0.000001   0.000000   0.000056   0.000007   0.000000
    16  C   -0.005945  -0.000679   0.002249  -0.049510  -0.008167   0.005793
    17  H    0.003982   0.000386   0.002903  -0.005321  -0.000037   0.000008
    18  H   -0.000241   0.000073   0.000260  -0.005257   0.005609  -0.000015
    19  H    0.000195  -0.000022  -0.000078   0.004767  -0.000032  -0.000169
               7          8          9         10         11         12
     1  C   -0.041391  -0.004483   0.004075   0.000104  -0.000019  -0.000128
     2  H   -0.002559   0.005949  -0.000011  -0.000003   0.000008   0.000002
     3  H   -0.003221  -0.000300  -0.000042   0.000003   0.000003   0.000003
     4  C    0.375159  -0.047715  -0.041596  -0.005044  -0.004162   0.003832
     5  H   -0.037214   0.006594  -0.004524  -0.000345   0.004775  -0.000030
     6  H   -0.037203  -0.003552  -0.005843   0.007294  -0.000329   0.000098
     7  C    4.890018   0.372466   0.387439  -0.038765  -0.038569  -0.037941
     8  H    0.372466   0.646110  -0.046673  -0.003497   0.006544  -0.004977
     9  C    0.387439  -0.046673   4.993168   0.372405   0.369908   0.368352
    10  H   -0.038765  -0.003497   0.372405   0.611700  -0.038252  -0.038963
    11  H   -0.038569   0.006544   0.369908  -0.038252   0.614579  -0.039536
    12  C   -0.037941  -0.004977   0.368352  -0.038963  -0.039536   5.074024
    13  H   -0.005104  -0.000201  -0.032772   0.005095  -0.004667   0.377405
    14  H    0.003930  -0.000013  -0.026972  -0.003779  -0.002213   0.371872
    15  H   -0.004664   0.005707  -0.035972  -0.003803   0.005316   0.376762
    16  C    0.375841  -0.050076  -0.050220   0.005758  -0.007953  -0.003778
    17  H   -0.029421  -0.003147   0.004976  -0.000171  -0.000027   0.000067
    18  H   -0.035742   0.005959  -0.005368  -0.000013   0.005612  -0.000304
    19  H   -0.029074  -0.003190  -0.005403   0.000000  -0.000067   0.002217
              13         14         15         16         17         18
     1  C    0.000001   0.000001  -0.000001  -0.005945   0.003982  -0.000241
     2  H    0.000000   0.000000  -0.000001  -0.000679   0.000386   0.000073
     3  H    0.000000   0.000000   0.000000   0.002249   0.002903   0.000260
     4  C    0.000025  -0.000114   0.000056  -0.049510  -0.005321  -0.005257
     5  H    0.000002   0.000003   0.000007  -0.008167  -0.000037   0.005609
     6  H    0.000003  -0.000008   0.000000   0.005793   0.000008  -0.000015
     7  C   -0.005104   0.003930  -0.004664   0.375841  -0.029421  -0.035742
     8  H   -0.000201  -0.000013   0.005707  -0.050076  -0.003147   0.005959
     9  C   -0.032772  -0.026972  -0.035972  -0.050220   0.004976  -0.005368
    10  H    0.005095  -0.003779  -0.003803   0.005758  -0.000171  -0.000013
    11  H   -0.004667  -0.002213   0.005316  -0.007953  -0.000027   0.005612
    12  C    0.377405   0.371872   0.376762  -0.003778   0.000067  -0.000304
    13  H    0.571800  -0.031103  -0.032893   0.002153  -0.000117   0.000268
    14  H   -0.031103   0.575479  -0.031121   0.000110   0.000001  -0.000023
    15  H   -0.032893  -0.031121   0.578868  -0.000554  -0.000028   0.000075
    16  C    0.002153   0.000110  -0.000554   5.123835   0.369087   0.371199
    17  H   -0.000117   0.000001  -0.000028   0.369087   0.576106  -0.031793
    18  H    0.000268  -0.000023   0.000075   0.371199  -0.031793   0.582192
    19  H    0.003168  -0.000092   0.000384   0.371172  -0.030138  -0.031515
              19
     1  C    0.000195
     2  H   -0.000022
     3  H   -0.000078
     4  C    0.004767
     5  H   -0.000032
     6  H   -0.000169
     7  C   -0.029074
     8  H   -0.003190
     9  C   -0.005403
    10  H    0.000000
    11  H   -0.000067
    12  C    0.002217
    13  H    0.003168
    14  H   -0.000092
    15  H    0.000384
    16  C    0.371172
    17  H   -0.030138
    18  H   -0.031515
    19  H    0.571549
          Atomic-Atomic Spin Densities.
               1          2          3          4          5          6
     1  C    1.120843  -0.011001  -0.010833  -0.029566  -0.002784  -0.004467
     2  H   -0.011001  -0.026188   0.005871   0.000561   0.000022   0.001079
     3  H   -0.010833   0.005871  -0.027446   0.000371   0.000842   0.000100
     4  C   -0.029566   0.000561   0.000371  -0.050279   0.003920   0.005336
     5  H   -0.002784   0.000022   0.000842   0.003920   0.005354   0.001196
     6  H   -0.004467   0.001079   0.000100   0.005336   0.001196   0.010846
     7  C   -0.025417  -0.001826  -0.001598   0.015737  -0.004937  -0.007096
     8  H    0.001269   0.000094   0.000091   0.000482   0.000036   0.000183
     9  C    0.001480   0.000072   0.000055  -0.000977   0.000632   0.001046
    10  H    0.000081   0.000008   0.000001  -0.000016   0.000067   0.000330
    11  H   -0.000003   0.000000   0.000000  -0.000062  -0.000012  -0.000011
    12  C   -0.000058  -0.000003  -0.000001  -0.000049  -0.000029  -0.000064
    13  H   -0.000001   0.000000   0.000000   0.000002   0.000000   0.000000
    14  H    0.000001   0.000000   0.000000   0.000005   0.000001   0.000003
    15  H   -0.000002   0.000000   0.000000   0.000001   0.000000  -0.000002
    16  C   -0.001965  -0.000081  -0.000408   0.000738   0.000226   0.000110
    17  H    0.004016   0.000238   0.001199  -0.000779   0.000125   0.000049
    18  H    0.000271   0.000007   0.000044   0.000003   0.000089   0.000010
    19  H   -0.000055  -0.000001  -0.000011  -0.000120  -0.000001  -0.000001
               7          8          9         10         11         12
     1  C   -0.025417   0.001269   0.001480   0.000081  -0.000003  -0.000058
     2  H   -0.001826   0.000094   0.000072   0.000008   0.000000  -0.000003
     3  H   -0.001598   0.000091   0.000055   0.000001   0.000000  -0.000001
     4  C    0.015737   0.000482  -0.000977  -0.000016  -0.000062  -0.000049
     5  H   -0.004937   0.000036   0.000632   0.000067  -0.000012  -0.000029
     6  H   -0.007096   0.000183   0.001046   0.000330  -0.000011  -0.000064
     7  C    0.093420  -0.002432  -0.011420  -0.001175   0.000194   0.001113
     8  H   -0.002432  -0.002658   0.001026   0.000088  -0.000024  -0.000216
     9  C   -0.011420   0.001026   0.015433   0.000914   0.000038  -0.002863
    10  H   -0.001175   0.000088   0.000914   0.000422  -0.000023  -0.000725
    11  H    0.000194  -0.000024   0.000038  -0.000023  -0.000423  -0.000019
    12  C    0.001113  -0.000216  -0.002863  -0.000725  -0.000019   0.005868
    13  H   -0.000021  -0.000003  -0.000060  -0.000007   0.000005   0.000154
    14  H   -0.000075   0.000013  -0.000040   0.000183   0.000003  -0.001029
    15  H    0.000000  -0.000033  -0.000128  -0.000030  -0.000002   0.000263
    16  C   -0.002795   0.000357   0.002088   0.000065   0.000022  -0.000486
    17  H   -0.001834   0.000192   0.000289   0.000006  -0.000001  -0.000042
    18  H   -0.000799  -0.000004   0.000300   0.000005  -0.000013  -0.000045
    19  H    0.000406  -0.000013  -0.000240  -0.000003  -0.000003   0.000053
              13         14         15         16         17         18
     1  C   -0.000001   0.000001  -0.000002  -0.001965   0.004016   0.000271
     2  H    0.000000   0.000000   0.000000  -0.000081   0.000238   0.000007
     3  H    0.000000   0.000000   0.000000  -0.000408   0.001199   0.000044
     4  C    0.000002   0.000005   0.000001   0.000738  -0.000779   0.000003
     5  H    0.000000   0.000001   0.000000   0.000226   0.000125   0.000089
     6  H    0.000000   0.000003  -0.000002   0.000110   0.000049   0.000010
     7  C   -0.000021  -0.000075   0.000000  -0.002795  -0.001834  -0.000799
     8  H   -0.000003   0.000013  -0.000033   0.000357   0.000192  -0.000004
     9  C   -0.000060  -0.000040  -0.000128   0.002088   0.000289   0.000300
    10  H   -0.000007   0.000183  -0.000030   0.000065   0.000006   0.000005
    11  H    0.000005   0.000003  -0.000002   0.000022  -0.000001  -0.000013
    12  C    0.000154  -0.001029   0.000263  -0.000486  -0.000042  -0.000045
    13  H   -0.000094  -0.000084   0.000025  -0.000015  -0.000002  -0.000003
    14  H   -0.000084   0.002639  -0.000149   0.000027   0.000001   0.000002
    15  H    0.000025  -0.000149  -0.000006  -0.000010  -0.000002  -0.000001
    16  C   -0.000015   0.000027  -0.000010   0.006322  -0.002687  -0.000257
    17  H   -0.000002   0.000001  -0.000002  -0.002687   0.001067   0.000453
    18  H   -0.000003   0.000002  -0.000001  -0.000257   0.000453   0.000353
    19  H    0.000009  -0.000002   0.000004   0.000845  -0.000430  -0.000051
              19
     1  C   -0.000055
     2  H   -0.000001
     3  H   -0.000011
     4  C   -0.000120
     5  H   -0.000001
     6  H   -0.000001
     7  C    0.000406
     8  H   -0.000013
     9  C   -0.000240
    10  H   -0.000003
    11  H   -0.000003
    12  C    0.000053
    13  H    0.000009
    14  H   -0.000002
    15  H    0.000004
    16  C    0.000845
    17  H   -0.000430
    18  H   -0.000051
    19  H   -0.000890
 Mulliken charges and spin densities:
               1          2
     1  C   -0.288262   1.041808
     2  H    0.131183  -0.031148
     3  H    0.135840  -0.031723
     4  C   -0.278534  -0.054693
     5  H    0.133295   0.004747
     6  H    0.135984   0.008647
     7  C   -0.063987   0.049445
     8  H    0.118493  -0.001554
     9  C   -0.244926   0.007645
    10  H    0.130275   0.000190
    11  H    0.129049  -0.000334
    12  C   -0.448975   0.001823
    13  H    0.146938  -0.000093
    14  H    0.144042   0.001499
    15  H    0.141864  -0.000074
    16  C   -0.450315   0.002095
    17  H    0.142683   0.001859
    18  H    0.139024   0.000364
    19  H    0.146327  -0.000505
 Sum of Mulliken charges =   0.00000   1.00000
 Mulliken charges and spin densities with hydrogens summed into heavy atoms:
               1          2
     1  C   -0.021239   0.978938
     4  C   -0.009255  -0.041299
     7  C    0.054507   0.047891
     9  C    0.014398   0.007501
    12  C   -0.016131   0.003155
    16  C   -0.022280   0.003813
 Electronic spatial extent (au):  <R**2>=            812.6924
 Charge=              0.0000 electrons
 Dipole moment (field-independent basis, Debye):
    X=              0.7646    Y=              0.2598    Z=             -0.1328  Tot=              0.8184
 Quadrupole moment (field-independent basis, Debye-Ang):
   XX=            -44.2406   YY=            -40.8685   ZZ=            -40.2637
   XY=             -1.3584   XZ=              0.4055   YZ=              0.1637
 Traceless Quadrupole moment (field-independent basis, Debye-Ang):
   XX=             -2.4497   YY=              0.9225   ZZ=              1.5272
   XY=             -1.3584   XZ=              0.4055   YZ=              0.1637
 Octapole moment (field-independent basis, Debye-Ang**2):
  XXX=             15.6793  YYY=             -0.4414  ZZZ=             -0.1549  XYY=              1.6022
  XXY=              4.5089  XXZ=             -0.1446  XZZ=              0.0913  YZZ=              0.0904
  YYZ=             -0.5224  XYZ=             -0.0778
 Hexadecapole moment (field-independent basis, Debye-Ang**3):
 XXXX=           -843.5294 YYYY=           -240.1036 ZZZZ=           -102.5644 XXXY=            -19.9584
 XXXZ=              3.7969 YYYX=             -1.7444 YYYZ=             -0.2314 ZZZX=              0.1294
 ZZZY=              1.0693 XXYY=           -170.2771 XXZZ=           -148.7176 YYZZ=            -59.2991
 XXYZ=             -0.5639 YYXZ=              0.1900 ZZXY=             -0.3518
 N-N= 2.460907564311D+02 E-N=-1.037652825125D+03  KE= 2.339647692771D+02
                          Isotropic Fermi Contact Couplings
        Atom                 a.u.       MegaHertz       Gauss      10(-4) cm-1
     1  C(13)              0.30860     346.92113     123.79008     115.72043
     2  H(1)              -0.00482     -21.52831      -7.68184      -7.18107
     3  H(1)              -0.00452     -20.21708      -7.21396      -6.74369
     4  C(13)             -0.01287     -14.46304      -5.16077      -4.82435
     5  H(1)               0.00294      13.14815       4.69159       4.38575
     6  H(1)               0.00538      24.06204       8.58593       8.02623
     7  C(13)              0.04681      52.62143      18.77664      17.55262
     8  H(1)              -0.00067      -3.01547      -1.07599      -1.00585
     9  C(13)              0.00221       2.48070       0.88517       0.82747
    10  H(1)               0.00001       0.02907       0.01037       0.00970
    11  H(1)              -0.00010      -0.42718      -0.15243      -0.14249
    12  C(13)              0.00230       2.58132       0.92108       0.86103
    13  H(1)              -0.00001      -0.05388      -0.01923      -0.01797
    14  H(1)               0.00060       2.69864       0.96294       0.90017
    15  H(1)               0.00001       0.06425       0.02292       0.02143
    16  C(13)             -0.00027      -0.30788      -0.10986      -0.10270
    17  H(1)              -0.00005      -0.24293      -0.08668      -0.08103
    18  H(1)               0.00008       0.36819       0.13138       0.12281
    19  H(1)              -0.00008      -0.37937      -0.13537      -0.12654
 --------------------------------------------------------
       Center         ----  Spin Dipole Couplings  ----
                      3XX-RR        3YY-RR        3ZZ-RR
 --------------------------------------------------------
     1   Atom        0.284180      0.038149     -0.322329
     2   Atom       -0.032104     -0.039092      0.071197
     3   Atom       -0.021525      0.063179     -0.041653
     4   Atom        0.040387     -0.019995     -0.020392
     5   Atom        0.003665     -0.009909      0.006244
     6   Atom        0.007772      0.003086     -0.010858
     7   Atom        0.057235     -0.021879     -0.035356
     8   Atom        0.005982     -0.008658      0.002676
     9   Atom        0.010995     -0.004565     -0.006430
    10   Atom        0.003017     -0.000091     -0.002926
    11   Atom        0.002462     -0.002463      0.000000
    12   Atom        0.005279     -0.002788     -0.002491
    13   Atom        0.001827     -0.000549     -0.001279
    14   Atom        0.001568     -0.000712     -0.000855
    15   Atom        0.001843     -0.001346     -0.000498
    16   Atom        0.004832      0.000898     -0.005730
    17   Atom        0.000946      0.005592     -0.006538
    18   Atom        0.000935     -0.000068     -0.000867
    19   Atom        0.001931      0.000659     -0.002590
 --------------------------------------------------------
                        XY            XZ            YZ
 --------------------------------------------------------
     1   Atom        0.628277     -0.344412     -0.281207
     2   Atom        0.023682     -0.006352      0.002313
     3   Atom       -0.010213     -0.024587      0.025360
     4   Atom        0.003376      0.009502     -0.001967
     5   Atom       -0.001378      0.014224     -0.003095
     6   Atom       -0.014603      0.002258     -0.002696
     7   Atom        0.041351     -0.017649     -0.008426
     8   Atom        0.001468     -0.007486     -0.001802
     9   Atom       -0.007632      0.006100     -0.002624
    10   Atom       -0.002485      0.000492     -0.000218
    11   Atom       -0.000655      0.002389     -0.000547
    12   Atom        0.000888     -0.001483     -0.000193
    13   Atom        0.000972      0.000112      0.000037
    14   Atom       -0.000327      0.000140     -0.000189
    15   Atom        0.000051     -0.001058     -0.000087
    16   Atom        0.002491      0.003347     -0.000367
    17   Atom        0.007427      0.001245      0.000796
    18   Atom        0.002996      0.002480      0.002709
    19   Atom        0.002831      0.000027     -0.000052
 --------------------------------------------------------


 ---------------------------------------------------------------------------------
              Anisotropic Spin Dipole Couplings in Principal Axis System
 ---------------------------------------------------------------------------------

       Atom             a.u.   MegaHertz   Gauss  10(-4) cm-1        Axes

              Baa    -0.4800   -64.409   -22.983   -21.485  0.6782 -0.5719  0.4615
     1 C(13)  Bbb    -0.4760   -63.879   -22.794   -21.308 -0.0890  0.5594  0.8241
              Bcc     0.9560   128.289    45.777    42.793  0.7295  0.6000 -0.3285
 
              Baa    -0.0598   -31.908   -11.386   -10.643 -0.6551  0.7542 -0.0451
     2 H(1)   Bbb    -0.0118    -6.291    -2.245    -2.098  0.7532  0.6566  0.0394
              Bcc     0.0716    38.198    13.630    12.742 -0.0593  0.0082  0.9982
 
              Baa    -0.0602   -32.133   -11.466   -10.718  0.5062 -0.1332  0.8521
     3 H(1)   Bbb    -0.0114    -6.104    -2.178    -2.036  0.8454  0.2719 -0.4597
              Bcc     0.0717    38.237    13.644    12.755 -0.1705  0.9530  0.2503
 
              Baa    -0.0236    -3.165    -1.129    -1.056 -0.1496  0.5793  0.8013
     4 C(13)  Bbb    -0.0184    -2.469    -0.881    -0.824  0.0469  0.8136 -0.5795
              Bcc     0.0420     5.634     2.010     1.879  0.9876  0.0491  0.1489
 
              Baa    -0.0110    -5.845    -2.086    -1.950 -0.3444  0.8322  0.4346
     5 H(1)   Bbb    -0.0086    -4.606    -1.643    -1.536  0.6602  0.5438 -0.5181
              Bcc     0.0196    10.451     3.729     3.486  0.6675 -0.1085  0.7367
 
              Baa    -0.0114    -6.086    -2.172    -2.030  0.0983  0.2768  0.9559
     6 H(1)   Bbb    -0.0092    -4.906    -1.750    -1.636  0.6482  0.7110 -0.2726
              Bcc     0.0206    10.992     3.922     3.666  0.7551 -0.6464  0.1096
 
              Baa    -0.0400    -5.372    -1.917    -1.792 -0.2556  0.8199  0.5124
     7 C(13)  Bbb    -0.0382    -5.130    -1.830    -1.711  0.3379 -0.4208  0.8419
              Bcc     0.0783    10.502     3.747     3.503  0.9058  0.3883 -0.1695
 
              Baa    -0.0089    -4.774    -1.703    -1.592 -0.0302  0.9905  0.1341
     8 H(1)   Bbb    -0.0033    -1.759    -0.627    -0.587  0.6338 -0.0848  0.7688
              Bcc     0.0122     6.532     2.331     2.179  0.7729  0.1082 -0.6252
 
              Baa    -0.0084    -1.128    -0.403    -0.376 -0.1985  0.2524  0.9471
     9 C(13)  Bbb    -0.0077    -1.028    -0.367    -0.343  0.4163  0.8965 -0.1517
              Bcc     0.0161     2.157     0.770     0.719  0.8873 -0.3641  0.2830
 
              Baa    -0.0030    -1.583    -0.565    -0.528 -0.0790  0.0072  0.9968
    10 H(1)   Bbb    -0.0015    -0.783    -0.279    -0.261  0.4819  0.8756  0.0319
              Bcc     0.0044     2.365     0.844     0.789  0.8727 -0.4829  0.0726
 
              Baa    -0.0026    -1.380    -0.492    -0.460  0.0519  0.9857  0.1606
    11 H(1)   Bbb    -0.0014    -0.770    -0.275    -0.257 -0.5321 -0.1088  0.8397
              Bcc     0.0040     2.150     0.767     0.717  0.8451 -0.1290  0.5188
 
              Baa    -0.0029    -0.388    -0.138    -0.129 -0.0634  0.9706  0.2320
    12 C(13)  Bbb    -0.0028    -0.370    -0.132    -0.123  0.2002 -0.2154  0.9558
              Bcc     0.0057     0.758     0.271     0.253  0.9777  0.1070 -0.1807
 
              Baa    -0.0013    -0.684    -0.244    -0.228 -0.0344 -0.0053  0.9994
    13 H(1)   Bbb    -0.0009    -0.478    -0.171    -0.159 -0.3359  0.9419 -0.0066
              Bcc     0.0022     1.162     0.415     0.388  0.9413  0.3360  0.0342
 
              Baa    -0.0010    -0.527    -0.188    -0.176  0.0314  0.5898  0.8069
    14 H(1)   Bbb    -0.0006    -0.339    -0.121    -0.113  0.1550  0.7947 -0.5869
              Bcc     0.0016     0.867     0.309     0.289  0.9874 -0.1435  0.0665
 
              Baa    -0.0014    -0.723    -0.258    -0.241  0.0293  0.9903  0.1360
    15 H(1)   Bbb    -0.0009    -0.478    -0.171    -0.160  0.3591 -0.1374  0.9231
              Bcc     0.0023     1.202     0.429     0.401  0.9328  0.0218 -0.3597
 
              Baa    -0.0069    -0.919    -0.328    -0.307 -0.3003  0.1412  0.9433
    16 C(13)  Bbb     0.0001     0.018     0.006     0.006 -0.3169  0.9180 -0.2383
              Bcc     0.0067     0.901     0.322     0.301  0.8996  0.3705  0.2310
 
              Baa    -0.0068    -3.612    -1.289    -1.205 -0.2287  0.0749  0.9706
    17 H(1)   Bbb    -0.0044    -2.342    -0.836    -0.781  0.7724 -0.5929  0.2278
              Bcc     0.0112     5.954     2.124     1.986  0.5926  0.8018  0.0777
 
              Baa    -0.0032    -1.713    -0.611    -0.571  0.0580 -0.6830  0.7281
    18 H(1)   Bbb    -0.0023    -1.247    -0.445    -0.416  0.7624 -0.4405 -0.4740
              Bcc     0.0055     2.960     1.056     0.987  0.6445  0.5826  0.4952
 
              Baa    -0.0026    -1.384    -0.494    -0.462 -0.0348  0.0461  0.9983
    19 H(1)   Bbb    -0.0016    -0.855    -0.305    -0.285 -0.6239  0.7794 -0.0577
              Bcc     0.0042     2.239     0.799     0.747  0.7807  0.6249 -0.0017
 

 ---------------------------------------------------------------------------------

 No NMR shielding tensors so no spin-rotation constants.
 Leave Link  601 at Sat Nov  7 02:06:20 2015, MaxMem=   805306368 cpu:         1.5
 (Enter /home/hetanjin/apps/g09D01/g09/l701.exe)
 Compute integral first derivatives.
 ... and contract with generalized density number  0.
 Leave Link  701 at Sat Nov  7 02:06:20 2015, MaxMem=   805306368 cpu:         0.6
 (Enter /home/hetanjin/apps/g09D01/g09/l702.exe)
 L702 exits ... SP integral derivatives will be done elsewhere.
 Leave Link  702 at Sat Nov  7 02:06:20 2015, MaxMem=   805306368 cpu:         0.1
 (Enter /home/hetanjin/apps/g09D01/g09/l703.exe)
 Compute integral first derivatives, UseDBF=F ICtDFT=           0.
 Integral derivatives from FoFJK, PRISM(SPDF).
 Calling FoFJK, ICntrl=      2127 FMM=F ISym2X=0 I1Cent= 0 IOpClX= 1 NMat=1 NMatS=1 NMatT=0.
 FoFJK:  IHMeth= 1 ICntrl=    2127 DoSepK=F KAlg= 0 I1Cent=   0 FoldK=F
 IRaf=         0 NMat=   1 IRICut=       1 DoRegI=T DoRafI=F ISym2E= 0.
 FoFCou: FMM=F IPFlag=           0 FMFlag=      100000 FMFlg1=         800
         NFxFlg=           0 DoJE=F BraDBF=F KetDBF=F FulRan=T
         wScrn=  0.000000 ICntrl=    2127 IOpCl=  1 I1Cent=           0 NGrid=           0
         NMat0=    1 NMatS0=      1 NMatT0=    0 NMatD0=    1 NMtDS0=    0 NMtDT0=    0
 Symmetry not used in FoFCou.
 Leave Link  703 at Sat Nov  7 02:06:28 2015, MaxMem=   805306368 cpu:        32.4
 (Enter /home/hetanjin/apps/g09D01/g09/l716.exe)
 Dipole        = 3.00812775D-01 1.02222002D-01-5.22354486D-02
 ***** Axes restored to original set *****
 -------------------------------------------------------------------
 Center     Atomic                   Forces (Hartrees/Bohr)
 Number     Number              X              Y              Z
 -------------------------------------------------------------------
      1        6           0.040671038    0.020791770   -0.009846121
      2        1          -0.010986363   -0.009868696    0.000790080
      3        1          -0.012473065   -0.005462739    0.007195118
      4        6          -0.021234235   -0.009048980    0.005335748
      5        1           0.000906312    0.000351298    0.000032045
      6        1           0.001080640   -0.000260238   -0.000305118
      7        6           0.002758111    0.004468484   -0.004368385
      8        1           0.000186681    0.000033785    0.000353272
      9        6          -0.000305728   -0.001590462    0.001062960
     10        1           0.000016165    0.000114549    0.000033774
     11        1          -0.000103616    0.000021341   -0.000143048
     12        6          -0.000295718    0.000599767   -0.000489702
     13        1           0.000025654   -0.000062896    0.000003424
     14        1          -0.000255956   -0.000095131    0.000100934
     15        1           0.000044091   -0.000016932    0.000037746
     16        6          -0.000053855    0.000459308    0.000310775
     17        1           0.000015951   -0.000129390   -0.000032313
     18        1          -0.000030432   -0.000025078   -0.000100654
     19        1           0.000034323   -0.000279760    0.000029465
 -------------------------------------------------------------------
 Cartesian Forces:  Max     0.040671038 RMS     0.007556362
 Leave Link  716 at Sat Nov  7 02:06:28 2015, MaxMem=   805306368 cpu:         0.1
 (Enter /home/hetanjin/apps/g09D01/g09/l103.exe)

 GradGradGradGradGradGradGradGradGradGradGradGradGradGradGradGradGradGrad
 Berny optimization.
 FormGI is forming the generalized inverse of G from B-inverse, IUseBI=4.
 Internal  Forces:  Max     0.014007890 RMS     0.003352386
 Search for a local minimum.
 Step number   1 out of a maximum of  103
 All quantities printed in internal units (Hartrees-Bohrs-Radians)
 RMS Force = .33524D-02 SwitMx=.10000D-02 MixMth= 1
 Mixed Optimization -- RFO/linear search
 Second derivative matrix not updated -- first step.
 ITU=  0
     Eigenvalues ---    0.00230   0.00230   0.00279   0.00326   0.00326
     Eigenvalues ---    0.03219   0.03352   0.03519   0.03666   0.04645
     Eigenvalues ---    0.04711   0.04866   0.05254   0.05346   0.05357
     Eigenvalues ---    0.05439   0.05496   0.08726   0.09661   0.12495
     Eigenvalues ---    0.13073   0.16000   0.16000   0.16000   0.16000
     Eigenvalues ---    0.16000   0.16000   0.16000   0.16000   0.16722
     Eigenvalues ---    0.17090   0.21941   0.21969   0.28249   0.28249
     Eigenvalues ---    0.28802   0.29125   0.29125   0.33394   0.33637
     Eigenvalues ---    0.33637   0.33788   0.33788   0.33845   0.33973
     Eigenvalues ---    0.33973   0.34116   0.34193   0.34193   0.34238
     Eigenvalues ---    0.34238
 RFO step:  Lambda=-1.41812927D-02 EMin= 2.30000000D-03
 Linear search not attempted -- first point.
 Iteration  1 RMS(Cart)=  0.05148899 RMS(Int)=  0.00907907
 Iteration  2 RMS(Cart)=  0.00708073 RMS(Int)=  0.00591230
 Iteration  3 RMS(Cart)=  0.00011611 RMS(Int)=  0.00591169
 Iteration  4 RMS(Cart)=  0.00000260 RMS(Int)=  0.00591169
 Iteration  5 RMS(Cart)=  0.00000008 RMS(Int)=  0.00591169
 ITry= 1 IFail=0 DXMaxC= 2.81D-01 DCOld= 1.00D+10 DXMaxT= 3.00D-01 DXLimC= 3.00D+00 Rises=F
 Variable       Old X    -DE/DX   Delta X   Delta X   Delta X     New X
                                 (Linear)    (Quad)   (Total)
    R1        2.07376  -0.00061   0.00000  -0.00173  -0.00173   2.07203
    R2        2.07005  -0.00080   0.00000  -0.00224  -0.00224   2.06781
    R3        2.89742  -0.01230   0.00000  -0.04029  -0.04029   2.85714
    R4        2.07947   0.00002   0.00000   0.00005   0.00005   2.07952
    R5        2.07690   0.00042   0.00000   0.00119   0.00119   2.07809
    R6        2.91596   0.00436   0.00000   0.01468   0.01468   2.93065
    R7        2.08366  -0.00035   0.00000  -0.00102  -0.00102   2.08264
    R8        2.91596  -0.00003   0.00000  -0.00011  -0.00011   2.91585
    R9        2.90418   0.00008   0.00000   0.00026   0.00026   2.90445
   R10        2.07690  -0.00012   0.00000  -0.00034  -0.00034   2.07656
   R11        2.07947  -0.00015   0.00000  -0.00042  -0.00042   2.07906
   R12        2.89742  -0.00014   0.00000  -0.00046  -0.00046   2.89696
   R13        2.07005  -0.00005   0.00000  -0.00015  -0.00015   2.06990
   R14        2.07134  -0.00011   0.00000  -0.00031  -0.00031   2.07103
   R15        2.07376  -0.00004   0.00000  -0.00011  -0.00011   2.07365
   R16        2.06931  -0.00006   0.00000  -0.00018  -0.00018   2.06912
   R17        2.07593  -0.00010   0.00000  -0.00029  -0.00029   2.07564
   R18        2.06930  -0.00012   0.00000  -0.00033  -0.00033   2.06898
    A1        1.87842  -0.00086   0.00000   0.12161   0.08545   1.96387
    A2        1.93932   0.01312   0.00000   0.14457   0.11525   2.05457
    A3        1.95782   0.01401   0.00000   0.14846   0.11932   2.07715
    A4        1.90987   0.00185   0.00000   0.01103   0.01098   1.92085
    A5        1.89569   0.00183   0.00000   0.00923   0.00911   1.90481
    A6        2.00987  -0.00394   0.00000  -0.01839  -0.01840   1.99148
    A7        1.84904  -0.00023   0.00000   0.00469   0.00462   1.85366
    A8        1.90093   0.00055   0.00000  -0.00045  -0.00040   1.90053
    A9        1.89164   0.00020   0.00000  -0.00442  -0.00440   1.88724
   A10        1.87539   0.00039   0.00000   0.00361   0.00360   1.87899
   A11        1.92053  -0.00141   0.00000  -0.00956  -0.00956   1.91097
   A12        1.95271   0.00055   0.00000   0.00207   0.00206   1.95477
   A13        1.87539   0.00018   0.00000   0.00068   0.00068   1.87607
   A14        1.88339  -0.00031   0.00000   0.00161   0.00160   1.88499
   A15        1.95271   0.00061   0.00000   0.00192   0.00192   1.95463
   A16        1.89165   0.00030   0.00000   0.00111   0.00111   1.89276
   A17        1.90093   0.00021   0.00000   0.00036   0.00036   1.90129
   A18        2.00987  -0.00093   0.00000  -0.00428  -0.00428   2.00559
   A19        1.84904  -0.00013   0.00000   0.00053   0.00053   1.84957
   A20        1.89569   0.00026   0.00000   0.00100   0.00100   1.89669
   A21        1.90987   0.00036   0.00000   0.00164   0.00164   1.91151
   A22        1.95782   0.00010   0.00000   0.00075   0.00075   1.95857
   A23        1.93461  -0.00043   0.00000  -0.00281  -0.00281   1.93180
   A24        1.93932   0.00012   0.00000   0.00086   0.00086   1.94018
   A25        1.87288   0.00013   0.00000   0.00041   0.00041   1.87329
   A26        1.87842  -0.00002   0.00000   0.00052   0.00052   1.87894
   A27        1.87726   0.00011   0.00000   0.00033   0.00033   1.87759
   A28        1.95027  -0.00010   0.00000  -0.00046  -0.00046   1.94982
   A29        1.93183   0.00005   0.00000   0.00032   0.00032   1.93215
   A30        1.95027  -0.00031   0.00000  -0.00191  -0.00191   1.94836
   A31        1.87919   0.00005   0.00000   0.00053   0.00053   1.87973
   A32        1.86960   0.00022   0.00000   0.00122   0.00122   1.87082
   A33        1.87920   0.00011   0.00000   0.00043   0.00043   1.87962
    D1        3.12776   0.00797   0.00000   0.16623   0.17240  -2.98302
    D2       -1.14441   0.00969   0.00000   0.18281   0.18912  -0.95529
    D3        0.98010   0.00863   0.00000   0.17146   0.17771   1.15780
    D4        1.02422  -0.00977   0.00000  -0.19307  -0.19938   0.82483
    D5        3.03522  -0.00805   0.00000  -0.17649  -0.18266   2.85256
    D6       -1.12345  -0.00911   0.00000  -0.18784  -0.19408  -1.31753
    D7       -0.95817  -0.00006   0.00000   0.00128   0.00126  -0.95691
    D8       -2.99494   0.00026   0.00000   0.00355   0.00354  -2.99140
    D9        1.10606   0.00012   0.00000   0.00669   0.00668   1.11274
   D10       -3.11059  -0.00010   0.00000   0.00031   0.00028  -3.11031
   D11        1.13582   0.00021   0.00000   0.00258   0.00256   1.13839
   D12       -1.04636   0.00007   0.00000   0.00572   0.00570  -1.04066
   D13        1.16853  -0.00022   0.00000  -0.00264  -0.00262   1.16591
   D14       -0.86824   0.00009   0.00000  -0.00037  -0.00033  -0.86858
   D15       -3.05042  -0.00005   0.00000   0.00276   0.00280  -3.04763
   D16        0.86823  -0.00004   0.00000   0.00136   0.00136   0.86959
   D17       -1.13583  -0.00015   0.00000  -0.00004  -0.00004  -1.13588
   D18        2.99493  -0.00011   0.00000   0.00058   0.00058   2.99551
   D19       -1.16854   0.00014   0.00000   0.00179   0.00179  -1.16675
   D20        3.11058   0.00004   0.00000   0.00039   0.00039   3.11097
   D21        0.95816   0.00007   0.00000   0.00102   0.00102   0.95917
   D22        3.05041   0.00006   0.00000  -0.00169  -0.00169   3.04872
   D23        1.04635  -0.00004   0.00000  -0.00310  -0.00309   1.04325
   D24       -1.10608  -0.00001   0.00000  -0.00247  -0.00247  -1.10854
   D25       -1.01213  -0.00057   0.00000  -0.00741  -0.00742  -1.01955
   D26        1.08212  -0.00053   0.00000  -0.00683  -0.00683   1.07529
   D27       -3.10680  -0.00057   0.00000  -0.00734  -0.00734  -3.11415
   D28        1.04733   0.00003   0.00000  -0.00079  -0.00079   1.04654
   D29        3.14159   0.00007   0.00000  -0.00020  -0.00020   3.14138
   D30       -1.04734   0.00003   0.00000  -0.00072  -0.00072  -1.04806
   D31        3.10679   0.00041   0.00000   0.00216   0.00216   3.10896
   D32       -1.08213   0.00045   0.00000   0.00274   0.00275  -1.07938
   D33        1.01213   0.00041   0.00000   0.00223   0.00224   1.01436
   D34        1.12344   0.00004   0.00000   0.00086   0.00086   1.12430
   D35       -3.06654  -0.00002   0.00000  -0.00006  -0.00006  -3.06659
   D36       -0.98010  -0.00008   0.00000  -0.00093  -0.00093  -0.98103
   D37       -3.03523  -0.00001   0.00000   0.00013   0.00013  -3.03510
   D38       -0.94203  -0.00007   0.00000  -0.00079  -0.00079  -0.94281
   D39        1.14441  -0.00013   0.00000  -0.00166  -0.00166   1.14275
   D40       -1.02422   0.00016   0.00000   0.00219   0.00219  -1.02203
   D41        1.06898   0.00010   0.00000   0.00128   0.00128   1.07026
   D42       -3.12777   0.00004   0.00000   0.00040   0.00040  -3.12737
         Item               Value     Threshold  Converged?
 Maximum Force            0.014008     0.000015     NO 
 RMS     Force            0.003352     0.000010     NO 
 Maximum Displacement     0.280822     0.000060     NO 
 RMS     Displacement     0.048508     0.000040     NO 
 Predicted change in Energy=-1.027847D-02
 Lowest energy point so far.  Saving SCF results.
 GradGradGradGradGradGradGradGradGradGradGradGradGradGradGradGradGradGrad

 Leave Link  103 at Sat Nov  7 02:06:28 2015, MaxMem=   805306368 cpu:         0.1
 (Enter /home/hetanjin/apps/g09D01/g09/l202.exe)
                          Input orientation:                          
 ---------------------------------------------------------------------
 Center     Atomic      Atomic             Coordinates (Angstroms)
 Number     Number       Type             X           Y           Z
 ---------------------------------------------------------------------
      1          6           0       -2.541599   -0.143200   -0.315013
      2          1           0       -2.696397   -0.286039   -1.391064
      3          1           0       -2.947277    0.807446    0.044230
      4          6           0       -1.256590   -0.666020    0.286108
      5          1           0       -1.300993   -0.604307    1.383916
      6          1           0       -1.152788   -1.733371    0.042646
      7          6           0        0.017699    0.067586   -0.206930
      8          1           0        0.024994    0.021600   -1.308032
      9          6           0        1.269759   -0.680405    0.296770
     10          1           0        1.159137   -1.746379    0.053935
     11          1           0        1.302904   -0.621920    1.394904
     12          6           0        2.597726   -0.180148   -0.283186
     13          1           0        2.818440    0.850141    0.016092
     14          1           0        3.429948   -0.805217    0.060012
     15          1           0        2.588622   -0.213426   -1.379974
     16          6           0        0.026291    1.547816    0.206729
     17          1           0       -0.847534    2.081834   -0.180742
     18          1           0        0.019228    1.645332    1.300749
     19          1           0        0.914784    2.066439   -0.167862
 ---------------------------------------------------------------------
                    Distance matrix (angstroms):
                    1          2          3          4          5
     1  C    0.000000
     2  H    1.096472   0.000000
     3  H    1.094238   1.821734   0.000000
     4  C    1.511931   2.242841   2.255666   0.000000
     5  H    2.153620   3.122331   2.549128   1.100437   0.000000
     6  H    2.141346   2.555978   3.110618   1.099676   1.759475
     7  C    2.570237   2.982204   3.066196   1.550831   2.172828
     8  H    2.756927   2.739983   3.358655   2.157907   3.065385
     9  C    3.897347   4.328360   4.478937   2.526412   2.792212
    10  H    4.049907   4.368724   4.835778   2.656466   3.020830
    11  H    4.234759   4.885574   4.683103   2.789692   2.603980
    12  C    5.139556   5.409837   5.641773   3.926311   4.261356
    13  H    5.461353   5.803828   5.765945   4.356320   4.577783
    14  H    6.019824   6.317220   6.577989   4.694053   4.916797
    15  H    5.240061   5.285530   5.806610   4.215012   4.787586
    16  C    3.118622   3.650889   3.068658   2.559912   2.789101
    17  H    2.799760   3.238826   2.466495   2.817087   3.141518
    18  H    3.516726   4.283768   3.328821   2.828348   2.609746
    19  H    4.104965   4.480067   4.067624   3.519557   3.801390
                    6          7          8          9         10
     6  H    0.000000
     7  C    2.162355   0.000000
[...]
 .00196914,-0.01264010,0.01020305,-0.01255176,0.45044545,0.05125188,-0.
 06786997,0.03219344,0.00265242,0.00087612,-0.00034442,-0.00335772,0.00
 480526,-0.00017832,-0.02316889,0.48244401,-0.04990884,0.03383884,-0.11
 408062,-0.02342620,0.01261894,-0.00799642,0.01283830,-0.00758723,0.008
 67378,0.00867934,0.01450916,0.56152844,0.00131864,-0.00021832,-0.02954
 387,-0.00394563,0.00188859,-0.00197059,0.00113048,-0.00068356,0.000534
 96,-0.05121180,-0.00054038,0.01317671,0.05722549,0.00079647,-0.0005945
 6,0.01544437,0.00239243,0.00006970,0.00166461,-0.00048972,0.00004256,-
 0.00070636,-0.00055774,-0.04941605,-0.02616139,-0.00198597,0.05314052,
 -0.00030679,0.00083802,-0.01374854,-0.00252754,-0.00036217,0.00007194,
 -0.00015167,0.00054313,0.00130499,0.01288646,-0.02541609,-0.29376188,-
 0.01391987,0.02605349,0.32264803,-0.00917972,0.02646586,0.00083193,-0.
 00003313,-0.00044274,-0.00017001,-0.00097524,-0.00076948,-0.00064044,-
 0.04014276,0.02102888,0.00510555,0.00033696,0.00199484,0.00069570,0.05
 517995,0.01162934,-0.01056507,0.00371591,0.00056922,0.00007112,0.00023
 308,0.00032185,-0.00118472,0.00048838,0.00667621,-0.26428158,-0.047220
 23,-0.00007817,-0.00431262,-0.00207792,-0.01698887,0.29604550,-0.00320
 749,0.01367642,0.00311117,-0.00012435,-0.00108336,-0.00025805,-0.00003
 590,0.00045170,0.00001855,0.00163365,-0.03942208,-0.05511132,0.0023255
 5,-0.03319383,-0.00724136,-0.00257206,0.04660823,0.05645083,-0.0319118
 5,-0.00446254,0.00671822,0.00237781,0.00010150,0.00123422,-0.00211354,
 -0.00086421,-0.00188028,-0.12972626,-0.03570516,0.02634646,-0.00242291
 ,-0.00088414,0.00148906,-0.00136088,-0.00077690,0.00166297,0.45643435,
 0.00970650,0.00523945,-0.00805890,0.00006155,0.00029617,0.00052647,0.0
 0354556,-0.00170227,0.00167106,-0.02952318,-0.08899088,0.01503136,0.00
 314492,0.00066527,-0.00087554,-0.02779610,-0.01768998,0.01228244,-0.00
 541441,0.47558260,-0.00802105,-0.00695752,0.00744668,-0.00176223,-0.00
 054815,0.00034189,-0.00265649,0.00179621,-0.00118609,0.02233973,0.0135
 9342,-0.09462467,0.02838766,0.01510584,-0.01248753,-0.00523361,-0.0042
 8729,0.00199076,0.00270922,0.00937896,0.58300799,0.00172084,-0.0002818
 2,0.00139068,-0.00021313,0.00031668,-0.00084378,0.00024433,0.00002954,
 -0.00026458,-0.00365609,0.00130363,0.02961059,-0.00477394,-0.00263964,
 0.00220580,0.00094738,0.00029928,-0.00073041,-0.04831902,0.00036572,0.
 00019459,0.05739860,0.00077485,0.00016338,-0.00047768,0.00004563,0.000
 16712,-0.00022670,0.00006265,-0.00008437,0.00003810,-0.00166771,0.0004
 7996,0.01539085,-0.00258726,-0.00076459,0.00117951,0.00074763,0.000518
 22,0.00003151,0.00024315,-0.05023434,-0.01743789,-0.00004503,0.0588259
 9,-0.00130488,0.00035466,0.00061032,0.00090818,-0.00036071,0.00051918,
 0.00008690,-0.00017210,0.00043275,0.00168577,-0.00048570,-0.01303985,0
 .00180008,0.00157171,0.00046145,-0.00002561,0.00049826,0.00041213,0.00
 025553,-0.01795138,-0.28915317,-0.00041133,0.01858739,0.31744393,-0.00
 345166,-0.00115189,0.00272379,-0.00009474,-0.00002548,-0.00010158,-0.0
 0086471,0.00036719,-0.00074746,-0.03196528,0.01047067,-0.01041041,0.00
 165110,0.00062296,-0.00075044,0.00058329,0.00214462,-0.00046565,-0.134
 25451,0.03452272,-0.02794864,-0.00261712,0.00153778,-0.00103368,0.4592
 2083,-0.00290368,-0.00132284,0.00201155,0.00010446,-0.00010833,-0.0001
 5647,-0.00116900,0.00046593,-0.00032376,-0.00882306,0.00668561,-0.0063
 2768,-0.00014558,-0.00005861,0.00005399,-0.00219751,0.00008067,-0.0000
 8762,0.03837312,-0.10418716,0.01785925,-0.00097945,0.00052931,-0.00034
 952,0.02130466,0.55593743,0.00182896,0.00110361,-0.00173539,0.00016224
 ,-0.00004119,0.00039606,0.00079246,-0.00044075,0.00064548,0.00929634,-
 0.00575991,0.00525471,0.00127874,-0.00022544,-0.00004018,-0.00041262,-
 0.00042664,0.00020168,-0.02774054,0.01849573,-0.09493388,-0.02804682,0
 .01764001,-0.01388378,-0.00048874,0.03210652,0.56352989,0.00027372,-0.
 00031371,-0.00007745,0.00005921,0.00003217,0.00005175,0.00010223,0.000
 03300,0.00005695,0.00069594,0.00214295,0.00027404,-0.00009031,-0.00008
 115,0.00005676,-0.00062656,-0.00064819,-0.00016768,0.00121479,0.026018
 02,0.00691815,0.00081842,-0.00073469,0.00001585,-0.05062282,-0.0295069
 4,-0.00716422,0.06292024,0.00001285,0.00055274,0.00031647,-0.00005806,
 -0.00006174,-0.00005816,-0.00005050,-0.00002020,-0.00006130,-0.0017318
 3,0.00028463,-0.00029628,0.00003653,0.00002863,0.00007815,0.00069281,0
 .00128894,-0.00011996,-0.00130960,-0.01854343,-0.00484988,-0.00022032,
 0.00051447,0.00053453,-0.02887966,-0.28423393,-0.05340354,0.03207009,0
 .31076582,0.00016155,0.00012169,-0.00017294,-0.00003842,0.00002754,-0.
 00002130,0.00004863,-0.00001520,0.00000758,0.00048598,-0.00024413,0.00
 013634,-0.00000889,-0.00016928,0.00001231,0.00018357,-0.00005955,0.000
 27887,0.00040982,0.01330595,0.00224513,0.00075132,-0.00005062,0.000465
 66,-0.00663498,-0.05347625,-0.06419025,0.00687010,0.05754893,0.0641606
 7,-0.00008763,0.00012843,0.00010430,0.00010353,-0.00007941,0.00020560,
 -0.00003451,-0.00002543,0.00009783,0.00161405,0.00002422,-0.00112874,-
 0.00040642,0.00011148,0.00066587,-0.00004251,-0.00005266,-0.00001067,-
 0.00235388,-0.00188410,-0.02769057,-0.00416721,0.00290927,-0.00184411,
 -0.04862985,-0.00061307,-0.00702234,-0.00052178,-0.00012670,-0.0040883
 5,0.05704669,-0.00005418,-0.00014269,0.00003142,-0.00003979,0.00000845
 ,-0.00004774,0.00000653,0.00001246,-0.00005530,-0.00067466,0.00004109,
 -0.00010192,-0.00002781,0.00032667,-0.00023461,0.00012748,0.00001719,-
 0.00017566,0.00132323,0.00045507,0.01806162,0.00287912,-0.00115796,0.0
 0179361,-0.00062870,-0.05318644,-0.02109015,-0.00085586,-0.00217749,-0
 .03290912,-0.00001002,0.05315339,-0.00023458,0.00008130,0.00051996,0.0
 0025243,-0.00007402,0.00004741,-0.00010499,0.00003135,-0.00000265,0.00
 084727,-0.00006016,0.00002108,-0.00075093,-0.00014535,0.00071588,-0.00
 006507,0.00007249,-0.00005266,-0.00139269,-0.00080504,-0.01426987,-0.0
 0231879,0.00152261,0.00034036,-0.00642207,-0.02076504,-0.29544784,-0.0
 0029746,-0.00133809,-0.00703168,0.00702782,0.02123440,0.32407254,-0.00
 049364,-0.00061095,0.00089216,0.00002156,-0.00002079,-0.00004386,-0.00
 025332,0.00011676,-0.00017420,-0.00214883,0.00283599,-0.00179049,-0.00
 017502,0.00006027,0.00019938,0.00027565,-0.00017618,-0.00015160,-0.027
 37169,-0.00572263,0.00879695,0.00170137,-0.00092501,0.00098077,-0.1638
 8166,-0.03215876,0.03747916,-0.00652208,-0.00211049,0.00257639,-0.0004
 6363,-0.00036257,0.00031010,0.49953615,0.00083493,0.00078559,-0.000554
 56,-0.00002905,0.00001230,0.00006186,0.00035056,-0.00017138,0.00012785
 ,0.00273496,-0.00239569,0.00168271,-0.00003646,-0.00005370,0.00002139,
 0.00004083,0.00055144,0.00015905,0.01362551,0.00804917,-0.00877403,-0.
 00044239,0.00021947,-0.00024173,-0.02960206,-0.09417614,0.01411809,-0.
 03051576,-0.00962440,0.01379913,0.00244116,0.00056023,-0.00094472,-0.0
 2477693,0.57000438,-0.00086261,-0.00023718,0.00097592,0.00006473,-0.00
 002539,-0.00003459,-0.00035744,0.00017364,-0.00017392,-0.00239690,0.00
 150458,-0.00178989,-0.00013967,0.00009890,0.00047899,0.00015120,0.0003
 0758,-0.00014203,-0.00860723,-0.00599875,0.00544707,-0.00138313,-0.000
 26443,0.00052618,0.03807813,0.01397940,-0.09827866,-0.00675998,-0.0021
 0562,0.00295228,0.03171932,0.01169201,-0.01230211,0.03517771,0.0096956
 6,0.55798073,-0.00004646,0.00019272,0.00004568,-0.00002626,-0.00001397
 ,-0.00002456,-0.00003153,-0.00001309,-0.00002359,-0.00013332,0.0000651
 8,0.00009373,0.00001540,-0.00002811,0.00002082,0.00016243,0.00034765,0
 .00000673,0.00122522,-0.00093709,-0.00051317,-0.00012249,0.00008516,0.
 00000044,-0.00510648,-0.02917821,-0.00888449,-0.00530440,-0.00171228,0
 .00262241,0.00139153,0.00078661,-0.00013064,-0.05994621,-0.04991835,-0
 .01443361,0.06438302,0.00000327,0.00005105,0.00010040,-0.00001729,-0.0
 0001191,-0.00002291,-0.00005615,0.00001188,-0.00002037,-0.00017893,0.0
 0006106,-0.00012924,-0.00000882,-0.00001987,0.00002165,0.00005655,0.00
 017313,0.00000112,0.00047649,-0.00046240,0.00034784,-0.00001303,0.0000
 5174,0.00000884,-0.00240094,-0.00872431,-0.00196162,-0.00177277,0.0010
 0177,0.00127837,0.00002692,0.00046688,0.00046927,-0.05070145,-0.282587
 92,-0.06633698,0.05584621,0.30822331,-0.00000368,-0.00002678,0.0000044
 0,0.00000715,-0.00001058,-0.00000136,0.00000514,-0.00000402,0.00000265
 ,-0.00008343,0.00010940,0.00005330,-0.00000991,0.00000430,-0.00000899,
 -0.00002845,-0.00004055,-0.00002973,-0.00041160,-0.00054497,-0.0000261
 1,0.00001278,-0.00006631,0.00008481,0.00215375,0.01419544,0.00349083,0
 .00314114,0.00113906,-0.00014614,-0.00082254,0.00026494,0.00064285,-0.
 01481278,-0.06639157,-0.06941890,0.01382733,0.07234653,0.06994111,-0.0
 0041215,-0.00029570,0.00044429,0.00000840,0.00001127,-0.00004019,-0.00
 022202,0.00007078,-0.00010933,-0.00102865,0.00136887,-0.00095316,-0.00
 005457,0.00001104,0.00011552,0.00006499,-0.00005161,-0.00006076,-0.003
 29671,-0.00391856,0.00407049,0.00034125,-0.00020240,0.00001418,-0.0218
 2909,0.01777566,-0.01101139,0.00106411,-0.00033475,-0.00066295,0.00103
 858,0.00026800,0.00039675,-0.19074631,0.11394121,-0.06548590,0.0059147
 4,-0.00383919,0.00326124,0.20877772,-0.00009285,-0.00003209,0.00011465
 ,-0.00000037,-0.00001497,-0.00001546,-0.00004752,0.00003142,-0.0000219
 8,-0.00054448,0.00037133,-0.00012676,-0.00000434,-0.00000896,0.0000178
 1,0.00005254,0.00002370,-0.00003719,-0.00186931,-0.00075359,0.00106990
 ,0.00008936,-0.00012229,0.00009133,-0.01001467,0.00676893,-0.00479261,
 0.00031921,0.00086425,-0.00046238,0.00064612,0.00012910,-0.00028811,0.
 11454458,-0.13973262,0.05163959,0.02342178,-0.01784974,0.01167846,-0.1
 2379092,0.14878030,0.00016339,0.00010532,-0.00016103,0.00000030,0.0000
 0831,0.00000758,0.00006748,-0.00003171,0.00002908,0.00051930,-0.000220
 68,0.00068651,-0.00008354,-0.00006818,-0.00000764,-0.00003539,0.000014
 79,0.00000618,0.00153837,0.00120782,-0.00120281,0.00030991,-0.00000045
 ,0.00046108,0.01084846,-0.00911981,0.00437696,-0.00073749,-0.00011837,
 0.00034511,-0.00051615,-0.00052006,0.00044933,-0.06579711,0.05164018,-
 0.07934310,0.00805793,-0.00565559,0.00289971,0.07048304,-0.05795719,0.
 08155431,0.00005176,0.00001575,-0.00012889,-0.00005501,0.00002175,-0.0
 0002402,0.00001908,-0.00001080,0.00000049,0.00000179,-0.00020741,-0.00
 004155,0.00012770,0.00002678,-0.00026800,0.00002406,0.00000320,0.00004
 953,0.00207476,0.00001310,0.00171412,-0.00027020,0.00006613,-0.0009817
 7,-0.00007000,0.00245331,0.03151425,0.00117632,0.00018398,-0.00079567,
 -0.00548651,-0.00211479,0.00247264,-0.04901328,0.00009014,-0.00412852,
 -0.00104184,0.00057085,-0.00635444,0.00012944,-0.00299175,-0.02485346,
 0.05229312,0.00001669,-0.00002069,-0.00004912,-0.00000619,0.00001194,0
 .00000103,-0.00000451,0.00000266,0.00000979,0.00009496,-0.00003375,0.0
 0004092,0.00003781,-0.00003433,-0.00003700,-0.00001699,-0.00005497,0.0
 0002794,0.00047253,0.00025937,-0.00058889,-0.00001364,0.00018630,-0.00
 017042,0.00041862,0.00029761,0.01124151,0.00067902,0.00020061,0.000230
 75,-0.00223122,0.00024730,0.00086974,-0.00001963,-0.05164728,-0.014340
 89,-0.00046112,-0.00013108,-0.03261239,-0.00069947,0.00119547,0.020638
 15,0.00180508,0.04961208,0.00004567,0.00004143,-0.00002500,0.00003754,
 -0.00001525,0.00001860,0.00003499,-0.00001494,0.00001394,0.00008208,-0
 .00003199,0.00049167,-0.00025548,-0.00003731,0.00008595,-0.00003398,-0
 .00001290,-0.00004828,-0.00117542,0.00018766,0.00030836,0.00089218,-0.
 00034685,0.00071323,0.00050872,-0.00062712,-0.01277052,0.00005458,0.00
 045841,0.00054688,0.00246282,0.00138485,0.00062906,-0.00397130,-0.0143
 5429,-0.30722300,-0.00059710,-0.00034485,-0.00769783,-0.00039774,-0.00
 085898,-0.01014398,0.00209080,0.01472838,0.33503830,0.00031385,-0.0021
 5825,0.00038591,-0.00019933,-0.00003662,-0.00041407,-0.00011047,-0.000
 07611,-0.00001653,-0.00249062,-0.02946583,-0.00671489,0.00115220,0.000
 58441,-0.00071468,-0.00511051,-0.00363735,0.00150953,-0.08106565,-0.00
 177474,-0.00106762,-0.00004038,-0.00030127,-0.00006003,0.00133287,0.02
 824594,0.00703417,-0.00479086,0.00385389,-0.00178977,0.00086552,-0.000
 67058,0.00063825,0.00060640,0.00089539,-0.00014433,-0.00074267,0.00036
 285,-0.00019753,0.00008357,-0.00019392,0.00009076,-0.00007141,0.000092
 06,0.00031366,0.58573116,0.00015262,-0.00078773,-0.00057652,-0.0000687
 7,0.00020372,0.00015807,0.00039034,0.00006077,0.00006018,-0.00717245,-
 0.01996647,-0.00177103,0.00152698,0.00103989,-0.00079522,-0.00144937,-
 0.00000142,0.00032423,-0.00301419,-0.17555522,-0.02603257,-0.00038714,
 -0.00531506,-0.00134294,0.00560498,-0.02145425,-0.00265948,0.00156112,
 -0.00002431,0.00029255,-0.00145672,0.00123771,-0.00089756,0.00067443,0
 .00100373,0.00028034,-0.00009027,-0.00072862,-0.00041336,-0.00066130,-
 0.00040956,0.00010730,0.00009974,-0.00003084,-0.00009735,0.00067741,0.
 47811975,-0.00065105,0.00046911,0.00011396,0.00010575,-0.00012904,0.00
 005011,0.00008024,-0.00016394,0.00009361,0.00045361,0.01077770,0.00307
 055,0.00010688,0.00139984,0.00063556,0.00251049,0.00244957,-0.00036227
 ,-0.00070543,-0.02794770,-0.08874984,-0.00122021,-0.03466092,-0.008457
 37,0.00103539,0.01092886,0.00319444,-0.00231793,0.00251023,-0.00049254
 ,-0.00006610,0.00153012,0.00057913,-0.00043520,-0.00024479,-0.00046512
 ,0.00030910,0.00029624,0.00054844,-0.00002409,0.00035156,0.00017449,-0
 .00011205,-0.00000160,0.00010937,-0.00117061,-0.03030159,0.56300870,-0
 .00031886,-0.00057141,-0.00023314,-0.00002326,-0.00020790,0.00003944,0
 .00007671,-0.00002476,0.00000543,0.00023290,-0.00034072,0.00024411,0.0
 0002107,0.00006711,0.00000493,0.00006971,0.00026820,-0.00002622,0.0015
 7192,-0.00092676,0.00105291,0.00007329,0.00035678,0.00031230,0.0004773
 5,-0.00048804,0.00048802,0.00008786,-0.00009731,-0.00006606,-0.0000338
 8,-0.00008697,-0.00004520,-0.00004883,-0.00019593,-0.00027866,0.000349
 31,0.00024665,0.00011174,0.00003335,0.00020996,0.00001400,0.00001667,0
 .00004513,0.00005509,-0.22856054,0.10070187,-0.07160382,0.24685380,-0.
 00011877,0.00034555,0.00044879,-0.00022210,-0.00029615,-0.00038788,-0.
 00014137,0.00002522,-0.00017620,0.00088927,0.00134732,0.00042822,-0.00
 021725,-0.00014509,0.00004828,0.00008221,0.00028373,-0.00025255,0.0277
 6040,-0.01524205,0.01235550,-0.00019986,0.00124033,-0.00034670,-0.0024
 8440,-0.00607775,-0.00298827,0.00185276,-0.00136273,0.00059134,-0.0002
 7339,0.00020012,0.00002708,-0.00078325,-0.00020755,0.00006955,0.000216
 12,0.00035810,0.00006975,0.00014374,0.00020179,0.00000590,0.00006364,0
 .00002461,-0.00006000,0.09967775,-0.10318581,0.03996772,-0.11002698,0.
 11363672,-0.00011771,-0.00054633,0.00002217,-0.00010304,-0.00010322,-0
 .00012003,0.00009676,0.00017817,-0.00008343,-0.00031975,0.00062995,0.0
 0013979,-0.00007965,0.00009414,-0.00008289,0.00014313,0.00005449,-0.00
 011708,0.00837600,-0.00420014,0.00245498,0.00042256,0.00055969,0.00038
 044,-0.00034303,-0.00129896,-0.00019959,0.00021925,-0.00024376,0.00053
 610,0.00020340,-0.00029052,0.00045633,0.00002990,-0.00002282,0.0001916
 9,-0.00005802,-0.00004707,-0.00017603,-0.00003177,-0.00008507,-0.00000
 542,-0.00003590,0.00003870,0.00001278,-0.07126582,0.04026156,-0.078429
 35,0.07908443,-0.04277892,0.08031696,-0.00015867,0.00018680,0.00000144
 ,0.00010114,0.00001506,0.00015672,-0.00005059,-0.00006990,0.00003281,0
 .00031842,0.00005337,-0.00129497,0.00008326,-0.00018790,0.00029821,0.0
 0001049,0.00003646,0.00019974,-0.00109795,0.00013853,-0.00056521,0.000
 72089,-0.00003710,0.00000204,0.00035103,0.00011372,0.00125449,-0.00006
 250,-0.00007305,-0.00011583,0.00016810,0.00007837,-0.00015875,-0.00008
 948,0.00002298,-0.00003817,-0.00005388,-0.00007555,0.00013615,-0.00001
 191,0.00002858,-0.00005234,0.00006120,-0.00011545,-0.00013418,-0.05070
 073,-0.00155353,-0.01104754,-0.00005048,-0.00369041,-0.02818723,0.0481
 6756,-0.00012532,0.00008914,0.00017332,0.00012702,-0.00005388,0.000036
 06,-0.00005285,0.00001056,-0.00000470,0.00108896,0.00141875,-0.0011773
 8,-0.00038850,-0.00001886,0.00089911,0.00022880,0.00030457,0.00034907,
 -0.00135544,-0.00442659,-0.03448400,-0.00027308,-0.00669255,-0.0016999
 2,-0.00081558,0.00186351,-0.00137108,-0.00028721,0.00035374,0.00038481
 ,0.00034052,-0.00008583,0.00102325,0.00012753,-0.00001361,0.00009636,0
 .00007665,0.00001596,-0.00000744,0.00006634,0.00004803,0.00000673,-0.0
 0018231,-0.00003325,0.00010386,-0.00149002,-0.05126763,-0.02503416,-0.
 00079428,0.00129433,0.01542661,0.00150648,0.05595420,-0.00016747,-0.00
 006945,-0.00002627,0.00012488,0.00000580,0.00010777,-0.00008797,-0.000
 03798,0.00002874,0.00042485,0.00060422,0.00045975,-0.00063524,-0.00047
 884,0.00052770,-0.00005925,-0.00003828,0.00033730,-0.00014946,-0.00165
 301,-0.00959510,-0.00015350,-0.00201362,0.00107949,-0.00048257,0.00083
 638,0.00045887,0.00005487,-0.00002247,0.00040276,0.00063869,-0.0005994
 2,0.00059833,0.00019018,-0.00021098,0.00010894,0.00008196,0.00002063,-
 0.00022102,0.00006309,-0.00004468,0.00001728,-0.00012381,0.00011685,0.
 00012146,-0.01088512,-0.02510486,-0.30183351,0.00012699,-0.00064021,-0
 .00996707,0.01219381,0.03021484,0.32958947,0.00007632,-0.00058947,0.00
 002510,0.00002076,0.00010171,0.00005630,0.00000419,0.00005374,-0.00000
 938,0.00082660,-0.00041195,-0.00069959,0.00001830,0.00018657,0.0000004
 7,-0.00018360,0.00011388,0.00016508,0.00039600,0.00038095,-0.00072524,
 0.00021322,-0.00032857,-0.00040063,-0.00022855,-0.00020756,-0.00035769
 ,0.00012849,-0.00014559,0.00009115,-0.00000018,0.00005659,-0.00002409,
 -0.00098717,0.00053923,-0.00017494,-0.00088612,0.00147433,0.00006792,0
 .00014527,0.00023798,-0.00001746,0.00003235,-0.00009369,-0.00001294,-0
 .21620241,-0.09553572,0.08475257,-0.02082808,-0.01252811,0.01196648,0.
 00229410,0.00220227,-0.00115492,0.23516050,0.00080833,0.00008520,0.000
 41659,-0.00011900,-0.00004609,-0.00014480,-0.00015632,0.00004181,-0.00
 005848,0.00145268,-0.00586076,-0.00264184,0.00028759,0.00011398,0.0000
 4402,-0.00185738,-0.00126786,0.00046052,-0.02672002,-0.01275919,0.0143
 9165,0.00021208,0.00147486,-0.00031922,-0.00099084,0.00090077,0.000455
 22,0.00000796,0.00019262,-0.00019452,0.00012459,-0.00010524,-0.0000134
 2,0.00000906,-0.00057602,-0.00022835,0.00131440,0.00010097,0.00031011,
 0.00013700,0.00050950,-0.00004247,0.00009362,-0.00005178,-0.00010275,-
 0.09458502,-0.10293866,0.04780281,0.01186536,0.00755929,-0.00762647,0.
 00362253,0.00123941,-0.00088492,0.10449340,0.11138718,0.00006805,-0.00
 012134,0.00003694,0.00002434,0.00003081,0.00003999,-0.00003797,-0.0000
 0107,-0.00001792,0.00021424,-0.00175837,-0.00011128,-0.00021294,-0.000
 25122,0.00043623,-0.00034509,-0.00027941,0.00055533,-0.00867724,-0.004
 05203,0.00298620,-0.00041787,0.00059579,0.00060315,0.00048101,0.000560
 85,-0.00006882,-0.00019126,0.00003166,-0.00003485,0.00006390,0.0000315
 4,0.00003454,0.00054383,0.00043355,0.00050953,-0.00040095,-0.00037224,
 0.00005799,-0.00007132,-0.00027287,-0.00014362,0.00000622,-0.00014344,
 -0.00018099,0.08446873,0.04850824,-0.09278836,-0.00928632,-0.00638139,
 0.00466963,0.02731880,0.01506466,-0.01219490,-0.09354818,-0.05162370,0
 .09561121\\0.00000091,0.00000023,-0.00000050,-0.00000012,0.00000160,0.
 00000015,0.00000026,0.00000069,-0.00000034,-0.00000045,0.00000157,-0.0
 0000148,-0.00000059,-0.00000073,-0.00000013,-0.00000037,0.00000006,-0.
 00000105,-0.00000121,0.00000008,0.00000016,0.00000033,0.00000088,-0.00
 000006,0.00000082,-0.00000062,-0.00000020,-0.00000053,-0.00000031,-0.0
 0000109,-0.00000046,-0.00000108,-0.00000045,-0.00000033,-0.00000051,0.
 00000010,0.00000023,-0.00000084,0.00000071,-0.00000009,-0.00000084,-0.
 00000030,0.00000008,0.00000028,0.00000004,0.00000062,0.00000001,0.0000
 0081,0.00000038,0.00000049,0.00000123,0.00000022,-0.00000087,0.0000010
 0,0.00000029,-0.00000008,0.00000141\\\@


 ARTHROPOD AXIOM: A COMPUTER SYSTEM IS LIKE A SPIDER'S WEB.
 YOU CANNOT PULL ON ONE END WITHOUT MAKING THE OTHER END MOVE.
     -- GREG WETTSTEIN
 Job cpu time:       0 days  0 hours 27 minutes 17.3 seconds.
 File lengths (MBytes):  RWF=     64 Int=      0 D2E=      0 Chk=      3 Scr=      1
 Normal termination of Gaussian 09 at Sat Nov  7 02:27:20 2015.
