 Entering Gaussian System, Link 0=/home/hetanjin/apps/g09D01/g09/g09
 Input=C6H14_2_r011_C13_2_opt_B3L.gjf
 Output=C6H14_2_r011_C13_2_opt_B3L.log
 Initial command:
 /home/hetanjin/apps/g09D01/g09/l1.exe "/state/partition1/Gau-14978.inp" -scrdir="/state/partition1/"
 Entering Link 1 = /home/hetanjin/apps/g09D01/g09/l1.exe PID=     14979.
  
 Copyright (c) 1988,1990,1992,1993,1995,1998,2003,2009,2013,
            Gaussian, Inc.  All Rights Reserved.
  
 This is part of the Gaussian(R) 09 program.  It is based on
 the Gaussian(R) 03 system (copyright 2003, Gaussian, Inc.),
 the Gaussian(R) 98 system (copyright 1998, Gaussian, Inc.),
 the Gaussian(R) 94 system (copyright 1995, Gaussian, Inc.),
 the Gaussian 92(TM) system (copyright 1992, Gaussian, Inc.),
 the Gaussian 90(TM) system (copyright 1990, Gaussian, Inc.),
 the Gaussian 88(TM) system (copyright 1988, Gaussian, Inc.),
 the Gaussian 86(TM) system (copyright 1986, Carnegie Mellon
 University), and the Gaussian 82(TM) system (copyright 1983,
 Carnegie Mellon University). Gaussian is a federally registered
 trademark of Gaussian, Inc.
  
 This software contains proprietary and confidential information,
 including trade secrets, belonging to Gaussian, Inc.
  
 This software is provided under written license and may be
 used, copied, transmitted, or stored only in accord with that
 written license.
  
 The following legend is applicable only to US Government
 contracts under FAR:
  
                    RESTRICTED RIGHTS LEGEND
  
 Use, reproduction and disclosure by the US Government is
 subject to restrictions as set forth in subparagraphs (a)
 and (c) of the Commercial Computer Software - Restricted
 Rights clause in FAR 52.227-19.
  
 Gaussian, Inc.
 340 Quinnipiac St., Bldg. 40, Wallingford CT 06492
  
  
 ---------------------------------------------------------------
 Warning -- This program may not be used in any manner that
 competes with the business of Gaussian, Inc. or will provide
 assistance to any competitor of Gaussian, Inc.  The licensee
 of this program is prohibited from giving any competitor of
 Gaussian, Inc. access to this program.  By using this program,
 the user acknowledges that Gaussian, Inc. is engaged in the
 business of creating and licensing software in the field of
 computational chemistry and represents and warrants to the
 licensee that it is not a competitor of Gaussian, Inc. and that
 it will not use this program in any manner prohibited above.
 ---------------------------------------------------------------
  

 Cite this work as:
 Gaussian 09, Revision D.01,
 M. J. Frisch, G. W. Trucks, H. B. Schlegel, G. E. Scuseria, 
 M. A. Robb, J. R. Cheeseman, G. Scalmani, V. Barone, B. Mennucci, 
 G. A. Petersson, H. Nakatsuji, M. Caricato, X. Li, H. P. Hratchian, 
 A. F. Izmaylov, J. Bloino, G. Zheng, J. L. Sonnenberg, M. Hada, 
 M. Ehara, K. Toyota, R. Fukuda, J. Hasegawa, M. Ishida, T. Nakajima, 
 Y. Honda, O. Kitao, H. Nakai, T. Vreven, J. A. Montgomery, Jr., 
 J. E. Peralta, F. Ogliaro, M. Bearpark, J. J. Heyd, E. Brothers, 
 K. N. Kudin, V. N. Staroverov, T. Keith, R. Kobayashi, J. Normand, 
 K. Raghavachari, A. Rendell, J. C. Burant, S. S. Iyengar, J. Tomasi, 
 M. Cossi, N. Rega, J. M. Millam, M. Klene, J. E. Knox, J. B. Cross, 
 V. Bakken, C. Adamo, J. Jaramillo, R. Gomperts, R. E. Stratmann, 
 O. Yazyev, A. J. Austin, R. Cammi, C. Pomelli, J. W. Ochterski, 
 R. L. Martin, K. Morokuma, V. G. Zakrzewski, G. A. Voth, 
 P. Salvador, J. J. Dannenberg, S. Dapprich, A. D. Daniels, 
 O. Farkas, J. B. Foresman, J. V. Ortiz, J. Cioslowski, 
 and D. J. Fox, Gaussian, Inc., Wallingford CT, 2013.
 
 ******************************************
 Gaussian 09:  ES64L-G09RevD.01 24-Apr-2013
                 7-Nov-2015 
 ******************************************
 %mem=6GB
 %nprocshared=4
 Will use up to    4 processors via shared memory.
 ----------------------------------------------
 #p B3LYP/6-31G(d) opt=tight int=ultrafine freq
 ----------------------------------------------
 1/7=10,14=-1,18=20,19=15,26=4,38=1/1,3;
 2/9=110,12=2,17=6,18=5,40=1/2;
 3/5=1,6=6,7=1,11=2,16=1,25=1,30=1,71=1,74=-5,75=-5/1,2,3;
 4//1;
 5/5=2,38=5/2;
 6/7=2,8=2,9=2,10=2,28=1/1;
 7//1,2,3,16;
 1/7=10,14=-1,18=20,19=15,26=4/3(2);
 2/9=110/2;
 99//99;
 2/9=110/2;
 3/5=1,6=6,7=1,11=2,16=1,25=1,30=1,71=1,74=-5,75=-5/1,2,3;
 4/5=5,16=3,69=1/1;
 5/5=2,38=5/2;
 7//1,2,3,16;
 1/7=10,14=-1,18=20,19=15,26=4/3(-5);
 2/9=110/2;
 6/7=2,8=2,9=2,10=2,19=2,28=1/1;
 99/9=1/99;
 Leave Link    1 at Sat Nov  7 02:03:02 2015, MaxMem=   805306368 cpu:         0.2
 (Enter /home/hetanjin/apps/g09D01/g09/l101.exe)
 ---------------------------------------------
 using B3LYP/6-31G(d) to do opt and freq calc.
 ---------------------------------------------
 Symbolic Z-matrix:
 Charge =  0 Multiplicity = 2
 C                     2.1588   -1.03826   0.03329 
 H                     1.92753  -2.02922  -0.37555 
 H                     2.248    -1.14076   1.12291 
 H                     3.14007  -0.7364   -0.35209 
 C                     1.07513  -0.01325  -0.33394 
 H                     1.02737   0.04492  -1.43284 
 C                    -0.30521  -0.48286   0.1671 
 H                    -0.29365  -0.5158    1.26793 
 H                    -0.46137  -1.52058  -0.16344 
 C                    -1.49862   0.36099  -0.30192 
 H                    -1.48122   0.43273  -1.39913 
 H                    -1.40332   1.3884    0.07251 
 C                    -2.84619  -0.21322   0.1491 
 H                    -2.90621  -0.27062   1.24305 
 H                    -2.99673  -1.22689  -0.24256 
 C                     1.45204   1.37934   0.1949 
 H                     0.73689   2.14756  -0.118 
 H                     1.48756   1.38271   1.29264 
 H                     2.44125   1.682    -0.16891 
 
 NAtoms=     19 NQM=       19 NQMF=       0 NMMI=      0 NMMIF=      0
                NMic=       0 NMicF=      0.
                    Isotopes and Nuclear Properties:
 (Nuclear quadrupole moments (NQMom) in fm**2, nuclear magnetic moments (NMagM)
  in nuclear magnetons)

  Atom         1           2           3           4           5           6           7           8           9          10
 IAtWgt=          12           1           1           1          12           1          12           1           1          12
 AtmWgt=  12.0000000   1.0078250   1.0078250   1.0078250  12.0000000   1.0078250  12.0000000   1.0078250   1.0078250  12.0000000
 NucSpn=           0           1           1           1           0           1           0           1           1           0
 AtZEff=   0.0000000   0.0000000   0.0000000   0.0000000   0.0000000   0.0000000   0.0000000   0.0000000   0.0000000   0.0000000
 NQMom=    0.0000000   0.0000000   0.0000000   0.0000000   0.0000000   0.0000000   0.0000000   0.0000000   0.0000000   0.0000000
 NMagM=    0.0000000   2.7928460   2.7928460   2.7928460   0.0000000   2.7928460   0.0000000   2.7928460   2.7928460   0.0000000
 AtZNuc=   6.0000000   1.0000000   1.0000000   1.0000000   6.0000000   1.0000000   6.0000000   1.0000000   1.0000000   6.0000000

  Atom        11          12          13          14          15          16          17          18          19
 IAtWgt=           1           1          12           1           1          12           1           1           1
 AtmWgt=   1.0078250   1.0078250  12.0000000   1.0078250   1.0078250  12.0000000   1.0078250   1.0078250   1.0078250
 NucSpn=           1           1           0           1           1           0           1           1           1
 AtZEff=   0.0000000   0.0000000   0.0000000   0.0000000   0.0000000   0.0000000   0.0000000   0.0000000   0.0000000
 NQMom=    0.0000000   0.0000000   0.0000000   0.0000000   0.0000000   0.0000000   0.0000000   0.0000000   0.0000000
 NMagM=    2.7928460   2.7928460   0.0000000   2.7928460   2.7928460   0.0000000   2.7928460   2.7928460   2.7928460
 AtZNuc=   1.0000000   1.0000000   6.0000000   1.0000000   1.0000000   6.0000000   1.0000000   1.0000000   1.0000000
 Leave Link  101 at Sat Nov  7 02:03:02 2015, MaxMem=   805306368 cpu:         0.8
 (Enter /home/hetanjin/apps/g09D01/g09/l103.exe)

 GradGradGradGradGradGradGradGradGradGradGradGradGradGradGradGradGradGrad
 Berny optimization.
 Initialization pass.
                           ----------------------------
                           !    Initial Parameters    !
                           ! (Angstroms and Degrees)  !
 --------------------------                            --------------------------
 ! Name  Definition              Value          Derivative Info.                !
 --------------------------------------------------------------------------------
 ! R1    R(1,2)                  1.0967         estimate D2E/DX2                !
 ! R2    R(1,3)                  1.0981         estimate D2E/DX2                !
 ! R3    R(1,4)                  1.0966         estimate D2E/DX2                !
 ! R4    R(1,5)                  1.5362         estimate D2E/DX2                !
 ! R5    R(5,6)                  1.1015         estimate D2E/DX2                !
 ! R6    R(5,7)                  1.5417         estimate D2E/DX2                !
 ! R7    R(5,16)                 1.5366         estimate D2E/DX2                !
 ! R8    R(7,8)                  1.1014         estimate D2E/DX2                !
 ! R9    R(7,9)                  1.1002         estimate D2E/DX2                !
 ! R10   R(7,10)                 1.535          estimate D2E/DX2                !
 ! R11   R(10,11)                1.0997         estimate D2E/DX2                !
 ! R12   R(10,12)                1.0977         estimate D2E/DX2                !
 ! R13   R(10,13)                1.5327         estimate D2E/DX2                !
 ! R14   R(13,14)                1.0971         estimate D2E/DX2                !
 ! R15   R(13,15)                1.0971         estimate D2E/DX2                !
 ! R16   R(16,17)                1.0952         estimate D2E/DX2                !
 ! R17   R(16,18)                1.0983         estimate D2E/DX2                !
 ! R18   R(16,19)                1.0966         estimate D2E/DX2                !
 ! A1    A(2,1,3)              107.6218         estimate D2E/DX2                !
 ! A2    A(2,1,4)              107.8439         estimate D2E/DX2                !
 ! A3    A(2,1,5)              111.411          estimate D2E/DX2                !
 ! A4    A(3,1,4)              107.5616         estimate D2E/DX2                !
 ! A5    A(3,1,5)              110.9048         estimate D2E/DX2                !
 ! A6    A(4,1,5)              111.3185         estimate D2E/DX2                !
 ! A7    A(1,5,6)              107.7173         estimate D2E/DX2                !
 ! A8    A(1,5,7)              110.5269         estimate D2E/DX2                !
 ! A9    A(1,5,16)             110.4513         estimate D2E/DX2                !
 ! A10   A(6,5,7)              107.5475         estimate D2E/DX2                !
 ! A11   A(6,5,16)             107.8272         estimate D2E/DX2                !
 ! A12   A(7,5,16)             112.5709         estimate D2E/DX2                !
 ! A13   A(5,7,8)              108.9373         estimate D2E/DX2                !
 ! A14   A(5,7,9)              108.4663         estimate D2E/DX2                !
 ! A15   A(5,7,10)             115.4245         estimate D2E/DX2                !
 ! A16   A(8,7,9)              105.8761         estimate D2E/DX2                !
 ! A17   A(8,7,10)             109.2684         estimate D2E/DX2                !
 ! A18   A(9,7,10)             108.4426         estimate D2E/DX2                !
 ! A19   A(7,10,11)            109.1727         estimate D2E/DX2                !
 ! A20   A(7,10,12)            110.049          estimate D2E/DX2                !
 ! A21   A(7,10,13)            112.8109         estimate D2E/DX2                !
 ! A22   A(11,10,12)           106.1361         estimate D2E/DX2                !
 ! A23   A(11,10,13)           109.3876         estimate D2E/DX2                !
 ! A24   A(12,10,13)           109.064          estimate D2E/DX2                !
 ! A25   A(10,13,14)           111.1695         estimate D2E/DX2                !
 ! A26   A(10,13,15)           111.208          estimate D2E/DX2                !
 ! A27   A(14,13,15)           107.4655         estimate D2E/DX2                !
 ! A28   A(5,16,17)            112.1608         estimate D2E/DX2                !
 ! A29   A(5,16,18)            110.7757         estimate D2E/DX2                !
 ! A30   A(5,16,19)            110.9303         estimate D2E/DX2                !
 ! A31   A(17,16,18)           107.7288         estimate D2E/DX2                !
 ! A32   A(17,16,19)           107.4963         estimate D2E/DX2                !
 ! A33   A(18,16,19)           107.5521         estimate D2E/DX2                !
 ! D1    D(2,1,5,6)            -59.9218         estimate D2E/DX2                !
 ! D2    D(2,1,5,7)             57.3095         estimate D2E/DX2                !
 ! D3    D(2,1,5,16)          -177.4475         estimate D2E/DX2                !
 ! D4    D(3,1,5,6)           -179.7802         estimate D2E/DX2                !
 ! D5    D(3,1,5,7)            -62.549          estimate D2E/DX2                !
 ! D6    D(3,1,5,16)            62.6941         estimate D2E/DX2                !
 ! D7    D(4,1,5,6)             60.4987         estimate D2E/DX2                !
 ! D8    D(4,1,5,7)            177.7299         estimate D2E/DX2                !
 ! D9    D(4,1,5,16)           -57.027          estimate D2E/DX2                !
 ! D10   D(1,5,7,8)             64.5902         estimate D2E/DX2                !
 ! D11   D(1,5,7,9)            -50.2121         estimate D2E/DX2                !
 ! D12   D(1,5,7,10)          -172.0848         estimate D2E/DX2                !
 ! D13   D(6,5,7,8)           -178.0739         estimate D2E/DX2                !
 ! D14   D(6,5,7,9)             67.1238         estimate D2E/DX2                !
 ! D15   D(6,5,7,10)           -54.749          estimate D2E/DX2                !
 ! D16   D(16,5,7,8)           -59.4435         estimate D2E/DX2                !
 ! D17   D(16,5,7,9)          -174.2457         estimate D2E/DX2                !
 ! D18   D(16,5,7,10)           63.8815         estimate D2E/DX2                !
 ! D19   D(1,5,16,17)          175.5612         estimate D2E/DX2                !
 ! D20   D(1,5,16,18)          -64.0287         estimate D2E/DX2                !
 ! D21   D(1,5,16,19)           55.3403         estimate D2E/DX2                !
 ! D22   D(6,5,16,17)           58.1032         estimate D2E/DX2                !
 ! D23   D(6,5,16,18)          178.5133         estimate D2E/DX2                !
 ! D24   D(6,5,16,19)          -62.1177         estimate D2E/DX2                !
 ! D25   D(7,5,16,17)          -60.3633         estimate D2E/DX2                !
 ! D26   D(7,5,16,18)           60.0468         estimate D2E/DX2                !
 ! D27   D(7,5,16,19)          179.4158         estimate D2E/DX2                !
 ! D28   D(5,7,10,11)           54.1765         estimate D2E/DX2                !
 ! D29   D(5,7,10,12)          -61.9346         estimate D2E/DX2                !
 ! D30   D(5,7,10,13)          176.0138         estimate D2E/DX2                !
 ! D31   D(8,7,10,11)          177.3265         estimate D2E/DX2                !
 ! D32   D(8,7,10,12)           61.2154         estimate D2E/DX2                !
 ! D33   D(8,7,10,13)          -60.8362         estimate D2E/DX2                !
 ! D34   D(9,7,10,11)          -67.709          estimate D2E/DX2                !
 ! D35   D(9,7,10,12)          176.1799         estimate D2E/DX2                !
 ! D36   D(9,7,10,13)           54.1283         estimate D2E/DX2                !
 ! D37   D(7,10,13,14)          59.9145         estimate D2E/DX2                !
 ! D38   D(7,10,13,15)         -59.7885         estimate D2E/DX2                !
 ! D39   D(11,10,13,14)       -178.3696         estimate D2E/DX2                !
 ! D40   D(11,10,13,15)         61.9275         estimate D2E/DX2                !
 ! D41   D(12,10,13,14)        -62.6901         estimate D2E/DX2                !
 ! D42   D(12,10,13,15)        177.607          estimate D2E/DX2                !
 --------------------------------------------------------------------------------
 Trust Radius=3.00D-01 FncErr=1.00D-07 GrdErr=1.00D-06
 Number of steps in this run=    103 maximum allowed number of steps=    114.
 GradGradGradGradGradGradGradGradGradGradGradGradGradGradGradGradGradGrad

 Leave Link  103 at Sat Nov  7 02:03:02 2015, MaxMem=   805306368 cpu:         0.0
 (Enter /home/hetanjin/apps/g09D01/g09/l202.exe)
                          Input orientation:                          
 ---------------------------------------------------------------------
 Center     Atomic      Atomic             Coordinates (Angstroms)
 Number     Number       Type             X           Y           Z
 ---------------------------------------------------------------------
      1          6           0        2.158797   -1.038262    0.033294
      2          1           0        1.927533   -2.029222   -0.375554
      3          1           0        2.248004   -1.140761    1.122907
      4          1           0        3.140068   -0.736400   -0.352089
      5          6           0        1.075129   -0.013247   -0.333943
      6          1           0        1.027373    0.044919   -1.432844
      7          6           0       -0.305208   -0.482864    0.167098
      8          1           0       -0.293645   -0.515801    1.267925
      9          1           0       -0.461374   -1.520579   -0.163436
     10          6           0       -1.498621    0.360991   -0.301923
     11          1           0       -1.481223    0.432726   -1.399129
     12          1           0       -1.403322    1.388403    0.072512
     13          6           0       -2.846192   -0.213221    0.149098
     14          1           0       -2.906213   -0.270618    1.243053
     15          1           0       -2.996731   -1.226889   -0.242561
     16          6           0        1.452038    1.379337    0.194904
     17          1           0        0.736890    2.147561   -0.117998
     18          1           0        1.487561    1.382710    1.292643
     19          1           0        2.441246    1.682004   -0.168912
 ---------------------------------------------------------------------
                    Distance matrix (angstroms):
                    1          2          3          4          5
     1  C    0.000000
     2  H    1.096650   0.000000
     3  H    1.098053   1.771285   0.000000
     4  H    1.096601   1.772620   1.770565   0.000000
     5  C    1.536182   2.189173   2.183881   2.187979   0.000000
     6  H    2.145451   2.496039   3.070446   2.498394   1.101475
     7  C    2.529366   2.769626   2.804513   3.493388   1.541724
     8  H    2.794951   3.150412   2.621371   3.803090   2.166122
     9  H    2.671447   2.451650   3.023189   3.690652   2.159158
    10  C    3.930265   4.178166   4.280490   4.766993   2.601013
    11  H    4.179161   4.327645   4.769031   4.880520   2.805076
    12  H    4.310329   4.793279   4.564228   5.033634   2.876204
    13  C    5.073856   5.134352   5.268725   6.029943   3.956018
    14  H    5.263755   5.392372   5.228531   6.270482   4.290016
    15  H    5.166347   4.990972   5.420255   6.157343   4.249861
    16  C    2.523967   3.488523   2.801008   2.761338   1.536564
    17  H    3.492016   4.350802   3.825751   3.761289   2.197755
    18  H    2.810271   3.823315   2.641021   3.150643   2.182791
    19  H    2.742355   3.752306   3.110328   2.524002   2.183435
                    6          7          8          9         10
     6  H    0.000000
     7  C    2.148055   0.000000
     8  H    3.058374   1.101380   0.000000
     9  H    2.505703   1.100224   1.756846   0.000000
    10  C    2.785593   1.535027   2.164522   2.152990   0.000000
    11  H    2.538619   2.162032   3.069727   2.526347   1.099686
    12  H    3.159007   2.171737   2.507267   3.066776   1.097661
    13  C    4.192098   2.555314   2.803360   2.737557   1.532673
    14  H    4.767923   2.822757   2.624166   3.085102   2.183391
    15  H    4.384938   2.822355   3.177088   2.553537   2.183854
    16  C    2.147225   2.560562   2.791116   3.492716   3.160736
    17  H    2.496859   2.843657   3.174316   3.859165   2.867607
    18  H    3.070788   2.821567   2.603392   3.787823   3.536076
    19  H    2.505316   3.513199   3.791369   4.322241   4.157562
                   11         12         13         14         15
    11  H    0.000000
    12  H    1.756449   0.000000
    13  C    2.162729   2.157067   0.000000
    14  H    3.083247   2.526103   1.097103   0.000000
    15  H    2.527595   3.078632   1.097079   1.769095   0.000000
    16  C    3.470019   2.857996   4.584007   4.776538   5.174489
    17  H    3.082528   2.278842   4.299199   4.579547   5.034119
    18  H    4.118469   3.137827   4.757742   4.694806   5.410705
    19  H    4.296498   3.863313   5.625834   5.865296   6.167550
                   16         17         18         19
    16  C    0.000000
    17  H    1.095223   0.000000
    18  H    1.098319   1.771556   0.000000
    19  H    1.096586   1.767531   1.770659   0.000000
 Stoichiometry    C6H13(2)
 Framework group  C1[X(C6H13)]
 Deg. of freedom    51
 Full point group                 C1      NOp   1
 Largest Abelian subgroup         C1      NOp   1
 Largest concise Abelian subgroup C1      NOp   1
                         Standard orientation:                         
 ---------------------------------------------------------------------
 Center     Atomic      Atomic             Coordinates (Angstroms)
 Number     Number       Type             X           Y           Z
 ---------------------------------------------------------------------
      1          6           0        2.070052   -1.056599    0.042889
      2          1           0        1.828101   -2.045758   -0.364132
      3          1           0        2.152470   -1.156880    1.133243
      4          1           0        3.057047   -0.768569   -0.338442
      5          6           0        1.001524   -0.018870   -0.332906
      6          1           0        0.960028    0.036520   -1.432205
      7          6           0       -0.387238   -0.469153    0.162571
      8          1           0       -0.381617   -0.498845    1.263537
      9          1           0       -0.555093   -1.505787   -0.165617
     10          6           0       -1.567323    0.388530   -0.315014
     11          1           0       -1.543504    0.456655   -1.412330
     12          1           0       -1.460682    1.415780    0.056797
     13          6           0       -2.924418   -0.166914    0.130925
     14          1           0       -2.990654   -0.220165    1.224731
     15          1           0       -3.086030   -1.179764   -0.258431
     16          6           0        1.393676    1.370374    0.193636
     17          1           0        0.690054    2.146763   -0.125189
     18          1           0        1.423737    1.376672    1.291525
     19          1           0        2.388509    1.659174   -0.166090
 ---------------------------------------------------------------------
 Rotational constants (GHZ):      6.6065259      1.7735053      1.5162420
 Leave Link  202 at Sat Nov  7 02:03:02 2015, MaxMem=   805306368 cpu:         0.0
 (Enter /home/hetanjin/apps/g09D01/g09/l301.exe)
 Standard basis: 6-31G(d) (6D, 7F)
 Ernie: Thresh=  0.10000D-02 Tol=  0.10000D-05 Strict=F.
 There are   116 symmetry adapted cartesian basis functions of A   symmetry.
 There are   116 symmetry adapted basis functions of A   symmetry.
   116 basis functions,   220 primitive gaussians,   116 cartesian basis functions
    25 alpha electrons       24 beta electrons
       nuclear repulsion energy       243.5609871436 Hartrees.
 IExCor=  402 DFT=T Ex+Corr=B3LYP ExCW=0 ScaHFX=  0.200000
 ScaDFX=  0.800000  0.720000  1.000000  0.810000 ScalE2=  1.000000  1.000000
 IRadAn=      5 IRanWt=     -1 IRanGd=            0 ICorTp=0 IEmpDi=  4
 NAtoms=   19 NActive=   19 NUniq=   19 SFac= 1.00D+00 NAtFMM=   60 NAOKFM=F Big=F
 Integral buffers will be    131072 words long.
 Raffenetti 2 integral format.
 Two-electron integral symmetry is turned on.
 Leave Link  301 at Sat Nov  7 02:03:02 2015, MaxMem=   805306368 cpu:         0.2
 (Enter /home/hetanjin/apps/g09D01/g09/l302.exe)
 NPDir=0 NMtPBC=     1 NCelOv=     1 NCel=       1 NClECP=     1 NCelD=      1
         NCelK=      1 NCelE2=     1 NClLst=     1 CellRange=     0.0.
 One-electron integrals computed using PRISM.
 NBasis=   116 RedAO= T EigKep=  3.66D-03  NBF=   116
 NBsUse=   116 1.00D-06 EigRej= -1.00D+00 NBFU=   116
 Precomputing XC quadrature grid using
 IXCGrd= 4 IRadAn=           5 IRanWt=          -1 IRanGd=           0 AccXCQ= 0.00D+00.
 Generated NRdTot=       0 NPtTot=           0 NUsed=           0 NTot=          32
 NSgBfM=   116   116   116   116   116 MxSgAt=    19 MxSgA2=    19.
 Leave Link  302 at Sat Nov  7 02:03:03 2015, MaxMem=   805306368 cpu:         1.5
 (Enter /home/hetanjin/apps/g09D01/g09/l303.exe)
 DipDrv:  MaxL=1.
 Leave Link  303 at Sat Nov  7 02:03:03 2015, MaxMem=   805306368 cpu:         0.1
 (Enter /home/hetanjin/apps/g09D01/g09/l401.exe)
 ExpMin= 1.61D-01 ExpMax= 3.05D+03 ExpMxC= 4.57D+02 IAcc=3 IRadAn=         5 AccDes= 0.00D+00
 Harris functional with IExCor=  402 and IRadAn=       5 diagonalized for initial guess.
 HarFok:  IExCor=  402 AccDes= 0.00D+00 IRadAn=         5 IDoV= 1 UseB2=F ITyADJ=14
 ICtDFT=  3500011 ScaDFX=  1.000000  1.000000  1.000000  1.000000
 FoFCou: FMM=F IPFlag=           0 FMFlag=      100000 FMFlg1=           0
         NFxFlg=           0 DoJE=T BraDBF=F KetDBF=T FulRan=T
         wScrn=  0.000000 ICntrl=     500 IOpCl=  0 I1Cent=   200000004 NGrid=           0
         NMat0=    1 NMatS0=      1 NMatT0=    0 NMatD0=    1 NMtDS0=    0 NMtDT0=    0
 Petite list used in FoFCou.
 Harris En= -236.439418158033    
 JPrj=0 DoOrth=F DoCkMO=F.
 Initial guess <Sx>= 0.0000 <Sy>= 0.0000 <Sz>= 0.5000 <S**2>= 0.7500 S= 0.5000
 Leave Link  401 at Sat Nov  7 02:03:05 2015, MaxMem=   805306368 cpu:         8.3
 (Enter /home/hetanjin/apps/g09D01/g09/l502.exe)
 UHF open shell SCF:
 Using DIIS extrapolation, IDIIS=  1040.
 Integral symmetry usage will be decided dynamically.
 Keep R1 and R2 ints in memory in canonical form, NReq=47059932.
 IVT=       60514 IEndB=       60514 NGot=   805306368 MDV=   759189273
 LenX=   759189273 LenY=   759175376
 Requested convergence on RMS density matrix=1.00D-08 within 128 cycles.
 Requested convergence on MAX density matrix=1.00D-06.
 Requested convergence on             energy=1.00D-06.
 No special actions if energy rises.
 FoFCou: FMM=F IPFlag=           0 FMFlag=           0 FMFlg1=           0
         NFxFlg=           0 DoJE=F BraDBF=F KetDBF=F FulRan=T
         wScrn=  0.000000 ICntrl=     600 IOpCl=  0 I1Cent=           0 NGrid=           0
         NMat0=    1 NMatS0=   6786 NMatT0=    0 NMatD0=    1 NMtDS0=    0 NMtDT0=    0
 Symmetry not used in FoFCou.
 Integral accuracy reduced to 1.0D-05 until final iterations.

 Cycle   1  Pass 0  IDiag  1:
 E= -236.155656837135    
 DIIS: error= 5.49D-02 at cycle   1 NSaved=   1.
 NSaved= 1 IEnMin= 1 EnMin= -236.155656837135     IErMin= 1 ErrMin= 5.49D-02
 ErrMax= 5.49D-02  0.00D+00 EMaxC= 1.00D-01 BMatC= 8.68D-01 BMatP= 8.68D-01
 IDIUse=3 WtCom= 4.51D-01 WtEn= 5.49D-01
 Coeff-Com:  0.100D+01
 Coeff-En:   0.100D+01
 Coeff:      0.100D+01
 Gap=     0.287 Goal=   None    Shift=    0.000
 Gap=     0.248 Goal=   None    Shift=    0.000
 GapD=    0.248 DampG=1.000 DampE=0.500 DampFc=0.5000 IDamp=-1.
 Damping current iteration by 5.00D-01
 RMSDP=9.49D-03 MaxDP=1.37D-01              OVMax= 1.82D-01

 Cycle   2  Pass 0  IDiag  1:
 E= -236.265189288861     Delta-E=       -0.109532451726 Rises=F Damp=T
 DIIS: error= 7.08D-03 at cycle   2 NSaved=   2.
 NSaved= 2 IEnMin= 2 EnMin= -236.265189288861     IErMin= 2 ErrMin= 7.08D-03
 ErrMax= 7.08D-03  0.00D+00 EMaxC= 1.00D-01 BMatC= 3.90D-02 BMatP= 8.68D-01
 IDIUse=3 WtCom= 9.29D-01 WtEn= 7.08D-02
 Coeff-Com:  0.709D-01 0.929D+00
 Coeff-En:   0.116D+00 0.884D+00
 Coeff:      0.741D-01 0.926D+00
 Gap=     0.318 Goal=   None    Shift=    0.000
 Gap=     0.275 Goal=   None    Shift=    0.000
 RMSDP=1.55D-03 MaxDP=2.30D-02 DE=-1.10D-01 OVMax= 1.04D-01

 Cycle   3  Pass 0  IDiag  1:
 E= -236.399778350729     Delta-E=       -0.134589061868 Rises=F Damp=F
 DIIS: error= 2.60D-03 at cycle   3 NSaved=   3.
 NSaved= 3 IEnMin= 3 EnMin= -236.399778350729     IErMin= 3 ErrMin= 2.60D-03
 ErrMax= 2.60D-03  0.00D+00 EMaxC= 1.00D-01 BMatC= 7.59D-03 BMatP= 3.90D-02
 IDIUse=3 WtCom= 9.74D-01 WtEn= 2.60D-02
 Coeff-Com: -0.242D-02 0.248D+00 0.755D+00
 Coeff-En:   0.000D+00 0.000D+00 0.100D+01
 Coeff:     -0.236D-02 0.241D+00 0.761D+00
 Gap=     0.318 Goal=   None    Shift=    0.000
 Gap=     0.246 Goal=   None    Shift=    0.000
 RMSDP=6.75D-04 MaxDP=1.66D-02 DE=-1.35D-01 OVMax= 1.88D-02

 Cycle   4  Pass 0  IDiag  1:
 E= -236.400943242893     Delta-E=       -0.001164892164 Rises=F Damp=F
 DIIS: error= 2.40D-03 at cycle   4 NSaved=   4.
 NSaved= 4 IEnMin= 4 EnMin= -236.400943242893     IErMin= 4 ErrMin= 2.40D-03
 ErrMax= 2.40D-03  0.00D+00 EMaxC= 1.00D-01 BMatC= 3.25D-03 BMatP= 7.59D-03
 IDIUse=3 WtCom= 9.76D-01 WtEn= 2.40D-02
 Coeff-Com: -0.682D-02 0.374D-01 0.404D+00 0.565D+00
 Coeff-En:   0.000D+00 0.000D+00 0.291D+00 0.709D+00
 Coeff:     -0.665D-02 0.365D-01 0.402D+00 0.568D+00
 Gap=     0.310 Goal=   None    Shift=    0.000
 Gap=     0.255 Goal=   None    Shift=    0.000
 RMSDP=2.50D-04 MaxDP=5.46D-03 DE=-1.16D-03 OVMax= 7.42D-03

 Cycle   5  Pass 0  IDiag  1:
 E= -236.401772121402     Delta-E=       -0.000828878509 Rises=F Damp=F
 DIIS: error= 2.58D-04 at cycle   5 NSaved=   5.
 NSaved= 5 IEnMin= 5 EnMin= -236.401772121402     IErMin= 5 ErrMin= 2.58D-04
 ErrMax= 2.58D-04  0.00D+00 EMaxC= 1.00D-01 BMatC= 5.86D-05 BMatP= 3.25D-03
 IDIUse=3 WtCom= 9.97D-01 WtEn= 2.58D-03
 Coeff-Com: -0.150D-02-0.252D-02 0.775D-01 0.176D+00 0.751D+00
 Coeff-En:   0.000D+00 0.000D+00 0.000D+00 0.000D+00 0.100D+01
 Coeff:     -0.150D-02-0.251D-02 0.773D-01 0.175D+00 0.751D+00
 Gap=     0.311 Goal=   None    Shift=    0.000
 Gap=     0.255 Goal=   None    Shift=    0.000
 RMSDP=4.07D-05 MaxDP=7.03D-04 DE=-8.29D-04 OVMax= 9.35D-04

 Cycle   6  Pass 0  IDiag  1:
 E= -236.401787422804     Delta-E=       -0.000015301402 Rises=F Damp=F
 DIIS: error= 9.43D-05 at cycle   6 NSaved=   6.
 NSaved= 6 IEnMin= 6 EnMin= -236.401787422804     IErMin= 6 ErrMin= 9.43D-05
 ErrMax= 9.43D-05  0.00D+00 EMaxC= 1.00D-01 BMatC= 5.53D-06 BMatP= 5.86D-05
 IDIUse=1 WtCom= 1.00D+00 WtEn= 0.00D+00
 Coeff-Com: -0.137D-03-0.299D-02-0.251D-03 0.229D-01 0.241D+00 0.739D+00
 Coeff:     -0.137D-03-0.299D-02-0.251D-03 0.229D-01 0.241D+00 0.739D+00
 Gap=     0.311 Goal=   None    Shift=    0.000
 Gap=     0.255 Goal=   None    Shift=    0.000
 RMSDP=1.53D-05 MaxDP=4.43D-04 DE=-1.53D-05 OVMax= 4.17D-04

 Cycle   7  Pass 0  IDiag  1:
 E= -236.401789161140     Delta-E=       -0.000001738336 Rises=F Damp=F
 DIIS: error= 4.74D-05 at cycle   7 NSaved=   7.
 NSaved= 7 IEnMin= 7 EnMin= -236.401789161140     IErMin= 7 ErrMin= 4.74D-05
 ErrMax= 4.74D-05  0.00D+00 EMaxC= 1.00D-01 BMatC= 1.11D-06 BMatP= 5.53D-06
 IDIUse=1 WtCom= 1.00D+00 WtEn= 0.00D+00
 Coeff-Com:  0.251D-03-0.354D-03-0.181D-01-0.322D-01-0.923D-01 0.261D+00
 Coeff-Com:  0.882D+00
 Coeff:      0.251D-03-0.354D-03-0.181D-01-0.322D-01-0.923D-01 0.261D+00
 Coeff:      0.882D+00
 Gap=     0.311 Goal=   None    Shift=    0.000
 Gap=     0.255 Goal=   None    Shift=    0.000
 RMSDP=7.14D-06 MaxDP=2.30D-04 DE=-1.74D-06 OVMax= 2.28D-04

 Initial convergence to 1.0D-05 achieved.  Increase integral accuracy.
 Cycle   8  Pass 1  IDiag  1:
 E= -236.401767523513     Delta-E=        0.000021637627 Rises=F Damp=F
 DIIS: error= 7.72D-06 at cycle   1 NSaved=   1.
 NSaved= 1 IEnMin= 1 EnMin= -236.401767523513     IErMin= 1 ErrMin= 7.72D-06
 ErrMax= 7.72D-06  0.00D+00 EMaxC= 1.00D-01 BMatC= 9.38D-08 BMatP= 9.38D-08
 IDIUse=1 WtCom= 1.00D+00 WtEn= 0.00D+00
 Coeff-Com:  0.100D+01
 Coeff:      0.100D+01
 Gap=     0.311 Goal=   None    Shift=    0.000
 Gap=     0.255 Goal=   None    Shift=    0.000
 RMSDP=7.14D-06 MaxDP=2.30D-04 DE= 2.16D-05 OVMax= 6.39D-05

 Cycle   9  Pass 1  IDiag  1:
 E= -236.401767539650     Delta-E=       -0.000000016137 Rises=F Damp=F
 DIIS: error= 7.10D-06 at cycle   2 NSaved=   2.
 NSaved= 2 IEnMin= 2 EnMin= -236.401767539650     IErMin= 2 ErrMin= 7.10D-06
 ErrMax= 7.10D-06  0.00D+00 EMaxC= 1.00D-01 BMatC= 7.27D-08 BMatP= 9.38D-08
 IDIUse=1 WtCom= 1.00D+00 WtEn= 0.00D+00
 Coeff-Com:  0.463D+00 0.537D+00
 Coeff:      0.463D+00 0.537D+00
 Gap=     0.311 Goal=   None    Shift=    0.000
 Gap=     0.255 Goal=   None    Shift=    0.000
 RMSDP=1.38D-06 MaxDP=2.63D-05 DE=-1.61D-08 OVMax= 3.46D-05

 Cycle  10  Pass 1  IDiag  1:
 E= -236.401767558380     Delta-E=       -0.000000018730 Rises=F Damp=F
 DIIS: error= 2.38D-06 at cycle   3 NSaved=   3.
 NSaved= 3 IEnMin= 3 EnMin= -236.401767558380     IErMin= 3 ErrMin= 2.38D-06
 ErrMax= 2.38D-06  0.00D+00 EMaxC= 1.00D-01 BMatC= 3.80D-09 BMatP= 7.27D-08
 IDIUse=1 WtCom= 1.00D+00 WtEn= 0.00D+00
 Coeff-Com: -0.832D-02 0.123D+00 0.885D+00
 Coeff:     -0.832D-02 0.123D+00 0.885D+00
 Gap=     0.311 Goal=   None    Shift=    0.000
 Gap=     0.255 Goal=   None    Shift=    0.000
 RMSDP=4.39D-07 MaxDP=1.03D-05 DE=-1.87D-08 OVMax= 1.03D-05

 Cycle  11  Pass 1  IDiag  1:
 E= -236.401767559759     Delta-E=       -0.000000001379 Rises=F Damp=F
 DIIS: error= 1.06D-06 at cycle   4 NSaved=   4.
 NSaved= 4 IEnMin= 4 EnMin= -236.401767559759     IErMin= 4 ErrMin= 1.06D-06
 ErrMax= 1.06D-06  0.00D+00 EMaxC= 1.00D-01 BMatC= 1.00D-09 BMatP= 3.80D-09
 IDIUse=1 WtCom= 1.00D+00 WtEn= 0.00D+00
 Coeff-Com: -0.102D+00-0.653D-01 0.354D+00 0.813D+00
 Coeff:     -0.102D+00-0.653D-01 0.354D+00 0.813D+00
 Gap=     0.311 Goal=   None    Shift=    0.000
 Gap=     0.255 Goal=   None    Shift=    0.000
 RMSDP=2.34D-07 MaxDP=5.82D-06 DE=-1.38D-09 OVMax= 6.18D-06

 Cycle  12  Pass 1  IDiag  1:
 E= -236.401767560151     Delta-E=       -0.000000000393 Rises=F Damp=F
 DIIS: error= 3.15D-07 at cycle   5 NSaved=   5.
 NSaved= 5 IEnMin= 5 EnMin= -236.401767560151     IErMin= 5 ErrMin= 3.15D-07
 ErrMax= 3.15D-07  0.00D+00 EMaxC= 1.00D-01 BMatC= 5.96D-11 BMatP= 1.00D-09
 IDIUse=1 WtCom= 1.00D+00 WtEn= 0.00D+00
 Coeff-Com: -0.226D-01-0.268D-01-0.541D-02 0.195D+00 0.860D+00
 Coeff:     -0.226D-01-0.268D-01-0.541D-02 0.195D+00 0.860D+00
 Gap=     0.311 Goal=   None    Shift=    0.000
 Gap=     0.255 Goal=   None    Shift=    0.000
 RMSDP=5.83D-08 MaxDP=1.95D-06 DE=-3.93D-10 OVMax= 1.86D-06

 Cycle  13  Pass 1  IDiag  1:
 E= -236.401767560170     Delta-E=       -0.000000000019 Rises=F Damp=F
 DIIS: error= 1.69D-07 at cycle   6 NSaved=   6.
 NSaved= 6 IEnMin= 6 EnMin= -236.401767560170     IErMin= 6 ErrMin= 1.69D-07
 ErrMax= 1.69D-07  0.00D+00 EMaxC= 1.00D-01 BMatC= 1.76D-11 BMatP= 5.96D-11
 IDIUse=1 WtCom= 1.00D+00 WtEn= 0.00D+00
 Coeff-Com:  0.232D-02-0.448D-02-0.498D-01-0.105D-01 0.423D+00 0.640D+00
 Coeff:      0.232D-02-0.448D-02-0.498D-01-0.105D-01 0.423D+00 0.640D+00
 Gap=     0.311 Goal=   None    Shift=    0.000
 Gap=     0.255 Goal=   None    Shift=    0.000
 RMSDP=2.12D-08 MaxDP=7.16D-07 DE=-1.90D-11 OVMax= 6.95D-07

 Cycle  14  Pass 1  IDiag  1:
 E= -236.401767560177     Delta-E=       -0.000000000007 Rises=F Damp=F
 DIIS: error= 2.62D-08 at cycle   7 NSaved=   7.
 NSaved= 7 IEnMin= 7 EnMin= -236.401767560177     IErMin= 7 ErrMin= 2.62D-08
 ErrMax= 2.62D-08  0.00D+00 EMaxC= 1.00D-01 BMatC= 4.74D-13 BMatP= 1.76D-11
 IDIUse=1 WtCom= 1.00D+00 WtEn= 0.00D+00
 Coeff-Com:  0.182D-02-0.132D-03-0.160D-01-0.132D-01 0.973D-01 0.213D+00
 Coeff-Com:  0.718D+00
 Coeff:      0.182D-02-0.132D-03-0.160D-01-0.132D-01 0.973D-01 0.213D+00
 Coeff:      0.718D+00
 Gap=     0.311 Goal=   None    Shift=    0.000
 Gap=     0.255 Goal=   None    Shift=    0.000
 RMSDP=4.32D-09 MaxDP=1.30D-07 DE=-7.22D-12 OVMax= 1.20D-07

 SCF Done:  E(UB3LYP) =  -236.401767560     A.U. after   14 cycles
            NFock= 14  Conv=0.43D-08     -V/T= 2.0104
 <Sx>= 0.0000 <Sy>= 0.0000 <Sz>= 0.5000 <S**2>= 0.7527 S= 0.5014
 <L.S>= 0.000000000000E+00
 KE= 2.339679650581D+02 PE=-1.032591516122D+03 EE= 3.186607963605D+02
 Annihilation of the first spin contaminant:
 S**2 before annihilation     0.7527,   after     0.7500
 Leave Link  502 at Sat Nov  7 02:03:48 2015, MaxMem=   805306368 cpu:       158.4
 (Enter /home/hetanjin/apps/g09D01/g09/l601.exe)
 Copying SCF densities to generalized density rwf, IOpCl= 1 IROHF=0.

 **********************************************************************

            Population analysis using the SCF density.

 **********************************************************************

 Orbital symmetries:
 Alpha Orbitals:
       Occupied  (A) (A) (A) (A) (A) (A) (A) (A) (A) (A) (A) (A)
                 (A) (A) (A) (A) (A) (A) (A) (A) (A) (A) (A) (A)
                 (A)
       Virtual   (A) (A) (A) (A) (A) (A) (A) (A) (A) (A) (A) (A)
                 (A) (A) (A) (A) (A) (A) (A) (A) (A) (A) (A) (A)
                 (A) (A) (A) (A) (A) (A) (A) (A) (A) (A) (A) (A)
                 (A) (A) (A) (A) (A) (A) (A) (A) (A) (A) (A) (A)
                 (A) (A) (A) (A) (A) (A) (A) (A) (A) (A) (A) (A)
                 (A) (A) (A) (A) (A) (A) (A) (A) (A) (A) (A) (A)
                 (A) (A) (A) (A) (A) (A) (A) (A) (A) (A) (A) (A)
                 (A) (A) (A) (A) (A) (A) (A)
 Beta  Orbitals:
       Occupied  (A) (A) (A) (A) (A) (A) (A) (A) (A) (A) (A) (A)
                 (A) (A) (A) (A) (A) (A) (A) (A) (A) (A) (A) (A)
       Virtual   (A) (A) (A) (A) (A) (A) (A) (A) (A) (A) (A) (A)
                 (A) (A) (A) (A) (A) (A) (A) (A) (A) (A) (A) (A)
                 (A) (A) (A) (A) (A) (A) (A) (A) (A) (A) (A) (A)
                 (A) (A) (A) (A) (A) (A) (A) (A) (A) (A) (A) (A)
                 (A) (A) (A) (A) (A) (A) (A) (A) (A) (A) (A) (A)
                 (A) (A) (A) (A) (A) (A) (A) (A) (A) (A) (A) (A)
                 (A) (A) (A) (A) (A) (A) (A) (A) (A) (A) (A) (A)
                 (A) (A) (A) (A) (A) (A) (A) (A)
 The electronic state is 2-A.
 Alpha  occ. eigenvalues --  -10.19440 -10.18874 -10.18230 -10.18202 -10.17228
 Alpha  occ. eigenvalues --  -10.17149  -0.81171  -0.75818  -0.68002  -0.66648
 Alpha  occ. eigenvalues --   -0.58739  -0.55657  -0.47116  -0.44221  -0.43520
 Alpha  occ. eigenvalues --   -0.41552  -0.38210  -0.38126  -0.36528  -0.36262
 Alpha  occ. eigenvalues --   -0.33722  -0.32774  -0.31835  -0.31684  -0.22623
 Alpha virt. eigenvalues --    0.08493   0.11508   0.11976   0.12703   0.15020
 Alpha virt. eigenvalues --    0.15684   0.16179   0.17076   0.18215   0.19190
 Alpha virt. eigenvalues --    0.19444   0.21405   0.21713   0.23454   0.24760
 Alpha virt. eigenvalues --    0.25955   0.27216   0.28716   0.49563   0.51023
 Alpha virt. eigenvalues --    0.51963   0.53088   0.53255   0.56166   0.58146
 Alpha virt. eigenvalues --    0.58467   0.64229   0.65964   0.68283   0.71372
 Alpha virt. eigenvalues --    0.72367   0.72824   0.74518   0.81118   0.84506
 Alpha virt. eigenvalues --    0.86052   0.88145   0.89688   0.89750   0.91070
 Alpha virt. eigenvalues --    0.91652   0.92458   0.93683   0.95499   0.95854
 Alpha virt. eigenvalues --    0.96860   0.98093   0.98608   1.02537   1.10013
 Alpha virt. eigenvalues --    1.25282   1.34577   1.40700   1.42859   1.45586
 Alpha virt. eigenvalues --    1.53691   1.58588   1.67541   1.70467   1.78480
 Alpha virt. eigenvalues --    1.80947   1.83869   1.87136   1.92442   1.94858
 Alpha virt. eigenvalues --    1.96829   1.98492   2.00825   2.03358   2.07264
 Alpha virt. eigenvalues --    2.09717   2.13420   2.23121   2.24488   2.25853
 Alpha virt. eigenvalues --    2.28687   2.34851   2.36813   2.43918   2.51206
 Alpha virt. eigenvalues --    2.52653   2.58439   2.68173   2.76098   2.79155
 Alpha virt. eigenvalues --    4.08661   4.18525   4.28687   4.31094   4.45164
 Alpha virt. eigenvalues --    4.58578
  Beta  occ. eigenvalues --  -10.18846 -10.18254 -10.18079 -10.17993 -10.17222
  Beta  occ. eigenvalues --  -10.17150  -0.80922  -0.74952  -0.67992  -0.65248
  Beta  occ. eigenvalues --   -0.57470  -0.55570  -0.46919  -0.43912  -0.43345
  Beta  occ. eigenvalues --   -0.41190  -0.38159  -0.37585  -0.36115  -0.35689
  Beta  occ. eigenvalues --   -0.33357  -0.32293  -0.31722  -0.31419
  Beta virt. eigenvalues --   -0.05932   0.08570   0.11891   0.12097   0.12809
  Beta virt. eigenvalues --    0.15103   0.15873   0.16219   0.17451   0.18430
  Beta virt. eigenvalues --    0.19304   0.20157   0.21633   0.21963   0.23765
  Beta virt. eigenvalues --    0.24926   0.26378   0.27685   0.29507   0.49823
  Beta virt. eigenvalues --    0.51171   0.51994   0.53223   0.54694   0.56796
  Beta virt. eigenvalues --    0.58807   0.63343   0.64644   0.66423   0.69363
  Beta virt. eigenvalues --    0.71790   0.72618   0.73064   0.74715   0.81308
  Beta virt. eigenvalues --    0.84660   0.86244   0.88285   0.89798   0.90140
  Beta virt. eigenvalues --    0.91151   0.91800   0.92757   0.94582   0.95917
  Beta virt. eigenvalues --    0.96152   0.97070   0.98324   0.98827   1.02665
  Beta virt. eigenvalues --    1.10812   1.26079   1.35468   1.41425   1.43110
  Beta virt. eigenvalues --    1.45627   1.55010   1.58868   1.68732   1.71126
  Beta virt. eigenvalues --    1.79018   1.81972   1.84783   1.88952   1.93594
  Beta virt. eigenvalues --    1.96349   1.97843   1.99412   2.01407   2.04296
  Beta virt. eigenvalues --    2.09838   2.10315   2.13996   2.23933   2.24701
  Beta virt. eigenvalues --    2.25976   2.30214   2.35186   2.37875   2.44356
  Beta virt. eigenvalues --    2.51369   2.52828   2.59369   2.68447   2.76416
  Beta virt. eigenvalues --    2.79738   4.10195   4.19739   4.28722   4.32021
  Beta virt. eigenvalues --    4.45399   4.58688
          Condensed to atoms (all electrons):
               1          2          3          4          5          6
     1  C    5.109174   0.369646   0.371871   0.368867   0.378555  -0.045795
     2  H    0.369646   0.579080  -0.031527  -0.030026  -0.029845  -0.003350
     3  H    0.371871  -0.031527   0.582643  -0.031771  -0.034079   0.005834
     4  H    0.368867  -0.030026  -0.031771   0.578689  -0.028301  -0.003403
     5  C    0.378555  -0.029845  -0.034079  -0.028301   4.839014   0.379387
     6  H   -0.045795  -0.003350   0.005834  -0.003403   0.379387   0.640044
     7  C   -0.045984  -0.004205  -0.005981   0.004671   0.381523  -0.049530
     8  H   -0.003906  -0.000270   0.004810  -0.000087  -0.036534   0.006552
     9  H   -0.004809   0.005293  -0.000296   0.000027  -0.036387  -0.003521
    10  C    0.003866   0.000000   0.000016  -0.000133  -0.031836  -0.005212
    11  H    0.000076  -0.000004   0.000008   0.000000  -0.003731   0.006224
    12  H    0.000014   0.000000   0.000001   0.000003  -0.004839  -0.000271
    13  C   -0.000131  -0.000005  -0.000001   0.000002   0.003915   0.000035
    14  H    0.000004   0.000000  -0.000001   0.000000  -0.000016   0.000009
    15  H   -0.000001   0.000000   0.000000   0.000000  -0.000098   0.000002
    16  C   -0.054636   0.005271  -0.005460  -0.003668   0.381432  -0.048235
    17  H    0.005060  -0.000184  -0.000039  -0.000036  -0.028824  -0.003366
    18  H   -0.005161  -0.000047   0.004841  -0.000227  -0.034992   0.005901
    19  H   -0.004385  -0.000014  -0.000226   0.004300  -0.029854  -0.003217
               7          8          9         10         11         12
     1  C   -0.045984  -0.003906  -0.004809   0.003866   0.000076   0.000014
     2  H   -0.004205  -0.000270   0.005293   0.000000  -0.000004   0.000000
     3  H   -0.005981   0.004810  -0.000296   0.000016   0.000008   0.000001
     4  H    0.004671  -0.000087   0.000027  -0.000133   0.000000   0.000003
     5  C    0.381523  -0.036534  -0.036387  -0.031836  -0.003731  -0.004839
     6  H   -0.049530   0.006552  -0.003521  -0.005212   0.006224  -0.000271
     7  C    5.045087   0.363222   0.367674   0.370309  -0.041095  -0.036929
     8  H    0.363222   0.619097  -0.039313  -0.040350   0.006052  -0.005703
     9  H    0.367674  -0.039313   0.617117  -0.042187  -0.004898   0.005884
    10  C    0.370309  -0.040350  -0.042187   4.996340   0.372137   0.372568
    11  H   -0.041095   0.006052  -0.004898   0.372137   0.605781  -0.039771
    12  H   -0.036929  -0.005703   0.005884   0.372568  -0.039771   0.597188
    13  C   -0.044546  -0.002289  -0.003213   0.380645  -0.037024  -0.036426
    14  H   -0.002015   0.004788  -0.000513  -0.044604   0.005408  -0.005645
    15  H   -0.002489  -0.000479   0.005677  -0.044489  -0.005636   0.005322
    16  C   -0.048787  -0.008103   0.005640  -0.004174  -0.000689   0.002536
    17  H   -0.004696  -0.000027  -0.000044   0.001975   0.000435   0.003208
    18  H   -0.005929   0.005690  -0.000007  -0.000357   0.000077   0.000303
    19  H    0.004940  -0.000040  -0.000167   0.000103  -0.000031  -0.000091
              13         14         15         16         17         18
     1  C   -0.000131   0.000004  -0.000001  -0.054636   0.005060  -0.005161
     2  H   -0.000005   0.000000   0.000000   0.005271  -0.000184  -0.000047
     3  H   -0.000001  -0.000001   0.000000  -0.005460  -0.000039   0.004841
     4  H    0.000002   0.000000   0.000000  -0.003668  -0.000036  -0.000227
     5  C    0.003915  -0.000016  -0.000098   0.381432  -0.028824  -0.034992
     6  H    0.000035   0.000009   0.000002  -0.048235  -0.003366   0.005901
     7  C   -0.044546  -0.002015  -0.002489  -0.048787  -0.004696  -0.005929
     8  H   -0.002289   0.004788  -0.000479  -0.008103  -0.000027   0.005690
     9  H   -0.003213  -0.000513   0.005677   0.005640  -0.000044  -0.000007
    10  C    0.380645  -0.044604  -0.044489  -0.004174   0.001975  -0.000357
    11  H   -0.037024   0.005408  -0.005636  -0.000689   0.000435   0.000077
    12  H   -0.036426  -0.005645   0.005322   0.002536   0.003208   0.000303
    13  C    5.300255   0.361417   0.361344   0.000128  -0.000064  -0.000025
    14  H    0.361417   0.595919  -0.046800  -0.000011   0.000010   0.000001
    15  H    0.361344  -0.046800   0.595871   0.000002   0.000001   0.000000
    16  C    0.000128  -0.000011   0.000002   5.111394   0.370766   0.371535
    17  H   -0.000064   0.000010   0.000001   0.370766   0.571115  -0.031637
    18  H   -0.000025   0.000001   0.000000   0.371535  -0.031637   0.583471
    19  H    0.000000   0.000000   0.000000   0.370377  -0.030018  -0.031644
              19
     1  C   -0.004385
     2  H   -0.000014
     3  H   -0.000226
     4  H    0.004300
     5  C   -0.029854
     6  H   -0.003217
     7  C    0.004940
     8  H   -0.000040
     9  H   -0.000167
    10  C    0.000103
    11  H   -0.000031
    12  H   -0.000091
    13  C    0.000000
    14  H    0.000000
    15  H    0.000000
    16  C    0.370377
    17  H   -0.030018
    18  H   -0.031644
    19  H    0.579164
          Atomic-Atomic Spin Densities.
               1          2          3          4          5          6
     1  C    0.007263   0.000287   0.000286  -0.001494  -0.004949  -0.000303
     2  H    0.000287  -0.000036   0.000028  -0.000163  -0.000153  -0.000009
     3  H    0.000286   0.000028  -0.000057  -0.000137  -0.000157  -0.000008
     4  H   -0.001494  -0.000163  -0.000137   0.003392   0.000141   0.000083
     5  C   -0.004949  -0.000153  -0.000157   0.000141   0.028978   0.000404
     6  H   -0.000303  -0.000009  -0.000008   0.000083   0.000404  -0.000714
     7  C    0.001560   0.000008   0.000001  -0.000118  -0.013506  -0.000088
     8  H   -0.000317  -0.000011  -0.000026   0.000018   0.001546  -0.000006
     9  H   -0.000299  -0.000034  -0.000009   0.000019   0.001195   0.000034
    10  C    0.000042   0.000005   0.000003   0.000002  -0.002218  -0.000084
    11  H   -0.000042  -0.000001   0.000000   0.000002   0.000901   0.000061
    12  H   -0.000029   0.000000   0.000000   0.000001   0.000812   0.000014
    13  C   -0.000084  -0.000004  -0.000002   0.000001   0.001975   0.000031
    14  H   -0.000003   0.000000   0.000000   0.000000   0.000086   0.000001
    15  H   -0.000004   0.000000   0.000000   0.000000   0.000096   0.000002
    16  C    0.000146   0.000000   0.000017  -0.000003  -0.001005   0.000011
    17  H    0.000014   0.000000   0.000000  -0.000002  -0.000084  -0.000020
    18  H    0.000022   0.000000  -0.000002  -0.000001  -0.000062  -0.000009
    19  H   -0.000257  -0.000002  -0.000005   0.000141  -0.000048   0.000051
               7          8          9         10         11         12
     1  C    0.001560  -0.000317  -0.000299   0.000042  -0.000042  -0.000029
     2  H    0.000008  -0.000011  -0.000034   0.000005  -0.000001   0.000000
     3  H    0.000001  -0.000026  -0.000009   0.000003   0.000000   0.000000
     4  H   -0.000118   0.000018   0.000019   0.000002   0.000002   0.000001
     5  C   -0.013506   0.001546   0.001195  -0.002218   0.000901   0.000812
     6  H   -0.000088  -0.000006   0.000034  -0.000084   0.000061   0.000014
     7  C    0.083357  -0.003144  -0.002344   0.017823  -0.005150  -0.004809
     8  H   -0.003144  -0.002043   0.000574  -0.000032   0.000067   0.000193
     9  H   -0.002344   0.000574  -0.002442   0.000053   0.000159   0.000046
    10  C    0.017823  -0.000032   0.000053  -0.044389   0.004122   0.004230
    11  H   -0.005150   0.000067   0.000159   0.004122   0.006950   0.001031
    12  H   -0.004809   0.000193   0.000046   0.004230   0.001031   0.006676
    13  C   -0.026584   0.001785   0.001528  -0.032026  -0.003171  -0.003119
    14  H   -0.001832   0.000176   0.000120   0.000509   0.000053   0.000905
    15  H   -0.001845   0.000122   0.000137   0.000417   0.000938   0.000051
    16  C    0.000725  -0.000029  -0.000030   0.000015  -0.000021  -0.000079
    17  H    0.000211  -0.000012  -0.000003  -0.000092  -0.000021  -0.000093
    18  H    0.000067  -0.000019  -0.000001  -0.000006  -0.000001  -0.000008
    19  H   -0.000125   0.000008   0.000003   0.000007   0.000004   0.000010
              13         14         15         16         17         18
     1  C   -0.000084  -0.000003  -0.000004   0.000146   0.000014   0.000022
     2  H   -0.000004   0.000000   0.000000   0.000000   0.000000   0.000000
     3  H   -0.000002   0.000000   0.000000   0.000017   0.000000  -0.000002
     4  H    0.000001   0.000000   0.000000  -0.000003  -0.000002  -0.000001
     5  C    0.001975   0.000086   0.000096  -0.001005  -0.000084  -0.000062
     6  H    0.000031   0.000001   0.000002   0.000011  -0.000020  -0.000009
     7  C   -0.026584  -0.001832  -0.001845   0.000725   0.000211   0.000067
     8  H    0.001785   0.000176   0.000122  -0.000029  -0.000012  -0.000019
     9  H    0.001528   0.000120   0.000137  -0.000030  -0.000003  -0.000001
    10  C   -0.032026   0.000509   0.000417   0.000015  -0.000092  -0.000006
    11  H   -0.003171   0.000053   0.000938  -0.000021  -0.000021  -0.000001
    12  H   -0.003119   0.000905   0.000051  -0.000079  -0.000093  -0.000008
    13  C    1.124379  -0.011073  -0.011115  -0.000035  -0.000010  -0.000002
    14  H   -0.011073  -0.025738   0.006063  -0.000002  -0.000001   0.000000
    15  H   -0.011115   0.006063  -0.025263  -0.000001   0.000000   0.000000
    16  C   -0.000035  -0.000002  -0.000001  -0.000612   0.000148   0.000085
    17  H   -0.000010  -0.000001   0.000000   0.000148  -0.000008  -0.000010
    18  H   -0.000002   0.000000   0.000000   0.000085  -0.000010  -0.000023
    19  H    0.000001   0.000000   0.000000   0.000020  -0.000040  -0.000007
              19
     1  C   -0.000257
     2  H   -0.000002
     3  H   -0.000005
     4  H    0.000141
     5  C   -0.000048
     6  H    0.000051
     7  C   -0.000125
     8  H    0.000008
     9  H    0.000003
    10  C    0.000007
    11  H    0.000004
    12  H    0.000010
    13  C    0.000001
    14  H    0.000000
    15  H    0.000000
    16  C    0.000020
    17  H   -0.000040
    18  H   -0.000007
    19  H    0.000727
 Mulliken charges and spin densities:
               1          2
     1  C   -0.442327   0.001836
     2  H    0.140188  -0.000085
     3  H    0.139356  -0.000069
     4  H    0.141095   0.001881
     5  C   -0.064491   0.013952
     6  H    0.121912  -0.000549
     7  C   -0.245241   0.044207
     8  H    0.126891  -0.001150
     9  H    0.128044  -0.001294
    10  C   -0.284620  -0.051619
    11  H    0.136683   0.005881
    12  H    0.142647   0.005832
    13  C   -0.284015   1.042475
    14  H    0.132048  -0.030736
    15  H    0.131772  -0.030402
    16  C   -0.445318  -0.000650
    17  H    0.146364  -0.000023
    18  H    0.138208   0.000022
    19  H    0.140803   0.000489
 Sum of Mulliken charges =   0.00000   1.00000
 Mulliken charges and spin densities with hydrogens summed into heavy atoms:
               1          2
     1  C   -0.021688   0.003563
     5  C    0.057421   0.013404
     7  C    0.009694   0.041763
    10  C   -0.005290  -0.039905
    13  C   -0.020195   0.981338
    16  C   -0.019943  -0.000163
 Electronic spatial extent (au):  <R**2>=            859.0289
 Charge=              0.0000 electrons
 Dipole moment (field-independent basis, Debye):
    X=              0.7767    Y=             -0.2574    Z=              0.0650  Tot=              0.8208
 Quadrupole moment (field-independent basis, Debye-Ang):
   XX=            -44.7762   YY=            -40.7900   ZZ=            -40.2111
   XY=              1.0421   XZ=             -0.6335   YZ=              0.1712
 Traceless Quadrupole moment (field-independent basis, Debye-Ang):
   XX=             -2.8504   YY=              1.1358   ZZ=              1.7147
   XY=              1.0421   XZ=             -0.6335   YZ=              0.1712
 Octapole moment (field-independent basis, Debye-Ang**2):
  XXX=             20.4321  YYY=             -0.8850  ZZZ=              0.9017  XYY=             -0.9087
  XXY=             -2.4012  XXZ=              0.6273  XZZ=              0.2132  YZZ=             -0.1726
  YYZ=             -1.0416  XYZ=             -0.4474
 Hexadecapole moment (field-independent basis, Debye-Ang**3):
 XXXX=           -923.0298 YYYY=           -246.9225 ZZZZ=            -95.4194 XXXY=             15.3305
 XXXZ=             -9.1316 YYYX=              0.2146 YYYZ=              1.4628 ZZZX=              0.0141
 ZZZY=             -0.3532 XXYY=           -185.1355 XXZZ=           -157.2614 YYZZ=            -58.9391
 XXYZ=             -0.0897 YYXZ=             -0.4245 ZZXY=              0.1499
 N-N= 2.435609871436D+02 E-N=-1.032591520092D+03  KE= 2.339679650581D+02
                          Isotropic Fermi Contact Couplings
        Atom                 a.u.       MegaHertz       Gauss      10(-4) cm-1
     1  C(13)              0.00246       2.76403       0.98627       0.92198
     2  H(1)               0.00000       0.00055       0.00020       0.00018
     3  H(1)               0.00002       0.09735       0.03474       0.03247
     4  H(1)               0.00070       3.14168       1.12103       1.04795
     5  C(13)              0.00689       7.74913       2.76508       2.58483
     6  H(1)              -0.00019      -0.84015      -0.29979      -0.28024
     7  C(13)              0.05104      57.37698      20.47353      19.13890
     8  H(1)              -0.00067      -2.99655      -1.06924      -0.99954
     9  H(1)              -0.00052      -2.31526      -0.82614      -0.77229
    10  C(13)             -0.01164     -13.08347      -4.66851      -4.36418
    11  H(1)               0.00377      16.83124       6.00581       5.61430
    12  H(1)               0.00392      17.51850       6.25104       5.84354
    13  C(13)              0.30886     347.21913     123.89641     115.81983
    14  H(1)              -0.00449     -20.07642      -7.16376      -6.69677
    15  H(1)              -0.00428     -19.14053      -6.82982      -6.38459
    16  C(13)             -0.00031      -0.35275      -0.12587      -0.11767
    17  H(1)               0.00006       0.27596       0.09847       0.09205
    18  H(1)               0.00002       0.07439       0.02654       0.02481
    19  H(1)               0.00021       0.95314       0.34010       0.31793
 --------------------------------------------------------
       Center         ----  Spin Dipole Couplings  ----
                      3XX-RR        3YY-RR        3ZZ-RR
 --------------------------------------------------------
     1   Atom        0.003987     -0.001046     -0.002941
     2   Atom        0.001462     -0.000036     -0.001426
     3   Atom        0.001730     -0.001111     -0.000620
     4   Atom        0.001661     -0.000737     -0.000924
     5   Atom        0.019888     -0.011012     -0.008876
     6   Atom        0.002582     -0.003016      0.000434
     7   Atom        0.053898     -0.020911     -0.032988
     8   Atom        0.005468     -0.008085      0.002617
     9   Atom        0.004173      0.004726     -0.008899
    10   Atom        0.042882     -0.019786     -0.023096
    11   Atom        0.005283     -0.009171      0.003887
    12   Atom        0.007156      0.004004     -0.011160
    13   Atom        0.290762      0.025767     -0.316529
    14   Atom       -0.030297     -0.040937      0.071233
    15   Atom       -0.026282      0.058921     -0.032639
    16   Atom        0.002531     -0.000673     -0.001858
    17   Atom        0.001802      0.000221     -0.002023
    18   Atom        0.001796     -0.000747     -0.001048
    19   Atom        0.001364     -0.000376     -0.000989
 --------------------------------------------------------
                        XY            XZ            YZ
 --------------------------------------------------------
     1   Atom       -0.003441      0.000612     -0.000401
     2   Atom       -0.001425     -0.000337      0.000267
     3   Atom       -0.000815      0.000953     -0.000473
     4   Atom       -0.000239     -0.000297     -0.000133
     5   Atom        0.006022     -0.009629     -0.001927
     6   Atom        0.000332     -0.002570     -0.000609
     7   Atom       -0.037343      0.019469     -0.008038
     8   Atom       -0.001973      0.007601     -0.002713
     9   Atom       -0.007924     -0.002044      0.002227
    10   Atom       -0.002198     -0.003916     -0.003081
    11   Atom        0.003637     -0.014199     -0.005019
    12   Atom        0.014644      0.000881      0.000117
    13   Atom       -0.624947      0.353915     -0.284726
    14   Atom       -0.023126     -0.003333     -0.008527
    15   Atom        0.002075      0.024417      0.035180
    16   Atom        0.001694      0.000113      0.000136
    17   Atom        0.002354     -0.000191     -0.000179
    18   Atom        0.001295      0.001108      0.000647
    19   Atom        0.000938     -0.000096     -0.000034
 --------------------------------------------------------


 ---------------------------------------------------------------------------------
              Anisotropic Spin Dipole Couplings in Principal Axis System
 ---------------------------------------------------------------------------------

       Atom             a.u.   MegaHertz   Gauss  10(-4) cm-1        Axes

              Baa    -0.0030    -0.406    -0.145    -0.136  0.0755  0.3217  0.9438
     1 C(13)  Bbb    -0.0028    -0.371    -0.132    -0.124  0.4530  0.8321 -0.3199
              Bcc     0.0058     0.777     0.277     0.259  0.8883 -0.4517  0.0830
 
              Baa    -0.0015    -0.789    -0.282    -0.263  0.0477 -0.1359  0.9896
     2 H(1)   Bbb    -0.0009    -0.476    -0.170    -0.159  0.5253  0.8461  0.0908
              Bcc     0.0024     1.265     0.451     0.422  0.8496 -0.5154 -0.1117
 
              Baa    -0.0014    -0.758    -0.271    -0.253  0.1135  0.9088  0.4016
     3 H(1)   Bbb    -0.0009    -0.479    -0.171    -0.160 -0.4099 -0.3254  0.8521
              Bcc     0.0023     1.237     0.441     0.413  0.9050 -0.2613  0.3356
 
              Baa    -0.0010    -0.557    -0.199    -0.186  0.1374  0.4808  0.8660
     4 H(1)   Bbb    -0.0007    -0.358    -0.128    -0.119  0.0272  0.8722 -0.4885
              Bcc     0.0017     0.915     0.326     0.305  0.9901 -0.0906 -0.1067
 
              Baa    -0.0122    -1.634    -0.583    -0.545 -0.0966  0.9562  0.2764
     5 C(13)  Bbb    -0.0118    -1.581    -0.564    -0.527  0.3231 -0.2325  0.9173
              Bcc     0.0240     3.215     1.147     1.072  0.9414  0.1779 -0.2865
 
              Baa    -0.0031    -1.666    -0.595    -0.556  0.0277  0.9818  0.1880
     6 H(1)   Bbb    -0.0012    -0.652    -0.233    -0.217  0.5618 -0.1709  0.8094
              Bcc     0.0043     2.318     0.827     0.773  0.8268  0.0833 -0.5563
 
              Baa    -0.0372    -4.986    -1.779    -1.663 -0.1868  0.0560  0.9808
     7 C(13)  Bbb    -0.0364    -4.879    -1.741    -1.628  0.3787  0.9253  0.0193
              Bcc     0.0735     9.865     3.520     3.291  0.9065 -0.3750  0.1940
 
              Baa    -0.0087    -4.661    -1.663    -1.555  0.0167  0.9750  0.2218
     8 H(1)   Bbb    -0.0036    -1.899    -0.678    -0.633 -0.6559 -0.1567  0.7384
              Bcc     0.0123     6.560     2.341     2.188  0.7546 -0.1578  0.6369
 
              Baa    -0.0093    -4.973    -1.775    -1.659  0.0865 -0.1082  0.9904
     9 H(1)   Bbb    -0.0035    -1.856    -0.662    -0.619  0.7210  0.6929  0.0127
              Bcc     0.0128     6.829     2.437     2.278 -0.6876  0.7129  0.1379
 
              Baa    -0.0252    -3.386    -1.208    -1.130  0.0658  0.5112  0.8569
    10 C(13)  Bbb    -0.0179    -2.408    -0.859    -0.803 -0.0019  0.8589 -0.5122
              Bcc     0.0432     5.794     2.067     1.933  0.9978 -0.0320 -0.0575
 
              Baa    -0.0112    -5.982    -2.135    -1.996  0.2768  0.8033  0.5273
    11 H(1)   Bbb    -0.0089    -4.728    -1.687    -1.577  0.6545 -0.5594  0.5087
              Bcc     0.0201    10.711     3.822     3.573  0.7036  0.2043 -0.6806
 
              Baa    -0.0113    -6.026    -2.150    -2.010 -0.1688  0.1541  0.9735
    12 H(1)   Bbb    -0.0090    -4.819    -1.719    -1.607 -0.6465  0.7283 -0.2274
              Bcc     0.0203    10.845     3.870     3.618  0.7440  0.6677  0.0233
 
              Baa    -0.4813   -64.586   -23.046   -21.544  0.6797  0.6039 -0.4164
    13 C(13)  Bbb    -0.4776   -64.085   -22.867   -21.377  0.0442  0.5329  0.8450
              Bcc     0.9589   128.672    45.913    42.920  0.7322 -0.5928  0.3355
 
              Baa    -0.0599   -31.976   -11.410   -10.666  0.6185  0.7830  0.0666
    14 H(1)   Bbb    -0.0120    -6.388    -2.279    -2.131  0.7856 -0.6179 -0.0319
              Bcc     0.0719    38.364    13.689    12.797 -0.0162 -0.0720  0.9973
 
              Baa    -0.0599   -31.968   -11.407   -10.664 -0.5632 -0.2255  0.7950
    15 H(1)   Bbb    -0.0120    -6.396    -2.282    -2.134  0.8198 -0.2736  0.5031
              Bcc     0.0719    38.365    13.689    12.797  0.1041  0.9350  0.3390
 
              Baa    -0.0019    -0.252    -0.090    -0.084  0.0380 -0.1649  0.9856
    16 C(13)  Bbb    -0.0014    -0.186    -0.067    -0.062 -0.3952  0.9034  0.1664
              Bcc     0.0033     0.438     0.156     0.146  0.9178  0.3958  0.0308
 
              Baa    -0.0020    -1.087    -0.388    -0.363  0.0027  0.0763  0.9971
    17 H(1)   Bbb    -0.0015    -0.784    -0.280    -0.262 -0.5853  0.8086 -0.0603
              Bcc     0.0035     1.871     0.668     0.624  0.8108  0.5835 -0.0468
 
              Baa    -0.0016    -0.835    -0.298    -0.279 -0.0529 -0.5666  0.8223
    18 H(1)   Bbb    -0.0012    -0.640    -0.228    -0.213 -0.4913  0.7317  0.4726
              Bcc     0.0028     1.475     0.526     0.492  0.8694  0.3790  0.3170
 
              Baa    -0.0010    -0.530    -0.189    -0.177  0.0478 -0.0178  0.9987
    19 H(1)   Bbb    -0.0008    -0.419    -0.149    -0.140 -0.3984  0.9165  0.0354
              Bcc     0.0018     0.948     0.338     0.316  0.9160  0.3996 -0.0367
 

 ---------------------------------------------------------------------------------

 No NMR shielding tensors so no spin-rotation constants.
 Leave Link  601 at Sat Nov  7 02:03:48 2015, MaxMem=   805306368 cpu:         1.0
 (Enter /home/hetanjin/apps/g09D01/g09/l701.exe)
 Compute integral first derivatives.
 ... and contract with generalized density number  0.
 Leave Link  701 at Sat Nov  7 02:03:48 2015, MaxMem=   805306368 cpu:         0.6
 (Enter /home/hetanjin/apps/g09D01/g09/l702.exe)
 L702 exits ... SP integral derivatives will be done elsewhere.
 Leave Link  702 at Sat Nov  7 02:03:48 2015, MaxMem=   805306368 cpu:         0.1
 (Enter /home/hetanjin/apps/g09D01/g09/l703.exe)
 Compute integral first derivatives, UseDBF=F ICtDFT=           0.
 Integral derivatives from FoFJK, PRISM(SPDF).
 Calling FoFJK, ICntrl=      2127 FMM=F ISym2X=0 I1Cent= 0 IOpClX= 1 NMat=1 NMatS=1 NMatT=0.
 FoFJK:  IHMeth= 1 ICntrl=    2127 DoSepK=F KAlg= 0 I1Cent=   0 FoldK=F
 IRaf=         0 NMat=   1 IRICut=       1 DoRegI=T DoRafI=F ISym2E= 0.
 FoFCou: FMM=F IPFlag=           0 FMFlag=      100000 FMFlg1=         800
         NFxFlg=           0 DoJE=F BraDBF=F KetDBF=F FulRan=T
         wScrn=  0.000000 ICntrl=    2127 IOpCl=  1 I1Cent=           0 NGrid=           0
         NMat0=    1 NMatS0=      1 NMatT0=    0 NMatD0=    1 NMtDS0=    0 NMtDT0=    0
 Symmetry not used in FoFCou.
 Leave Link  703 at Sat Nov  7 02:03:57 2015, MaxMem=   805306368 cpu:        29.8
 (Enter /home/hetanjin/apps/g09D01/g09/l716.exe)
 Dipole        = 3.05589097D-01-1.01250902D-01 2.55549494D-02
 ***** Axes restored to original set *****
 -------------------------------------------------------------------
 Center     Atomic                   Forces (Hartrees/Bohr)
 Number     Number              X              Y              Z
 -------------------------------------------------------------------
      1        6          -0.000604597   -0.000634439    0.000464595
      2        1           0.000057780    0.000011788   -0.000000602
      3        1           0.000044566    0.000005614   -0.000044874
      4        1          -0.000261990    0.000192229   -0.000073514
      5        6           0.000583296    0.001973026   -0.001489952
      6        1          -0.000053649   -0.000041233    0.000149302
      7        6           0.000648651   -0.005862329    0.003833242
      8        1           0.000100972    0.000005278   -0.000397338
      9        1           0.000315731    0.000266373    0.000132765
     10        6          -0.019583166    0.010297535   -0.005533034
     11        1           0.000997567   -0.000313523   -0.000171664
     12        1           0.001049802    0.000020337    0.000293824
     13        6           0.039779887   -0.020591484    0.010909340
     14        1          -0.011235071    0.009543028   -0.000677725
     15        1          -0.011655856    0.005182623   -0.007444057
     16        6          -0.000167697    0.000086369    0.000134927
     17        1           0.000059898   -0.000022849   -0.000020951
     18        1           0.000019874   -0.000008566   -0.000037982
     19        1          -0.000095998   -0.000109777   -0.000026300
 -------------------------------------------------------------------
 Cartesian Forces:  Max     0.039779887 RMS     0.007423668
 Leave Link  716 at Sat Nov  7 02:03:57 2015, MaxMem=   805306368 cpu:         0.1
 (Enter /home/hetanjin/apps/g09D01/g09/l103.exe)

 GradGradGradGradGradGradGradGradGradGradGradGradGradGradGradGradGradGrad
 Berny optimization.
 FormGI is forming the generalized inverse of G from B-inverse, IUseBI=4.
 Internal  Forces:  Max     0.013639336 RMS     0.003321203
 Search for a local minimum.
 Step number   1 out of a maximum of  103
 All quantities printed in internal units (Hartrees-Bohrs-Radians)
 RMS Force = .33212D-02 SwitMx=.10000D-02 MixMth= 1
 Mixed Optimization -- RFO/linear search
 Second derivative matrix not updated -- first step.
 ITU=  0
     Eigenvalues ---    0.00230   0.00282   0.00287   0.00303   0.00334
     Eigenvalues ---    0.03185   0.03394   0.03646   0.03931   0.04648
     Eigenvalues ---    0.04696   0.04879   0.05301   0.05336   0.05398
     Eigenvalues ---    0.05465   0.05490   0.08767   0.09335   0.12525
     Eigenvalues ---    0.12839   0.16000   0.16000   0.16000   0.16000
     Eigenvalues ---    0.16000   0.16000   0.16000   0.16000   0.16671
     Eigenvalues ---    0.17068   0.21923   0.21944   0.28367   0.28825
     Eigenvalues ---    0.28860   0.28964   0.29178   0.33520   0.33530
     Eigenvalues ---    0.33657   0.33717   0.33869   0.33898   0.33942
     Eigenvalues ---    0.34005   0.34007   0.34055   0.34061   0.34062
     Eigenvalues ---    0.34216
 RFO step:  Lambda=-1.35733554D-02 EMin= 2.30000000D-03
 Linear search not attempted -- first point.
 Iteration  1 RMS(Cart)=  0.04751909 RMS(Int)=  0.00845785
 Iteration  2 RMS(Cart)=  0.00661775 RMS(Int)=  0.00560710
 Iteration  3 RMS(Cart)=  0.00010265 RMS(Int)=  0.00560662
 Iteration  4 RMS(Cart)=  0.00000235 RMS(Int)=  0.00560662
 Iteration  5 RMS(Cart)=  0.00000007 RMS(Int)=  0.00560662
 ITry= 1 IFail=0 DXMaxC= 2.42D-01 DCOld= 1.00D+10 DXMaxT= 3.00D-01 DXLimC= 3.00D+00 Rises=F
 Variable       Old X    -DE/DX   Delta X   Delta X   Delta X     New X
                                 (Linear)    (Quad)   (Total)
    R1        2.07237  -0.00002   0.00000  -0.00007  -0.00007   2.07230
    R2        2.07502  -0.00004   0.00000  -0.00012  -0.00012   2.07490
    R3        2.07228  -0.00015   0.00000  -0.00044  -0.00044   2.07184
    R4        2.90296  -0.00017   0.00000  -0.00058  -0.00058   2.90239
    R5        2.08149  -0.00015   0.00000  -0.00043  -0.00043   2.08106
    R6        2.91344   0.00037   0.00000   0.00126   0.00126   2.91470
    R7        2.90369  -0.00007   0.00000  -0.00025  -0.00025   2.90344
    R8        2.08131  -0.00040   0.00000  -0.00114  -0.00114   2.08017
    R9        2.07912  -0.00034   0.00000  -0.00096  -0.00096   2.07816
   R10        2.90078   0.00358   0.00000   0.01180   0.01180   2.91258
   R11        2.07811   0.00017   0.00000   0.00048   0.00048   2.07858
   R12        2.07428   0.00021   0.00000   0.00059   0.00059   2.07487
   R13        2.89633  -0.01183   0.00000  -0.03874  -0.03874   2.85759
   R14        2.07322  -0.00056   0.00000  -0.00159  -0.00159   2.07164
   R15        2.07318  -0.00053   0.00000  -0.00150  -0.00150   2.07168
   R16        2.06967  -0.00005   0.00000  -0.00014  -0.00014   2.06953
   R17        2.07552  -0.00004   0.00000  -0.00010  -0.00010   2.07542
   R18        2.07225  -0.00011   0.00000  -0.00031  -0.00031   2.07194
    A1        1.87835  -0.00004   0.00000   0.00052   0.00052   1.87887
    A2        1.88223   0.00012   0.00000   0.00034   0.00034   1.88257
    A3        1.94449   0.00014   0.00000   0.00099   0.00099   1.94548
    A4        1.87730   0.00013   0.00000   0.00044   0.00044   1.87774
    A5        1.93565   0.00012   0.00000   0.00091   0.00091   1.93656
    A6        1.94287  -0.00047   0.00000  -0.00311  -0.00311   1.93976
    A7        1.88002   0.00015   0.00000   0.00132   0.00132   1.88134
    A8        1.92906  -0.00078   0.00000  -0.00533  -0.00533   1.92373
    A9        1.92774   0.00042   0.00000   0.00174   0.00174   1.92948
   A10        1.87706   0.00016   0.00000   0.00080   0.00080   1.87786
   A11        1.88194  -0.00017   0.00000   0.00101   0.00101   1.88295
   A12        1.96473   0.00023   0.00000   0.00065   0.00065   1.96538
   A13        1.90132   0.00071   0.00000   0.00192   0.00192   1.90324
   A14        1.89309   0.00057   0.00000   0.00140   0.00141   1.89450
   A15        2.01454  -0.00250   0.00000  -0.01151  -0.01151   2.00302
   A16        1.84789  -0.00038   0.00000   0.00120   0.00118   1.84907
   A17        1.90709   0.00080   0.00000   0.00318   0.00317   1.91026
   A18        1.89268   0.00095   0.00000   0.00481   0.00480   1.89748
   A19        1.90542   0.00068   0.00000  -0.00139  -0.00134   1.90409
   A20        1.92072   0.00065   0.00000  -0.00171  -0.00167   1.91905
   A21        1.96892  -0.00506   0.00000  -0.02362  -0.02363   1.94529
   A22        1.85242  -0.00041   0.00000   0.00510   0.00499   1.85742
   A23        1.90917   0.00220   0.00000   0.01177   0.01166   1.92083
   A24        1.90353   0.00224   0.00000   0.01170   0.01158   1.91511
   A25        1.94027   0.01364   0.00000   0.14456   0.11721   2.05749
   A26        1.94094   0.01364   0.00000   0.14454   0.11720   2.05814
   A27        1.87563  -0.00073   0.00000   0.12067   0.08610   1.96173
   A28        1.95757   0.00004   0.00000   0.00027   0.00027   1.95784
   A29        1.93340   0.00003   0.00000   0.00028   0.00028   1.93368
   A30        1.93610  -0.00016   0.00000  -0.00108  -0.00108   1.93502
   A31        1.88022   0.00001   0.00000   0.00039   0.00039   1.88061
   A32        1.87616   0.00003   0.00000  -0.00002  -0.00002   1.87614
   A33        1.87714   0.00005   0.00000   0.00019   0.00019   1.87733
    D1       -1.04583   0.00015   0.00000   0.00218   0.00218  -1.04365
    D2        1.00024   0.00000   0.00000   0.00097   0.00097   1.00121
    D3       -3.09704   0.00003   0.00000  -0.00078  -0.00078  -3.09782
    D4       -3.13776   0.00002   0.00000   0.00025   0.00025  -3.13750
    D5       -1.09169  -0.00013   0.00000  -0.00095  -0.00095  -1.09264
    D6        1.09422  -0.00010   0.00000  -0.00271  -0.00271   1.09151
    D7        1.05590   0.00008   0.00000   0.00116   0.00116   1.05706
    D8        3.10197  -0.00007   0.00000  -0.00005  -0.00005   3.10192
    D9       -0.99531  -0.00003   0.00000  -0.00180  -0.00180  -0.99711
   D10        1.12731   0.00023   0.00000   0.00162   0.00161   1.12893
   D11       -0.87637   0.00000   0.00000  -0.00156  -0.00155  -0.87792
   D12       -3.00345   0.00004   0.00000  -0.00097  -0.00097  -3.00442
   D13       -3.10798   0.00007   0.00000   0.00074   0.00074  -3.10724
   D14        1.17153  -0.00016   0.00000  -0.00243  -0.00243   1.16910
   D15       -0.95555  -0.00011   0.00000  -0.00185  -0.00185  -0.95740
   D16       -1.03748   0.00011   0.00000   0.00289   0.00288  -1.03460
   D17       -3.04116  -0.00013   0.00000  -0.00029  -0.00028  -3.04145
   D18        1.11494  -0.00008   0.00000   0.00030   0.00029   1.11524
   D19        3.06412   0.00025   0.00000   0.00219   0.00219   3.06632
   D20       -1.11751   0.00031   0.00000   0.00307   0.00307  -1.11444
   D21        0.96587   0.00029   0.00000   0.00279   0.00279   0.96866
   D22        1.01409  -0.00006   0.00000  -0.00096  -0.00096   1.01314
   D23        3.11564   0.00000   0.00000  -0.00008  -0.00008   3.11556
   D24       -1.08416  -0.00002   0.00000  -0.00036  -0.00036  -1.08452
   D25       -1.05354  -0.00029   0.00000  -0.00299  -0.00299  -1.05653
   D26        1.04801  -0.00023   0.00000  -0.00211  -0.00211   1.04590
   D27        3.13140  -0.00025   0.00000  -0.00239  -0.00239   3.12900
   D28        0.94556   0.00013   0.00000   0.00270   0.00266   0.94822
   D29       -1.08096  -0.00014   0.00000  -0.00168  -0.00164  -1.08261
   D30        3.07202   0.00002   0.00000   0.00089   0.00088   3.07290
   D31        3.09493  -0.00011   0.00000  -0.00060  -0.00064   3.09429
   D32        1.06841  -0.00038   0.00000  -0.00498  -0.00495   1.06346
   D33       -1.06179  -0.00022   0.00000  -0.00241  -0.00242  -1.06421
   D34       -1.18174   0.00038   0.00000   0.00511   0.00508  -1.17666
   D35        3.07492   0.00011   0.00000   0.00073   0.00078   3.07570
   D36        0.94472   0.00027   0.00000   0.00330   0.00330   0.94802
   D37        1.04570   0.00863   0.00000   0.17230   0.17853   1.22423
   D38       -1.04351  -0.00865   0.00000  -0.17309  -0.17932  -1.22282
   D39       -3.11314   0.00765   0.00000   0.16299   0.16913  -2.94400
   D40        1.08084  -0.00963   0.00000  -0.18239  -0.18871   0.89213
   D41       -1.09415   0.00962   0.00000   0.18210   0.18842  -0.90573
   D42        3.09983  -0.00766   0.00000  -0.16328  -0.16942   2.93040
         Item               Value     Threshold  Converged?
 Maximum Force            0.013639     0.000015     NO 
 RMS     Force            0.003321     0.000010     NO 
 Maximum Displacement     0.241929     0.000060     NO 
 RMS     Displacement     0.044526     0.000040     NO 
 Predicted change in Energy=-9.703636D-03
 Lowest energy point so far.  Saving SCF results.
 GradGradGradGradGradGradGradGradGradGradGradGradGradGradGradGradGradGrad

 Leave Link  103 at Sat Nov  7 02:03:58 2015, MaxMem=   805306368 cpu:         2.8
 (Enter /home/hetanjin/apps/g09D01/g09/l202.exe)
                          Input orientation:                          
 ---------------------------------------------------------------------
 Center     Atomic      Atomic             Coordinates (Angstroms)
 Number     Number       Type             X           Y           Z
 ---------------------------------------------------------------------
      1          6           0        2.178356   -1.031713    0.027081
      2          1           0        1.953238   -2.024380   -0.380960
      3          1           0        2.275337   -1.133522    1.116032
      4          1           0        3.153853   -0.720366   -0.364703
      5          6           0        1.085938   -0.014430   -0.334410
      6          1           0        1.030142    0.043428   -1.432721
      7          6           0       -0.285561   -0.500550    0.177108
      8          1           0       -0.267649   -0.533282    1.277254
      9          1           0       -0.434308   -1.538755   -0.153620
     10          6           0       -1.486085    0.344709   -0.291708
     11          1           0       -1.470614    0.414046   -1.389350
     12          1           0       -1.391515    1.371492    0.085547
     13          6           0       -2.796508   -0.250737    0.171859
     14          1           0       -3.030134   -0.205572    1.241985
     15          1           0       -3.124754   -1.190173   -0.288095
     16          6           0        1.452465    1.381096    0.193598
     17          1           0        0.728423    2.142873   -0.114317
     18          1           0        1.495154    1.383877    1.291029
     19          1           0        2.436333    1.692747   -0.176566
 ---------------------------------------------------------------------
                    Distance matrix (angstroms):
                    1          2          3          4          5
     1  C    0.000000
     2  H    1.096615   0.000000
     3  H    1.097991   1.771542   0.000000
     4  H    1.096369   1.772623   1.770611   0.000000
     5  C    1.535877   2.189584   2.184221   2.185300   0.000000
     6  H    2.146007   2.496826   3.071134   2.496836   1.101249
     7  C    2.524981   2.765090   2.800077   3.488760   1.542391
     8  H    2.791829   3.147283   2.617835   3.799697   2.167687
     9  H    2.667538   2.447017   3.019670   3.686356   2.160416
    10  C    3.927377   4.177259   4.279626   4.761170   2.597327
    11  H    4.172706   4.322677   4.764877   4.870573   2.798651
    12  H    4.303811   4.789253   4.558816   5.023839   2.869654
    13  C    5.037872   5.100148   5.233965   5.992933   3.922440
    14  H    5.411734   5.547613   5.387483   6.410004   4.411757
    15  H    5.314831   5.146896   5.579944   6.296626   4.372007
    16  C    2.525132   3.489721   2.802018   2.760898   1.536433
    17  H    3.492892   4.351697   3.826417   3.760790   2.197775
    18  H    2.810588   3.823820   2.641327   3.149693   2.182835
    19  H    2.744214   3.753957   3.111998   2.524548   2.182416
                    6          7          8          9         10
     6  H    0.000000
     7  C    2.149078   0.000000
[...]
 -0.07202579,-0.07488034,0.03047022,-0.02580170,-0.00844196,0.01269986,
 -0.00164281,-0.00159945,0.00042602,0.07679236,0.07887280,0.08596337,0.
 03018258,-0.08654504,-0.01256611,-0.00350010,0.00507919,0.02968028,0.0
 1085892,-0.01140261,-0.09377947,-0.03461271,0.08899879,-0.13261251,0.0
 4871316,-0.01850134,0.00489454,-0.00564454,0.00210069,-0.00318174,0.00
 189440,-0.00136143,-0.02110941,0.01948487,-0.00808296,0.46565151,0.049
 74950,-0.12164135,0.01651447,0.02187130,-0.01922468,0.00828647,0.00196
 414,-0.00267783,0.00104733,-0.00850644,0.00635169,-0.00298252,-0.00022
 496,0.47559834,-0.01871794,0.01645702,-0.08734253,0.01098499,-0.008687
 30,0.00241037,-0.02584281,0.02290353,-0.00844608,0.00963314,-0.0097589
 8,0.00242663,0.01296018,-0.00645153,0.58578966,-0.00351823,0.00311233,
 -0.02594458,0.00092543,-0.00035931,0.00069702,-0.00340766,0.00368076,-
 0.00135622,0.00075998,-0.00091824,0.00010091,-0.04981295,0.00038923,-0
 .01599932,0.05878977,0.00305076,-0.00281806,0.02316490,-0.00087233,0.0
 0062022,-0.00001898,0.00367148,-0.00258584,0.00122652,-0.00040175,0.00
 075719,-0.00069944,0.00042763,-0.04976702,0.01360031,-0.00082712,0.058
 56770,-0.00099853,0.00099881,-0.00759865,0.00005406,0.00055584,0.00050
 601,-0.00108312,0.00103863,0.00128207,-0.00051454,-0.00014942,0.000500
 84,-0.01632555,0.01322847,-0.29090402,0.01761295,-0.01481072,0.3184128
 5,-0.03157446,-0.00355322,0.00910170,0.00133171,-0.00166835,0.00003254
 ,0.00167957,-0.00119406,0.00086115,-0.00260038,0.00218791,-0.00085770,
 -0.14360964,-0.02610129,0.02966545,-0.00139624,-0.00029005,0.00073972,
 0.42652846,0.01840691,0.00730831,-0.00790077,0.00150018,0.00008239,-0.
 00039457,-0.00019450,0.00030470,-0.00020809,0.00472312,-0.00325768,0.0
 0077107,-0.03047906,-0.09016751,0.01142290,-0.00192051,-0.00079536,0.0
 0116994,0.01946696,0.54350213,-0.00571763,-0.00349326,0.00329279,0.000
 46884,-0.00010604,-0.00015186,-0.00161339,0.00009519,0.00034405,-0.002
 72809,0.00113771,0.00008609,0.03026461,0.01197399,-0.09453008,0.031071
 68,0.01194802,-0.01420759,0.00515722,0.03594129,0.56736964,0.00162148,
 -0.00048476,0.00099516,-0.00008907,0.00002040,-0.00001577,-0.00031194,
 0.00021161,-0.00073760,0.00020349,-0.00009972,-0.00040808,-0.00089099,
 -0.00068524,0.03018866,-0.00505873,-0.00204569,0.00227954,-0.04800175,
 -0.00079223,-0.00589011,0.05639281,0.00038144,-0.00005165,-0.00058344,
 -0.00006750,0.00007435,-0.00012169,0.00012221,0.00031849,-0.00010664,0
 .00004312,-0.00011197,0.00003654,-0.00036473,-0.00103145,0.01246206,-0
 .00209039,-0.00027204,0.00136799,-0.00106606,-0.05049298,0.00223824,-0
 .00068137,0.05145392,-0.00077265,0.00010736,0.00013157,0.00000499,0.00
 006957,0.00001698,0.00073810,-0.00044008,0.00058124,0.00018776,-0.0000
 1308,0.00046076,0.00005188,0.00033377,-0.01380312,0.00252646,0.0009089
 9,0.00038075,-0.00612117,0.00198254,-0.29965924,0.00623541,-0.00475254
 ,0.32724466,0.00084953,-0.00185184,-0.00069951,-0.00049046,0.00082752,
 0.00034558,-0.00008672,0.00008971,-0.00007180,0.00043236,0.00022251,0.
 00011359,-0.00580244,-0.02733577,-0.01039951,0.00094170,0.00057826,0.0
 0017321,-0.05050030,-0.03073670,-0.00994295,-0.00045567,-0.00080782,-0
 .00021133,0.06275525,0.00157055,0.00056191,-0.00035086,-0.00047542,0.0
 0101935,0.00004984,-0.00008235,0.00003340,0.00004441,0.00015722,0.0003
 6617,0.00032318,-0.00183887,-0.01207305,-0.00457509,0.00017389,0.00018
 684,0.00045883,-0.03173869,-0.27273061,-0.07533216,-0.00001828,0.00109
 037,-0.00033931,0.03205821,0.29807639,-0.00044674,0.00002877,0.0002499
 9,-0.00013820,-0.00005099,0.00023413,0.00000564,-0.00019406,-0.0000555
 6,-0.00015318,0.00024618,-0.00013993,0.00278959,0.01237988,0.00347823,
 -0.00076177,0.00004022,0.00054024,-0.01020058,-0.07469544,-0.07687166,
 -0.00413529,-0.03200585,-0.01027455,0.01094184,0.08123115,0.07797229,-
 0.00395979,-0.00384812,0.00219923,0.00026045,0.00020372,0.00020187,-0.
 00005550,-0.00003334,-0.00019952,-0.00086223,0.00136945,-0.00056863,-0
 .02605695,0.01676410,-0.00897634,0.00187112,0.00056574,-0.00103613,-0.
 10947598,0.02635208,-0.01528709,-0.00346816,0.00235144,-0.00145460,-0.
 00016298,0.00060459,0.00051364,0.41824980,-0.00230136,-0.00117991,0.00
 083574,-0.00010819,0.00031197,0.00020213,0.00006173,-0.00009009,-0.000
 01312,-0.00097202,0.00086196,0.00013681,-0.00584781,0.00776972,-0.0047
 5330,-0.00024141,0.00006515,-0.00007287,0.04134864,-0.10399316,0.01390
 132,0.00059048,-0.00104275,0.00044108,0.02608791,-0.01798889,0.0105922
 2,0.05230645,0.53066539,0.00217913,0.00101179,-0.00150862,-0.00017498,
 0.00024143,0.00003515,0.00004901,0.00001878,0.00039719,0.00099934,-0.0
 0032662,0.00053693,0.00721415,-0.00654789,0.00311060,0.00146113,-0.000
 52908,0.00024175,-0.02733188,0.01461373,-0.08367881,-0.02662239,0.0192
 2079,-0.00928817,0.00857698,-0.00561918,0.00331402,-0.02676958,0.04464
 604,0.55749661,0.00015669,0.00027535,-0.00001212,-0.00000524,-0.000005
 78,-0.00002042,0.00008715,-0.00009118,0.00024507,0.00004980,-0.0000737
 6,0.00011807,0.00163936,-0.00032956,-0.00167689,-0.00028208,-0.0000714
 8,0.00090506,-0.00262047,0.00259173,-0.02832792,-0.00426475,0.00332780
 ,-0.00139458,0.00098479,-0.00039790,0.00077611,-0.04242937,-0.00391489
 ,0.00516340,0.05623202,-0.00010784,-0.00010912,-0.00001912,0.00001547,
 -0.00005550,0.00001964,-0.00009490,0.00002390,-0.00010791,-0.00001127,
 0.00001928,-0.00007676,-0.00101593,0.00049029,0.00002209,0.00019286,0.
 00024484,-0.00047876,0.00345257,-0.00151536,0.02005045,0.00315375,-0.0
 0134403,0.00127814,-0.00096956,0.00065665,0.00006883,-0.00410329,-0.05
 407884,0.00978068,0.00012064,0.05116536,-0.00009911,-0.00002228,0.0005
 3154,0.00001358,0.00000645,-0.00004614,0.00027434,-0.00012898,0.000071
 83,-0.00008982,0.00002371,0.00003595,0.00117622,-0.00017969,0.00006155
 ,-0.00091593,-0.00019889,0.00082110,-0.00172469,0.00101480,-0.01266679
 ,-0.00167970,0.00181596,0.00068360,0.00010558,0.00032777,0.00071248,0.
 00255747,0.00809670,-0.29578049,-0.00471595,-0.01256618,0.32398897,0.0
 0007189,0.00002545,-0.00018511,0.00012824,-0.00024886,-0.00005491,0.00
 002903,0.00001675,0.00000547,-0.00005909,-0.00016435,0.00000383,0.0012
 1466,0.00001792,0.00065796,-0.00012099,-0.00003333,0.00000878,0.001581
 16,0.02678839,0.00920434,0.00118951,-0.00095938,0.00007956,-0.00443070
 ,0.00299870,-0.00179884,-0.04533808,-0.02253849,-0.00616566,-0.0007674
 6,0.00082818,0.00019737,0.05961247,0.00019152,0.00010186,-0.00004022,-
 0.00006946,0.00023319,0.00005638,-0.00002347,-0.00002689,0.00001064,0.
 00018490,0.00003834,0.00000746,-0.00077603,-0.00055903,0.00009733,0.00
 007276,0.00005559,0.00002021,0.00076770,-0.01891406,-0.00669264,-0.000
 45776,0.00080947,0.00032748,0.00319022,-0.00090457,0.00171717,-0.02129
 034,-0.26947438,-0.08378066,0.00031804,0.00288528,0.00005380,0.0244922
 0,0.29538272,0.00014881,0.00011585,0.00003728,0.00001719,0.00001467,-0
 .00003146,-0.00000234,0.00000624,0.00000092,0.00001735,-0.00008078,-0.
 00001442,0.00015220,-0.00062854,-0.00006326,-0.00002064,-0.00007338,0.
 00008195,-0.00061704,0.01098394,0.00365612,0.00090226,0.00010792,0.000
 77146,-0.00188251,0.00167973,0.00045060,-0.00507694,-0.08314892,-0.086
 19488,-0.00307958,-0.03108701,-0.01060849,0.00820623,0.09167719,0.0854
 7323,-0.00041191,-0.00038230,0.00031267,-0.00000374,0.00000692,0.00001
 639,-0.00002912,0.00000039,-0.00003186,-0.00030454,0.00016406,-0.00003
 208,-0.00253645,0.00181322,-0.00109964,0.00006418,0.00005054,0.0000797
 2,-0.03594196,-0.00389754,0.00552977,0.00218616,-0.00116349,0.00101188
 ,0.00207537,-0.00167326,0.00044964,-0.17998640,-0.07036491,0.05171053,
 -0.00610499,-0.00091667,0.00423743,-0.00786918,-0.00378535,0.00069380,
 0.40362620,0.00078614,0.00083798,-0.00030651,-0.00009906,0.00001635,-0
 .00001976,-0.00002600,-0.00003613,0.00006821,0.00039735,-0.00023118,0.
 00005367,0.00215957,-0.00210376,0.00146733,-0.00007521,-0.00004343,0.0
 0004389,0.00567814,0.00927170,-0.00682324,-0.00017272,-0.00023924,-0.0
 0002130,0.00109637,0.00092501,0.00006705,-0.06614419,-0.09187867,0.001
 85792,0.00089135,0.00157100,-0.00028546,-0.02857606,-0.01103595,0.0092
 8856,0.18025254,0.35111482,-0.00037644,-0.00024445,0.00063446,0.000031
 70,0.00002390,-0.00002513,0.00011748,-0.00006304,-0.00002262,-0.000194
 99,0.00015563,-0.00005478,-0.00057613,0.00103796,-0.00041982,-0.000337
 06,-0.00008230,0.00057787,-0.00081045,-0.00596529,0.00343715,-0.000828
 90,-0.00018638,0.00084794,0.00050365,0.00039887,-0.00013556,0.05008299
 ,0.00300872,-0.09296992,0.03110222,0.01244451,-0.00925151,-0.01255361,
 -0.00546302,0.00492980,-0.13066302,0.20146447,0.48572123,-0.00008433,-
 0.00006999,-0.00005307,0.00000366,0.00000959,0.00001220,-0.00004152,0.
 00002041,-0.00002791,-0.00004631,0.00002176,0.00000008,-0.00043363,0.0
 0006291,-0.00025282,0.00016194,0.00004783,-0.00023599,0.00044008,-0.00
 060536,0.00054745,-0.00041383,0.00024976,-0.00062637,-0.00012242,0.000
 01104,0.00000906,-0.00336688,0.00718447,0.02387838,-0.00388183,-0.0014
 4161,0.00044173,0.00118517,0.00004428,-0.00097325,-0.08462780,0.008957
 53,0.10870139,0.08381923,-0.00010463,-0.00016800,0.00002010,0.00001368
 ,0.00000543,0.00000092,-0.00000452,0.00002050,-0.00001210,-0.00007538,
 0.00003392,-0.00000752,-0.00008645,0.00043297,-0.00012428,0.00002589,-
 0.00002923,-0.00003328,-0.00032006,-0.00078271,0.00110817,0.00019305,0
 .00008201,0.00000258,-0.00002269,0.00013927,-0.00005152,-0.00473532,0.
 00465769,0.00959266,-0.00291072,-0.00026077,0.00228663,0.00115911,0.00
 107771,0.00059092,0.00912172,-0.05228936,-0.07824075,-0.01114617,0.048
 75273,0.00006710,0.00012179,-0.00005583,-0.00001462,-0.00000139,-0.000
 00117,0.00001360,-0.00001211,0.00002279,0.00006225,-0.00002840,0.00001
 278,-0.00002331,-0.00028615,0.00025425,-0.00010487,0.00000299,0.000016
 21,0.00013917,0.00042853,-0.00076350,0.00017218,-0.00010644,0.00008034
 ,-0.00009967,0.00001136,0.00003511,-0.00085920,-0.00147695,-0.00255868
 ,0.00174885,0.00052888,0.00015835,-0.00008185,0.00020150,0.00053394,0.
 11307837,-0.08268492,-0.27656493,-0.12036910,0.08422663,0.28682340,-0.
 00006557,-0.00003516,0.00003841,-0.00001931,0.00004698,0.00001215,-0.0
 0000926,-0.00000054,-0.00000920,-0.00002673,0.00003049,-0.00000759,-0.
 00021364,0.00024920,0.00010803,0.00003297,-0.00001657,-0.00000716,0.00
 109040,-0.00095185,0.00024070,-0.00009023,0.00002669,0.00000473,-0.000
 34699,0.00086630,0.00006560,-0.00459180,-0.02030487,-0.01478187,0.0011
 4892,0.00082751,0.00046983,-0.00397288,-0.00106737,0.00177553,-0.09025
 952,-0.10503340,-0.04394054,0.00739904,0.00891759,0.00619527,0.0899247
 4,-0.00007782,-0.00009590,0.00007064,0.00000579,0.00002403,-0.00000115
 ,0.00000656,0.00000483,-0.00000786,-0.00006258,0.00003041,-0.00000477,
 0.00002681,0.00022561,-0.00022772,-0.00002541,-0.00002192,0.00003961,-
 0.00034157,-0.00064882,0.00013796,0.00007635,0.00005983,-0.00001278,-0
 .00020633,0.00016523,-0.00011421,-0.00071071,-0.00490430,-0.00410572,0
 .00038362,0.00036038,-0.00013815,-0.00256956,-0.00031352,0.00048119,-0
 .10932035,-0.20617209,-0.12853768,-0.00341991,-0.00169494,-0.00090650,
 0.11622466,0.21290030,0.00005487,0.00003942,-0.00006960,-0.00000990,-0
 .00000146,0.00001045,-0.00000793,-0.00000217,0.00000048,0.00003988,-0.
 00001637,0.00000337,-0.00001871,-0.00008163,0.00019991,0.00001094,0.00
 001461,-0.00004498,0.00028101,0.00077538,-0.00011559,0.00003858,-0.000
 07907,0.00005740,-0.00025844,-0.00000978,0.00005270,0.00485860,0.00750
 150,0.00651449,-0.00107746,0.00019966,0.00123414,0.00252557,0.00184670
 ,0.00070556,-0.04532085,-0.12407053,-0.11680786,-0.01106163,-0.0193695
 9,-0.00796256,0.04984510,0.13330719,0.11625953,0.00539437,0.02357010,0
 .00903756,-0.00389382,0.00478616,-0.00096106,0.00059618,-0.00046388,0.
 00031915,0.00053935,0.00097540,0.00035297,-0.08503862,-0.02207526,-0.0
 0877777,-0.00067117,-0.00271313,-0.00097645,-0.00883490,-0.03011683,-0
 .01033138,0.00138336,0.00080983,-0.00080507,-0.00543716,-0.00223491,0.
 00175306,0.00050420,-0.00062209,0.00009332,-0.00009623,-0.00002059,-0.
 00030948,-0.00108150,-0.00041586,0.00010287,0.00006520,0.00008719,-0.0
 0016804,0.00006052,-0.00001077,0.00004613,0.00009804,0.00005154,0.0000
 6769,0.57465556,-0.00023356,-0.02950118,-0.00818557,0.00229382,-0.0019
 4845,0.00084854,-0.00132915,0.00141561,-0.00064977,-0.00155766,0.00135
 902,-0.00008928,-0.01900316,-0.16370705,-0.03395545,-0.00010654,-0.000
 90232,-0.00046660,-0.00935632,-0.01336175,-0.00212138,0.00124112,0.000
 62428,-0.00072979,-0.00057596,0.00087503,0.00009637,-0.00024860,0.0013
 9587,0.00046913,-0.00013723,-0.00000360,-0.00009337,0.00004120,-0.0007
 0081,-0.00057067,0.00048916,-0.00055283,-0.00006527,0.00001724,0.00005
 150,0.00000252,-0.00012851,-0.00003059,0.00002209,-0.02723559,0.493865
 13,0.00253120,0.00585130,0.00346935,-0.00133872,0.00241554,0.00012504,
 -0.00003239,0.00146103,0.00059163,0.00020935,-0.00043741,-0.00010235,-
 0.00893949,-0.03519433,-0.09576237,-0.00787699,-0.03300961,-0.01235796
 ,0.00118394,0.01056547,0.00456962,0.00058188,0.00138721,0.00065439,0.0
 0312891,0.00204650,-0.00050256,0.00030313,-0.00010211,-0.00041742,0.00
 009882,0.00001617,0.00014288,-0.00019782,0.00025566,0.00047458,-0.0000
 3538,0.00005362,0.00036282,0.00004182,0.00002000,-0.00006993,0.0000843
 7,0.00005634,-0.00009176,-0.01015677,-0.03633161,0.55672533,-0.0000007
 8,-0.00101867,-0.00002862,0.00046676,-0.00027768,-0.00016327,-0.000106
 76,-0.00008662,-0.00001652,0.00041471,-0.00020159,-0.00020142,0.006586
 70,-0.00592873,0.00347476,0.00033050,0.00061140,0.00042385,0.00023454,
 0.00044564,0.00048583,-0.00005177,-0.00007255,0.00003057,0.00015884,0.
 00016959,-0.00012308,-0.00106873,-0.00051001,0.00008981,0.00002701,0.0
 0007801,-0.00002748,-0.00157288,-0.00114006,-0.00009336,0.00005714,-0.
 00012727,0.00002494,0.00002001,0.00001507,-0.00001959,-0.00002555,0.00
 002094,-0.00002549,-0.17220547,0.12225479,-0.04975474,0.18705371,-0.00
 348920,-0.00520511,-0.00331749,0.00156540,-0.00147219,0.00039916,-0.00
 025565,0.00025277,0.00009140,-0.00003248,0.00031358,-0.00016628,0.0217
 2011,-0.01848623,0.00985172,-0.00002124,0.00132307,-0.00030968,0.00120
 867,0.00047095,0.00036124,-0.00014471,-0.00006195,0.00000665,-0.000027
 10,0.00017258,-0.00013844,0.00005815,-0.00066163,-0.00045493,-0.000065
 24,0.00000242,-0.00005992,-0.00103546,0.00085533,0.00042016,-0.0002235
 5,0.00048052,0.00023227,0.00006240,-0.00000409,-0.00004298,0.00023062,
 0.00009949,-0.00006993,0.12127888,-0.16962843,0.04901723,-0.13360758,0
 .18419218,-0.00086976,-0.00214016,-0.00058311,0.00036078,-0.00073884,0
 .00060479,0.00015517,-0.00037860,0.00038488,-0.00034421,0.00012897,-0.
 00008757,0.01008225,-0.00823311,0.00278897,0.00056156,0.00055418,0.000
 53374,-0.00018534,0.00069857,0.00009263,-0.00006800,0.00004517,0.00002
 313,0.00016131,0.00000186,-0.00006724,-0.00030446,0.00044557,0.0005363
 8,-0.00004308,-0.00012816,-0.00023088,0.00018181,-0.00035205,0.0001208
 8,0.00002927,-0.00015433,-0.00018512,0.00003971,0.00002857,-0.00000985
 ,-0.00005709,-0.00003382,0.00001785,-0.04952062,0.04942837,-0.06999071
 ,0.05519181,-0.05256961,0.07067550,0.00005066,0.00021665,0.00090949,-0
 .00014438,-0.00000612,-0.00009351,0.00032152,0.00010762,0.00002704,0.0
 0003682,-0.00003348,0.00013173,-0.00160770,-0.00011782,-0.00850359,0.0
 0031081,-0.00176103,-0.00062819,0.00061198,0.00050752,-0.00155164,0.00
 002818,-0.00017162,0.00044373,0.00006207,0.00010982,0.00024952,-0.0001
 9563,0.00000910,0.00008652,0.00013996,0.00006094,0.00016769,-0.0000235
 0,0.00008389,-0.00013410,0.00001481,-0.00002371,0.00003895,-0.00004928
 ,-0.00001164,0.00001158,-0.00000730,0.00000290,0.00000352,-0.05068985,
 0.00087497,-0.01274777,-0.00071383,-0.00061963,-0.02381793,0.04895892,
 -0.00058539,0.00187898,-0.00099846,-0.00015075,0.00026252,0.00040155,0
 .00027461,-0.00020866,0.00081189,0.00008061,-0.00011076,0.00005964,-0.
 00165003,-0.00006505,-0.03238108,-0.00154781,-0.00578001,-0.00245041,0
 .00104576,0.00162132,-0.00095460,-0.00023188,0.00001105,0.00088817,0.0
 0037070,0.00019293,0.00029638,-0.00004656,0.00002619,0.00002573,0.0001
 3298,-0.00010785,0.00006130,-0.00005134,0.00001361,0.00006533,-0.00005
 362,0.00004316,0.00004345,-0.00000432,0.00000237,-0.00000222,0.0000146
 0,0.00000595,-0.00000687,0.00074471,-0.04929550,0.00469564,-0.00064799
 ,-0.00005912,0.02281102,0.00084752,0.05250389,-0.00017727,0.00087938,0
 .00043607,0.00003599,-0.00011712,0.00043366,0.00054252,-0.00073091,0.0
 0051690,-0.00003218,-0.00002034,-0.00003247,-0.00100134,-0.00036689,-0
 .01330464,-0.00052787,-0.00277806,0.00068107,0.00074627,0.00080556,0.0
 0047359,-0.00077226,-0.00046226,0.00065127,0.00000056,-0.00004561,0.00
 041846,-0.00022140,-0.00014214,0.00006833,0.00015431,0.00003201,0.0001
 3418,-0.00006326,0.00003471,-0.00018588,0.00000919,0.00001777,-0.00002
 747,-0.00005450,-0.00002536,0.00003262,-0.00002044,-0.00000735,0.00001
 761,-0.01264251,0.00473470,-0.30495569,-0.00000367,0.00040983,-0.00788
 160,0.01483866,-0.00271507,0.33330202,0.00057636,0.00118230,0.00008747
 ,0.00023324,0.00004814,-0.00024903,0.00001594,-0.00001899,-0.00003619,
 0.00074629,-0.00028735,0.00003920,-0.00708011,-0.00157645,0.00257348,0
 .00007963,0.00002884,-0.00047122,0.00105816,-0.00108795,-0.00158024,0.
 00009189,0.00013262,0.00007071,-0.00042408,-0.00026024,0.00020399,0.00
 013289,0.00013730,0.00034465,-0.00001328,-0.00004826,-0.00007909,0.000
 22413,-0.00031979,-0.00013647,-0.00001346,-0.00002856,-0.00015414,-0.0
 0002182,-0.00001775,0.00003773,-0.00006532,-0.00006492,0.00005465,-0.2
 5534807,-0.06730003,0.08291665,-0.01960417,-0.00660240,0.00844681,0.00
 289575,0.00145819,-0.00081080,0.27651602,-0.00160645,0.00125316,0.0008
 0987,0.00018771,0.00049274,-0.00020941,0.00010555,-0.00010484,0.000020
 45,0.00099740,-0.00037103,-0.00029048,-0.02749499,-0.00936461,0.012630
 45,0.00048548,0.00119463,-0.00015048,0.00047330,-0.00590151,-0.0033702
 5,0.00032759,0.00012429,-0.00003742,-0.00198764,-0.00076401,0.00048628
 ,0.00058476,-0.00046132,-0.00011461,-0.00004378,0.00005566,-0.00001422
 ,-0.00019107,0.00047611,0.00015762,-0.00011750,0.00032210,0.00003840,-
 0.00000185,-0.00002702,0.00002385,0.00010362,0.00000603,0.00000086,-0.
 06639487,-0.06995393,0.02723337,0.02002332,0.00741586,-0.00941360,-0.0
 0007589,-0.00093502,0.00049714,0.07462530,0.07654270,-0.00001767,0.000
 43063,0.00012480,-0.00025365,0.00011065,-0.00011834,0.00017340,0.00003
 207,-0.00005361,0.00002064,0.00015581,0.00023783,-0.01196151,-0.003850
 05,0.00405575,-0.00019740,0.00073970,0.00053674,-0.00005932,-0.0020095
 5,-0.00067657,-0.00023556,-0.00027755,0.00043956,-0.00048547,-0.000301
 50,0.00058881,0.00003697,-0.00009842,0.00014552,0.00003607,0.00002283,
 0.00000771,0.00003013,0.00002237,-0.00013793,0.00002419,-0.00001644,-0
 .00004655,-0.00001718,-0.00001277,0.00001665,-0.00001583,0.00000476,0.
 00001885,0.08287640,0.02765704,-0.08286490,-0.00926434,-0.00366040,0.0
 0325736,0.03056830,0.00934862,-0.01077803,-0.09125815,-0.02829781,0.08
 524636\\0.00000027,0.00000074,-0.00000002,0.00000066,0.00000073,-0.000
 00048,0.00000008,0.00000015,0.00000002,0.00000028,0.00000110,0.0000004
 1,-0.00000007,0.00000047,0.00000028,0.00000040,0.00000092,0.00000018,0
 .00000010,-0.00000011,-0.00000047,-0.00000020,-0.00000076,-0.00000031,
 0.00000049,-0.00000013,-0.00000079,-0.00000005,-0.00000071,0.,0.000000
 22,0.00000020,-0.00000033,-0.00000042,-0.00000051,0.00000028,0.0000000
 6,-0.00000094,-0.00000091,-0.00000020,-0.00000144,-0.00000083,0.000000
 48,-0.00000078,-0.00000139,-0.00000040,0.00000024,0.00000090,-0.000000
 58,0.00000019,0.00000109,-0.00000071,-0.00000015,0.00000098,-0.0000004
 2,0.00000077,0.00000136\\\@


      LET US REMEMBER, PLEASE, THAT THE SEARCH FOR THE CONSTITUTION
      OF THE WORLD IS ONE OF THE GREATEST AND NOBLEST PROBLEMS PRESENTED 
      BY NATURE.

                                                  -- GALILEO
 Job cpu time:       0 days  0 hours 27 minutes 29.1 seconds.
 File lengths (MBytes):  RWF=     64 Int=      0 D2E=      0 Chk=      3 Scr=      1
 Normal termination of Gaussian 09 at Sat Nov  7 02:19:56 2015.
