 Entering Gaussian System, Link 0=/share/apps/g09/g09
 Input=C6H14_5_01_1_opt_PM6.gjf
 Output=C6H14_5_01_1_opt_PM6.log
 Initial command:
 /share/apps/g09/l1.exe /state/partition1/Gau-11025.inp -scrdir=/state/partition1/
 Entering Link 1 = /share/apps/g09/l1.exe PID=     11030.
  
 Copyright (c) 1988,1990,1992,1993,1995,1998,2003,2009, Gaussian, Inc.
                  All Rights Reserved.
  
 This is part of the Gaussian(R) 09 program.  It is based on
 the Gaussian(R) 03 system (copyright 2003, Gaussian, Inc.),
 the Gaussian(R) 98 system (copyright 1998, Gaussian, Inc.),
 the Gaussian(R) 94 system (copyright 1995, Gaussian, Inc.),
 the Gaussian 92(TM) system (copyright 1992, Gaussian, Inc.),
 the Gaussian 90(TM) system (copyright 1990, Gaussian, Inc.),
 the Gaussian 88(TM) system (copyright 1988, Gaussian, Inc.),
 the Gaussian 86(TM) system (copyright 1986, Carnegie Mellon
 University), and the Gaussian 82(TM) system (copyright 1983,
 Carnegie Mellon University). Gaussian is a federally registered
 trademark of Gaussian, Inc.
  
 This software contains proprietary and confidential information,
 including trade secrets, belonging to Gaussian, Inc.
  
 This software is provided under written license and may be
 used, copied, transmitted, or stored only in accord with that
 written license.
  
 The following legend is applicable only to US Government
 contracts under FAR:
  
                    RESTRICTED RIGHTS LEGEND
  
 Use, reproduction and disclosure by the US Government is
 subject to restrictions as set forth in subparagraphs (a)
 and (c) of the Commercial Computer Software - Restricted
 Rights clause in FAR 52.227-19.
  
 Gaussian, Inc.
 340 Quinnipiac St., Bldg. 40, Wallingford CT 06492
  
  
 ---------------------------------------------------------------
 Warning -- This program may not be used in any manner that
 competes with the business of Gaussian, Inc. or will provide
 assistance to any competitor of Gaussian, Inc.  The licensee
 of this program is prohibited from giving any competitor of
 Gaussian, Inc. access to this program.  By using this program,
 the user acknowledges that Gaussian, Inc. is engaged in the
 business of creating and licensing software in the field of
 computational chemistry and represents and warrants to the
 licensee that it is not a competitor of Gaussian, Inc. and that
 it will not use this program in any manner prohibited above.
 ---------------------------------------------------------------
  

 Cite this work as:
 Gaussian 09, Revision A.01,
 M. J. Frisch, G. W. Trucks, H. B. Schlegel, G. E. Scuseria, 
 M. A. Robb, J. R. Cheeseman, G. Scalmani, V. Barone, B. Mennucci, 
 G. A. Petersson, H. Nakatsuji, M. Caricato, X. Li, H. P. Hratchian, 
 A. F. Izmaylov, J. Bloino, G. Zheng, J. L. Sonnenberg, M. Hada, 
 M. Ehara, K. Toyota, R. Fukuda, J. Hasegawa, M. Ishida, T. Nakajima, 
 Y. Honda, O. Kitao, H. Nakai, T. Vreven, J. A. Montgomery, Jr., 
 J. E. Peralta, F. Ogliaro, M. Bearpark, J. J. Heyd, E. Brothers, 
 K. N. Kudin, V. N. Staroverov, R. Kobayashi, J. Normand, 
 K. Raghavachari, A. Rendell, J. C. Burant, S. S. Iyengar, J. Tomasi, 
 M. Cossi, N. Rega, J. M. Millam, M. Klene, J. E. Knox, J. B. Cross, 
 V. Bakken, C. Adamo, J. Jaramillo, R. Gomperts, R. E. Stratmann, 
 O. Yazyev, A. J. Austin, R. Cammi, C. Pomelli, J. W. Ochterski, 
 R. L. Martin, K. Morokuma, V. G. Zakrzewski, G. A. Voth, 
 P. Salvador, J. J. Dannenberg, S. Dapprich, A. D. Daniels, 
 O. Farkas, J. B. Foresman, J. V. Ortiz, J. Cioslowski, 
 and D. J. Fox, Gaussian, Inc., Wallingford CT, 2009.
 
 ******************************************
 Gaussian 09:  EM64L-G09RevA.01  8-May-2009
                14-Sep-2015 
 ******************************************
 %mem=3GB
 %nprocshared=2
 Will use up to    2 processors via shared memory.
 %chk=C6H14_5_01_1_opt_PM6.chk
 ----------
 #p PM6 opt
 ----------
 1/14=-1,18=20,19=15,26=1,38=1/1,3;
 2/9=110,12=2,17=6,18=5,40=1/2;
 3/5=2,16=1,25=1,41=3900000,71=1/1,2,3;
 4/35=1/1;
 5/5=2,35=1,38=5/2;
 6/7=2,8=2,9=2,10=2,28=1/1;
 7//1,2,3,16;
 1/14=-1,18=20,19=15/3(2);
 2/9=110/2;
 99//99;
 2/9=110/2;
 3/5=2,16=1,25=1,41=3900000,71=1,135=20/1,2,3;
 4/5=5,16=3,35=1/1;
 5/5=2,35=1,38=5/2;
 7//1,2,3,16;
 1/14=-1,18=20,19=15/3(-5);
 2/9=110/2;
 6/7=2,8=2,9=2,10=2,19=2,28=1/1;
 99/9=1/99;
 Leave Link    1 at Mon Sep 14 19:12:26 2015, MaxMem=  402653184 cpu:       3.3
 (Enter /share/apps/g09/l101.exe)
 ----------------------------------
 using PM6 to do opt and freq calc.
 ----------------------------------
 Symbolic Z-matrix:
 Charge =  0 Multiplicity = 1
 C                     1.5545    0.7424   -0.7981 
 H                     1.6905    1.7445   -0.3293 
 H                     1.3246    0.8931   -1.8783 
 H                     2.5228    0.1949   -0.726 
 C                     0.4197   -0.0418   -0.0988 
 C                    -0.8942    0.7826   -0.2402 
 H                    -1.1041    0.9526   -1.3226 
 H                    -0.7474    1.7856    0.2255 
 C                    -2.1627    0.1809    0.3738 
 H                    -2.0464    0.0318    1.4699 
 H                    -3.014     0.8802    0.2104 
 H                    -2.4178   -0.7892   -0.1072 
 C                     0.2939   -1.423    -0.7794 
 H                    -0.4485   -2.0644   -0.2531 
 H                    -0.0281   -1.3108   -1.8403 
 H                     1.2704   -1.9604   -0.7667 
 C                     0.8069   -0.234     1.3846 
 H                     1.7995   -0.7334    1.4723 
 H                     0.8645    0.7489    1.9067 
 H                     0.0639   -0.8704    1.9158 
 
 NAtoms=     20 NQM=     20 NQMF=      0 NMic=      0 NMicF=      0 NTot=     20.
                    Isotopes and Nuclear Properties:
 (Nuclear quadrupole moments (NQMom) in fm**2, nuclear magnetic moments (NMagM)
  in nuclear magnetons)

  Atom         1           2           3           4           5           6           7           8           9          10
 IAtWgt=          12           1           1           1          12          12           1           1          12           1
 AtmWgt=  12.0000000   1.0078250   1.0078250   1.0078250  12.0000000  12.0000000   1.0078250   1.0078250  12.0000000   1.0078250
 NucSpn=           0           1           1           1           0           0           1           1           0           1
 AtZEff=   0.0000000   0.0000000   0.0000000   0.0000000   0.0000000   0.0000000   0.0000000   0.0000000   0.0000000   0.0000000
 NQMom=    0.0000000   0.0000000   0.0000000   0.0000000   0.0000000   0.0000000   0.0000000   0.0000000   0.0000000   0.0000000
 NMagM=    0.0000000   2.7928460   2.7928460   2.7928460   0.0000000   0.0000000   2.7928460   2.7928460   0.0000000   2.7928460

  Atom        11          12          13          14          15          16          17          18          19          20
 IAtWgt=           1           1          12           1           1           1          12           1           1           1
 AtmWgt=   1.0078250   1.0078250  12.0000000   1.0078250   1.0078250   1.0078250  12.0000000   1.0078250   1.0078250   1.0078250
 NucSpn=           1           1           0           1           1           1           0           1           1           1
 AtZEff=   0.0000000   0.0000000   0.0000000   0.0000000   0.0000000   0.0000000   0.0000000   0.0000000   0.0000000   0.0000000
 NQMom=    0.0000000   0.0000000   0.0000000   0.0000000   0.0000000   0.0000000   0.0000000   0.0000000   0.0000000   0.0000000
 NMagM=    2.7928460   2.7928460   0.0000000   2.7928460   2.7928460   2.7928460   0.0000000   2.7928460   2.7928460   2.7928460
 Leave Link  101 at Mon Sep 14 19:12:28 2015, MaxMem=  402653184 cpu:       0.2
 (Enter /share/apps/g09/l103.exe)

 GradGradGradGradGradGradGradGradGradGradGradGradGradGradGradGradGradGrad
 Berny optimization.
 Initialization pass.
                           ----------------------------
                           !    Initial Parameters    !
                           ! (Angstroms and Degrees)  !
 --------------------------                            --------------------------
 ! Name  Definition              Value          Derivative Info.                !
 --------------------------------------------------------------------------------
 ! R1    R(1,2)                  1.1147         estimate D2E/DX2                !
 ! R2    R(1,3)                  1.1146         estimate D2E/DX2                !
 ! R3    R(1,4)                  1.1147         estimate D2E/DX2                !
 ! R4    R(1,5)                  1.5465         estimate D2E/DX2                !
 ! R5    R(5,6)                  1.5576         estimate D2E/DX2                !
 ! R6    R(5,13)                 1.5449         estimate D2E/DX2                !
 ! R7    R(5,17)                 1.5451         estimate D2E/DX2                !
 ! R8    R(6,7)                  1.1156         estimate D2E/DX2                !
 ! R9    R(6,8)                  1.1155         estimate D2E/DX2                !
 ! R10   R(6,9)                  1.5324         estimate D2E/DX2                !
 ! R11   R(9,10)                 1.1123         estimate D2E/DX2                !
 ! R12   R(9,11)                 1.1137         estimate D2E/DX2                !
 ! R13   R(9,12)                 1.1124         estimate D2E/DX2                !
 ! R14   R(13,14)                1.1133         estimate D2E/DX2                !
 ! R15   R(13,15)                1.1144         estimate D2E/DX2                !
 ! R16   R(13,16)                1.1147         estimate D2E/DX2                !
 ! R17   R(17,18)                1.1146         estimate D2E/DX2                !
 ! R18   R(17,19)                1.1144         estimate D2E/DX2                !
 ! R19   R(17,20)                1.1132         estimate D2E/DX2                !
 ! A1    A(2,1,3)              108.1317         estimate D2E/DX2                !
 ! A2    A(2,1,4)              107.9613         estimate D2E/DX2                !
 ! A3    A(2,1,5)              110.8068         estimate D2E/DX2                !
 ! A4    A(3,1,4)              107.9542         estimate D2E/DX2                !
 ! A5    A(3,1,5)              110.8191         estimate D2E/DX2                !
 ! A6    A(4,1,5)              111.0448         estimate D2E/DX2                !
 ! A7    A(1,5,6)              108.032          estimate D2E/DX2                !
 ! A8    A(1,5,13)             108.2935         estimate D2E/DX2                !
 ! A9    A(1,5,17)             108.2588         estimate D2E/DX2                !
 ! A10   A(6,5,13)             111.378          estimate D2E/DX2                !
 ! A11   A(6,5,17)             111.3704         estimate D2E/DX2                !
 ! A12   A(13,5,17)            109.399          estimate D2E/DX2                !
 ! A13   A(5,6,7)              109.1145         estimate D2E/DX2                !
 ! A14   A(5,6,8)              109.0859         estimate D2E/DX2                !
 ! A15   A(5,6,9)              117.0072         estimate D2E/DX2                !
 ! A16   A(7,6,8)              107.0252         estimate D2E/DX2                !
 ! A17   A(7,6,9)              107.0287         estimate D2E/DX2                !
 ! A18   A(8,6,9)              107.1401         estimate D2E/DX2                !
 ! A19   A(6,9,10)             111.1577         estimate D2E/DX2                !
 ! A20   A(6,9,11)             109.1116         estimate D2E/DX2                !
 ! A21   A(6,9,12)             111.0386         estimate D2E/DX2                !
 ! A22   A(10,9,11)            107.9787         estimate D2E/DX2                !
 ! A23   A(10,9,12)            109.4612         estimate D2E/DX2                !
 ! A24   A(11,9,12)            107.9885         estimate D2E/DX2                !
 ! A25   A(5,13,14)            111.1676         estimate D2E/DX2                !
 ! A26   A(5,13,15)            110.6662         estimate D2E/DX2                !
 ! A27   A(5,13,16)            110.7732         estimate D2E/DX2                !
 ! A28   A(14,13,15)           108.383          estimate D2E/DX2                !
 ! A29   A(14,13,16)           107.5192         estimate D2E/DX2                !
 ! A30   A(15,13,16)           108.2115         estimate D2E/DX2                !
 ! A31   A(5,17,18)            110.7593         estimate D2E/DX2                !
 ! A32   A(5,17,19)            110.6719         estimate D2E/DX2                !
 ! A33   A(5,17,20)            111.2217         estimate D2E/DX2                !
 ! A34   A(18,17,19)           108.1963         estimate D2E/DX2                !
 ! A35   A(18,17,20)           107.4993         estimate D2E/DX2                !
 ! A36   A(19,17,20)           108.3697         estimate D2E/DX2                !
 ! D1    D(2,1,5,6)             59.9807         estimate D2E/DX2                !
 ! D2    D(2,1,5,13)          -179.264          estimate D2E/DX2                !
 ! D3    D(2,1,5,17)           -60.7455         estimate D2E/DX2                !
 ! D4    D(3,1,5,6)            -60.0631         estimate D2E/DX2                !
 ! D5    D(3,1,5,13)            60.6923         estimate D2E/DX2                !
 ! D6    D(3,1,5,17)           179.2107         estimate D2E/DX2                !
 ! D7    D(4,1,5,6)            179.9592         estimate D2E/DX2                !
 ! D8    D(4,1,5,13)           -59.2855         estimate D2E/DX2                !
 ! D9    D(4,1,5,17)            59.233          estimate D2E/DX2                !
 ! D10   D(1,5,6,7)             57.7603         estimate D2E/DX2                !
 ! D11   D(1,5,6,8)            -58.8432         estimate D2E/DX2                !
 ! D12   D(1,5,6,9)            179.3958         estimate D2E/DX2                !
 ! D13   D(13,5,6,7)           -61.0506         estimate D2E/DX2                !
 ! D14   D(13,5,6,8)          -177.6541         estimate D2E/DX2                !
 ! D15   D(13,5,6,9)            60.5849         estimate D2E/DX2                !
 ! D16   D(17,5,6,7)           176.5244         estimate D2E/DX2                !
 ! D17   D(17,5,6,8)            59.9208         estimate D2E/DX2                !
 ! D18   D(17,5,6,9)           -61.8402         estimate D2E/DX2                !
 ! D19   D(1,5,13,14)          174.8479         estimate D2E/DX2                !
 ! D20   D(1,5,13,15)          -64.6545         estimate D2E/DX2                !
 ! D21   D(1,5,13,16)           55.3669         estimate D2E/DX2                !
 ! D22   D(6,5,13,14)          -66.4977         estimate D2E/DX2                !
 ! D23   D(6,5,13,15)           53.9999         estimate D2E/DX2                !
 ! D24   D(6,5,13,16)          174.0213         estimate D2E/DX2                !
 ! D25   D(17,5,13,14)          57.056          estimate D2E/DX2                !
 ! D26   D(17,5,13,15)         177.5535         estimate D2E/DX2                !
 ! D27   D(17,5,13,16)         -62.425          estimate D2E/DX2                !
 ! D28   D(1,5,17,18)          -55.5968         estimate D2E/DX2                !
 ! D29   D(1,5,17,19)           64.4003         estimate D2E/DX2                !
 ! D30   D(1,5,17,20)         -175.0791         estimate D2E/DX2                !
 ! D31   D(6,5,17,18)         -174.2249         estimate D2E/DX2                !
 ! D32   D(6,5,17,19)          -54.2279         estimate D2E/DX2                !
 ! D33   D(6,5,17,20)           66.2928         estimate D2E/DX2                !
 ! D34   D(13,5,17,18)          62.2169         estimate D2E/DX2                !
 ! D35   D(13,5,17,19)        -177.7861         estimate D2E/DX2                !
 ! D36   D(13,5,17,20)         -57.2654         estimate D2E/DX2                !
 ! D37   D(5,6,9,10)            60.2328         estimate D2E/DX2                !
 ! D38   D(5,6,9,11)           179.2052         estimate D2E/DX2                !
 ! D39   D(5,6,9,12)           -61.8829         estimate D2E/DX2                !
 ! D40   D(7,6,9,10)          -177.0498         estimate D2E/DX2                !
 ! D41   D(7,6,9,11)           -58.0775         estimate D2E/DX2                !
 ! D42   D(7,6,9,12)            60.8344         estimate D2E/DX2                !
 ! D43   D(8,6,9,10)           -62.5364         estimate D2E/DX2                !
 ! D44   D(8,6,9,11)            56.436          estimate D2E/DX2                !
 ! D45   D(8,6,9,12)           175.3479         estimate D2E/DX2                !
 --------------------------------------------------------------------------------
 Trust Radius=3.00D-01 FncErr=1.00D-07 GrdErr=1.00D-07
 Number of steps in this run= 110 maximum allowed number of steps= 120.
 GradGradGradGradGradGradGradGradGradGradGradGradGradGradGradGradGradGrad

 Leave Link  103 at Mon Sep 14 19:12:30 2015, MaxMem=  402653184 cpu:       0.0
 (Enter /share/apps/g09/l202.exe)
                          Input orientation:                          
 ---------------------------------------------------------------------
 Center     Atomic      Atomic             Coordinates (Angstroms)
 Number     Number       Type             X           Y           Z
 ---------------------------------------------------------------------
      1          6           0        1.554500    0.742400   -0.798100
      2          1           0        1.690500    1.744500   -0.329300
      3          1           0        1.324600    0.893100   -1.878300
      4          1           0        2.522800    0.194900   -0.726000
      5          6           0        0.419700   -0.041800   -0.098800
      6          6           0       -0.894200    0.782600   -0.240200
      7          1           0       -1.104100    0.952600   -1.322600
      8          1           0       -0.747400    1.785600    0.225500
      9          6           0       -2.162700    0.180900    0.373800
     10          1           0       -2.046400    0.031800    1.469900
     11          1           0       -3.014000    0.880200    0.210400
     12          1           0       -2.417800   -0.789200   -0.107200
     13          6           0        0.293900   -1.423000   -0.779400
     14          1           0       -0.448500   -2.064400   -0.253100
     15          1           0       -0.028100   -1.310800   -1.840300
     16          1           0        1.270400   -1.960400   -0.766700
     17          6           0        0.806900   -0.234000    1.384600
     18          1           0        1.799500   -0.733400    1.472300
     19          1           0        0.864500    0.748900    1.906700
     20          1           0        0.063900   -0.870400    1.915800
 ---------------------------------------------------------------------
                    Distance matrix (angstroms):
                    1          2          3          4          5
     1  C    0.000000
     2  H    1.114663   0.000000
     3  H    1.114628   1.805039   0.000000
     4  H    1.114702   1.803151   1.803042   0.000000
     5  C    1.546532   2.204298   2.204428   2.207360   0.000000
     6  C    2.511772   2.759323   2.760191   3.501040   1.557550
     7  H    2.717984   3.069778   2.492173   3.752925   2.192826
     8  H    2.726677   2.500570   3.084755   3.758974   2.192415
     9  C    3.937792   4.217386   4.211941   4.812865   2.634717
    10  H    4.314540   4.487191   4.828656   5.072097   2.923677
    11  H    4.680518   4.813586   4.815214   5.657087   3.568751
    12  H    4.313039   4.831883   4.469059   5.075519   2.934294
    13  C    2.505677   3.490865   2.763013   2.754714   1.544913
    14  H    3.491011   4.369078   3.812081   3.762538   2.206466
    15  H    2.794000   3.817272   2.586197   3.164789   2.200843
    16  H    2.717872   3.754209   3.062851   2.493087   2.202455
    17  C    2.505283   2.762728   3.490685   2.753707   1.545102
    18  H    2.718957   3.065556   3.754671   2.493477   2.202388
    19  H    2.791431   2.583252   3.815588   3.160377   2.201155
    20  H    3.491170   3.811037   4.369724   3.762999   2.207212
                    6          7          8          9         10
     6  C    0.000000
     7  H    1.115593   0.000000
     8  H    1.115543   1.793805   0.000000
     9  C    1.532361   2.143345   2.144791   0.000000
    10  H    2.194472   3.087695   2.512319   1.112291   0.000000
    11  H    2.169359   2.450112   2.440789   1.113747   1.800659
    12  H    2.193080   2.497373   3.087154   1.112444   1.816376
    13  C    2.562614   2.809439   3.519836   3.152340   3.557077
    14  H    2.881705   3.267404   3.891131   2.893589   3.148979
    15  H    2.773585   2.559056   3.791123   3.418176   4.102869
    16  H    3.533659   3.799058   4.369038   4.203817   4.469049
    17  C    2.562653   3.519783   2.799669   3.164235   2.866923
    18  H    3.533685   4.368633   3.792963   4.212087   3.921286
    19  H    2.775489   3.787513   2.549392   3.440399   3.029582
    20  H    2.880747   3.895483   3.251101   2.905296   2.337982
                   11         12         13         14         15
    11  H    0.000000
    12  H    1.800894   0.000000
    13  C    4.150498   2.864764   0.000000
    14  H    3.932848   2.350652   1.113348   0.000000
    15  H    4.233373   2.997727   1.114353   1.806614   0.000000
    16  H    5.232573   3.925490   1.114680   1.797003   1.805741
    17  C    4.149634   3.596165   2.521862   2.758343   3.500957
    18  H    5.231241   4.503727   2.795091   3.130826   3.827118
    19  H    4.235261   4.146690   3.501124   3.781979   4.367964
    20  H    3.930198   3.202805   2.760864   2.528303   3.782949
                   16         17         18         19         20
    16  H    0.000000
    17  C    2.797031   0.000000
    18  H    2.607412   1.114606   0.000000
    19  H    3.827810   1.114450   1.805586   0.000000
    20  H    3.136805   1.113206   1.796599   1.806426   0.000000
 Stoichiometry    C6H14
 Framework group  C1[X(C6H14)]
 Deg. of freedom    54
 Full point group                 C1      NOp   1
 Largest Abelian subgroup         C1      NOp   1
 Largest concise Abelian subgroup C1      NOp   1
                         Standard orientation:                         
 ---------------------------------------------------------------------
 Center     Atomic      Atomic             Coordinates (Angstroms)
 Number     Number       Type             X           Y           Z
 ---------------------------------------------------------------------
      1          6           0        1.606146    1.008666   -0.021741
      2          1           0        1.573078    1.675287    0.871005
      3          1           0        1.563535    1.647982   -0.933803
      4          1           0        2.586892    0.478864   -0.018999
      5          6           0        0.431545    0.002879   -0.000134
      6          6           0       -0.898023    0.814170   -0.004209
      7          1           0       -0.922208    1.471344   -0.905367
      8          1           0       -0.920019    1.482901    0.888400
      9          6           0       -2.203159    0.011221    0.000796
     10          1           0       -2.274897   -0.632703    0.904902
     11          1           0       -3.065121    0.716440    0.011743
     12          1           0       -2.287238   -0.619954   -0.911388
     13          6           0        0.543770   -0.900633   -1.248264
     14          1           0       -0.226621   -1.704262   -1.233413
     15          1           0        0.410540   -0.303250   -2.179481
     16          1           0        1.542454   -1.393928   -1.290722
     17          6           0        0.558928   -0.862890    1.273270
     18          1           0        1.556752   -1.357696    1.316399
     19          1           0        0.440957   -0.237130    2.187877
     20          1           0       -0.213344   -1.664371    1.294540
 ---------------------------------------------------------------------
 Rotational constants (GHZ):      4.2340940      2.4481330      2.4402303
 Leave Link  202 at Mon Sep 14 19:12:30 2015, MaxMem=  402653184 cpu:       0.0
 (Enter /share/apps/g09/l301.exe)
 Standard basis: VSTO-6G (5D, 7F)
 Ernie: Thresh=  0.10000D-02 Tol=  0.10000D-05 Strict=F.
  NNHCO=     0 NNPyr=     0 NCTC=     0               EPep=         0.000000000
    EC=       133.107764614  ECS=         3.120253982   EG=         0.300173003
   EHC=         0.000404375  EAt=       -31.187935768  AtH=         2.796400831
 EPDDG=         0.000000000  ECC=       136.528595974 EAtT=        33.984336599
 There are    38 symmetry adapted basis functions of A   symmetry.
 Integral buffers will be    131072 words long.
 Regular integral format.
 Two-electron integral symmetry is turned off.
    38 basis functions,   228 primitive gaussians,    38 cartesian basis functions
    19 alpha electrons       19 beta electrons
       nuclear repulsion energy       170.5129325731 Hartrees.
 IExCor=    0 DFT=F Ex=HF Corr=None ExCW=0 ScaHFX=  1.000000
 ScaDFX=  1.000000  1.000000  1.000000  1.000000 ScalE2=  1.000000  1.000000
 IRadAn=      0 IRanWt=     -1 IRanGd=            0 ICorTp=0
 Leave Link  301 at Mon Sep 14 19:12:30 2015, MaxMem=  402653184 cpu:       0.2
 (Enter /share/apps/g09/l302.exe)
 Do NDO integrals.
 NPDir=0 NMtPBC=     1 NCelOv=     1 NCel=       1 NClECP=     1 NCelD=      1
         NCelK=      1 NCelE2=     1 NClLst=     1 CellRange=     0.0.
 One-electron integrals computed using PRISM.
 NBasis=    38 RedAO= F  NBF=    38
 NBsUse=    38 1.00D-04 NBFU=    38
 Leave Link  302 at Mon Sep 14 19:12:31 2015, MaxMem=  402653184 cpu:       0.1
 (Enter /share/apps/g09/l303.exe)
 DipDrv:  MaxL=1.
 Leave Link  303 at Mon Sep 14 19:12:32 2015, MaxMem=  402653184 cpu:       0.0
 (Enter /share/apps/g09/l401.exe)
 Simple Huckel Guess.
 Initial guess orbital symmetries:
       Occupied  (A) (A) (A) (A) (A) (A) (A) (A) (A) (A) (A) (A)
                 (A) (A) (A) (A) (A) (A) (A)
       Virtual   (A) (A) (A) (A) (A) (A) (A) (A) (A) (A) (A) (A)
                 (A) (A) (A) (A) (A) (A) (A)
 The electronic state of the initial guess is 1-A.
 Leave Link  401 at Mon Sep 14 19:12:32 2015, MaxMem=  402653184 cpu:       0.1
 (Enter /share/apps/g09/l502.exe)
 Closed shell SCF:
 Requested convergence on RMS density matrix=1.00D-08 within 128 cycles.
 Requested convergence on MAX density matrix=1.00D-06.
 Requested convergence on             energy=1.00D-06.
 No special actions if energy rises.
 Using DIIS extrapolation, IDIIS=  1040.
 Overlap will be assumed to be unity.
 Two-electron integral symmetry not used.
 Keep J ints in memory in canonical form, NReq=884654.
 IEnd=       81865 IEndB=       81865 NGot=   402653184 MDV=   402586639
 LenX=   402586639 LenY=   402584754
 Symmetry not used in FoFDir.
 MinBra= 0 MaxBra= 1 Meth=40.
 IRaf=       0 NMat=   1 IRICut=       1 DoRegI=T DoRafI=F ISym2E= 0 JSym2E=0.

 Cycle   1  Pass 1  IDiag  1:
 E= 0.718075791488388E-01
 DIIS: error= 2.19D-02 at cycle   1 NSaved=   1.
 NSaved= 1 IEnMin= 1 EnMin= 0.718075791488388E-01 IErMin= 1 ErrMin= 2.19D-02
 ErrMax= 2.19D-02 EMaxC= 1.00D-01 BMatC= 4.35D-02 BMatP= 4.35D-02
 IDIUse=3 WtCom= 7.81D-01 WtEn= 2.19D-01
 Coeff-Com:  0.100D+01
 Coeff-En:   0.100D+01
 Coeff:      0.100D+01
 GapD=    2.000 DampG=2.000 DampE=0.500 DampFc=1.0000 IDamp=-1.
 RMSDP=8.43D-03 MaxDP=6.89D-02              OVMax= 0.00D+00

 Cycle   2  Pass 1  IDiag  1:
 E=-0.438070498828154E-01 Delta-E=       -0.115614629032 Rises=F Damp=F
 DIIS: error= 5.28D-03 at cycle   2 NSaved=   2.
 NSaved= 2 IEnMin= 2 EnMin=-0.438070498828154E-01 IErMin= 2 ErrMin= 5.28D-03
 ErrMax= 5.28D-03 EMaxC= 1.00D-01 BMatC= 3.07D-03 BMatP= 4.35D-02
 IDIUse=3 WtCom= 9.47D-01 WtEn= 5.28D-02
 Coeff-Com: -0.303D+00 0.130D+01
 Coeff-En:   0.000D+00 0.100D+01
 Coeff:     -0.287D+00 0.129D+01
 RMSDP=3.15D-03 MaxDP=2.14D-02 DE=-1.16D-01 OVMax= 0.00D+00

 Cycle   3  Pass 1  IDiag  3:
 E=-0.548266988928958E-01 Delta-E=       -0.011019649010 Rises=F Damp=F
 DIIS: error= 1.82D-03 at cycle   3 NSaved=   3.
 NSaved= 3 IEnMin= 3 EnMin=-0.548266988928958E-01 IErMin= 3 ErrMin= 1.82D-03
 ErrMax= 1.82D-03 EMaxC= 1.00D-01 BMatC= 2.47D-04 BMatP= 3.07D-03
 IDIUse=3 WtCom= 9.82D-01 WtEn= 1.82D-02
 Coeff-Com:  0.223D+00-0.105D+01 0.183D+01
 Coeff-En:   0.000D+00 0.000D+00 0.100D+01
 Coeff:      0.219D+00-0.103D+01 0.181D+01
 Gap=     0.555 Goal=   None    Shift=    0.000
 RMSDP=1.65D-03 MaxDP=1.79D-02 DE=-1.10D-02 OVMax= 0.00D+00

 Cycle   4  Pass 1  IDiag  3:
 E=-0.566635586069992E-01 Delta-E=       -0.001836859714 Rises=F Damp=F
 DIIS: error= 6.92D-04 at cycle   4 NSaved=   4.
 NSaved= 4 IEnMin= 4 EnMin=-0.566635586069992E-01 IErMin= 4 ErrMin= 6.92D-04
 ErrMax= 6.92D-04 EMaxC= 1.00D-01 BMatC= 3.34D-05 BMatP= 2.47D-04
 IDIUse=3 WtCom= 9.93D-01 WtEn= 6.92D-03
 Coeff-Com: -0.125D+00 0.609D+00-0.144D+01 0.195D+01
 Coeff-En:   0.000D+00 0.000D+00 0.000D+00 0.100D+01
 Coeff:     -0.124D+00 0.605D+00-0.143D+01 0.195D+01
 Gap=     0.555 Goal=   None    Shift=    0.000
 RMSDP=8.94D-04 MaxDP=9.82D-03 DE=-1.84D-03 OVMax= 0.00D+00

 Cycle   5  Pass 1  IDiag  3:
 E=-0.569608529180812E-01 Delta-E=       -0.000297294311 Rises=F Damp=F
 DIIS: error= 1.21D-04 at cycle   5 NSaved=   5.
 NSaved= 5 IEnMin= 5 EnMin=-0.569608529180812E-01 IErMin= 5 ErrMin= 1.21D-04
 ErrMax= 1.21D-04 EMaxC= 1.00D-01 BMatC= 1.28D-06 BMatP= 3.34D-05
 IDIUse=3 WtCom= 9.99D-01 WtEn= 1.21D-03
 Coeff-Com:  0.716D-01-0.354D+00 0.868D+00-0.129D+01 0.170D+01
 Coeff-En:   0.000D+00 0.000D+00 0.000D+00 0.000D+00 0.100D+01
 Coeff:      0.715D-01-0.353D+00 0.867D+00-0.129D+01 0.170D+01
 Gap=     0.555 Goal=   None    Shift=    0.000
 RMSDP=1.29D-04 MaxDP=1.40D-03 DE=-2.97D-04 OVMax= 0.00D+00

 Cycle   6  Pass 1  IDiag  3:
 E=-0.569700530849104E-01 Delta-E=       -0.000009200167 Rises=F Damp=F
 DIIS: error= 5.34D-05 at cycle   6 NSaved=   6.
 NSaved= 6 IEnMin= 6 EnMin=-0.569700530849104E-01 IErMin= 6 ErrMin= 5.34D-05
 ErrMax= 5.34D-05 EMaxC= 1.00D-01 BMatC= 1.28D-07 BMatP= 1.28D-06
 IDIUse=1 WtCom= 1.00D+00 WtEn= 0.00D+00
 Coeff-Com: -0.136D-01 0.680D-01-0.173D+00 0.272D+00-0.580D+00 0.143D+01
 Coeff:     -0.136D-01 0.680D-01-0.173D+00 0.272D+00-0.580D+00 0.143D+01
 Gap=     0.555 Goal=   None    Shift=    0.000
 RMSDP=3.78D-05 MaxDP=4.09D-04 DE=-9.20D-06 OVMax= 0.00D+00

 Cycle   7  Pass 1  IDiag  3:
 E=-0.569709722306015E-01 Delta-E=       -0.000000919146 Rises=F Damp=F
 DIIS: error= 2.15D-05 at cycle   7 NSaved=   7.
 NSaved= 7 IEnMin= 7 EnMin=-0.569709722306015E-01 IErMin= 7 ErrMin= 2.15D-05
 ErrMax= 2.15D-05 EMaxC= 1.00D-01 BMatC= 1.86D-08 BMatP= 1.28D-07
 IDIUse=1 WtCom= 1.00D+00 WtEn= 0.00D+00
 Coeff-Com:  0.621D-02-0.314D-01 0.804D-01-0.127D+00 0.276D+00-0.100D+01
 Coeff-Com:  0.180D+01
 Coeff:      0.621D-02-0.314D-01 0.804D-01-0.127D+00 0.276D+00-0.100D+01
 Coeff:      0.180D+01
 Gap=     0.555 Goal=   None    Shift=    0.000
 RMSDP=1.83D-05 MaxDP=2.19D-04 DE=-9.19D-07 OVMax= 0.00D+00

 Cycle   8  Pass 1  IDiag  3:
 E=-0.569711209276988E-01 Delta-E=       -0.000000148697 Rises=F Damp=F
 DIIS: error= 5.62D-06 at cycle   8 NSaved=   8.
 NSaved= 8 IEnMin= 8 EnMin=-0.569711209276988E-01 IErMin= 8 ErrMin= 5.62D-06
 ErrMax= 5.62D-06 EMaxC= 1.00D-01 BMatC= 1.09D-09 BMatP= 1.86D-08
 IDIUse=1 WtCom= 1.00D+00 WtEn= 0.00D+00
 Coeff-Com: -0.676D-03 0.375D-02-0.112D-01 0.204D-01-0.650D-01 0.367D+00
 Coeff-Com: -0.901D+00 0.159D+01
 Coeff:     -0.676D-03 0.375D-02-0.112D-01 0.204D-01-0.650D-01 0.367D+00
 Coeff:     -0.901D+00 0.159D+01
 Gap=     0.555 Goal=   None    Shift=    0.000
 RMSDP=3.84D-06 MaxDP=4.94D-05 DE=-1.49D-07 OVMax= 0.00D+00

 Cycle   9  Pass 1  IDiag  3:
 E=-0.569711281737000E-01 Delta-E=       -0.000000007246 Rises=F Damp=F
 DIIS: error= 1.15D-06 at cycle   9 NSaved=   9.
 NSaved= 9 IEnMin= 9 EnMin=-0.569711281737000E-01 IErMin= 9 ErrMin= 1.15D-06
 ErrMax= 1.15D-06 EMaxC= 1.00D-01 BMatC= 4.46D-11 BMatP= 1.09D-09
 IDIUse=1 WtCom= 1.00D+00 WtEn= 0.00D+00
 Coeff-Com: -0.169D-03 0.698D-03-0.102D-02 0.225D-03 0.103D-01-0.981D-01
 Coeff-Com:  0.280D+00-0.668D+00 0.148D+01
 Coeff:     -0.169D-03 0.698D-03-0.102D-02 0.225D-03 0.103D-01-0.981D-01
 Coeff:      0.280D+00-0.668D+00 0.148D+01
 Gap=     0.555 Goal=   None    Shift=    0.000
 RMSDP=6.62D-07 MaxDP=9.13D-06 DE=-7.25D-09 OVMax= 0.00D+00

 Cycle  10  Pass 1  IDiag  3:
 E=-0.569711284163930E-01 Delta-E=       -0.000000000243 Rises=F Damp=F
 DIIS: error= 1.42D-07 at cycle  10 NSaved=  10.
 NSaved=10 IEnMin=10 EnMin=-0.569711284163930E-01 IErMin=10 ErrMin= 1.42D-07
 ErrMax= 1.42D-07 EMaxC= 1.00D-01 BMatC= 1.23D-12 BMatP= 4.46D-11
 IDIUse=1 WtCom= 1.00D+00 WtEn= 0.00D+00
 Coeff-Com: -0.212D-04 0.162D-03-0.678D-03 0.153D-02-0.695D-02 0.471D-01
 Coeff-Com: -0.126D+00 0.287D+00-0.678D+00 0.148D+01
 Coeff:     -0.212D-04 0.162D-03-0.678D-03 0.153D-02-0.695D-02 0.471D-01
 Coeff:     -0.126D+00 0.287D+00-0.678D+00 0.148D+01
 Gap=     0.555 Goal=   None    Shift=    0.000
 RMSDP=9.25D-08 MaxDP=1.08D-06 DE=-2.43D-10 OVMax= 0.00D+00

 Cycle  11  Pass 1  IDiag  3:
 E=-0.569711284225605E-01 Delta-E=       -0.000000000006 Rises=F Damp=F
 DIIS: error= 3.40D-08 at cycle  11 NSaved=  11.
 NSaved=11 IEnMin=11 EnMin=-0.569711284225605E-01 IErMin=11 ErrMin= 3.40D-08
 ErrMax= 3.40D-08 EMaxC= 1.00D-01 BMatC= 6.69D-14 BMatP= 1.23D-12
 IDIUse=1 WtCom= 1.00D+00 WtEn= 0.00D+00
 Coeff-Com:  0.757D-05-0.665D-04 0.306D-03-0.722D-03 0.342D-02-0.237D-01
 Coeff-Com:  0.635D-01-0.146D+00 0.351D+00-0.899D+00 0.165D+01
 Coeff:      0.757D-05-0.665D-04 0.306D-03-0.722D-03 0.342D-02-0.237D-01
 Coeff:      0.635D-01-0.146D+00 0.351D+00-0.899D+00 0.165D+01
 Gap=     0.555 Goal=   None    Shift=    0.000
 RMSDP=2.52D-08 MaxDP=1.89D-07 DE=-6.17D-12 OVMax= 0.00D+00

 Cycle  12  Pass 1  IDiag  3:
 E=-0.569711284229300E-01 Delta-E=        0.000000000000 Rises=F Damp=F
 DIIS: error= 5.39D-09 at cycle  12 NSaved=  12.
 NSaved=12 IEnMin=12 EnMin=-0.569711284229300E-01 IErMin=12 ErrMin= 5.39D-09
 ErrMax= 5.39D-09 EMaxC= 1.00D-01 BMatC= 1.80D-15 BMatP= 6.69D-14
 IDIUse=1 WtCom= 1.00D+00 WtEn= 0.00D+00
 Coeff-Com: -0.364D-07 0.121D-04-0.890D-04 0.242D-03-0.132D-02 0.960D-02
 Coeff-Com: -0.260D-01 0.602D-01-0.147D+00 0.384D+00-0.782D+00 0.150D+01
 Coeff:     -0.364D-07 0.121D-04-0.890D-04 0.242D-03-0.132D-02 0.960D-02
 Coeff:     -0.260D-01 0.602D-01-0.147D+00 0.384D+00-0.782D+00 0.150D+01
 Gap=     0.555 Goal=   None    Shift=    0.000
 RMSDP=3.75D-09 MaxDP=3.50D-08 DE=-3.69D-13 OVMax= 0.00D+00

 Cycle  13  Pass 2  IDiag  1:
 RMSDP=3.75D-09 MaxDP=3.50D-08 DE=-3.69D-13 OVMax= 0.00D+00

 SCF Done:  E(RPM6) = -0.569711284229E-01 A.U. after   13 cycles
             Convg  =    0.3746D-08             -V/T =  0.9990
 KE=-5.633795412132D+01 PE=-2.620645322753D+02 EE= 1.478325826951D+02
 Leave Link  502 at Mon Sep 14 19:12:33 2015, MaxMem=  402653184 cpu:       1.5
 (Enter /share/apps/g09/l601.exe)
 Copying SCF densities to generalized density rwf, IOpCl= 0 IROHF=0.

 **********************************************************************

            Population analysis using the SCF density.

 **********************************************************************

 Orbital symmetries:
       Occupied  (A) (A) (A) (A) (A) (A) (A) (A) (A) (A) (A) (A)
                 (A) (A) (A) (A) (A) (A) (A)
       Virtual   (A) (A) (A) (A) (A) (A) (A) (A) (A) (A) (A) (A)
                 (A) (A) (A) (A) (A) (A) (A)
 The electronic state is 1-A.
 Alpha  occ. eigenvalues --   -1.05958  -0.94560  -0.86912  -0.86814  -0.78151
 Alpha  occ. eigenvalues --   -0.65931  -0.56469  -0.56382  -0.53660  -0.52093
 Alpha  occ. eigenvalues --   -0.49313  -0.47502  -0.47082  -0.45645  -0.45243
 Alpha  occ. eigenvalues --   -0.43350  -0.40995  -0.40724  -0.40082
 Alpha virt. eigenvalues --    0.15440   0.16222   0.16349   0.17994   0.18447
 Alpha virt. eigenvalues --    0.21367   0.21885   0.22104   0.22121   0.22413
 Alpha virt. eigenvalues --    0.22436   0.22564   0.22617   0.23184   0.24355
 Alpha virt. eigenvalues --    0.25095   0.25363   0.25947   0.26006
          Condensed to atoms (all electrons):
              1          2          3          4          5          6
     1  C    4.534305   0.000000   0.000000   0.000000   0.000000   0.000000
     2  H    0.000000   0.848285   0.000000   0.000000   0.000000   0.000000
     3  H    0.000000   0.000000   0.848281   0.000000   0.000000   0.000000
     4  H    0.000000   0.000000   0.000000   0.845995   0.000000   0.000000
     5  C    0.000000   0.000000   0.000000   0.000000   3.737151   0.000000
     6  C    0.000000   0.000000   0.000000   0.000000   0.000000   4.297101
     7  H    0.000000   0.000000   0.000000   0.000000   0.000000   0.000000
     8  H    0.000000   0.000000   0.000000   0.000000   0.000000   0.000000
     9  C    0.000000   0.000000   0.000000   0.000000   0.000000   0.000000
    10  H    0.000000   0.000000   0.000000   0.000000   0.000000   0.000000
    11  H    0.000000   0.000000   0.000000   0.000000   0.000000   0.000000
    12  H    0.000000   0.000000   0.000000   0.000000   0.000000   0.000000
    13  C    0.000000   0.000000   0.000000   0.000000   0.000000   0.000000
    14  H    0.000000   0.000000   0.000000   0.000000   0.000000   0.000000
    15  H    0.000000   0.000000   0.000000   0.000000   0.000000   0.000000
    16  H    0.000000   0.000000   0.000000   0.000000   0.000000   0.000000
    17  C    0.000000   0.000000   0.000000   0.000000   0.000000   0.000000
    18  H    0.000000   0.000000   0.000000   0.000000   0.000000   0.000000
    19  H    0.000000   0.000000   0.000000   0.000000   0.000000   0.000000
    20  H    0.000000   0.000000   0.000000   0.000000   0.000000   0.000000
              7          8          9         10         11         12
     1  C    0.000000   0.000000   0.000000   0.000000   0.000000   0.000000
     2  H    0.000000   0.000000   0.000000   0.000000   0.000000   0.000000
     3  H    0.000000   0.000000   0.000000   0.000000   0.000000   0.000000
     4  H    0.000000   0.000000   0.000000   0.000000   0.000000   0.000000
     5  C    0.000000   0.000000   0.000000   0.000000   0.000000   0.000000
     6  C    0.000000   0.000000   0.000000   0.000000   0.000000   0.000000
     7  H    0.867973   0.000000   0.000000   0.000000   0.000000   0.000000
     8  H    0.000000   0.867974   0.000000   0.000000   0.000000   0.000000
     9  C    0.000000   0.000000   4.445482   0.000000   0.000000   0.000000
    10  H    0.000000   0.000000   0.000000   0.854628   0.000000   0.000000
    11  H    0.000000   0.000000   0.000000   0.000000   0.860876   0.000000
    12  H    0.000000   0.000000   0.000000   0.000000   0.000000   0.854732
    13  C    0.000000   0.000000   0.000000   0.000000   0.000000   0.000000
    14  H    0.000000   0.000000   0.000000   0.000000   0.000000   0.000000
    15  H    0.000000   0.000000   0.000000   0.000000   0.000000   0.000000
    16  H    0.000000   0.000000   0.000000   0.000000   0.000000   0.000000
    17  C    0.000000   0.000000   0.000000   0.000000   0.000000   0.000000
    18  H    0.000000   0.000000   0.000000   0.000000   0.000000   0.000000
    19  H    0.000000   0.000000   0.000000   0.000000   0.000000   0.000000
    20  H    0.000000   0.000000   0.000000   0.000000   0.000000   0.000000
             13         14         15         16         17         18
     1  C    0.000000   0.000000   0.000000   0.000000   0.000000   0.000000
     2  H    0.000000   0.000000   0.000000   0.000000   0.000000   0.000000
     3  H    0.000000   0.000000   0.000000   0.000000   0.000000   0.000000
     4  H    0.000000   0.000000   0.000000   0.000000   0.000000   0.000000
     5  C    0.000000   0.000000   0.000000   0.000000   0.000000   0.000000
     6  C    0.000000   0.000000   0.000000   0.000000   0.000000   0.000000
     7  H    0.000000   0.000000   0.000000   0.000000   0.000000   0.000000
     8  H    0.000000   0.000000   0.000000   0.000000   0.000000   0.000000
     9  C    0.000000   0.000000   0.000000   0.000000   0.000000   0.000000
    10  H    0.000000   0.000000   0.000000   0.000000   0.000000   0.000000
    11  H    0.000000   0.000000   0.000000   0.000000   0.000000   0.000000
    12  H    0.000000   0.000000   0.000000   0.000000   0.000000   0.000000
    13  C    4.523775   0.000000   0.000000   0.000000   0.000000   0.000000
    14  H    0.000000   0.846907   0.000000   0.000000   0.000000   0.000000
    15  H    0.000000   0.000000   0.848728   0.000000   0.000000   0.000000
    16  H    0.000000   0.000000   0.000000   0.849083   0.000000   0.000000
    17  C    0.000000   0.000000   0.000000   0.000000   4.523889   0.000000
    18  H    0.000000   0.000000   0.000000   0.000000   0.000000   0.849039
    19  H    0.000000   0.000000   0.000000   0.000000   0.000000   0.000000
    20  H    0.000000   0.000000   0.000000   0.000000   0.000000   0.000000
             19         20
     1  C    0.000000   0.000000
     2  H    0.000000   0.000000
     3  H    0.000000   0.000000
     4  H    0.000000   0.000000
     5  C    0.000000   0.000000
     6  C    0.000000   0.000000
     7  H    0.000000   0.000000
     8  H    0.000000   0.000000
     9  C    0.000000   0.000000
    10  H    0.000000   0.000000
    11  H    0.000000   0.000000
    12  H    0.000000   0.000000
    13  C    0.000000   0.000000
    14  H    0.000000   0.000000
    15  H    0.000000   0.000000
    16  H    0.000000   0.000000
    17  C    0.000000   0.000000
    18  H    0.000000   0.000000
    19  H    0.848745   0.000000
    20  H    0.000000   0.847052
 Mulliken atomic charges:
              1
     1  C   -0.534305
     2  H    0.151715
     3  H    0.151719
     4  H    0.154005
     5  C    0.262849
     6  C   -0.297101
     7  H    0.132027
     8  H    0.132026
     9  C   -0.445482
    10  H    0.145372
    11  H    0.139124
    12  H    0.145268
    13  C   -0.523775
    14  H    0.153093
    15  H    0.151272
    16  H    0.150917
    17  C   -0.523889
    18  H    0.150961
    19  H    0.151255
    20  H    0.152948
 Sum of Mulliken atomic charges =   0.00000
 Mulliken charges with hydrogens summed into heavy atoms:
              1
     1  C   -0.076865
     5  C    0.262849
     6  C   -0.033049
     9  C   -0.015718
    13  C   -0.068493
    17  C   -0.068724
 Sum of Mulliken charges with hydrogens summed into heavy atoms =   0.00000
 Charge=              0.0000 electrons
 Dipole moment (field-independent basis, Debye):
    X=              0.0094    Y=              0.0267    Z=             -0.0010  Tot=              0.0283
 N-N= 1.705129325731D+02 E-N=-2.620645321992D+02  KE=-5.633795412132D+01
 Leave Link  601 at Mon Sep 14 19:12:33 2015, MaxMem=  402653184 cpu:       0.1
 (Enter /share/apps/g09/l701.exe)
 Compute integral first derivatives.
 ... and contract with generalized density number  0.
 Leave Link  701 at Mon Sep 14 19:12:33 2015, MaxMem=  402653184 cpu:       0.2
 (Enter /share/apps/g09/l702.exe)
 L702 exits ... SP integral derivatives will be done elsewhere.
 Leave Link  702 at Mon Sep 14 19:12:33 2015, MaxMem=  402653184 cpu:       0.0
 (Enter /share/apps/g09/l703.exe)
 Compute integral first derivatives, UseDBF=F ICtDFT=           0.
 Integral derivatives from FoFDir, PRISM(SPDF).
 Calling FoFJK, ICntrl=      2127 FMM=F ISym2X=0 I1Cent= 0 IOpClX= 0 NMat=1 NMatS=1 NMatT=0.
 FoFCou: FMM=F IPFlag=           0 FMFlag=      100000 FMFlg1=         800
         NFxFlg=           0 DoJE=F BraDBF=F KetDBF=F FulRan=T
         Omega=  0.000000  0.000000  1.000000  0.000000  0.000000 ICntrl=    2127 IOpCl=  0
         NMat0=    1 NMatS0=    1 NMatT0=    0 NMatD0=    1 NMtDS0=    0 NMtDT0=    0
         I1Cent=           0 NGrid=           0.
 Symmetry not used in FoFCou.
 Leave Link  703 at Mon Sep 14 19:12:35 2015, MaxMem=  402653184 cpu:       0.0
 (Enter /share/apps/g09/l716.exe)
 Dipole        = 3.70512131D-03 1.05061117D-02-4.04301139D-04
 ***** Axes restored to original set *****
 -------------------------------------------------------------------
 Center     Atomic                   Forces (Hartrees/Bohr)
 Number     Number              X              Y              Z
 -------------------------------------------------------------------
      1        6           0.003097182    0.004816168   -0.003370069
      2        1          -0.000076332   -0.009686580   -0.005587637
      3        1           0.003714494   -0.000847882    0.010498276
      4        1          -0.009363658    0.006329090   -0.001261822
      5        6          -0.000177176   -0.002517706    0.001445430
      6        6          -0.002509127    0.000511490    0.000308009
      7        1           0.003658246    0.000718762    0.003650680
      8        1           0.001902263   -0.003242654   -0.003557924
      9        6           0.000520346   -0.001873323    0.000888253
     10        1          -0.002009524   -0.000515885   -0.009681471
     11        1           0.005554932   -0.007375418    0.002524857
     12        1           0.001608434    0.007658523    0.006144175
     13        6          -0.001740789   -0.003046985   -0.001603467
     14        1           0.006631513    0.005887537   -0.005828005
     15        1           0.003046183   -0.002642043    0.010490759
     16        1          -0.010107156    0.004574229   -0.000805976
     17        6          -0.000453542    0.000012402    0.003825157
     18        1          -0.009802753    0.005145713    0.000205589
     19        1          -0.000419258   -0.010573301   -0.003900125
     20        1           0.006925723    0.006667864   -0.004384690
 -------------------------------------------------------------------
 Cartesian Forces:  Max     0.010573301 RMS     0.005065299
 Leave Link  716 at Mon Sep 14 19:12:37 2015, MaxMem=  402653184 cpu:       0.1
 (Enter /share/apps/g09/l103.exe)

 GradGradGradGradGradGradGradGradGradGradGradGradGradGradGradGradGradGrad
 Berny optimization.
 Internal  Forces:  Max     0.011324093 RMS     0.004245778
 Search for a local minimum.
 Step number   1 out of a maximum of  110
 All quantities printed in internal units (Hartrees-Bohrs-Radians)
 RMS Force = .42458D-02 SwitMx=.10000D-02 MixMth= 1
 Mixed Optimization -- RFO/linear search
 Second derivative matrix not updated -- first step.
     Eigenvalues ---    0.00230   0.00230   0.00230   0.00230   0.00338
     Eigenvalues ---    0.03111   0.04277   0.04696   0.04882   0.05074
     Eigenvalues ---    0.05426   0.05433   0.05443   0.05453   0.05461
     Eigenvalues ---    0.05480   0.05480   0.05755   0.08994   0.12670
     Eigenvalues ---    0.14242   0.14503   0.16000   0.16000   0.16000
     Eigenvalues ---    0.16000   0.16000   0.16000   0.16000   0.16000
     Eigenvalues ---    0.16000   0.16000   0.16000   0.16000   0.22024
     Eigenvalues ---    0.27019   0.27948   0.28072   0.28088   0.29206
     Eigenvalues ---    0.32015   0.32020   0.32107   0.32109   0.32111
     Eigenvalues ---    0.32115   0.32117   0.32133   0.32144   0.32207
     Eigenvalues ---    0.32248   0.32263   0.32343   0.323591000.00000
     Eigenvalues --- 1000.000001000.000001000.000001000.000001000.00000
     Eigenvalues --- 1000.000001000.000001000.000001000.000001000.00000
     Eigenvalues --- 1000.000001000.000001000.000001000.000001000.00000
     Eigenvalues --- 1000.000001000.000001000.000001000.000001000.00000
     Eigenvalues --- 1000.000001000.000001000.000001000.000001000.00000
     Eigenvalues --- 1000.000001000.000001000.000001000.000001000.00000
     Eigenvalues --- 1000.000001000.000001000.000001000.000001000.00000
     Eigenvalues --- 1000.000001000.000001000.000001000.000001000.00000
     Eigenvalues --- 1000.000001000.000001000.000001000.000001000.00000
 RFO step:  Lambda=-6.47418693D-03 EMin= 2.30000000D-03
 Linear search not attempted -- first point.
 Iteration  1 RMS(Cart)=  0.04779146 RMS(Int)=  0.00067476
 Iteration  2 RMS(Cart)=  0.00086620 RMS(Int)=  0.00016311
 Iteration  3 RMS(Cart)=  0.00000071 RMS(Int)=  0.00016311
 Variable       Old X    -DE/DX   Delta X   Delta X   Delta X     New X
                                 (Linear)    (Quad)   (Total)
    R1        2.10641  -0.01107   0.00000  -0.03379  -0.03379   2.07262
    R2        2.10634  -0.01105   0.00000  -0.03374  -0.03374   2.07260
    R3        2.10648  -0.01132   0.00000  -0.03457  -0.03457   2.07191
    R4        2.92252  -0.00174   0.00000  -0.00610  -0.00610   2.91642
    R5        2.94334  -0.00957   0.00000  -0.03457  -0.03457   2.90877
    R6        2.91946  -0.00508   0.00000  -0.01769  -0.01769   2.90177
    R7        2.91982  -0.00518   0.00000  -0.01804  -0.01804   2.90178
    R8        2.10817  -0.00412   0.00000  -0.01262  -0.01262   2.09555
    R9        2.10807  -0.00415   0.00000  -0.01271  -0.01271   2.09537
   R10        2.89574  -0.00392   0.00000  -0.01313  -0.01313   2.88261
   R11        2.10193  -0.00968   0.00000  -0.02933  -0.02933   2.07259
   R12        2.10468  -0.00925   0.00000  -0.02815  -0.02815   2.07653
   R13        2.10221  -0.00970   0.00000  -0.02942  -0.02942   2.07280
   R14        2.10392  -0.01057   0.00000  -0.03213  -0.03213   2.07179
   R15        2.10582  -0.01113   0.00000  -0.03395  -0.03395   2.07187
   R16        2.10644  -0.01107   0.00000  -0.03379  -0.03379   2.07265
   R17        2.10630  -0.01102   0.00000  -0.03363  -0.03363   2.07267
   R18        2.10601  -0.01117   0.00000  -0.03409  -0.03409   2.07192
   R19        2.10365  -0.01053   0.00000  -0.03199  -0.03199   2.07167
    A1        1.88725  -0.00161   0.00000  -0.00773  -0.00782   1.87944
    A2        1.88428  -0.00142   0.00000  -0.00948  -0.00949   1.87479
    A3        1.93394   0.00177   0.00000   0.01112   0.01107   1.94502
    A4        1.88416  -0.00141   0.00000  -0.00946  -0.00947   1.87469
    A5        1.93416   0.00174   0.00000   0.01096   0.01091   1.94507
    A6        1.93810   0.00071   0.00000   0.00329   0.00328   1.94137
    A7        1.88551   0.00024   0.00000   0.00231   0.00251   1.88803
    A8        1.89008   0.00073   0.00000   0.01638   0.01629   1.90637
    A9        1.88947   0.00080   0.00000   0.01676   0.01668   1.90616
   A10        1.94391  -0.00103   0.00000  -0.01772  -0.01781   1.92610
   A11        1.94378  -0.00110   0.00000  -0.01821  -0.01830   1.92548
   A12        1.90937   0.00045   0.00000   0.00251   0.00200   1.91138
   A13        1.90441   0.00118   0.00000  -0.00501  -0.00460   1.89981
   A14        1.90391   0.00126   0.00000  -0.00507  -0.00470   1.89921
   A15        2.04216  -0.00979   0.00000  -0.04299  -0.04280   1.99936
   A16        1.86794  -0.00213   0.00000  -0.00835  -0.00905   1.85890
   A17        1.86800   0.00506   0.00000   0.03304   0.03263   1.90063
   A18        1.86995   0.00492   0.00000   0.03135   0.03091   1.90086
   A19        1.94007   0.00112   0.00000   0.00417   0.00410   1.94416
   A20        1.90436   0.00339   0.00000   0.02521   0.02503   1.92939
   A21        1.93799   0.00137   0.00000   0.00584   0.00575   1.94374
   A22        1.88458  -0.00174   0.00000  -0.00591  -0.00606   1.87852
   A23        1.91046  -0.00248   0.00000  -0.02379  -0.02377   1.88669
   A24        1.88475  -0.00181   0.00000  -0.00590  -0.00608   1.87867
   A25        1.94024   0.00025   0.00000   0.00077   0.00076   1.94100
   A26        1.93149   0.00174   0.00000   0.00979   0.00976   1.94125
   A27        1.93336   0.00124   0.00000   0.00883   0.00879   1.94215
   A28        1.89164  -0.00139   0.00000  -0.01098  -0.01098   1.88066
   A29        1.87656  -0.00063   0.00000  -0.00250  -0.00251   1.87405
   A30        1.88865  -0.00138   0.00000  -0.00686  -0.00692   1.88173
   A31        1.93311   0.00125   0.00000   0.00900   0.00896   1.94208
   A32        1.93159   0.00174   0.00000   0.00980   0.00977   1.94136
   A33        1.94119   0.00013   0.00000  -0.00002  -0.00002   1.94117
   A34        1.88838  -0.00137   0.00000  -0.00664  -0.00670   1.88168
   A35        1.87622  -0.00057   0.00000  -0.00219  -0.00220   1.87402
   A36        1.89141  -0.00134   0.00000  -0.01089  -0.01088   1.88053
    D1        1.04686   0.00013   0.00000   0.00207   0.00209   1.04895
    D2       -3.12875  -0.00054   0.00000  -0.00844  -0.00846  -3.13721
    D3       -1.06021   0.00085   0.00000   0.01295   0.01301  -1.04720
    D4       -1.04830  -0.00017   0.00000  -0.00277  -0.00279  -1.05109
    D5        1.05928  -0.00084   0.00000  -0.01328  -0.01334   1.04594
    D6        3.12782   0.00055   0.00000   0.00811   0.00813   3.13594
    D7        3.14088  -0.00002   0.00000  -0.00031  -0.00031   3.14057
    D8       -1.03473  -0.00069   0.00000  -0.01082  -0.01086  -1.04558
    D9        1.03381   0.00070   0.00000   0.01057   0.01061   1.04442
   D10        1.00811  -0.00061   0.00000  -0.00675  -0.00688   1.00123
   D11       -1.02701   0.00057   0.00000   0.00891   0.00904  -1.01797
   D12        3.13105   0.00004   0.00000   0.00226   0.00225   3.13330
   D13       -1.06553  -0.00106   0.00000  -0.01784  -0.01787  -1.08340
   D14       -3.10065   0.00012   0.00000  -0.00218  -0.00195  -3.10260
   D15        1.05741  -0.00041   0.00000  -0.00883  -0.00874   1.04867
   D16        3.08093  -0.00013   0.00000   0.00453   0.00430   3.08524
   D17        1.04581   0.00106   0.00000   0.02019   0.02022   1.06604
   D18       -1.07932   0.00053   0.00000   0.01353   0.01343  -1.06588
   D19        3.05167   0.00076   0.00000   0.02064   0.02069   3.07236
   D20       -1.12843   0.00035   0.00000   0.01386   0.01388  -1.11455
   D21        0.96633   0.00057   0.00000   0.01746   0.01751   0.98385
   D22       -1.16060   0.00092   0.00000   0.02327   0.02326  -1.13734
   D23        0.94248   0.00050   0.00000   0.01649   0.01646   0.95893
   D24        3.03724   0.00072   0.00000   0.02009   0.02009   3.05733
   D25        0.99581  -0.00087   0.00000  -0.01022  -0.01024   0.98558
   D26        3.09889  -0.00128   0.00000  -0.01700  -0.01704   3.08185
   D27       -1.08952  -0.00106   0.00000  -0.01340  -0.01341  -1.10293
   D28       -0.97035  -0.00057   0.00000  -0.01764  -0.01770  -0.98804
   D29        1.12400  -0.00032   0.00000  -0.01365  -0.01367   1.11032
   D30       -3.05571  -0.00076   0.00000  -0.02082  -0.02087  -3.07657
   D31       -3.04080  -0.00072   0.00000  -0.02023  -0.02022  -3.06102
   D32       -0.94646  -0.00047   0.00000  -0.01624  -0.01620  -0.96265
   D33        1.15703  -0.00091   0.00000  -0.02341  -0.02339   1.13364
   D34        1.08589   0.00102   0.00000   0.01298   0.01298   1.09887
   D35       -3.10295   0.00127   0.00000   0.01697   0.01700  -3.08595
   D36       -0.99947   0.00083   0.00000   0.00980   0.00981  -0.98966
   D37        1.05126  -0.00070   0.00000  -0.01124  -0.01128   1.03998
   D38        3.12772  -0.00002   0.00000   0.00000   0.00000   3.12772
   D39       -1.08006   0.00073   0.00000   0.01219   0.01225  -1.06781
   D40       -3.09010  -0.00185   0.00000  -0.02106  -0.02148  -3.11158
   D41       -1.01364  -0.00117   0.00000  -0.00982  -0.01020  -1.02384
   D42        1.06176  -0.00042   0.00000   0.00237   0.00205   1.06381
   D43       -1.09147   0.00047   0.00000   0.00010   0.00043  -1.09104
   D44        0.98499   0.00115   0.00000   0.01135   0.01171   0.99670
   D45        3.06040   0.00190   0.00000   0.02354   0.02396   3.08436
         Item               Value     Threshold  Converged?
 Maximum Force            0.011324     0.000450     NO 
 RMS     Force            0.004246     0.000300     NO 
 Maximum Displacement     0.166594     0.001800     NO 
 RMS     Displacement     0.047796     0.001200     NO 
 Predicted change in Energy=-3.345142D-03
 GradGradGradGradGradGradGradGradGradGradGradGradGradGradGradGradGradGrad

 Leave Link  103 at Mon Sep 14 19:12:38 2015, MaxMem=  402653184 cpu:       0.1
 (Enter /share/apps/g09/l202.exe)
                          Input orientation:                          
 ---------------------------------------------------------------------
 Center     Atomic      Atomic             Coordinates (Angstroms)
 Number     Number       Type             X           Y           Z
 ---------------------------------------------------------------------
      1          6           0        1.559117    0.746940   -0.801393
      2          1           0        1.707513    1.734145   -0.347144
      3          1           0        1.349295    0.898734   -1.867153
      4          1           0        2.509764    0.205651   -0.728016
      5          6           0        0.419571   -0.028142   -0.106795
      6          6           0       -0.875482    0.791364   -0.250148
      7          1           0       -1.072830    0.963997   -1.327621
      8          1           0       -0.719015    1.790077    0.205452
      9          6           0       -2.106154    0.147542    0.380587
     10          1           0       -1.966171   -0.014008    1.456324
     11          1           0       -2.986907    0.792042    0.252646
     12          1           0       -2.332551   -0.820546   -0.082760
     13          6           0        0.260060   -1.400702   -0.776539
     14          1           0       -0.495022   -2.007346   -0.262915
     15          1           0       -0.049115   -1.298022   -1.823405
     16          1           0        1.200836   -1.964237   -0.758222
     17          6           0        0.768725   -0.218591    1.376363
     18          1           0        1.731542   -0.730116    1.496011
     19          1           0        0.833915    0.744764    1.895801
     20          1           0        0.010909   -0.823445    1.887926
 ---------------------------------------------------------------------
                    Distance matrix (angstroms):
                    1          2          3          4          5
     1  C    0.000000
     2  H    1.096785   0.000000
     3  H    1.096773   1.771061   0.000000
     4  H    1.096407   1.767756   1.767677   0.000000
     5  C    1.543303   2.195955   2.195984   2.193053   0.000000
     6  C    2.496621   2.751383   2.752430   3.468617   1.539254
     7  H    2.692800   3.047092   2.482347   3.710740   2.168414
     8  H    2.700324   2.489283   3.060733   3.715747   2.167901
     9  C    3.897507   4.194157   4.190078   4.747533   2.578311
    10  H    4.254877   4.450223   4.782354   4.985337   2.852245
    11  H    4.666837   4.825442   4.827793   5.614173   3.522214
    12  H    4.256586   4.787323   4.438014   4.991738   2.864028
    13  C    2.510087   3.479478   2.768263   2.764759   1.535552
    14  H    3.477864   4.342466   3.797418   3.760640   2.185887
    15  H    2.795136   3.802515   2.604458   3.163664   2.186094
    16  H    2.735089   3.755494   3.073820   2.534289   2.187052
    17  C    2.509899   2.768569   3.479349   2.763984   1.535558
    18  H    2.736693   3.077398   3.756346   2.535269   2.187013
    19  H    2.792987   2.602470   3.801203   3.159672   2.186197
    20  H    3.477857   3.796744   4.342556   3.761178   2.185960
                    6          7          8          9         10
     6  C    0.000000
     7  H    1.108917   0.000000
     8  H    1.108819   1.777049   0.000000
     9  C    1.525413   2.156926   2.157023   0.000000
    10  H    2.179512   3.083002   2.524837   1.096769   0.000000
    11  H    2.170465   2.488072   2.478233   1.098852   1.772134
    12  H    2.179293   2.514193   3.082518   1.096878   1.775815
    13  C    2.524222   2.769854   3.479075   3.055318   3.444517
    14  H    2.824481   3.208792   3.832748   2.766475   3.015536
    15  H    2.742909   2.531902   3.755180   3.343448   4.010039
    16  H    3.487489   3.750778   4.325433   4.085668   4.328688
    17  C    2.523681   3.478703   2.760281   3.064401   2.743703
    18  H    3.487198   4.325208   3.744615   4.091743   3.766626
    19  H    2.743959   3.751559   2.522211   3.361035   2.934171
    20  H    2.822172   3.835255   3.192805   2.774318   2.179522
                   11         12         13         14         15
    11  H    0.000000
    12  H    1.772320   0.000000
    13  C    4.050943   2.745822   0.000000
    14  H    3.783103   2.194872   1.096346   0.000000
    15  H    4.160406   2.910654   1.096385   1.771186   0.000000
    16  H    5.114306   3.774798   1.096799   1.767236   1.772240
    17  C    4.048320   3.479843   2.508210   2.735679   3.474557
    18  H    5.111427   4.360912   2.789163   3.111709   3.809433
    19  H    4.159433   4.048631   3.474728   3.741690   4.334191
    20  H    3.777676   3.061930   2.737640   2.506732   3.742031
                   16         17         18         19         20
    16  H    0.000000
    17  C    2.791139   0.000000
    18  H    2.624171   1.096809   0.000000
    19  H    3.810139   1.096412   1.772241   0.000000
    20  H    3.117600   1.096280   1.767169   1.771068   0.000000
 Stoichiometry    C6H14
 Framework group  C1[X(C6H14)]
 Deg. of freedom    54
 Full point group                 C1      NOp   1
 Largest Abelian subgroup         C1      NOp   1
 Largest concise Abelian subgroup C1      NOp   1
                         Standard orientation:                         
 ---------------------------------------------------------------------
 Center     Atomic      Atomic             Coordinates (Angstroms)
 Number     Number       Type             X           Y           Z
 ---------------------------------------------------------------------
      1          6           0        1.648715    0.946059   -0.021078
      2          1           0        1.656424    1.608184    0.853260
      3          1           0        1.649446    1.577949   -0.917529
      4          1           0        2.589942    0.383774   -0.015258
      5          6           0        0.431144   -0.002024   -0.000049
      6          6           0       -0.846273    0.856721   -0.008087
      7          1           0       -0.831976    1.511841   -0.902688
      8          1           0       -0.831479    1.528045    0.874288
      9          6           0       -2.146445    0.058986   -0.000626
     10          1           0       -2.217058   -0.582602    0.886099
     11          1           0       -3.013230    0.734336    0.007324
     12          1           0       -2.229571   -0.578070   -0.889666
     13          6           0        0.473877   -0.907545   -1.239455
     14          1           0       -0.339189   -1.642790   -1.221759
     15          1           0        0.375916   -0.322895   -2.161761
     16          1           0        1.417512   -1.463962   -1.293499
     17          6           0        0.485082   -0.865802    1.268382
     18          1           0        1.427555   -1.423382    1.330339
     19          1           0        0.399445   -0.250421    2.171760
     20          1           0       -0.330332   -1.598378    1.284564
 ---------------------------------------------------------------------
 Rotational constants (GHZ):      4.2874031      2.5237236      2.5154969
 Leave Link  202 at Mon Sep 14 19:12:39 2015, MaxMem=  402653184 cpu:       0.0
 (Enter /share/apps/g09/l301.exe)
 Standard basis: VSTO-6G (5D, 7F)
 Ernie: Thresh=  0.10000D-02 Tol=  0.10000D-05 Strict=F.
  NNHCO=     0 NNPyr=     0 NCTC=     0               EPep=         0.000000000
    EC=       134.287361953  ECS=         3.253836269   EG=         0.304729769
   EHC=         0.000473815  EAt=       -31.187935768  AtH=         2.796400831
 EPDDG=         0.000000000  ECC=       137.846401806 EAtT=        33.984336599
 There are    38 symmetry adapted basis functions of A   symmetry.
 Integral buffers will be    131072 words long.
 Regular integral format.
 Two-electron integral symmetry is turned off.
    38 basis functions,   228 primitive gaussians,    38 cartesian basis functions
    19 alpha electrons       19 beta electrons
       nuclear repulsion energy       171.8307384048 Hartrees.
 IExCor=    0 DFT=F Ex=HF Corr=None ExCW=0 ScaHFX=  1.000000
 ScaDFX=  1.000000  1.000000  1.000000  1.000000 ScalE2=  1.000000  1.000000
 IRadAn=      0 IRanWt=     -1 IRanGd=            0 ICorTp=0
 Leave Link  301 at Mon Sep 14 19:12:39 2015, MaxMem=  402653184 cpu:       0.1
 (Enter /share/apps/g09/l302.exe)
 Do NDO integrals.
 NPDir=0 NMtPBC=     1 NCelOv=     1 NCel=       1 NClECP=     1 NCelD=      1
         NCelK=      1 NCelE2=     1 NClLst=     1 CellRange=     0.0.
 One-electron integrals computed using PRISM.
 NBasis=    38 RedAO= F  NBF=    38
 NBsUse=    38 1.00D-04 NBFU=    38
 Leave Link  302 at Mon Sep 14 19:12:40 2015, MaxMem=  402653184 cpu:       0.2
 (Enter /share/apps/g09/l303.exe)
 DipDrv:  MaxL=1.
 Leave Link  303 at Mon Sep 14 19:12:40 2015, MaxMem=  402653184 cpu:       0.1
 (Enter /share/apps/g09/l401.exe)
 Initial guess read from the read-write file.
 B after Tr=     0.000000    0.000000    0.000000
         Rot=    1.000000    0.000000    0.000000    0.000000 Ang=   0.00 deg.
 Guess basis will be translated and rotated to current coordinates.
 Initial guess orbital symmetries:
       Occupied  (A) (A) (A) (A) (A) (A) (A) (A) (A) (A) (A) (A)
                 (A) (A) (A) (A) (A) (A) (A)
       Virtual   (A) (A) (A) (A) (A) (A) (A) (A) (A) (A) (A) (A)
                 (A) (A) (A) (A) (A) (A) (A)
 The electronic state of the initial guess is 1-A.
 Leave Link  401 at Mon Sep 14 19:12:40 2015, MaxMem=  402653184 cpu:       0.2
 (Enter /share/apps/g09/l502.exe)
 Closed shell SCF:
 Requested convergence on RMS density matrix=1.00D-08 within 128 cycles.
 Requested convergence on MAX density matrix=1.00D-06.
 Requested convergence on             energy=1.00D-06.
 No special actions if energy rises.
 Using DIIS extrapolation, IDIIS=  1040.
 Overlap will be assumed to be unity.
 Two-electron integral symmetry not used.
 Keep J ints in memory in canonical form, NReq=884654.
 IEnd=       81865 IEndB=       81865 NGot=   402653184 MDV=   402586639
 LenX=   402586639 LenY=   402584754
 Symmetry not used in FoFDir.
 MinBra= 0 MaxBra= 1 Meth=40.
 IRaf=       0 NMat=   1 IRICut=       1 DoRegI=T DoRafI=F ISym2E= 0 JSym2E=0.

 Cycle   1  Pass 1  IDiag  1:
 E=-0.525219609689316E-01
 DIIS: error= 7.08D-03 at cycle   1 NSaved=   1.
 NSaved= 1 IEnMin= 1 EnMin=-0.525219609689316E-01 IErMin= 1 ErrMin= 7.08D-03
 ErrMax= 7.08D-03 EMaxC= 1.00D-01 BMatC= 1.71D-03 BMatP= 1.71D-03
 IDIUse=3 WtCom= 9.29D-01 WtEn= 7.08D-02
 Coeff-Com:  0.100D+01
 Coeff-En:   0.100D+01
 Coeff:      0.100D+01
 GapD=    2.000 DampG=2.000 DampE=1.000 DampFc=2.0000 IDamp=-1.
 RMSDP=2.01D-03 MaxDP=1.50D-02              OVMax= 0.00D+00

 Cycle   2  Pass 1  IDiag  3:
 E=-0.587361063720664E-01 Delta-E=       -0.006214145403 Rises=F Damp=F
 DIIS: error= 3.13D-03 at cycle   2 NSaved=   2.
 NSaved= 2 IEnMin= 2 EnMin=-0.587361063720664E-01 IErMin= 2 ErrMin= 3.13D-03
 ErrMax= 3.13D-03 EMaxC= 1.00D-01 BMatC= 2.86D-04 BMatP= 1.71D-03
 IDIUse=3 WtCom= 9.69D-01 WtEn= 3.13D-02
 Coeff-Com: -0.630D+00 0.163D+01
 Coeff-En:   0.000D+00 0.100D+01
 Coeff:     -0.610D+00 0.161D+01
 Gap=     0.557 Goal=   None    Shift=    0.000
 RMSDP=1.40D-03 MaxDP=1.07D-02 DE=-6.21D-03 OVMax= 0.00D+00

 Cycle   3  Pass 1  IDiag  3:
 E=-0.601228241126535E-01 Delta-E=       -0.001386717741 Rises=F Damp=F
 DIIS: error= 3.78D-04 at cycle   3 NSaved=   3.
 NSaved= 3 IEnMin= 3 EnMin=-0.601228241126535E-01 IErMin= 3 ErrMin= 3.78D-04
 ErrMax= 3.78D-04 EMaxC= 1.00D-01 BMatC= 4.37D-06 BMatP= 2.86D-04
 IDIUse=3 WtCom= 9.96D-01 WtEn= 3.78D-03
 Coeff-Com:  0.217D+00-0.641D+00 0.142D+01
 Coeff-En:   0.000D+00 0.000D+00 0.100D+01
 Coeff:      0.216D+00-0.638D+00 0.142D+01
 Gap=     0.557 Goal=   None    Shift=    0.000
 RMSDP=1.90D-04 MaxDP=1.44D-03 DE=-1.39D-03 OVMax= 0.00D+00

 Cycle   4  Pass 1  IDiag  3:
 E=-0.601446764022739E-01 Delta-E=       -0.000021852290 Rises=F Damp=F
 DIIS: error= 3.25D-05 at cycle   4 NSaved=   4.
 NSaved= 4 IEnMin= 4 EnMin=-0.601446764022739E-01 IErMin= 4 ErrMin= 3.25D-05
 ErrMax= 3.25D-05 EMaxC= 1.00D-01 BMatC= 6.81D-08 BMatP= 4.37D-06
 IDIUse=1 WtCom= 1.00D+00 WtEn= 0.00D+00
 Coeff-Com: -0.843D-01 0.251D+00-0.594D+00 0.143D+01
 Coeff:     -0.843D-01 0.251D+00-0.594D+00 0.143D+01
 Gap=     0.557 Goal=   None    Shift=    0.000
 RMSDP=2.12D-05 MaxDP=1.44D-04 DE=-2.19D-05 OVMax= 0.00D+00

 Cycle   5  Pass 1  IDiag  3:
 E=-0.601450460135595E-01 Delta-E=       -0.000000369611 Rises=F Damp=F
 DIIS: error= 1.22D-05 at cycle   5 NSaved=   5.
 NSaved= 5 IEnMin= 5 EnMin=-0.601450460135595E-01 IErMin= 5 ErrMin= 1.22D-05
 ErrMax= 1.22D-05 EMaxC= 1.00D-01 BMatC= 7.74D-09 BMatP= 6.81D-08
 IDIUse=1 WtCom= 1.00D+00 WtEn= 0.00D+00
 Coeff-Com:  0.483D-01-0.144D+00 0.344D+00-0.101D+01 0.176D+01
 Coeff:      0.483D-01-0.144D+00 0.344D+00-0.101D+01 0.176D+01
 Gap=     0.557 Goal=   None    Shift=    0.000
 RMSDP=9.90D-06 MaxDP=9.32D-05 DE=-3.70D-07 OVMax= 0.00D+00

 Cycle   6  Pass 1  IDiag  3:
 E=-0.601451041405028E-01 Delta-E=       -0.000000058127 Rises=F Damp=F
 DIIS: error= 3.66D-06 at cycle   6 NSaved=   6.
 NSaved= 6 IEnMin= 6 EnMin=-0.601451041405028E-01 IErMin= 6 ErrMin= 3.66D-06
 ErrMax= 3.66D-06 EMaxC= 1.00D-01 BMatC= 8.76D-10 BMatP= 7.74D-09
 IDIUse=1 WtCom= 1.00D+00 WtEn= 0.00D+00
 Coeff-Com: -0.261D-01 0.777D-01-0.187D+00 0.571D+00-0.125D+01 0.182D+01
 Coeff:     -0.261D-01 0.777D-01-0.187D+00 0.571D+00-0.125D+01 0.182D+01
 Gap=     0.557 Goal=   None    Shift=    0.000
 RMSDP=4.00D-06 MaxDP=4.56D-05 DE=-5.81D-08 OVMax= 0.00D+00

 Cycle   7  Pass 1  IDiag  3:
 E=-0.601451115723251E-01 Delta-E=       -0.000000007432 Rises=F Damp=F
 DIIS: error= 1.09D-06 at cycle   7 NSaved=   7.
 NSaved= 7 IEnMin= 7 EnMin=-0.601451115723251E-01 IErMin= 7 ErrMin= 1.09D-06
 ErrMax= 1.09D-06 EMaxC= 1.00D-01 BMatC= 7.28D-11 BMatP= 8.76D-10
 IDIUse=1 WtCom= 1.00D+00 WtEn= 0.00D+00
 Coeff-Com:  0.895D-02-0.266D-01 0.640D-01-0.197D+00 0.469D+00-0.911D+00
 Coeff-Com:  0.159D+01
 Coeff:      0.895D-02-0.266D-01 0.640D-01-0.197D+00 0.469D+00-0.911D+00
 Coeff:      0.159D+01
 Gap=     0.557 Goal=   None    Shift=    0.000
 RMSDP=1.08D-06 MaxDP=1.20D-05 DE=-7.43D-09 OVMax= 0.00D+00

 Cycle   8  Pass 1  IDiag  3:
 E=-0.601451121503089E-01 Delta-E=       -0.000000000578 Rises=F Damp=F
 DIIS: error= 3.31D-07 at cycle   8 NSaved=   8.
 NSaved= 8 IEnMin= 8 EnMin=-0.601451121503089E-01 IErMin= 8 ErrMin= 3.31D-07
 ErrMax= 3.31D-07 EMaxC= 1.00D-01 BMatC= 6.11D-12 BMatP= 7.28D-11
 IDIUse=1 WtCom= 1.00D+00 WtEn= 0.00D+00
 Coeff-Com: -0.166D-02 0.492D-02-0.119D-01 0.373D-01-0.994D-01 0.242D+00
 Coeff-Com: -0.705D+00 0.153D+01
 Coeff:     -0.166D-02 0.492D-02-0.119D-01 0.373D-01-0.994D-01 0.242D+00
 Coeff:     -0.705D+00 0.153D+01
 Gap=     0.557 Goal=   None    Shift=    0.000
 RMSDP=3.08D-07 MaxDP=3.07D-06 DE=-5.78D-10 OVMax= 0.00D+00

 Cycle   9  Pass 1  IDiag  3:
 E=-0.601451121970911E-01 Delta-E=       -0.000000000047 Rises=F Damp=F
 DIIS: error= 1.16D-07 at cycle   9 NSaved=   9.
 NSaved= 9 IEnMin= 9 EnMin=-0.601451121970911E-01 IErMin= 9 ErrMin= 1.16D-07
 ErrMax= 1.16D-07 EMaxC= 1.00D-01 BMatC= 6.43D-13 BMatP= 6.11D-12
 IDIUse=1 WtCom= 1.00D+00 WtEn= 0.00D+00
 Coeff-Com:  0.429D-03-0.127D-02 0.308D-02-0.101D-01 0.314D-01-0.923D-01
 Coeff-Com:  0.355D+00-0.105D+01 0.176D+01
 Coeff:      0.429D-03-0.127D-02 0.308D-02-0.101D-01 0.314D-01-0.923D-01
 Coeff:      0.355D+00-0.105D+01 0.176D+01
 Gap=     0.557 Goal=   None    Shift=    0.000
 RMSDP=9.49D-08 MaxDP=1.17D-06 DE=-4.68D-11 OVMax= 0.00D+00

 Cycle  10  Pass 1  IDiag  3:
 E=-0.601451122020364E-01 Delta-E=       -0.000000000005 Rises=F Damp=F
 DIIS: error= 4.01D-08 at cycle  10 NSaved=  10.
 NSaved=10 IEnMin=10 EnMin=-0.601451122020364E-01 IErMin=10 ErrMin= 4.01D-08
 ErrMax= 4.01D-08 EMaxC= 1.00D-01 BMatC= 5.34D-14 BMatP= 6.43D-13
 IDIUse=1 WtCom= 1.00D+00 WtEn= 0.00D+00
 Coeff-Com: -0.445D-04 0.129D-03-0.325D-03 0.131D-02-0.641D-02 0.259D-01
 Coeff-Com: -0.128D+00 0.431D+00-0.985D+00 0.166D+01
 Coeff:     -0.445D-04 0.129D-03-0.325D-03 0.131D-02-0.641D-02 0.259D-01
 Coeff:     -0.128D+00 0.431D+00-0.985D+00 0.166D+01
 Gap=     0.557 Goal=   None    Shift=    0.000
 RMSDP=3.00D-08 MaxDP=3.76D-07 DE=-4.95D-12 OVMax= 0.00D+00

 Cycle  11  Pass 1  IDiag  3:
 E=-0.601451122021217E-01 Delta-E=        0.000000000000 Rises=F Damp=F
 DIIS: error= 6.44D-09 at cycle  11 NSaved=  11.
 NSaved=11 IEnMin=11 EnMin=-0.601451122021217E-01 IErMin=11 ErrMin= 6.44D-09
 ErrMax= 6.44D-09 EMaxC= 1.00D-01 BMatC= 2.34D-15 BMatP= 5.34D-14
 IDIUse=1 WtCom= 1.00D+00 WtEn= 0.00D+00
 Coeff-Com:  0.432D-05-0.116D-04 0.331D-04-0.245D-03 0.199D-02-0.950D-02
 Coeff-Com:  0.511D-01-0.176D+00 0.427D+00-0.871D+00 0.158D+01
 Coeff:      0.432D-05-0.116D-04 0.331D-04-0.245D-03 0.199D-02-0.950D-02
 Coeff:      0.511D-01-0.176D+00 0.427D+00-0.871D+00 0.158D+01
 Gap=     0.557 Goal=   None    Shift=    0.000
 RMSDP=5.39D-09 MaxDP=5.87D-08 DE=-8.53D-14 OVMax= 0.00D+00

 Cycle  12  Pass 2  IDiag  1:
 RMSDP=5.39D-09 MaxDP=5.87D-08 DE=-8.53D-14 OVMax= 0.00D+00

 SCF Done:  E(RPM6) = -0.601451122021E-01 A.U. after   12 cycles
             Convg  =    0.5393D-08             -V/T =  0.9989
 KE=-5.647612389162D+01 PE=-2.643467431943D+02 EE= 1.489319835689D+02
 Leave Link  502 at Mon Sep 14 19:12:44 2015, MaxMem=  402653184 cpu:       1.6
 (Enter /share/apps/g09/l701.exe)
 Compute integral first derivatives.
 ... and contract with generalized density number  0.
 Leave Link  701 at Mon Sep 14 19:12:46 2015, MaxMem=  402653184 cpu:       0.1
 (Enter /share/apps/g09/l702.exe)
 L702 exits ... SP integral derivatives will be done elsewhere.
 Leave Link  702 at Mon Sep 14 19:12:46 2015, MaxMem=  402653184 cpu:       0.0
 (Enter /share/apps/g09/l703.exe)
 Compute integral first derivatives, UseDBF=F ICtDFT=           0.
 Integral derivatives from FoFDir, PRISM(SPDF).
 Calling FoFJK, ICntrl=      2127 FMM=F ISym2X=0 I1Cent= 0 IOpClX= 0 NMat=1 NMatS=1 NMatT=0.
 FoFCou: FMM=F IPFlag=           0 FMFlag=      100000 FMFlg1=         800
         NFxFlg=           0 DoJE=F BraDBF=F KetDBF=F FulRan=T
         Omega=  0.000000  0.000000  1.000000  0.000000  0.000000 ICntrl=    2127 IOpCl=  0
         NMat0=    1 NMatS0=    1 NMatT0=    0 NMatD0=    1 NMtDS0=    0 NMtDT0=    0
         I1Cent=           0 NGrid=           0.
 Symmetry not used in FoFCou.
 Leave Link  703 at Mon Sep 14 19:12:47 2015, MaxMem=  402653184 cpu:       0.0
 (Enter /share/apps/g09/l716.exe)
 Dipole        = 1.32459226D-03-1.11738153D-02 2.17411827D-04
 ***** Axes restored to original set *****
 -------------------------------------------------------------------
 Center     Atomic                   Forces (Hartrees/Bohr)
 Number     Number              X              Y              Z
 -------------------------------------------------------------------
      1        6           0.001577386    0.001035979   -0.000936907
      2        1           0.000114775   -0.001275923   -0.000744686
      3        1           0.000602448   -0.000130027    0.001338570
      4        1          -0.000883615    0.000757291   -0.000202807
      5        6           0.004249752   -0.001933227    0.000004937
      6        6          -0.005710573    0.004841050   -0.001322989
      7        1          -0.000147863    0.001267991    0.000502064
      8        1          -0.000540347    0.000405784   -0.001207394
      9        6          -0.001874132    0.000932307   -0.000093891
     10        1          -0.000764892   -0.000465711   -0.000569418
     11        1           0.000786908   -0.001359413    0.000506281
     12        1          -0.000417308    0.000374172    0.000975990
     13        6           0.001054693   -0.003415130   -0.002068184
     14        1           0.000491722   -0.000026511   -0.000923915
     15        1           0.000422348   -0.000865318    0.000941698
     16        1          -0.001227728    0.000282904   -0.000388884
     17        6           0.002365523   -0.000431226    0.003411289
     18        1          -0.001040922    0.000713157    0.000385457
     19        1           0.000222474   -0.001335726    0.000106832
     20        1           0.000719352    0.000627579    0.000285957
 -------------------------------------------------------------------
 Cartesian Forces:  Max     0.005710573 RMS     0.001564173
 Leave Link  716 at Mon Sep 14 19:12:49 2015, MaxMem=  402653184 cpu:       0.0
 (Enter /share/apps/g09/l103.exe)

 GradGradGradGradGradGradGradGradGradGradGradGradGradGradGradGradGradGrad
 Berny optimization.
 Using GEDIIS/GDIIS optimizer.
 Internal  Forces:  Max     0.010598030 RMS     0.001394261
 Search for a local minimum.
 Step number   2 out of a maximum of  110
 All quantities printed in internal units (Hartrees-Bohrs-Radians)
 RMS Force = .13943D-02 SwitMx=.10000D-02 MixMth= 1
 Mixed Optimization -- RFO/linear search
 Update second derivatives using D2CorX and points    1    2
 DE= -3.17D-03 DEPred=-3.35D-03 R= 9.49D-01
 SS=  1.41D+00  RLast= 1.78D-01 DXNew= 5.0454D-01 5.3276D-01
 Trust test= 9.49D-01 RLast= 1.78D-01 DXMaxT set to 5.05D-01
 Use linear search instead of GDIIS.
     Eigenvalues ---    0.00230   0.00230   0.00230   0.00230   0.00338
     Eigenvalues ---    0.03299   0.04606   0.04728   0.04871   0.04957
     Eigenvalues ---    0.05342   0.05377   0.05382   0.05383   0.05396
     Eigenvalues ---    0.05399   0.05426   0.05545   0.08696   0.12410
     Eigenvalues ---    0.14264   0.14494   0.15044   0.16000   0.16000
     Eigenvalues ---    0.16000   0.16000   0.16000   0.16000   0.16000
     Eigenvalues ---    0.16000   0.16000   0.16000   0.16027   0.21401
     Eigenvalues ---    0.25447   0.27794   0.27958   0.28080   0.29152
     Eigenvalues ---    0.32015   0.32020   0.32106   0.32109   0.32113
     Eigenvalues ---    0.32115   0.32127   0.32140   0.32193   0.32211
     Eigenvalues ---    0.32256   0.32321   0.32352   0.382271000.00000
     Eigenvalues --- 1000.000001000.000001000.000001000.000001000.00000
     Eigenvalues --- 1000.000001000.000001000.000001000.000001000.00000
     Eigenvalues --- 1000.000001000.000001000.000001000.000001000.00000
     Eigenvalues --- 1000.000001000.000001000.000001000.000001000.00000
     Eigenvalues --- 1000.000001000.000001000.000001000.000001000.00000
     Eigenvalues --- 1000.000001000.000001000.000001000.000001000.00000
     Eigenvalues --- 1000.000001000.000001000.000001000.000001000.00000
     Eigenvalues --- 1000.000001000.000001000.000001000.000001000.00000
     Eigenvalues --- 1000.000001000.000001000.000001000.000001000.00000
 RFO step:  Lambda=-7.84215592D-04 EMin= 2.29993263D-03
 Quartic linear search produced a step of -0.03171.
 Iteration  1 RMS(Cart)=  0.01583957 RMS(Int)=  0.00006590
 Iteration  2 RMS(Cart)=  0.00007749 RMS(Int)=  0.00001060
 Iteration  3 RMS(Cart)=  0.00000000 RMS(Int)=  0.00001060
 Variable       Old X    -DE/DX   Delta X   Delta X   Delta X     New X
                                 (Linear)    (Quad)   (Total)
    R1        2.07262  -0.00144   0.00107  -0.00955  -0.00848   2.06414
    R2        2.07260  -0.00143   0.00107  -0.00952  -0.00845   2.06415
    R3        2.07191  -0.00115   0.00110  -0.00881  -0.00771   2.06420
    R4        2.91642   0.00148   0.00019   0.00417   0.00437   2.92079
    R5        2.90877   0.01060   0.00110   0.03250   0.03359   2.94236
    R6        2.90177   0.00458   0.00056   0.01301   0.01357   2.91535
    R7        2.90178   0.00461   0.00057   0.01307   0.01365   2.91543
    R8        2.09555  -0.00026   0.00040  -0.00274  -0.00234   2.09320
    R9        2.09537  -0.00021   0.00040  -0.00259  -0.00218   2.09318
   R10        2.88261   0.00239   0.00042   0.00586   0.00628   2.88889
   R11        2.07259  -0.00059   0.00093  -0.00628  -0.00535   2.06724
   R12        2.07653  -0.00149   0.00089  -0.00880  -0.00791   2.06862
   R13        2.07280  -0.00066   0.00093  -0.00650  -0.00557   2.06723
   R14        2.07179  -0.00076   0.00102  -0.00723  -0.00621   2.06559
   R15        2.07187  -0.00110   0.00108  -0.00855  -0.00747   2.06440
   R16        2.07265  -0.00120   0.00107  -0.00884  -0.00777   2.06488
   R17        2.07267  -0.00120   0.00107  -0.00881  -0.00775   2.06492
[...]
 ! D17   D(17,5,6,8)            61.7622         -DE/DX =    0.0                 !
 ! D18   D(17,5,6,9)           -60.8247         -DE/DX =    0.0                 !
 ! D19   D(1,5,13,14)          177.7203         -DE/DX =    0.0                 !
 ! D20   D(1,5,13,15)          -62.2598         -DE/DX =    0.0                 !
 ! D21   D(1,5,13,16)           57.8723         -DE/DX =    0.0                 !
 ! D22   D(6,5,13,14)          -63.6232         -DE/DX =    0.0                 !
 ! D23   D(6,5,13,15)           56.3967         -DE/DX =    0.0                 !
 ! D24   D(6,5,13,16)          176.5288         -DE/DX =    0.0                 !
 ! D25   D(17,5,13,14)          58.5573         -DE/DX =    0.0                 !
 ! D26   D(17,5,13,15)         178.5771         -DE/DX =    0.0                 !
 ! D27   D(17,5,13,16)         -61.2908         -DE/DX =    0.0                 !
 ! D28   D(1,5,17,18)          -57.903          -DE/DX =    0.0                 !
 ! D29   D(1,5,17,19)           62.2295         -DE/DX =    0.0                 !
 ! D30   D(1,5,17,20)         -177.7514         -DE/DX =    0.0                 !
 ! D31   D(6,5,17,18)         -176.5587         -DE/DX =    0.0                 !
 ! D32   D(6,5,17,19)          -56.4262         -DE/DX =    0.0                 !
 ! D33   D(6,5,17,20)           63.5929         -DE/DX =    0.0                 !
 ! D34   D(13,5,17,18)          61.2599         -DE/DX =    0.0                 !
 ! D35   D(13,5,17,19)        -178.6076         -DE/DX =    0.0                 !
 ! D36   D(13,5,17,20)         -58.5885         -DE/DX =    0.0                 !
 ! D37   D(5,6,9,10)            60.1706         -DE/DX =    0.0                 !
 ! D38   D(5,6,9,11)          -180.0061         -DE/DX =    0.0                 !
 ! D39   D(5,6,9,12)           -60.1826         -DE/DX =    0.0                 !
 ! D40   D(7,6,9,10)          -177.39           -DE/DX =    0.0                 !
 ! D41   D(7,6,9,11)           -57.5667         -DE/DX =    0.0                 !
 ! D42   D(7,6,9,12)            62.2567         -DE/DX =    0.0                 !
 ! D43   D(8,6,9,10)           -62.2672         -DE/DX =    0.0                 !
 ! D44   D(8,6,9,11)            57.5562         -DE/DX =    0.0                 !
 ! D45   D(8,6,9,12)           177.3796         -DE/DX =    0.0                 !
 --------------------------------------------------------------------------------
 GradGradGradGradGradGradGradGradGradGradGradGradGradGradGradGradGradGrad

 Largest change from initial coordinates is atom   18       0.126 Angstoms.
 Leave Link  103 at Mon Sep 14 19:14:14 2015, MaxMem=  402653184 cpu:       0.0
 (Enter /share/apps/g09/l202.exe)
                          Input orientation:                          
 ---------------------------------------------------------------------
 Center     Atomic      Atomic             Coordinates (Angstroms)
 Number     Number       Type             X           Y           Z
 ---------------------------------------------------------------------
      1          6           0        1.558708    0.748715   -0.800038
      2          1           0        1.707819    1.732518   -0.345412
      3          1           0        1.352150    0.902558   -1.863265
      4          1           0        2.508623    0.209942   -0.728021
      5          6           0        0.419436   -0.030685   -0.106912
      6          6           0       -0.887643    0.795418   -0.252027
      7          1           0       -1.085101    0.969523   -1.327591
      8          1           0       -0.729584    1.798499    0.189546
      9          6           0       -2.116162    0.153666    0.386523
     10          1           0       -1.981216    0.005247    1.463947
     11          1           0       -3.002295    0.783542    0.250117
     12          1           0       -2.337287   -0.824653   -0.055145
     13          6           0        0.269094   -1.405206   -0.784809
     14          1           0       -0.503308   -2.008510   -0.297237
     15          1           0       -0.009583   -1.303522   -1.837943
     16          1           0        1.202689   -1.974443   -0.743708
     17          6           0        0.776310   -0.222536    1.378783
     18          1           0        1.727368   -0.750913    1.495515
     19          1           0        0.866284    0.737511    1.895799
     20          1           0        0.011698   -0.806569    1.900879
 ---------------------------------------------------------------------
                    Distance matrix (angstroms):
                    1          2          3          4          5
     1  C    0.000000
     2  H    1.093977   0.000000
     3  H    1.093978   1.766129   0.000000
     4  H    1.094441   1.762360   1.762364   0.000000
     5  C    1.544612   2.196747   2.196742   2.192802   0.000000
     6  C    2.507415   2.761032   2.761202   3.479077   1.553049
     7  H    2.704958   3.057325   2.496321   3.721734   2.180391
     8  H    2.705108   2.496291   3.057836   3.721752   2.180379
     9  C    3.907260   4.201349   4.201378   4.757522   2.589734
    10  H    4.267252   4.457155   4.794459   5.000528   2.869150
    11  H    4.680469   4.841527   4.841667   5.626366   3.535347
    12  H    4.267216   4.794399   4.456961   5.000600   2.869249
    13  C    2.510520   3.479700   2.768006   2.761779   1.539953
    14  H    3.479512   4.345882   3.790710   3.765479   2.190769
    15  H    2.783606   3.794029   2.592634   3.140679   2.191036
    16  H    2.746909   3.762360   3.090774   2.545044   2.190249
    17  C    2.510524   2.768175   3.479699   2.761625   1.539953
    18  H    2.747161   3.091411   3.762468   2.545136   2.190248
    19  H    2.783364   2.592537   3.793926   3.140071   2.191039
    20  H    3.479525   3.790727   4.345884   3.765507   2.190769
                    6          7          8          9         10
     6  C    0.000000
     7  H    1.107312   0.000000
     8  H    1.107313   1.765021   0.000000
     9  C    1.526057   2.160301   2.160295   0.000000
    10  H    2.182851   3.086347   2.531094   1.095938   0.000000
    11  H    2.173486   2.489857   2.489783   1.095710   1.766841
    12  H    2.182856   2.531040   3.086343   1.095936   1.767246
    13  C    2.542566   2.787076   3.494346   3.080836   3.479968
    14  H    2.830507   3.204496   3.844669   2.782774   3.056337
    15  H    2.773386   2.565918   3.775136   3.392539   4.062350
    16  H    3.504764   3.773837   4.340477   4.101347   4.350881
    17  C    2.542540   3.494326   2.786860   3.080990   2.768229
    18  H    3.504758   4.340485   3.773815   4.101323   3.785020
    19  H    2.773585   3.775179   2.565891   3.393195   2.971694
    20  H    2.830227   3.844540   3.203833   2.782645   2.195829
                   11         12         13         14         15
    11  H    0.000000
    12  H    1.766836   0.000000
    13  C    4.069849   2.768153   0.000000
    14  H    3.786830   2.196270   1.094672   0.000000
    15  H    4.203826   2.970840   1.094117   1.764808   0.000000
    16  H    5.126018   3.785178   1.094222   1.763782   1.765528
    17  C    4.069881   3.480399   2.517361   2.763361   3.483315
    18  H    5.125942   4.351024   2.784698   3.125928   3.799253
    19  H    4.204318   4.063177   3.483322   3.771713   4.344398
    20  H    3.786505   3.056810   2.763610   2.557656   3.771764
                   16         17         18         19         20
    16  H    0.000000
    17  C    2.784950   0.000000
    18  H    2.605079   1.094221   0.000000
    19  H    3.799324   1.094117   1.765531   0.000000
    20  H    3.126697   1.094673   1.763786   1.764801   0.000000
 Stoichiometry    C6H14
 Framework group  C1[X(C6H14)]
 Deg. of freedom    54
 Full point group                 C1      NOp   1
 Largest Abelian subgroup         C1      NOp   1
 Largest concise Abelian subgroup C1      NOp   1
                         Standard orientation:                         
 ---------------------------------------------------------------------
 Center     Atomic      Atomic             Coordinates (Angstroms)
 Number     Number       Type             X           Y           Z
 ---------------------------------------------------------------------
      1          6           0        1.642402    0.957711   -0.000744
      2          1           0        1.644109    1.604175    0.881790
      3          1           0        1.644160    1.602727   -0.884338
      4          1           0        2.586666    0.404388   -0.000260
      5          6           0        0.431767   -0.001555    0.000000
      6          6           0       -0.862956    0.856148   -0.000468
      7          1           0       -0.850932    1.524394   -0.883329
      8          1           0       -0.850936    1.525319    0.881692
      9          6           0       -2.157493    0.048047   -0.000041
     10          1           0       -2.232443   -0.595499    0.883877
     11          1           0       -3.031451    0.708938   -0.000293
     12          1           0       -2.232541   -0.596294   -0.883369
     13          6           0        0.494640   -0.887408   -1.258080
     14          1           0       -0.325599   -1.612071   -1.277539
     15          1           0        0.426659   -0.289725   -2.171997
     16          1           0        1.430763   -1.452286   -1.301758
     17          6           0        0.494818   -0.885689    1.259280
     18          1           0        1.430711   -1.450918    1.303321
     19          1           0        0.427505   -0.286711    2.172400
     20          1           0       -0.325737   -1.609958    1.280117
 ---------------------------------------------------------------------
 Rotational constants (GHZ):      4.2630664      2.5029341      2.4952936
 Leave Link  202 at Mon Sep 14 19:14:15 2015, MaxMem=  402653184 cpu:       0.0
 (Enter /share/apps/g09/l601.exe)
 Copying SCF densities to generalized density rwf, IOpCl= 0 IROHF=0.

 **********************************************************************

            Population analysis using the SCF density.

 **********************************************************************

 Orbital symmetries:
       Occupied  (A) (A) (A) (A) (A) (A) (A) (A) (A) (A) (A) (A)
                 (A) (A) (A) (A) (A) (A) (A)
       Virtual   (A) (A) (A) (A) (A) (A) (A) (A) (A) (A) (A) (A)
                 (A) (A) (A) (A) (A) (A) (A)
 The electronic state is 1-A.
 Alpha  occ. eigenvalues --   -1.07267  -0.95307  -0.88392  -0.88255  -0.79240
 Alpha  occ. eigenvalues --   -0.66626  -0.57055  -0.56580  -0.54150  -0.52534
 Alpha  occ. eigenvalues --   -0.49593  -0.47750  -0.47302  -0.46055  -0.45901
 Alpha  occ. eigenvalues --   -0.43564  -0.41346  -0.40924  -0.40165
 Alpha virt. eigenvalues --    0.15472   0.16172   0.16352   0.18154   0.18412
 Alpha virt. eigenvalues --    0.21404   0.22199   0.22401   0.22428   0.22681
 Alpha virt. eigenvalues --    0.22739   0.22827   0.22881   0.23364   0.24760
 Alpha virt. eigenvalues --    0.25549   0.26019   0.26563   0.26663
          Condensed to atoms (all electrons):
              1          2          3          4          5          6
     1  C    4.538624   0.000000   0.000000   0.000000   0.000000   0.000000
     2  H    0.000000   0.847864   0.000000   0.000000   0.000000   0.000000
     3  H    0.000000   0.000000   0.847862   0.000000   0.000000   0.000000
     4  H    0.000000   0.000000   0.000000   0.845762   0.000000   0.000000
     5  C    0.000000   0.000000   0.000000   0.000000   3.728326   0.000000
     6  C    0.000000   0.000000   0.000000   0.000000   0.000000   4.295123
     7  H    0.000000   0.000000   0.000000   0.000000   0.000000   0.000000
     8  H    0.000000   0.000000   0.000000   0.000000   0.000000   0.000000
     9  C    0.000000   0.000000   0.000000   0.000000   0.000000   0.000000
    10  H    0.000000   0.000000   0.000000   0.000000   0.000000   0.000000
    11  H    0.000000   0.000000   0.000000   0.000000   0.000000   0.000000
    12  H    0.000000   0.000000   0.000000   0.000000   0.000000   0.000000
    13  C    0.000000   0.000000   0.000000   0.000000   0.000000   0.000000
    14  H    0.000000   0.000000   0.000000   0.000000   0.000000   0.000000
    15  H    0.000000   0.000000   0.000000   0.000000   0.000000   0.000000
    16  H    0.000000   0.000000   0.000000   0.000000   0.000000   0.000000
    17  C    0.000000   0.000000   0.000000   0.000000   0.000000   0.000000
    18  H    0.000000   0.000000   0.000000   0.000000   0.000000   0.000000
    19  H    0.000000   0.000000   0.000000   0.000000   0.000000   0.000000
    20  H    0.000000   0.000000   0.000000   0.000000   0.000000   0.000000
              7          8          9         10         11         12
     1  C    0.000000   0.000000   0.000000   0.000000   0.000000   0.000000
     2  H    0.000000   0.000000   0.000000   0.000000   0.000000   0.000000
     3  H    0.000000   0.000000   0.000000   0.000000   0.000000   0.000000
     4  H    0.000000   0.000000   0.000000   0.000000   0.000000   0.000000
     5  C    0.000000   0.000000   0.000000   0.000000   0.000000   0.000000
     6  C    0.000000   0.000000   0.000000   0.000000   0.000000   0.000000
     7  H    0.867736   0.000000   0.000000   0.000000   0.000000   0.000000
     8  H    0.000000   0.867736   0.000000   0.000000   0.000000   0.000000
     9  C    0.000000   0.000000   4.446119   0.000000   0.000000   0.000000
    10  H    0.000000   0.000000   0.000000   0.855360   0.000000   0.000000
    11  H    0.000000   0.000000   0.000000   0.000000   0.860793   0.000000
    12  H    0.000000   0.000000   0.000000   0.000000   0.000000   0.855358
    13  C    0.000000   0.000000   0.000000   0.000000   0.000000   0.000000
    14  H    0.000000   0.000000   0.000000   0.000000   0.000000   0.000000
    15  H    0.000000   0.000000   0.000000   0.000000   0.000000   0.000000
    16  H    0.000000   0.000000   0.000000   0.000000   0.000000   0.000000
    17  C    0.000000   0.000000   0.000000   0.000000   0.000000   0.000000
    18  H    0.000000   0.000000   0.000000   0.000000   0.000000   0.000000
    19  H    0.000000   0.000000   0.000000   0.000000   0.000000   0.000000
    20  H    0.000000   0.000000   0.000000   0.000000   0.000000   0.000000
             13         14         15         16         17         18
     1  C    0.000000   0.000000   0.000000   0.000000   0.000000   0.000000
     2  H    0.000000   0.000000   0.000000   0.000000   0.000000   0.000000
     3  H    0.000000   0.000000   0.000000   0.000000   0.000000   0.000000
     4  H    0.000000   0.000000   0.000000   0.000000   0.000000   0.000000
     5  C    0.000000   0.000000   0.000000   0.000000   0.000000   0.000000
     6  C    0.000000   0.000000   0.000000   0.000000   0.000000   0.000000
     7  H    0.000000   0.000000   0.000000   0.000000   0.000000   0.000000
     8  H    0.000000   0.000000   0.000000   0.000000   0.000000   0.000000
     9  C    0.000000   0.000000   0.000000   0.000000   0.000000   0.000000
    10  H    0.000000   0.000000   0.000000   0.000000   0.000000   0.000000
    11  H    0.000000   0.000000   0.000000   0.000000   0.000000   0.000000
    12  H    0.000000   0.000000   0.000000   0.000000   0.000000   0.000000
    13  C    4.528065   0.000000   0.000000   0.000000   0.000000   0.000000
    14  H    0.000000   0.846327   0.000000   0.000000   0.000000   0.000000
    15  H    0.000000   0.000000   0.848414   0.000000   0.000000   0.000000
    16  H    0.000000   0.000000   0.000000   0.848861   0.000000   0.000000
    17  C    0.000000   0.000000   0.000000   0.000000   4.528069   0.000000
    18  H    0.000000   0.000000   0.000000   0.000000   0.000000   0.848860
    19  H    0.000000   0.000000   0.000000   0.000000   0.000000   0.000000
    20  H    0.000000   0.000000   0.000000   0.000000   0.000000   0.000000
             19         20
     1  C    0.000000   0.000000
     2  H    0.000000   0.000000
     3  H    0.000000   0.000000
     4  H    0.000000   0.000000
     5  C    0.000000   0.000000
     6  C    0.000000   0.000000
     7  H    0.000000   0.000000
     8  H    0.000000   0.000000
     9  C    0.000000   0.000000
    10  H    0.000000   0.000000
    11  H    0.000000   0.000000
    12  H    0.000000   0.000000
    13  C    0.000000   0.000000
    14  H    0.000000   0.000000
    15  H    0.000000   0.000000
    16  H    0.000000   0.000000
    17  C    0.000000   0.000000
    18  H    0.000000   0.000000
    19  H    0.848415   0.000000
    20  H    0.000000   0.846327
 Mulliken atomic charges:
              1
     1  C   -0.538624
     2  H    0.152136
     3  H    0.152138
     4  H    0.154238
     5  C    0.271674
     6  C   -0.295123
     7  H    0.132264
     8  H    0.132264
     9  C   -0.446119
    10  H    0.144640
    11  H    0.139207
    12  H    0.144642
    13  C   -0.528065
    14  H    0.153673
    15  H    0.151586
    16  H    0.151139
    17  C   -0.528069
    18  H    0.151140
    19  H    0.151585
    20  H    0.153673
 Sum of Mulliken atomic charges =   0.00000
 Mulliken charges with hydrogens summed into heavy atoms:
              1
     1  C   -0.080112
     5  C    0.271674
     6  C   -0.030595
     9  C   -0.017629
    13  C   -0.071667
    17  C   -0.071671
 Sum of Mulliken charges with hydrogens summed into heavy atoms =   0.00000
 Charge=              0.0000 electrons
 Dipole moment (field-independent basis, Debye):
    X=              0.0114    Y=             -0.0378    Z=              0.0000  Tot=              0.0395
 N-N= 1.715276951896D+02 E-N=-2.637482357205D+02  KE=-5.646789584033D+01
 Leave Link  601 at Mon Sep 14 19:14:15 2015, MaxMem=  402653184 cpu:       0.1
 (Enter /share/apps/g09/l9999.exe)
 1\1\GINC-COMPUTE-0-2\FOpt\RPM6\ZDO\C6H14\HETANJIN\14-Sep-2015\0\\#p PM
 6 opt\\using PM6 to do opt and freq calc.\\0,1\C,1.5587083748,0.748714
 5048,-0.800037568\H,1.7078190454,1.7325175869,-0.3454124947\H,1.352149
 5285,0.9025582258,-1.8632652808\H,2.5086234188,0.2099417258,-0.7280213
 567\C,0.4194363767,-0.0306854083,-0.1069122235\C,-0.887643111,0.795418
 1487,-0.2520272251\H,-1.0851007185,0.9695231648,-1.3275913293\H,-0.729
 5843816,1.7984994899,0.1895456903\C,-2.1161621705,0.153666265,0.386523
 3237\H,-1.9812163569,0.0052467581,1.4639466063\H,-3.002294751,0.783541
 7093,0.2501172151\H,-2.3372871935,-0.8246533435,-0.0551445733\C,0.2690
 936131,-1.4052062478,-0.7848091804\H,-0.5033082144,-2.0085096667,-0.29
 72366523\H,-0.0095833558,-1.3035224589,-1.8379429624\H,1.2026893953,-1
 .974443435,-0.7437083871\C,0.7763099168,-0.2225362001,1.3787825745\H,1
 .7273682132,-0.750912844,1.4955154953\H,0.8662838708,0.7375108933,1.89
 57994353\H,0.0116984999,-0.8065688681,1.9008788931\\Version=EM64L-G09R
 evA.01\State=1-A\HF=-0.0604314\RMSD=7.951e-09\RMSF=3.162e-06\Dipole=0.
 0050731,-0.013358,0.0061153\PG=C01 [X(C6H14)]\\@


 10 WHATSOEVER THY HAND FINDETH TO DO, DO IT WITH THY  
 MIGHT. FOR THERE IS NO WORK, NOR DEVICE, NOR KNOWLEDGE, NOR  
 WISDOM, IN THE GRAVE, WHITHER THOU GOEST.                    
 11 I RETURNED AND SAW UNDER THE SUN, THAT THE RACE IS NOT TO 
 THE SWIFT, NOR THE BATTLE TO THE STRONG, NEITHER YET BREAD TO
 THE WISE, NOR YET RICHES TO MEN OF UNDERSTANDING, NOR YET    
 FAVOR TO MEN OF SKILL. BUT TIME AND CHANCE HAPPEN TO THEM ALL.
 12 FOR MAN ALSO KNOWETH NOT HIS TIME. AS THE FISHES   
 THAT ARE TAKEN IN AN EVIL NET, AND AS THE BIRDS THAT ARE     
 CAUGHT IN THE SNARE. SO ARE THE SONS OF MEN SNARED IN AN EVIL
 TIME, WHEN IT FALLETH SUDDENLY UPON THEM.
                                         ECCLESIASTES 9
 Job cpu time:  0 days  0 hours  0 minutes 20.0 seconds.
 File lengths (MBytes):  RWF=      5 Int=      0 D2E=      0 Chk=      3 Scr=      1
 Normal termination of Gaussian 09 at Mon Sep 14 19:14:15 2015.
