using PM6 to do opt and freq calc.                                      
FOpt      RPM6                                                        ZDO                 
Number of atoms                            I               20
Info1-9                                    I   N=           9
          33          29           0           0           0         110
           2           8         302
Charge                                     I                0
Multiplicity                               I                1
Number of electrons                        I               38
Number of alpha electrons                  I               19
Number of beta electrons                   I               19
Number of basis functions                  I               38
Number of independent functions            I               38
Number of point charges in /Mol/           I                0
Number of translation vectors              I                0
Atomic numbers                             I   N=          20
           6           1           1           1           6           6
           1           1           6           1           1           1
           6           1           1           1           6           1
           1           1
Nuclear charges                            R   N=          20
  4.00000000E+00  1.00000000E+00  1.00000000E+00  1.00000000E+00  4.00000000E+00
  4.00000000E+00  1.00000000E+00  1.00000000E+00  4.00000000E+00  1.00000000E+00
  1.00000000E+00  1.00000000E+00  4.00000000E+00  1.00000000E+00  1.00000000E+00
  1.00000000E+00  4.00000000E+00  1.00000000E+00  1.00000000E+00  1.00000000E+00
Current cartesian coordinates              R   N=          60
  3.10368913E+00  1.80981057E+00 -1.40653292E-03  3.10691576E+00  3.03145192E+00
  1.66634166E+00  3.10701218E+00  3.02871564E+00 -1.67115669E+00  4.88809023E+00
  7.64182985E-01 -4.90953737E-04  8.15920969E-01 -2.93876498E-03  3.69613093E-07
 -1.63075076E+00  1.61788518E+00 -8.84667537E-04 -1.60802781E+00  2.88068769E+00
 -1.66924904E+00 -1.60803656E+00  2.88243591E+00  1.66615640E+00 -4.07707001E+00
  9.07962055E-02 -7.68036805E-05 -4.21870623E+00 -1.12532956E+00  1.67028562E+00
 -5.72861258E+00  1.33969904E+00 -5.53226388E-04 -4.21889080E+00 -1.12683162E+00
 -1.66932510E+00  9.34734596E-01 -1.67695885E+00 -2.37742657E+00 -6.15291996E-01
 -3.04637329E+00 -2.41419796E+00  8.06268722E-01 -5.47500818E-01 -4.10447938E+00
  2.70375116E+00 -2.74442298E+00 -2.45996665E+00  9.35069682E-01 -1.67370940E+00
  2.37969506E+00  2.70365170E+00 -2.74183858E+00  2.46291924E+00  8.07867492E-01
 -5.41805813E-01  4.10524067E+00 -6.15552913E-01 -3.04238012E+00  2.41907026E+00
Force Field                                I                0
Int Atom Types                             I   N=          20
           0           0           0           0           0           0
           0           0           0           0           0           0
           0           0           0           0           0           0
           0           0
MM charges                                 R   N=          20
  0.00000000E+00  0.00000000E+00  0.00000000E+00  0.00000000E+00  0.00000000E+00
  0.00000000E+00  0.00000000E+00  0.00000000E+00  0.00000000E+00  0.00000000E+00
  0.00000000E+00  0.00000000E+00  0.00000000E+00  0.00000000E+00  0.00000000E+00
  0.00000000E+00  0.00000000E+00  0.00000000E+00  0.00000000E+00  0.00000000E+00
Integer atomic weights                     I   N=          20
          12           1           1           1          12          12
           1           1          12           1           1           1
          12           1           1           1          12           1
           1           1
Real atomic weights                        R   N=          20
  1.20000000E+01  1.00782504E+00  1.00782504E+00  1.00782504E+00  1.20000000E+01
  1.20000000E+01  1.00782504E+00  1.00782504E+00  1.20000000E+01  1.00782504E+00
  1.00782504E+00  1.00782504E+00  1.20000000E+01  1.00782504E+00  1.00782504E+00
  1.00782504E+00  1.20000000E+01  1.00782504E+00  1.00782504E+00  1.00782504E+00
Atom fragment info                         I   N=          20
           0           0           0           0           0           0
           0           0           0           0           0           0
           0           0           0           0           0           0
           0           0
Atom residue num                           I   N=          20
           0           0           0           0           0           0
           0           0           0           0           0           0
           0           0           0           0           0           0
           0           0
Nuclear spins                              I   N=          20
           0           1           1           1           0           0
           1           1           0           1           1           1
           0           1           1           1           0           1
           1           1
Nuclear ZEff                               R   N=          20
 -3.90000000E+00 -1.00000000E+00 -1.00000000E+00 -1.00000000E+00 -3.90000000E+00
 -3.90000000E+00 -1.00000000E+00 -1.00000000E+00 -3.90000000E+00 -1.00000000E+00
 -1.00000000E+00 -1.00000000E+00 -3.90000000E+00 -1.00000000E+00 -1.00000000E+00
 -1.00000000E+00 -3.90000000E+00 -1.00000000E+00 -1.00000000E+00 -1.00000000E+00
Nuclear QMom                               R   N=          20
  0.00000000E+00  0.00000000E+00  0.00000000E+00  0.00000000E+00  0.00000000E+00
  0.00000000E+00  0.00000000E+00  0.00000000E+00  0.00000000E+00  0.00000000E+00
  0.00000000E+00  0.00000000E+00  0.00000000E+00  0.00000000E+00  0.00000000E+00
  0.00000000E+00  0.00000000E+00  0.00000000E+00  0.00000000E+00  0.00000000E+00
Nuclear GFac                               R   N=          20
  0.00000000E+00  2.79284600E+00  2.79284600E+00  2.79284600E+00  0.00000000E+00
  0.00000000E+00  2.79284600E+00  2.79284600E+00  0.00000000E+00  2.79284600E+00
  2.79284600E+00  2.79284600E+00  0.00000000E+00  2.79284600E+00  2.79284600E+00
  2.79284600E+00  0.00000000E+00  2.79284600E+00  2.79284600E+00  2.79284600E+00
MicOpt                                     I   N=          20
          -1          -1          -1          -1          -1          -1
          -1          -1          -1          -1          -1          -1
          -1          -1          -1          -1          -1          -1
          -1          -1
Number of contracted shells                I               20
Number of primitive shells                 I              120
Pure/Cartesian d shells                    I                0
Pure/Cartesian f shells                    I                0
Highest angular momentum                   I                1
Largest degree of contraction              I                6
Shell types                                I   N=          20
          -1           0           0           0          -1          -1
           0           0          -1           0           0           0
          -1           0           0           0          -1           0
           0           0
Number of primitives per shell             I   N=          20
           6           6           6           6           6           6
           6           6           6           6           6           6
           6           6           6           6           6           6
           6           6
Shell to atom map                          I   N=          20
           1           2           3           4           5           6
           7           8           9          10          11          12
          13          14          15          16          17          18
          19          20
Primitive exponents                        R   N=         120
  1.14476344E+01  3.29633588E+00  1.29653143E+00  5.92558930E-01  2.94896438E-01
  1.51447622E-01  4.39461478E+00  1.26542531E+00  4.97723458E-01  2.27476537E-01
  1.13207340E-01  5.81389949E-02  4.39461478E+00  1.26542531E+00  4.97723458E-01
  2.27476537E-01  1.13207340E-01  5.81389949E-02  4.39461478E+00  1.26542531E+00
  4.97723458E-01  2.27476537E-01  1.13207340E-01  5.81389949E-02  1.14476344E+01
  3.29633588E+00  1.29653143E+00  5.92558930E-01  2.94896438E-01  1.51447622E-01
  1.14476344E+01  3.29633588E+00  1.29653143E+00  5.92558930E-01  2.94896438E-01
  1.51447622E-01  4.39461478E+00  1.26542531E+00  4.97723458E-01  2.27476537E-01
  1.13207340E-01  5.81389949E-02  4.39461478E+00  1.26542531E+00  4.97723458E-01
  2.27476537E-01  1.13207340E-01  5.81389949E-02  1.14476344E+01  3.29633588E+00
  1.29653143E+00  5.92558930E-01  2.94896438E-01  1.51447622E-01  4.39461478E+00
  1.26542531E+00  4.97723458E-01  2.27476537E-01  1.13207340E-01  5.81389949E-02
  4.39461478E+00  1.26542531E+00  4.97723458E-01  2.27476537E-01  1.13207340E-01
  5.81389949E-02  4.39461478E+00  1.26542531E+00  4.97723458E-01  2.27476537E-01
  1.13207340E-01  5.81389949E-02  1.14476344E+01  3.29633588E+00  1.29653143E+00
  5.92558930E-01  2.94896438E-01  1.51447622E-01  4.39461478E+00  1.26542531E+00
  4.97723458E-01  2.27476537E-01  1.13207340E-01  5.81389949E-02  4.39461478E+00
  1.26542531E+00  4.97723458E-01  2.27476537E-01  1.13207340E-01  5.81389949E-02
  4.39461478E+00  1.26542531E+00  4.97723458E-01  2.27476537E-01  1.13207340E-01
  5.81389949E-02  1.14476344E+01  3.29633588E+00  1.29653143E+00  5.92558930E-01
  2.94896438E-01  1.51447622E-01  4.39461478E+00  1.26542531E+00  4.97723458E-01
  2.27476537E-01  1.13207340E-01  5.81389949E-02  4.39461478E+00  1.26542531E+00
  4.97723458E-01  2.27476537E-01  1.13207340E-01  5.81389949E-02  4.39461478E+00
  1.26542531E+00  4.97723458E-01  2.27476537E-01  1.13207340E-01  5.81389949E-02
Contraction coefficients                   R   N=         120
 -9.73739553E-03 -7.26587678E-02 -1.71615520E-01  1.28977624E-01  7.28861451E-01
  3.01331742E-01 -9.73739553E-03 -7.26587678E-02 -1.71615520E-01  1.28977624E-01
  7.28861451E-01  3.01331742E-01 -9.73739553E-03 -7.26587678E-02 -1.71615520E-01
  1.28977624E-01  7.28861451E-01  3.01331742E-01 -9.73739553E-03 -7.26587678E-02
 -1.71615520E-01  1.28977624E-01  7.28861451E-01  3.01331742E-01 -9.73739553E-03
 -7.26587678E-02 -1.71615520E-01  1.28977624E-01  7.28861451E-01  3.01331742E-01
 -9.73739553E-03 -7.26587678E-02 -1.71615520E-01  1.28977624E-01  7.28861451E-01
  3.01331742E-01 -9.73739553E-03 -7.26587678E-02 -1.71615520E-01  1.28977624E-01
  7.28861451E-01  3.01331742E-01 -9.73739553E-03 -7.26587678E-02 -1.71615520E-01
  1.28977624E-01  7.28861451E-01  3.01331742E-01 -9.73739553E-03 -7.26587678E-02
 -1.71615520E-01  1.28977624E-01  7.28861451E-01  3.01331742E-01 -9.73739553E-03
 -7.26587678E-02 -1.71615520E-01  1.28977624E-01  7.28861451E-01  3.01331742E-01
 -9.73739553E-03 -7.26587678E-02 -1.71615520E-01  1.28977624E-01  7.28861451E-01
  3.01331742E-01 -9.73739553E-03 -7.26587678E-02 -1.71615520E-01  1.28977624E-01
  7.28861451E-01  3.01331742E-01 -9.73739553E-03 -7.26587678E-02 -1.71615520E-01
  1.28977624E-01  7.28861451E-01  3.01331742E-01 -9.73739553E-03 -7.26587678E-02
 -1.71615520E-01  1.28977624E-01  7.28861451E-01  3.01331742E-01 -9.73739553E-03
 -7.26587678E-02 -1.71615520E-01  1.28977624E-01  7.28861451E-01  3.01331742E-01
 -9.73739553E-03 -7.26587678E-02 -1.71615520E-01  1.28977624E-01  7.28861451E-01
  3.01331742E-01 -9.73739553E-03 -7.26587678E-02 -1.71615520E-01  1.28977624E-01
  7.28861451E-01  3.01331742E-01 -9.73739553E-03 -7.26587678E-02 -1.71615520E-01
  1.28977624E-01  7.28861451E-01  3.01331742E-01 -9.73739553E-03 -7.26587678E-02
 -1.71615520E-01  1.28977624E-01  7.28861451E-01  3.01331742E-01 -9.73739553E-03
 -7.26587678E-02 -1.71615520E-01  1.28977624E-01  7.28861451E-01  3.01331742E-01
P(S=P) Contraction coefficients            R   N=         120
 -8.10494336E-03 -1.71547892E-02  7.36978576E-02  3.96514999E-01  4.97808488E-01
  1.17482582E-01  0.00000000E+00  0.00000000E+00  0.00000000E+00  0.00000000E+00
  0.00000000E+00  0.00000000E+00  0.00000000E+00  0.00000000E+00  0.00000000E+00
  0.00000000E+00  0.00000000E+00  0.00000000E+00  0.00000000E+00  0.00000000E+00
  0.00000000E+00  0.00000000E+00  0.00000000E+00  0.00000000E+00 -8.10494336E-03
 -1.71547892E-02  7.36978576E-02  3.96514999E-01  4.97808488E-01  1.17482582E-01
 -8.10494336E-03 -1.71547892E-02  7.36978576E-02  3.96514999E-01  4.97808488E-01
  1.17482582E-01  0.00000000E+00  0.00000000E+00  0.00000000E+00  0.00000000E+00
  0.00000000E+00  0.00000000E+00  0.00000000E+00  0.00000000E+00  0.00000000E+00
  0.00000000E+00  0.00000000E+00  0.00000000E+00 -8.10494336E-03 -1.71547892E-02
  7.36978576E-02  3.96514999E-01  4.97808488E-01  1.17482582E-01  0.00000000E+00
  0.00000000E+00  0.00000000E+00  0.00000000E+00  0.00000000E+00  0.00000000E+00
  0.00000000E+00  0.00000000E+00  0.00000000E+00  0.00000000E+00  0.00000000E+00
  0.00000000E+00  0.00000000E+00  0.00000000E+00  0.00000000E+00  0.00000000E+00
  0.00000000E+00  0.00000000E+00 -8.10494336E-03 -1.71547892E-02  7.36978576E-02
  3.96514999E-01  4.97808488E-01  1.17482582E-01  0.00000000E+00  0.00000000E+00
  0.00000000E+00  0.00000000E+00  0.00000000E+00  0.00000000E+00  0.00000000E+00
  0.00000000E+00  0.00000000E+00  0.00000000E+00  0.00000000E+00  0.00000000E+00
  0.00000000E+00  0.00000000E+00  0.00000000E+00  0.00000000E+00  0.00000000E+00
  0.00000000E+00 -8.10494336E-03 -1.71547892E-02  7.36978576E-02  3.96514999E-01
  4.97808488E-01  1.17482582E-01  0.00000000E+00  0.00000000E+00  0.00000000E+00
  0.00000000E+00  0.00000000E+00  0.00000000E+00  0.00000000E+00  0.00000000E+00
  0.00000000E+00  0.00000000E+00  0.00000000E+00  0.00000000E+00  0.00000000E+00
  0.00000000E+00  0.00000000E+00  0.00000000E+00  0.00000000E+00  0.00000000E+00
Coordinates of each shell                  R   N=          60
  3.10368913E+00  1.80981057E+00 -1.40653292E-03  3.10691576E+00  3.03145192E+00
  1.66634166E+00  3.10701218E+00  3.02871564E+00 -1.67115669E+00  4.88809023E+00
  7.64182985E-01 -4.90953737E-04  8.15920969E-01 -2.93876498E-03  3.69613093E-07
 -1.63075076E+00  1.61788518E+00 -8.84667538E-04 -1.60802781E+00  2.88068769E+00
 -1.66924904E+00 -1.60803656E+00  2.88243591E+00  1.66615640E+00 -4.07707001E+00
  9.07962055E-02 -7.68036805E-05 -4.21870623E+00 -1.12532956E+00  1.67028562E+00
 -5.72861258E+00  1.33969904E+00 -5.53226388E-04 -4.21889080E+00 -1.12683162E+00
 -1.66932510E+00  9.34734596E-01 -1.67695885E+00 -2.37742657E+00 -6.15291996E-01
 -3.04637329E+00 -2.41419796E+00  8.06268722E-01 -5.47500818E-01 -4.10447938E+00
  2.70375116E+00 -2.74442298E+00 -2.45996665E+00  9.35069682E-01 -1.67370940E+00
  2.37969506E+00  2.70365170E+00 -2.74183858E+00  2.46291924E+00  8.07867492E-01
 -5.41805813E-01  4.10524067E+00 -6.15552913E-01 -3.04238012E+00  2.41907026E+00
Constraint Structure                       R   N=          60
  3.03517616E+00  1.90610158E+00 -4.10854042E-02  2.97268679E+00  3.16583431E+00
  1.64596031E+00  2.95465306E+00  3.11423445E+00 -1.76463106E+00  4.88851679E+00
  9.04921089E-01 -3.59029552E-02  8.15502004E-01  5.44021163E-03 -2.53281761E-04
 -1.69701819E+00  1.53855877E+00 -7.95436402E-03 -1.74271999E+00  2.78043805E+00
 -1.71089535E+00 -1.73858410E+00  2.80227665E+00  1.67883256E+00 -4.16336706E+00
  2.12050439E-02  1.50504764E-03 -4.29893324E+00 -1.19563493E+00  1.71001730E+00
 -5.79223935E+00  1.35387506E+00  2.21907690E-02 -4.32225288E+00 -1.17154314E+00
 -1.72227295E+00  1.02757683E+00 -1.70194932E+00 -2.35887655E+00 -4.28252221E-01
 -3.22058824E+00 -2.33081355E+00  7.75808867E-01 -5.73059295E-01 -4.11862171E+00
  2.91481538E+00 -2.63414296E+00 -2.43911161E+00  1.05622038E+00 -1.63062648E+00
  2.40613141E+00  2.94183515E+00 -2.56567410E+00  2.48763297E+00  8.33287476E-01
 -4.48111034E-01  4.13448775E+00 -4.03162455E-01 -3.14520481E+00  2.44632642E+00
Num ILSW                                   I              100
ILSW                                       I   N=         100
           0           0           0           0           2           0
           0           0           0           0           0          -1
           0           0           0           0           0           0
           0           0           0           0           1           0
           1           0           0           0           0           0
           0           0      100000           0          -1           0
           0           0           0           0           0           0
           0           0           0          40           0           0
           0           0           1           0           0           0
           0           0           4          40           0           0
           0           0           0           0           0           0
           0           0           0           0           0           0
           0           0           0           0           0           0
           0           0           0           0           0           0
           0           0           0           0           0           0
           0           0           0           0           0           0
           0           0           0           0
Num RLSW                                   I               40
RLSW                                       R   N=          40
  1.00000000E+00  1.00000000E+00  1.00000000E+00  1.00000000E+00  1.00000000E+00
  0.00000000E+00  0.00000000E+00  1.00000000E+00  0.00000000E+00  0.00000000E+00
  0.00000000E+00  0.00000000E+00  1.00000000E+00  0.00000000E+00  0.00000000E+00
  0.00000000E+00  0.00000000E+00  1.00000000E+00  0.00000000E+00  0.00000000E+00
  0.00000000E+00  0.00000000E+00  1.00000000E+00  0.00000000E+00  0.00000000E+00
  0.00000000E+00  0.00000000E+00  1.00000000E+00  0.00000000E+00  0.00000000E+00
  0.00000000E+00  0.00000000E+00  0.00000000E+00  0.00000000E+00  0.00000000E+00
  0.00000000E+00  0.00000000E+00  0.00000000E+00  1.00000000E+00  1.00000000E+00
MxBond                                     I                4
NBond                                      I   N=          20
           4           1           1           1           4           4
           1           1           4           1           1           1
           4           1           1           1           4           1
           1           1
IBond                                      I   N=          80
           2           3           4           5           1           0
           0           0           1           0           0           0
           1           0           0           0           1           6
          13          17           5           7           8           9
           6           0           0           0           6           0
           0           0           6          10          11          12
           9           0           0           0           9           0
           0           0           9           0           0           0
           5          14          15          16          13           0
           0           0          13           0           0           0
          13           0           0           0           5          18
          19          20          17           0           0           0
          17           0           0           0          17           0
           0           0
RBond                                      R   N=          80
  1.00000000E+00  1.00000000E+00  1.00000000E+00  1.00000000E+00  1.00000000E+00
  0.00000000E+00  0.00000000E+00  0.00000000E+00  1.00000000E+00  0.00000000E+00
  0.00000000E+00  0.00000000E+00  1.00000000E+00  0.00000000E+00  0.00000000E+00
  0.00000000E+00  1.00000000E+00  1.00000000E+00  1.00000000E+00  1.00000000E+00
  1.00000000E+00  1.00000000E+00  1.00000000E+00  1.00000000E+00  1.00000000E+00
  0.00000000E+00  0.00000000E+00  0.00000000E+00  1.00000000E+00  0.00000000E+00
  0.00000000E+00  0.00000000E+00  1.00000000E+00  1.00000000E+00  1.00000000E+00
  1.00000000E+00  1.00000000E+00  0.00000000E+00  0.00000000E+00  0.00000000E+00
  1.00000000E+00  0.00000000E+00  0.00000000E+00  0.00000000E+00  1.00000000E+00
  0.00000000E+00  0.00000000E+00  0.00000000E+00  1.00000000E+00  1.00000000E+00
  1.00000000E+00  1.00000000E+00  1.00000000E+00  0.00000000E+00  0.00000000E+00
  0.00000000E+00  1.00000000E+00  0.00000000E+00  0.00000000E+00  0.00000000E+00
  1.00000000E+00  0.00000000E+00  0.00000000E+00  0.00000000E+00  1.00000000E+00
  1.00000000E+00  1.00000000E+00  1.00000000E+00  1.00000000E+00  0.00000000E+00
  0.00000000E+00  0.00000000E+00  1.00000000E+00  0.00000000E+00  0.00000000E+00
  0.00000000E+00  1.00000000E+00  0.00000000E+00  0.00000000E+00  0.00000000E+00
Virial Ratio                               R      9.989298092888228E-01
SCF Energy                                 R     -6.043141760804360E-02
Total Energy                               R     -6.043141760804360E-02
RMS Force                                  R      3.161854287360243E-06
RMS Density                                R      7.950575550858869E-09
External E-field                           R   N=          35
  0.00000000E+00  0.00000000E+00  0.00000000E+00  0.00000000E+00  0.00000000E+00
  0.00000000E+00  0.00000000E+00  0.00000000E+00  0.00000000E+00  0.00000000E+00
  0.00000000E+00  0.00000000E+00  0.00000000E+00  0.00000000E+00  0.00000000E+00
  0.00000000E+00  0.00000000E+00  0.00000000E+00  0.00000000E+00  0.00000000E+00
  0.00000000E+00  0.00000000E+00  0.00000000E+00  0.00000000E+00  0.00000000E+00
  0.00000000E+00  0.00000000E+00  0.00000000E+00  0.00000000E+00  0.00000000E+00
  0.00000000E+00  0.00000000E+00  0.00000000E+00  0.00000000E+00  0.00000000E+00
IOpCl                                      I                0
IROHF                                      I                0
Alpha Orbital Energies                     R   N=          38
 -1.07267222E+00 -9.53069231E-01 -8.83921403E-01 -8.82550405E-01 -7.92404297E-01
 -6.66258539E-01 -5.70553581E-01 -5.65795925E-01 -5.41497236E-01 -5.25341763E-01
 -4.95931265E-01 -4.77496451E-01 -4.73023614E-01 -4.60547039E-01 -4.59011026E-01
 -4.35639245E-01 -4.13463662E-01 -4.09238087E-01 -4.01645803E-01  1.54719421E-01
  1.61724528E-01  1.63521770E-01  1.81537094E-01  1.84115165E-01  2.14043063E-01
  2.21991236E-01  2.24006981E-01  2.24282292E-01  2.26809240E-01  2.27392115E-01
  2.28271851E-01  2.28812027E-01  2.33639414E-01  2.47601236E-01  2.55491199E-01
  2.60188945E-01  2.65631464E-01  2.66627730E-01
Alpha MO coefficients                      R   N=        1444
  3.04542095E-01 -8.85319049E-02 -6.63424720E-02  5.23003884E-05  1.27082727E-01
  1.27081720E-01  1.24990071E-01  4.96578371E-01 -1.39060717E-02  5.40661571E-03
 -6.71428275E-07  3.66151200E-01  6.10225422E-02 -7.36927753E-02  4.17883704E-05
  1.51658931E-01  1.51661333E-01  2.34380606E-01  7.81114449E-02  2.05678453E-02
 -9.37149750E-06  1.07132860E-01  8.64177363E-02  1.07127016E-01  3.10653380E-01
 -1.00895531E-02  6.38526866E-02  8.99716023E-02  1.33880289E-01  1.29752172E-01
  1.26679420E-01  3.10656775E-01 -1.01035632E-02  6.37302003E-02 -9.00574804E-02
  1.26680395E-01  1.29751442E-01  1.33885334E-01 -2.95203403E-01  1.36491195E-03
  4.76054930E-02 -3.31938595E-05 -1.20131977E-01 -1.20137954E-01 -1.49469271E-01
 -1.63728836E-01 -1.82427010E-01  4.42307141E-02 -1.94376137E-05  3.71705464E-01
 -1.85017633E-01 -3.30517645E-02  1.90709433E-05  1.55460541E-01  1.55462674E-01
  5.52048600E-01  4.22487485E-02  4.94987231E-02 -2.52372371E-05  2.35096736E-01
  2.52699412E-01  2.35097755E-01 -1.63053884E-01 -5.62174790E-02 -1.40992842E-02
 -3.37461719E-02 -3.89740008E-02 -6.18055584E-02 -9.81641348E-02 -1.63057643E-01
 -5.62120054E-02 -1.40561457E-02  3.37723699E-02 -9.81597506E-02 -6.18289701E-02
 -3.89561700E-02  5.15846022E-01  1.09200915E-02  7.12859461E-02 -4.34516667E-05
  2.58698750E-01  2.58683286E-01  2.18124279E-01 -2.45212785E-03  8.46652901E-02
  2.78309295E-01 -1.77360691E-04  1.64834801E-01  3.75251699E-02  8.23761106E-02
 -5.28901444E-05  1.03754184E-01  1.03742735E-01 -8.74154341E-04  1.28161344E-02
  5.08390093E-02 -2.98608668E-05 -2.45013265E-02  1.15243691E-02 -2.44925339E-02
 -3.38620881E-01  2.68775220E-02  7.31749759E-02 -9.11445579E-03 -1.94396631E-01
 -1.26919135E-01 -1.61711385E-01 -3.38558425E-01  2.68782839E-02  7.31896922E-02
  9.01928235E-03 -1.61707850E-01 -1.26874643E-01 -1.94356811E-01 -4.28516096E-05
  2.40720414E-06  5.43728538E-05  8.38028178E-02  3.93972475E-02 -3.94469866E-02
 -1.17287523E-05  1.31868280E-06  7.06151645E-06  1.85023184E-04  2.91092657E-01
  6.98724789E-06  8.96169615E-06  5.32727292E-05  8.47648268E-02 -4.05227145E-02
  4.05366649E-02 -1.63640823E-05  5.88460281E-07  2.43869569E-05  3.94888439E-02
  2.77459589E-02 -5.14330410E-06 -2.77630987E-02 -5.11941697E-01  1.07533478E-03
 -9.07380791E-03  7.02313903E-02 -2.29949711E-01 -2.69363841E-01 -2.30691830E-01
  5.11975912E-01 -1.07453576E-03  9.16255525E-03  7.02180870E-02  2.30690779E-01
  2.69376950E-01  2.29986111E-01 -2.69807282E-01 -1.56086374E-01 -2.15825148E-02
  2.58867838E-05 -1.28989245E-01 -1.29003592E-01 -1.95475124E-01  1.93369017E-01
 -2.04861752E-01  1.04461146E-01 -5.86742694E-05  4.21539858E-01  1.97330270E-01
  9.19389797E-02 -4.80273857E-05  2.20030250E-01  2.20030241E-01 -4.01195927E-01
  2.01836697E-01  1.20400627E-01 -6.53687208E-05 -2.32374638E-01 -2.33828571E-01
 -2.32372604E-01 -5.88494057E-02 -4.91385693E-02  6.65358529E-02  4.16501889E-02
 -4.23579402E-02 -2.34744891E-02 -7.43351420E-02 -5.88917800E-02 -4.91471358E-02
  6.64894660E-02 -4.17443187E-02 -7.43583537E-02 -2.35078873E-02 -4.23703477E-02
 -8.21761089E-02 -1.98418079E-01 -1.95887872E-01  1.44308723E-04 -1.17244322E-01
 -1.17231974E-01 -8.90350248E-02  4.62964274E-01  1.92284309E-02 -3.83333791E-02
  2.00785597E-05 -1.99768666E-01  1.67792542E-01 -2.66230673E-01  1.43195740E-04
 -1.97579328E-01 -1.97576956E-01  9.97870221E-02 -7.38220038E-02 -1.70905898E-01
  9.12047643E-05  1.05712990E-01  2.01903547E-02  1.05703343E-01 -1.44182466E-01
 -2.49570202E-02  1.71567252E-01  2.76696928E-01 -1.26497185E-01 -1.57278339E-01
 -1.47053687E-01 -1.44172014E-01 -2.49922444E-02  1.71177495E-01 -2.76923833E-01
 -1.47037313E-01 -1.57282375E-01 -1.26488066E-01 -5.94398142E-02 -4.03132903E-02
 -3.37578374E-01  1.82391296E-04 -1.60312212E-01 -1.60209911E-01  6.93264506E-02
  5.15007025E-02  3.37680215E-01 -7.75016907E-02 -2.52127551E-05  2.80400347E-02
 -1.73382800E-01  2.72026645E-01 -2.78662235E-04  1.17886393E-01  1.17739641E-01
  2.81927738E-02 -1.72657031E-01  2.89584503E-01 -2.73467899E-04 -1.04217383E-01
  2.25502055E-01 -1.04044527E-01 -2.06324116E-03  3.29203407E-01  2.17568345E-02
  1.00477278E-01 -1.87912405E-01 -6.34686387E-02  1.81378858E-01 -2.02321349E-03
  3.29239713E-01  2.15173249E-02 -1.00516142E-01  1.81427088E-01 -6.33646342E-02
 -1.87957128E-01 -2.09495800E-06  7.42662457E-05  9.42046781E-05  2.69914201E-01
  1.52513076E-01 -1.52615159E-01  9.02131138E-05  1.16739735E-05  9.17684703E-05
  1.09355412E-04  2.76794288E-01  1.16539688E-05 -5.98820725E-05  3.29064085E-04
  4.66292027E-01 -2.58674289E-01  2.58748701E-01  3.52115055E-06 -4.06827039E-05
  2.76018180E-04  3.54879865E-01  1.89752305E-01  8.21159170E-05 -1.89840663E-01
  7.60750151E-02  7.59266358E-02 -2.60378286E-01 -8.79557442E-02  1.05217613E-01
 -2.18155810E-02  1.69513037E-01 -7.60975194E-02 -7.58097277E-02  2.60213454E-01
 -8.84692332E-02 -1.69473719E-01  2.16646323E-02 -1.05211984E-01  4.02899962E-02
  3.77069433E-01 -2.10436813E-02 -1.66881997E-04  5.71534618E-03  5.93218424E-03
  2.51005135E-01 -2.56332890E-02 -8.82282540E-02 -3.31744492E-01  1.27520495E-04
  1.01497423E-01 -2.19909614E-01 -9.30882274E-02  4.32152493E-05  2.33333675E-03
  2.31860024E-03 -2.88963628E-02  2.70149671E-01  9.89610708E-02  1.06148567E-05
 -6.30092828E-02 -1.22813373E-01 -6.31017617E-02 -3.09272019E-02 -6.50216209E-02
 -2.00292684E-01  3.37761908E-01  1.06494533E-01 -2.81240376E-01  1.48804774E-02
 -3.09020662E-02 -6.51208355E-02 -2.00971476E-01 -3.37430787E-01  1.50578309E-02
 -2.81313000E-01  1.06541870E-01  7.18334312E-06  1.35617962E-04  3.18538513E-04
  4.33014833E-01  2.43432440E-01 -2.43459057E-01  1.06841693E-04 -6.77137955E-06
 -3.10945038E-05  4.87851839E-05  2.05131360E-01  2.15782588E-05 -3.82291154E-05
 -1.36907020E-04 -1.93987243E-01  1.01766690E-01 -1.01779258E-01 -1.00107007E-06
  7.28156344E-05 -2.28606328E-04 -4.22645059E-01 -2.49469364E-01 -7.01792162E-05
  2.49487922E-01  4.00944734E-03 -1.91701037E-01 -2.36039413E-01 -3.41374409E-02
  2.17284505E-01 -6.09999952E-02 -2.64052296E-02 -4.01708646E-03  1.91625918E-01
  2.35870977E-01 -3.46760662E-02  2.63148078E-02  6.09283015E-02 -2.17204532E-01
 -8.36295281E-03  2.86997843E-01 -3.43301973E-01  2.44076824E-04 -1.48409979E-01
 -1.48352627E-01  2.99436585E-01 -3.70351076E-02 -2.69703396E-03  2.45166289E-02
 -1.04006190E-05  7.62170088E-02 -1.60093767E-01 -2.57865654E-01  1.67354097E-04
 -7.75866786E-02 -7.75427633E-02  3.34413001E-02  4.01353064E-01 -9.24251881E-02
  3.70193208E-05  3.02409546E-02 -2.60060038E-01  3.02299418E-02 -1.01099058E-02
  8.47705035E-02  2.23765588E-01 -1.96612309E-01 -1.51858691E-01  1.93172313E-01
 -2.32489712E-02 -1.01096607E-02  8.47847605E-02  2.24040207E-01  1.96289256E-01
 -2.33764502E-02  1.93209384E-01 -1.51774623E-01  7.45243642E-03  1.74182616E-01
 -5.69669016E-02  1.85573033E-05 -1.94951922E-02 -1.94533923E-02  1.23019229E-01
  6.06053835E-02 -6.16464191E-02 -1.39788666E-01  8.11355442E-05 -6.53123036E-02
 -1.01271624E-01 -3.34104067E-02  4.37710860E-05 -4.80489006E-02 -4.80143404E-02
 -1.66594053E-02 -2.21065700E-01  4.84283010E-01 -2.53681052E-04 -2.01403424E-01
  3.44479750E-01 -2.01342921E-01  3.34760651E-02 -2.86143015E-01  2.11422279E-01
 -2.83989200E-02  5.67956349E-02  1.32241403E-01 -2.46478900E-01  3.34754705E-02
 -2.85984022E-01  2.11410178E-01  2.81393919E-02 -2.46386289E-01  1.32114365E-01