 Entering Gaussian System, Link 0=/home/hetanjin/apps/g09D01/g09/g09
 Input=C6H14_5_r004_C17_2_opt_B3L.gjf
 Output=C6H14_5_r004_C17_2_opt_B3L.log
 Initial command:
 /home/hetanjin/apps/g09D01/g09/l1.exe "/state/partition1/Gau-5780.inp" -scrdir="/state/partition1/"
 Entering Link 1 = /home/hetanjin/apps/g09D01/g09/l1.exe PID=      5781.
  
 Copyright (c) 1988,1990,1992,1993,1995,1998,2003,2009,2013,
            Gaussian, Inc.  All Rights Reserved.
  
 This is part of the Gaussian(R) 09 program.  It is based on
 the Gaussian(R) 03 system (copyright 2003, Gaussian, Inc.),
 the Gaussian(R) 98 system (copyright 1998, Gaussian, Inc.),
 the Gaussian(R) 94 system (copyright 1995, Gaussian, Inc.),
 the Gaussian 92(TM) system (copyright 1992, Gaussian, Inc.),
 the Gaussian 90(TM) system (copyright 1990, Gaussian, Inc.),
 the Gaussian 88(TM) system (copyright 1988, Gaussian, Inc.),
 the Gaussian 86(TM) system (copyright 1986, Carnegie Mellon
 University), and the Gaussian 82(TM) system (copyright 1983,
 Carnegie Mellon University). Gaussian is a federally registered
 trademark of Gaussian, Inc.
  
 This software contains proprietary and confidential information,
 including trade secrets, belonging to Gaussian, Inc.
  
 This software is provided under written license and may be
 used, copied, transmitted, or stored only in accord with that
 written license.
  
 The following legend is applicable only to US Government
 contracts under FAR:
  
                    RESTRICTED RIGHTS LEGEND
  
 Use, reproduction and disclosure by the US Government is
 subject to restrictions as set forth in subparagraphs (a)
 and (c) of the Commercial Computer Software - Restricted
 Rights clause in FAR 52.227-19.
  
 Gaussian, Inc.
 340 Quinnipiac St., Bldg. 40, Wallingford CT 06492
  
  
 ---------------------------------------------------------------
 Warning -- This program may not be used in any manner that
 competes with the business of Gaussian, Inc. or will provide
 assistance to any competitor of Gaussian, Inc.  The licensee
 of this program is prohibited from giving any competitor of
 Gaussian, Inc. access to this program.  By using this program,
 the user acknowledges that Gaussian, Inc. is engaged in the
 business of creating and licensing software in the field of
 computational chemistry and represents and warrants to the
 licensee that it is not a competitor of Gaussian, Inc. and that
 it will not use this program in any manner prohibited above.
 ---------------------------------------------------------------
  

 Cite this work as:
 Gaussian 09, Revision D.01,
 M. J. Frisch, G. W. Trucks, H. B. Schlegel, G. E. Scuseria, 
 M. A. Robb, J. R. Cheeseman, G. Scalmani, V. Barone, B. Mennucci, 
 G. A. Petersson, H. Nakatsuji, M. Caricato, X. Li, H. P. Hratchian, 
 A. F. Izmaylov, J. Bloino, G. Zheng, J. L. Sonnenberg, M. Hada, 
 M. Ehara, K. Toyota, R. Fukuda, J. Hasegawa, M. Ishida, T. Nakajima, 
 Y. Honda, O. Kitao, H. Nakai, T. Vreven, J. A. Montgomery, Jr., 
 J. E. Peralta, F. Ogliaro, M. Bearpark, J. J. Heyd, E. Brothers, 
 K. N. Kudin, V. N. Staroverov, T. Keith, R. Kobayashi, J. Normand, 
 K. Raghavachari, A. Rendell, J. C. Burant, S. S. Iyengar, J. Tomasi, 
 M. Cossi, N. Rega, J. M. Millam, M. Klene, J. E. Knox, J. B. Cross, 
 V. Bakken, C. Adamo, J. Jaramillo, R. Gomperts, R. E. Stratmann, 
 O. Yazyev, A. J. Austin, R. Cammi, C. Pomelli, J. W. Ochterski, 
 R. L. Martin, K. Morokuma, V. G. Zakrzewski, G. A. Voth, 
 P. Salvador, J. J. Dannenberg, S. Dapprich, A. D. Daniels, 
 O. Farkas, J. B. Foresman, J. V. Ortiz, J. Cioslowski, 
 and D. J. Fox, Gaussian, Inc., Wallingford CT, 2013.
 
 ******************************************
 Gaussian 09:  ES64L-G09RevD.01 24-Apr-2013
                 7-Nov-2015 
 ******************************************
 %mem=6GB
 %nprocshared=4
 Will use up to    4 processors via shared memory.
 ----------------------------------------------
 #p B3LYP/6-31G(d) opt=tight int=ultrafine freq
 ----------------------------------------------
 1/7=10,14=-1,18=20,19=15,26=4,38=1/1,3;
 2/9=110,12=2,17=6,18=5,40=1/2;
 3/5=1,6=6,7=1,11=2,16=1,25=1,30=1,71=1,74=-5,75=-5/1,2,3;
 4//1;
 5/5=2,38=5/2;
 6/7=2,8=2,9=2,10=2,28=1/1;
 7//1,2,3,16;
 1/7=10,14=-1,18=20,19=15,26=4/3(2);
 2/9=110/2;
 99//99;
 2/9=110/2;
 3/5=1,6=6,7=1,11=2,16=1,25=1,30=1,71=1,74=-5,75=-5/1,2,3;
 4/5=5,16=3,69=1/1;
 5/5=2,38=5/2;
 7//1,2,3,16;
 1/7=10,14=-1,18=20,19=15,26=4/3(-5);
 2/9=110/2;
 6/7=2,8=2,9=2,10=2,19=2,28=1/1;
 99/9=1/99;
 Leave Link    1 at Sat Nov  7 02:12:32 2015, MaxMem=   805306368 cpu:         0.2
 (Enter /home/hetanjin/apps/g09D01/g09/l101.exe)
 ---------------------------------------------
 using B3LYP/6-31G(d) to do opt and freq calc.
 ---------------------------------------------
 Symbolic Z-matrix:
 Charge =  0 Multiplicity = 2
 C                     1.61803   0.98966  -0.00005 
 H                     1.59367   1.63643   0.88596 
 H                     1.59367   1.63635  -0.88611 
 H                     2.57832   0.45929  -0.00002 
 C                     0.43635  -0.0005    0. 
 C                    -0.87859   0.82391  -0.00003 
 H                    -0.86571   1.48649  -0.87756 
 H                    -0.86571   1.48655   0.87745 
 C                    -2.19348   0.03388  0. 
 H                    -2.28903  -0.60502   0.88496 
 H                    -3.04849   0.71981  -0.00001 
 H                    -2.28904  -0.60506  -0.88493 
 C                     0.5289   -0.88501  -1.25865 
 H                    -0.26244  -1.64248  -1.28525 
 H                     0.44851  -0.28292  -2.17262 
 H                     1.4897   -1.41334  -1.29204 
 C                     0.52891  -0.8849    1.25873 
 H                     1.4897   -1.41324   1.29215 
 H                    -0.26244  -1.64236   1.2854 
 
 NAtoms=     19 NQM=       19 NQMF=       0 NMMI=      0 NMMIF=      0
                NMic=       0 NMicF=      0.
                    Isotopes and Nuclear Properties:
 (Nuclear quadrupole moments (NQMom) in fm**2, nuclear magnetic moments (NMagM)
  in nuclear magnetons)

  Atom         1           2           3           4           5           6           7           8           9          10
 IAtWgt=          12           1           1           1          12          12           1           1          12           1
 AtmWgt=  12.0000000   1.0078250   1.0078250   1.0078250  12.0000000  12.0000000   1.0078250   1.0078250  12.0000000   1.0078250
 NucSpn=           0           1           1           1           0           0           1           1           0           1
 AtZEff=   0.0000000   0.0000000   0.0000000   0.0000000   0.0000000   0.0000000   0.0000000   0.0000000   0.0000000   0.0000000
 NQMom=    0.0000000   0.0000000   0.0000000   0.0000000   0.0000000   0.0000000   0.0000000   0.0000000   0.0000000   0.0000000
 NMagM=    0.0000000   2.7928460   2.7928460   2.7928460   0.0000000   0.0000000   2.7928460   2.7928460   0.0000000   2.7928460
 AtZNuc=   6.0000000   1.0000000   1.0000000   1.0000000   6.0000000   6.0000000   1.0000000   1.0000000   6.0000000   1.0000000

  Atom        11          12          13          14          15          16          17          18          19
 IAtWgt=           1           1          12           1           1           1          12           1           1
 AtmWgt=   1.0078250   1.0078250  12.0000000   1.0078250   1.0078250   1.0078250  12.0000000   1.0078250   1.0078250
 NucSpn=           1           1           0           1           1           1           0           1           1
 AtZEff=   0.0000000   0.0000000   0.0000000   0.0000000   0.0000000   0.0000000   0.0000000   0.0000000   0.0000000
 NQMom=    0.0000000   0.0000000   0.0000000   0.0000000   0.0000000   0.0000000   0.0000000   0.0000000   0.0000000
 NMagM=    2.7928460   2.7928460   0.0000000   2.7928460   2.7928460   2.7928460   0.0000000   2.7928460   2.7928460
 AtZNuc=   1.0000000   1.0000000   6.0000000   1.0000000   1.0000000   1.0000000   6.0000000   1.0000000   1.0000000
 Leave Link  101 at Sat Nov  7 02:12:32 2015, MaxMem=   805306368 cpu:         0.6
 (Enter /home/hetanjin/apps/g09D01/g09/l103.exe)

 GradGradGradGradGradGradGradGradGradGradGradGradGradGradGradGradGradGrad
 Berny optimization.
 Initialization pass.
                           ----------------------------
                           !    Initial Parameters    !
                           ! (Angstroms and Degrees)  !
 --------------------------                            --------------------------
 ! Name  Definition              Value          Derivative Info.                !
 --------------------------------------------------------------------------------
 ! R1    R(1,2)                  1.0972         estimate D2E/DX2                !
 ! R2    R(1,3)                  1.0972         estimate D2E/DX2                !
 ! R3    R(1,4)                  1.097          estimate D2E/DX2                !
 ! R4    R(1,5)                  1.5417         estimate D2E/DX2                !
 ! R5    R(5,6)                  1.552          estimate D2E/DX2                !
 ! R6    R(5,13)                 1.5411         estimate D2E/DX2                !
 ! R7    R(5,17)                 1.5411         estimate D2E/DX2                !
 ! R8    R(6,7)                  1.0996         estimate D2E/DX2                !
 ! R9    R(6,8)                  1.0996         estimate D2E/DX2                !
 ! R10   R(6,9)                  1.534          estimate D2E/DX2                !
 ! R11   R(9,10)                 1.0957         estimate D2E/DX2                !
 ! R12   R(9,11)                 1.0961         estimate D2E/DX2                !
 ! R13   R(9,12)                 1.0957         estimate D2E/DX2                !
 ! R14   R(13,14)                1.0958         estimate D2E/DX2                !
 ! R15   R(13,15)                1.0974         estimate D2E/DX2                !
 ! R16   R(13,16)                1.097          estimate D2E/DX2                !
 ! R17   R(17,18)                1.097          estimate D2E/DX2                !
 ! R18   R(17,19)                1.0958         estimate D2E/DX2                !
 ! A1    A(2,1,3)              107.7092         estimate D2E/DX2                !
 ! A2    A(2,1,4)              107.7219         estimate D2E/DX2                !
 ! A3    A(2,1,5)              111.195          estimate D2E/DX2                !
 ! A4    A(3,1,4)              107.722          estimate D2E/DX2                !
 ! A5    A(3,1,5)              111.195          estimate D2E/DX2                !
 ! A6    A(4,1,5)              111.1274         estimate D2E/DX2                !
 ! A7    A(1,5,6)              107.9534         estimate D2E/DX2                !
 ! A8    A(1,5,13)             108.8179         estimate D2E/DX2                !
 ! A9    A(1,5,17)             108.8179         estimate D2E/DX2                !
 ! A10   A(6,5,13)             110.8381         estimate D2E/DX2                !
 ! A11   A(6,5,17)             110.8381         estimate D2E/DX2                !
 ! A12   A(13,5,17)            109.5162         estimate D2E/DX2                !
 ! A13   A(5,6,7)              108.0687         estimate D2E/DX2                !
 ! A14   A(5,6,8)              108.0687         estimate D2E/DX2                !
 ! A15   A(5,6,9)              116.915          estimate D2E/DX2                !
 ! A16   A(7,6,8)              105.8765         estimate D2E/DX2                !
 ! A17   A(7,6,9)              108.6851         estimate D2E/DX2                !
 ! A18   A(8,6,9)              108.6852         estimate D2E/DX2                !
 ! A19   A(6,9,10)             112.0296         estimate D2E/DX2                !
 ! A20   A(6,9,11)             110.2629         estimate D2E/DX2                !
 ! A21   A(6,9,12)             112.0296         estimate D2E/DX2                !
 ! A22   A(10,9,11)            107.27           estimate D2E/DX2                !
 ! A23   A(10,9,12)            107.7399         estimate D2E/DX2                !
 ! A24   A(11,9,12)            107.27           estimate D2E/DX2                !
 ! A25   A(5,13,14)            111.913          estimate D2E/DX2                !
 ! A26   A(5,13,15)            111.1551         estimate D2E/DX2                !
 ! A27   A(5,13,16)            110.724          estimate D2E/DX2                !
 ! A28   A(14,13,15)           107.8276         estimate D2E/DX2                !
 ! A29   A(14,13,16)           107.389          estimate D2E/DX2                !
 ! A30   A(15,13,16)           107.6407         estimate D2E/DX2                !
 ! A31   A(5,17,18)            110.7241         estimate D2E/DX2                !
 ! A32   A(5,17,19)            111.913          estimate D2E/DX2                !
 ! A33   A(18,17,19)           107.3889         estimate D2E/DX2                !
 ! D1    D(2,1,5,6)             60.0094         estimate D2E/DX2                !
 ! D2    D(2,1,5,13)          -179.6279         estimate D2E/DX2                !
 ! D3    D(2,1,5,17)           -60.3531         estimate D2E/DX2                !
 ! D4    D(3,1,5,6)            -60.01           estimate D2E/DX2                !
 ! D5    D(3,1,5,13)            60.3526         estimate D2E/DX2                !
 ! D6    D(3,1,5,17)           179.6274         estimate D2E/DX2                !
 ! D7    D(4,1,5,6)            179.9997         estimate D2E/DX2                !
 ! D8    D(4,1,5,13)           -59.6377         estimate D2E/DX2                !
 ! D9    D(4,1,5,17)            59.6371         estimate D2E/DX2                !
 ! D10   D(1,5,6,7)             57.0744         estimate D2E/DX2                !
 ! D11   D(1,5,6,8)            -57.0751         estimate D2E/DX2                !
 ! D12   D(1,5,6,9)            179.9996         estimate D2E/DX2                !
 ! D13   D(13,5,6,7)           -62.0124         estimate D2E/DX2                !
 ! D14   D(13,5,6,8)          -176.1619         estimate D2E/DX2                !
 ! D15   D(13,5,6,9)            60.9128         estimate D2E/DX2                !
 ! D16   D(17,5,6,7)           176.1612         estimate D2E/DX2                !
 ! D17   D(17,5,6,8)            62.0117         estimate D2E/DX2                !
 ! D18   D(17,5,6,9)           -60.9136         estimate D2E/DX2                !
 ! D19   D(1,5,13,14)          177.2395         estimate D2E/DX2                !
 ! D20   D(1,5,13,15)          -62.1296         estimate D2E/DX2                !
 ! D21   D(1,5,13,16)           57.4635         estimate D2E/DX2                !
 ! D22   D(6,5,13,14)          -64.1959         estimate D2E/DX2                !
 ! D23   D(6,5,13,15)           56.435          estimate D2E/DX2                !
 ! D24   D(6,5,13,16)          176.0282         estimate D2E/DX2                !
 ! D25   D(17,5,13,14)          58.4016         estimate D2E/DX2                !
 ! D26   D(17,5,13,15)         179.0325         estimate D2E/DX2                !
 ! D27   D(17,5,13,16)         -61.3744         estimate D2E/DX2                !
 ! D28   D(1,5,17,18)          -57.4641         estimate D2E/DX2                !
 ! D29   D(1,5,17,19)         -177.2401         estimate D2E/DX2                !
 ! D30   D(6,5,17,18)         -176.0287         estimate D2E/DX2                !
 ! D31   D(6,5,17,19)           64.1953         estimate D2E/DX2                !
 ! D32   D(13,5,17,18)          61.3738         estimate D2E/DX2                !
 ! D33   D(13,5,17,19)         -58.4022         estimate D2E/DX2                !
 ! D34   D(5,6,9,10)            60.6085         estimate D2E/DX2                !
 ! D35   D(5,6,9,11)           179.9992         estimate D2E/DX2                !
 ! D36   D(5,6,9,12)           -60.6101         estimate D2E/DX2                !
 ! D37   D(7,6,9,10)          -176.7844         estimate D2E/DX2                !
 ! D38   D(7,6,9,11)           -57.3938         estimate D2E/DX2                !
 ! D39   D(7,6,9,12)            61.9969         estimate D2E/DX2                !
 ! D40   D(8,6,9,10)           -61.9986         estimate D2E/DX2                !
 ! D41   D(8,6,9,11)            57.3921         estimate D2E/DX2                !
 ! D42   D(8,6,9,12)           176.7828         estimate D2E/DX2                !
 --------------------------------------------------------------------------------
 Trust Radius=3.00D-01 FncErr=1.00D-07 GrdErr=1.00D-06
 Number of steps in this run=    103 maximum allowed number of steps=    114.
 GradGradGradGradGradGradGradGradGradGradGradGradGradGradGradGradGradGrad

 Leave Link  103 at Sat Nov  7 02:12:32 2015, MaxMem=   805306368 cpu:         0.0
 (Enter /home/hetanjin/apps/g09D01/g09/l202.exe)
                          Input orientation:                          
 ---------------------------------------------------------------------
 Center     Atomic      Atomic             Coordinates (Angstroms)
 Number     Number       Type             X           Y           Z
 ---------------------------------------------------------------------
      1          6           0        1.618032    0.989661   -0.000046
      2          1           0        1.593672    1.636429    0.885962
      3          1           0        1.593672    1.636347   -0.886113
      4          1           0        2.578316    0.459293   -0.000021
      5          6           0        0.436353   -0.000500    0.000000
      6          6           0       -0.878586    0.823914   -0.000030
      7          1           0       -0.865713    1.486486   -0.877558
      8          1           0       -0.865712    1.486551    0.877447
      9          6           0       -2.193477    0.033880   -0.000001
     10          1           0       -2.289029   -0.605019    0.884964
     11          1           0       -3.048488    0.719808   -0.000012
     12          1           0       -2.289041   -0.605062   -0.884933
     13          6           0        0.528897   -0.885012   -1.258652
     14          1           0       -0.262439   -1.642476   -1.285245
     15          1           0        0.448512   -0.282917   -2.172624
     16          1           0        1.489696   -1.413344   -1.292039
     17          6           0        0.528906   -0.884904    1.258727
     18          1           0        1.489700   -1.413241    1.292148
     19          1           0       -0.262436   -1.642360    1.285396
 ---------------------------------------------------------------------
                    Distance matrix (angstroms):
                    1          2          3          4          5
     1  C    0.000000
     2  H    1.097229   0.000000
     3  H    1.097229   1.772075   0.000000
     4  H    1.097012   1.772044   1.772044   0.000000
     5  C    1.541682   2.191769   2.191769   2.190757   0.000000
     6  C    2.502114   2.749040   2.749045   3.476078   1.552006
     7  H    2.680644   3.030026   2.463961   3.699531   2.162547
     8  H    2.680649   2.463961   3.030042   3.699532   2.162546
     9  C    3.929519   4.206613   4.206613   4.790719   2.630055
    10  H    4.311771   4.483242   4.820353   5.060337   2.928534
    11  H    4.674316   4.814021   4.814028   5.632832   3.558505
    12  H    4.311773   4.820354   4.483233   5.060344   2.928545
    13  C    2.506931   3.477180   2.762206   2.755254   1.541146
    14  H    3.480812   4.348621   3.788817   3.760202   2.199148
    15  H    2.776207   3.788170   2.578774   3.131636   2.190936
    16  H    2.731327   3.749082   3.078344   2.522137   2.185183
    17  C    2.506930   2.762209   3.477179   2.755248   1.541146
    18  H    2.731332   3.078357   3.749082   2.522136   2.185183
    19  H    3.480812   3.788818   4.348621   3.760201   2.199148
                    6          7          8          9         10
     6  C    0.000000
     7  H    1.099647   0.000000
     8  H    1.099645   1.755005   0.000000
     9  C    1.533979   2.154792   2.154792   0.000000
    10  H    2.194177   3.083295   2.529931   1.095667   0.000000
    11  H    2.172398   2.474346   2.474336   1.096148   1.764972
    12  H    2.194176   2.529919   3.083293   1.095666   1.769897
    13  C    2.546677   2.777440   3.483126   3.136859   3.551646
    14  H    2.848595   3.212562   3.851232   2.861980   3.145344
    15  H    2.776046   2.556398   3.763128   3.435223   4.116640
    16  H    3.504764   3.758824   4.320186   4.162882   4.435256
    17  C    2.546677   3.483126   2.777433   3.136866   2.856360
    18  H    3.504763   4.320186   3.758821   4.162884   3.885591
    19  H    2.848591   3.851232   3.212545   2.861983   2.311601
                   11         12         13         14         15
    11  H    0.000000
    12  H    1.764972   0.000000
    13  C    4.117925   2.856364   0.000000
    14  H    3.872245   2.311621   1.095752   0.000000
    15  H    4.237300   3.042388   1.097417   1.772369   0.000000
    16  H    5.178299   3.885603   1.096989   1.767067   1.771259
    17  C    4.117921   3.551678   2.517379   2.769826   3.484684
    18  H    5.178294   4.435281   2.776463   3.124979   3.790297
    19  H    3.872234   3.145384   2.769831   2.570641   3.783046
                   16         17         18         19
    16  H    0.000000
    17  C    2.776468   0.000000
    18  H    2.584187   1.096988   0.000000
    19  H    3.124994   1.095752   1.767066   0.000000
 Stoichiometry    C6H13(2)
 Framework group  C1[X(C6H13)]
 Deg. of freedom    51
 Full point group                 C1      NOp   1
 Largest Abelian subgroup         C1      NOp   1
 Largest concise Abelian subgroup C1      NOp   1
                         Standard orientation:                         
 ---------------------------------------------------------------------
 Center     Atomic      Atomic             Coordinates (Angstroms)
 Number     Number       Type             X           Y           Z
 ---------------------------------------------------------------------
      1          6           0        1.628417    0.981799   -0.045434
      2          1           0        1.589993    1.730357    0.755875
      3          1           0        1.621108    1.517323   -1.003073
      4          1           0        2.587330    0.455110    0.035319
      5          6           0        0.444644   -0.000974    0.052654
      6          6           0       -0.868191    0.817692   -0.069714
      7          1           0       -0.838387    1.370006   -1.020126
      8          1           0       -0.869201    1.580972    0.721880
      9          6           0       -2.184694    0.033616    0.001953
     10          1           0       -2.297241   -0.494289    0.955439
     11          1           0       -3.037993    0.714722   -0.095612
     12          1           0       -2.266176   -0.707022   -0.801352
     13          6           0        0.557238   -1.030346   -1.088769
     14          1           0       -0.235250   -1.785378   -1.038169
     15          1           0        0.494300   -0.542434   -2.069741
     16          1           0        1.517257   -1.559030   -1.041416
     17          6           0        0.513046   -0.727722    1.409963
     18          1           0        1.471886   -1.248382    1.523630
     19          1           0       -0.280384   -1.476346    1.513430
 ---------------------------------------------------------------------
 Rotational constants (GHZ):      4.4453745      2.5325887      2.4636024
 Leave Link  202 at Sat Nov  7 02:12:32 2015, MaxMem=   805306368 cpu:         0.1
 (Enter /home/hetanjin/apps/g09D01/g09/l301.exe)
 Standard basis: 6-31G(d) (6D, 7F)
 Ernie: Thresh=  0.10000D-02 Tol=  0.10000D-05 Strict=F.
 There are   116 symmetry adapted cartesian basis functions of A   symmetry.
 There are   116 symmetry adapted basis functions of A   symmetry.
   116 basis functions,   220 primitive gaussians,   116 cartesian basis functions
    25 alpha electrons       24 beta electrons
       nuclear repulsion energy       254.1179731095 Hartrees.
 IExCor=  402 DFT=T Ex+Corr=B3LYP ExCW=0 ScaHFX=  0.200000
 ScaDFX=  0.800000  0.720000  1.000000  0.810000 ScalE2=  1.000000  1.000000
 IRadAn=      5 IRanWt=     -1 IRanGd=            0 ICorTp=0 IEmpDi=  4
 NAtoms=   19 NActive=   19 NUniq=   19 SFac= 1.00D+00 NAtFMM=   60 NAOKFM=F Big=F
 Integral buffers will be    131072 words long.
 Raffenetti 2 integral format.
 Two-electron integral symmetry is turned on.
 Leave Link  301 at Sat Nov  7 02:12:32 2015, MaxMem=   805306368 cpu:         0.2
 (Enter /home/hetanjin/apps/g09D01/g09/l302.exe)
 NPDir=0 NMtPBC=     1 NCelOv=     1 NCel=       1 NClECP=     1 NCelD=      1
         NCelK=      1 NCelE2=     1 NClLst=     1 CellRange=     0.0.
 One-electron integrals computed using PRISM.
 NBasis=   116 RedAO= T EigKep=  3.85D-03  NBF=   116
 NBsUse=   116 1.00D-06 EigRej= -1.00D+00 NBFU=   116
 Precomputing XC quadrature grid using
 IXCGrd= 4 IRadAn=           5 IRanWt=          -1 IRanGd=           0 AccXCQ= 0.00D+00.
 Generated NRdTot=       0 NPtTot=           0 NUsed=           0 NTot=          32
 NSgBfM=   116   116   116   116   116 MxSgAt=    19 MxSgA2=    19.
 Leave Link  302 at Sat Nov  7 02:12:33 2015, MaxMem=   805306368 cpu:         1.7
 (Enter /home/hetanjin/apps/g09D01/g09/l303.exe)
 DipDrv:  MaxL=1.
 Leave Link  303 at Sat Nov  7 02:12:33 2015, MaxMem=   805306368 cpu:         0.1
 (Enter /home/hetanjin/apps/g09D01/g09/l401.exe)
 ExpMin= 1.61D-01 ExpMax= 3.05D+03 ExpMxC= 4.57D+02 IAcc=3 IRadAn=         5 AccDes= 0.00D+00
 Harris functional with IExCor=  402 and IRadAn=       5 diagonalized for initial guess.
 HarFok:  IExCor=  402 AccDes= 0.00D+00 IRadAn=         5 IDoV= 1 UseB2=F ITyADJ=14
 ICtDFT=  3500011 ScaDFX=  1.000000  1.000000  1.000000  1.000000
 FoFCou: FMM=F IPFlag=           0 FMFlag=      100000 FMFlg1=           0
         NFxFlg=           0 DoJE=T BraDBF=F KetDBF=T FulRan=T
         wScrn=  0.000000 ICntrl=     500 IOpCl=  0 I1Cent=   200000004 NGrid=           0
         NMat0=    1 NMatS0=      1 NMatT0=    0 NMatD0=    1 NMtDS0=    0 NMtDT0=    0
 Petite list used in FoFCou.
 Harris En= -236.439921744189    
 JPrj=0 DoOrth=F DoCkMO=F.
 Initial guess <Sx>= 0.0000 <Sy>= 0.0000 <Sz>= 0.5000 <S**2>= 0.7500 S= 0.5000
 Leave Link  401 at Sat Nov  7 02:12:35 2015, MaxMem=   805306368 cpu:         8.8
 (Enter /home/hetanjin/apps/g09D01/g09/l502.exe)
 UHF open shell SCF:
 Using DIIS extrapolation, IDIIS=  1040.
 Integral symmetry usage will be decided dynamically.
 Keep R1 and R2 ints in memory in canonical form, NReq=47059932.
 IVT=       60514 IEndB=       60514 NGot=   805306368 MDV=   759189273
 LenX=   759189273 LenY=   759175376
 Requested convergence on RMS density matrix=1.00D-08 within 128 cycles.
 Requested convergence on MAX density matrix=1.00D-06.
 Requested convergence on             energy=1.00D-06.
 No special actions if energy rises.
 FoFCou: FMM=F IPFlag=           0 FMFlag=           0 FMFlg1=           0
         NFxFlg=           0 DoJE=F BraDBF=F KetDBF=F FulRan=T
         wScrn=  0.000000 ICntrl=     600 IOpCl=  0 I1Cent=           0 NGrid=           0
         NMat0=    1 NMatS0=   6786 NMatT0=    0 NMatD0=    1 NMtDS0=    0 NMtDT0=    0
 Symmetry not used in FoFCou.
 Integral accuracy reduced to 1.0D-05 until final iterations.

 Cycle   1  Pass 0  IDiag  1:
 E= -236.145318646063    
 DIIS: error= 5.08D-02 at cycle   1 NSaved=   1.
 NSaved= 1 IEnMin= 1 EnMin= -236.145318646063     IErMin= 1 ErrMin= 5.08D-02
 ErrMax= 5.08D-02  0.00D+00 EMaxC= 1.00D-01 BMatC= 9.12D-01 BMatP= 9.12D-01
 IDIUse=3 WtCom= 4.92D-01 WtEn= 5.08D-01
 Coeff-Com:  0.100D+01
 Coeff-En:   0.100D+01
 Coeff:      0.100D+01
 Gap=     0.272 Goal=   None    Shift=    0.000
 Gap=     0.223 Goal=   None    Shift=    0.000
 GapD=    0.223 DampG=1.000 DampE=0.500 DampFc=0.5000 IDamp=-1.
 Damping current iteration by 5.00D-01
 RMSDP=9.68D-03 MaxDP=1.39D-01              OVMax= 1.72D-01

 Cycle   2  Pass 0  IDiag  1:
 E= -236.258298127708     Delta-E=       -0.112979481644 Rises=F Damp=T
 DIIS: error= 9.14D-03 at cycle   2 NSaved=   2.
 NSaved= 2 IEnMin= 2 EnMin= -236.258298127708     IErMin= 2 ErrMin= 9.14D-03
 ErrMax= 9.14D-03  0.00D+00 EMaxC= 1.00D-01 BMatC= 3.96D-02 BMatP= 9.12D-01
 IDIUse=3 WtCom= 9.09D-01 WtEn= 9.14D-02
 Coeff-Com:  0.744D-01 0.926D+00
 Coeff-En:   0.126D+00 0.874D+00
 Coeff:      0.791D-01 0.921D+00
 Gap=     0.309 Goal=   None    Shift=    0.000
 Gap=     0.259 Goal=   None    Shift=    0.000
 RMSDP=1.70D-03 MaxDP=2.43D-02 DE=-1.13D-01 OVMax= 1.03D-01

 Cycle   3  Pass 0  IDiag  1:
 E= -236.398555410059     Delta-E=       -0.140257282351 Rises=F Damp=F
 DIIS: error= 3.70D-03 at cycle   3 NSaved=   3.
 NSaved= 3 IEnMin= 3 EnMin= -236.398555410059     IErMin= 3 ErrMin= 3.70D-03
 ErrMax= 3.70D-03  0.00D+00 EMaxC= 1.00D-01 BMatC= 6.91D-03 BMatP= 3.96D-02
 IDIUse=3 WtCom= 9.63D-01 WtEn= 3.70D-02
 Coeff-Com:  0.118D-02 0.234D+00 0.765D+00
 Coeff-En:   0.000D+00 0.000D+00 0.100D+01
 Coeff:      0.113D-02 0.225D+00 0.774D+00
 Gap=     0.309 Goal=   None    Shift=    0.000
 Gap=     0.237 Goal=   None    Shift=    0.000
 RMSDP=6.41D-04 MaxDP=1.46D-02 DE=-1.40D-01 OVMax= 1.42D-02

 Cycle   4  Pass 0  IDiag  1:
 E= -236.399503387637     Delta-E=       -0.000947977578 Rises=F Damp=F
 DIIS: error= 2.16D-03 at cycle   4 NSaved=   4.
 NSaved= 4 IEnMin= 4 EnMin= -236.399503387637     IErMin= 4 ErrMin= 2.16D-03
 ErrMax= 2.16D-03  0.00D+00 EMaxC= 1.00D-01 BMatC= 3.33D-03 BMatP= 6.91D-03
 IDIUse=3 WtCom= 9.78D-01 WtEn= 2.16D-02
 Coeff-Com: -0.522D-02 0.334D-01 0.416D+00 0.556D+00
 Coeff-En:   0.000D+00 0.000D+00 0.314D+00 0.686D+00
 Coeff:     -0.511D-02 0.327D-01 0.414D+00 0.559D+00
 Gap=     0.307 Goal=   None    Shift=    0.000
 Gap=     0.244 Goal=   None    Shift=    0.000
 RMSDP=2.48D-04 MaxDP=6.50D-03 DE=-9.48D-04 OVMax= 6.84D-03

 Cycle   5  Pass 0  IDiag  1:
 E= -236.400303650728     Delta-E=       -0.000800263091 Rises=F Damp=F
 DIIS: error= 2.54D-04 at cycle   5 NSaved=   5.
 NSaved= 5 IEnMin= 5 EnMin= -236.400303650728     IErMin= 5 ErrMin= 2.54D-04
 ErrMax= 2.54D-04  0.00D+00 EMaxC= 1.00D-01 BMatC= 5.07D-05 BMatP= 3.33D-03
 IDIUse=3 WtCom= 9.97D-01 WtEn= 2.54D-03
 Coeff-Com: -0.109D-02-0.372D-02 0.779D-01 0.167D+00 0.760D+00
 Coeff-En:   0.000D+00 0.000D+00 0.000D+00 0.000D+00 0.100D+01
 Coeff:     -0.109D-02-0.371D-02 0.777D-01 0.167D+00 0.760D+00
 Gap=     0.307 Goal=   None    Shift=    0.000
 Gap=     0.244 Goal=   None    Shift=    0.000
 RMSDP=3.62D-05 MaxDP=8.19D-04 DE=-8.00D-04 OVMax= 9.22D-04

 Cycle   6  Pass 0  IDiag  1:
 E= -236.400317023785     Delta-E=       -0.000013373057 Rises=F Damp=F
 DIIS: error= 7.97D-05 at cycle   6 NSaved=   6.
 NSaved= 6 IEnMin= 6 EnMin= -236.400317023785     IErMin= 6 ErrMin= 7.97D-05
 ErrMax= 7.97D-05  0.00D+00 EMaxC= 1.00D-01 BMatC= 3.24D-06 BMatP= 5.07D-05
 IDIUse=1 WtCom= 1.00D+00 WtEn= 0.00D+00
 Coeff-Com: -0.322D-04-0.228D-02-0.359D-02 0.891D-02 0.156D+00 0.841D+00
 Coeff:     -0.322D-04-0.228D-02-0.359D-02 0.891D-02 0.156D+00 0.841D+00
 Gap=     0.308 Goal=   None    Shift=    0.000
 Gap=     0.244 Goal=   None    Shift=    0.000
 RMSDP=1.41D-05 MaxDP=4.06D-04 DE=-1.34D-05 OVMax= 4.14D-04

 Cycle   7  Pass 0  IDiag  1:
 E= -236.400318100829     Delta-E=       -0.000001077044 Rises=F Damp=F
 DIIS: error= 5.60D-05 at cycle   7 NSaved=   7.
 NSaved= 7 IEnMin= 7 EnMin= -236.400318100829     IErMin= 7 ErrMin= 5.60D-05
 ErrMax= 5.60D-05  0.00D+00 EMaxC= 1.00D-01 BMatC= 1.38D-06 BMatP= 3.24D-06
 IDIUse=1 WtCom= 1.00D+00 WtEn= 0.00D+00
 Coeff-Com:  0.214D-03-0.110D-03-0.207D-01-0.365D-01-0.115D+00 0.412D+00
 Coeff-Com:  0.760D+00
 Coeff:      0.214D-03-0.110D-03-0.207D-01-0.365D-01-0.115D+00 0.412D+00
 Coeff:      0.760D+00
 Gap=     0.308 Goal=   None    Shift=    0.000
 Gap=     0.244 Goal=   None    Shift=    0.000
 RMSDP=6.91D-06 MaxDP=2.35D-04 DE=-1.08D-06 OVMax= 2.30D-04

 Initial convergence to 1.0D-05 achieved.  Increase integral accuracy.
 Cycle   8  Pass 1  IDiag  1:
 E= -236.400313439009     Delta-E=        0.000004661820 Rises=F Damp=F
 DIIS: error= 7.61D-06 at cycle   1 NSaved=   1.
 NSaved= 1 IEnMin= 1 EnMin= -236.400313439009     IErMin= 1 ErrMin= 7.61D-06
 ErrMax= 7.61D-06  0.00D+00 EMaxC= 1.00D-01 BMatC= 7.10D-08 BMatP= 7.10D-08
 IDIUse=1 WtCom= 1.00D+00 WtEn= 0.00D+00
 Coeff-Com:  0.100D+01
 Coeff:      0.100D+01
 Gap=     0.308 Goal=   None    Shift=    0.000
 Gap=     0.244 Goal=   None    Shift=    0.000
 RMSDP=6.91D-06 MaxDP=2.35D-04 DE= 4.66D-06 OVMax= 6.33D-05

 Cycle   9  Pass 1  IDiag  1:
 E= -236.400313455308     Delta-E=       -0.000000016299 Rises=F Damp=F
 DIIS: error= 7.58D-06 at cycle   2 NSaved=   2.
 NSaved= 2 IEnMin= 2 EnMin= -236.400313455308     IErMin= 2 ErrMin= 7.58D-06
 ErrMax= 7.58D-06  0.00D+00 EMaxC= 1.00D-01 BMatC= 4.52D-08 BMatP= 7.10D-08
 IDIUse=1 WtCom= 1.00D+00 WtEn= 0.00D+00
 Coeff-Com:  0.427D+00 0.573D+00
 Coeff:      0.427D+00 0.573D+00
 Gap=     0.308 Goal=   None    Shift=    0.000
 Gap=     0.244 Goal=   None    Shift=    0.000
 RMSDP=1.13D-06 MaxDP=2.40D-05 DE=-1.63D-08 OVMax= 3.54D-05

 Cycle  10  Pass 1  IDiag  1:
 E= -236.400313466318     Delta-E=       -0.000000011011 Rises=F Damp=F
 DIIS: error= 2.56D-06 at cycle   3 NSaved=   3.
 NSaved= 3 IEnMin= 3 EnMin= -236.400313466318     IErMin= 3 ErrMin= 2.56D-06
 ErrMax= 2.56D-06  0.00D+00 EMaxC= 1.00D-01 BMatC= 5.19D-09 BMatP= 4.52D-08
 IDIUse=1 WtCom= 1.00D+00 WtEn= 0.00D+00
 Coeff-Com: -0.501D-01 0.204D+00 0.846D+00
 Coeff:     -0.501D-01 0.204D+00 0.846D+00
 Gap=     0.308 Goal=   None    Shift=    0.000
 Gap=     0.244 Goal=   None    Shift=    0.000
 RMSDP=4.21D-07 MaxDP=9.12D-06 DE=-1.10D-08 OVMax= 1.43D-05

 Cycle  11  Pass 1  IDiag  1:
 E= -236.400313468048     Delta-E=       -0.000000001730 Rises=F Damp=F
 DIIS: error= 7.59D-07 at cycle   4 NSaved=   4.
 NSaved= 4 IEnMin= 4 EnMin= -236.400313468048     IErMin= 4 ErrMin= 7.59D-07
 ErrMax= 7.59D-07  0.00D+00 EMaxC= 1.00D-01 BMatC= 3.96D-10 BMatP= 5.19D-09
 IDIUse=1 WtCom= 1.00D+00 WtEn= 0.00D+00
 Coeff-Com: -0.590D-01-0.160D-01 0.193D+00 0.882D+00
 Coeff:     -0.590D-01-0.160D-01 0.193D+00 0.882D+00
 Gap=     0.308 Goal=   None    Shift=    0.000
 Gap=     0.244 Goal=   None    Shift=    0.000
 RMSDP=1.70D-07 MaxDP=4.60D-06 DE=-1.73D-09 OVMax= 4.86D-06

 Cycle  12  Pass 1  IDiag  1:
 E= -236.400313468235     Delta-E=       -0.000000000187 Rises=F Damp=F
 DIIS: error= 2.97D-07 at cycle   5 NSaved=   5.
 NSaved= 5 IEnMin= 5 EnMin= -236.400313468235     IErMin= 5 ErrMin= 2.97D-07
 ErrMax= 2.97D-07  0.00D+00 EMaxC= 1.00D-01 BMatC= 3.97D-11 BMatP= 3.96D-10
 IDIUse=1 WtCom= 1.00D+00 WtEn= 0.00D+00
 Coeff-Com: -0.231D-02-0.312D-01-0.857D-01 0.130D+00 0.989D+00
 Coeff:     -0.231D-02-0.312D-01-0.857D-01 0.130D+00 0.989D+00
 Gap=     0.308 Goal=   None    Shift=    0.000
 Gap=     0.244 Goal=   None    Shift=    0.000
 RMSDP=6.30D-08 MaxDP=2.16D-06 DE=-1.87D-10 OVMax= 2.09D-06

 Cycle  13  Pass 1  IDiag  1:
 E= -236.400313468255     Delta-E=       -0.000000000020 Rises=F Damp=F
 DIIS: error= 1.17D-07 at cycle   6 NSaved=   6.
 NSaved= 6 IEnMin= 6 EnMin= -236.400313468255     IErMin= 6 ErrMin= 1.17D-07
 ErrMax= 1.17D-07  0.00D+00 EMaxC= 1.00D-01 BMatC= 1.27D-11 BMatP= 3.97D-11
 IDIUse=1 WtCom= 1.00D+00 WtEn= 0.00D+00
 Coeff-Com:  0.351D-02-0.148D-01-0.587D-01-0.281D-02 0.508D+00 0.565D+00
 Coeff:      0.351D-02-0.148D-01-0.587D-01-0.281D-02 0.508D+00 0.565D+00
 Gap=     0.308 Goal=   None    Shift=    0.000
 Gap=     0.244 Goal=   None    Shift=    0.000
 RMSDP=1.81D-08 MaxDP=5.85D-07 DE=-1.98D-11 OVMax= 5.13D-07

 Cycle  14  Pass 1  IDiag  1:
 E= -236.400313468256     Delta-E=       -0.000000000001 Rises=F Damp=F
 DIIS: error= 2.17D-08 at cycle   7 NSaved=   7.
 NSaved= 7 IEnMin= 7 EnMin= -236.400313468256     IErMin= 7 ErrMin= 2.17D-08
 ErrMax= 2.17D-08  0.00D+00 EMaxC= 1.00D-01 BMatC= 3.97D-13 BMatP= 1.27D-11
 IDIUse=1 WtCom= 1.00D+00 WtEn= 0.00D+00
 Coeff-Com:  0.131D-02-0.318D-02-0.146D-01-0.981D-02 0.114D+00 0.200D+00
 Coeff-Com:  0.712D+00
 Coeff:      0.131D-02-0.318D-02-0.146D-01-0.981D-02 0.114D+00 0.200D+00
 Coeff:      0.712D+00
 Gap=     0.308 Goal=   None    Shift=    0.000
 Gap=     0.244 Goal=   None    Shift=    0.000
 RMSDP=4.19D-09 MaxDP=8.24D-08 DE=-1.19D-12 OVMax= 8.36D-08

 SCF Done:  E(UB3LYP) =  -236.400313468     A.U. after   14 cycles
            NFock= 14  Conv=0.42D-08     -V/T= 2.0103
 <Sx>= 0.0000 <Sy>= 0.0000 <Sz>= 0.5000 <S**2>= 0.7527 S= 0.5013
 <L.S>= 0.000000000000E+00
 KE= 2.339796429762D+02 PE=-1.053782981280D+03 EE= 3.292850517264D+02
 Annihilation of the first spin contaminant:
 S**2 before annihilation     0.7527,   after     0.7500
 Leave Link  502 at Sat Nov  7 02:13:22 2015, MaxMem=   805306368 cpu:       176.1
 (Enter /home/hetanjin/apps/g09D01/g09/l601.exe)
 Copying SCF densities to generalized density rwf, IOpCl= 1 IROHF=0.

 **********************************************************************

            Population analysis using the SCF density.

 **********************************************************************

 Orbital symmetries:
 Alpha Orbitals:
       Occupied  (A) (A) (A) (A) (A) (A) (A) (A) (A) (A) (A) (A)
                 (A) (A) (A) (A) (A) (A) (A) (A) (A) (A) (A) (A)
                 (A)
       Virtual   (A) (A) (A) (A) (A) (A) (A) (A) (A) (A) (A) (A)
                 (A) (A) (A) (A) (A) (A) (A) (A) (A) (A) (A) (A)
                 (A) (A) (A) (A) (A) (A) (A) (A) (A) (A) (A) (A)
                 (A) (A) (A) (A) (A) (A) (A) (A) (A) (A) (A) (A)
                 (A) (A) (A) (A) (A) (A) (A) (A) (A) (A) (A) (A)
                 (A) (A) (A) (A) (A) (A) (A) (A) (A) (A) (A) (A)
                 (A) (A) (A) (A) (A) (A) (A) (A) (A) (A) (A) (A)
                 (A) (A) (A) (A) (A) (A) (A)
 Beta  Orbitals:
       Occupied  (A) (A) (A) (A) (A) (A) (A) (A) (A) (A) (A) (A)
                 (A) (A) (A) (A) (A) (A) (A) (A) (A) (A) (A) (A)
       Virtual   (A) (A) (A) (A) (A) (A) (A) (A) (A) (A) (A) (A)
                 (A) (A) (A) (A) (A) (A) (A) (A) (A) (A) (A) (A)
                 (A) (A) (A) (A) (A) (A) (A) (A) (A) (A) (A) (A)
                 (A) (A) (A) (A) (A) (A) (A) (A) (A) (A) (A) (A)
                 (A) (A) (A) (A) (A) (A) (A) (A) (A) (A) (A) (A)
                 (A) (A) (A) (A) (A) (A) (A) (A) (A) (A) (A) (A)
                 (A) (A) (A) (A) (A) (A) (A) (A) (A) (A) (A) (A)
                 (A) (A) (A) (A) (A) (A) (A) (A)
 The electronic state is 2-A.
 Alpha  occ. eigenvalues --  -10.19700 -10.19184 -10.17597 -10.17587 -10.17046
 Alpha  occ. eigenvalues --  -10.16865  -0.81984  -0.73228  -0.68227  -0.67079
 Alpha  occ. eigenvalues --   -0.61902  -0.52103  -0.45603  -0.45345  -0.42345
 Alpha  occ. eigenvalues --   -0.41754  -0.39214  -0.37990  -0.37226  -0.35479
 Alpha  occ. eigenvalues --   -0.35065  -0.32323  -0.31439  -0.30770  -0.22840
 Alpha virt. eigenvalues --    0.07926   0.12344   0.13361   0.13954   0.14260
 Alpha virt. eigenvalues --    0.14492   0.16957   0.17736   0.18338   0.19619
 Alpha virt. eigenvalues --    0.20764   0.22277   0.22547   0.23666   0.24903
 Alpha virt. eigenvalues --    0.25672   0.26350   0.27214   0.49289   0.50860
 Alpha virt. eigenvalues --    0.51583   0.51689   0.53733   0.57387   0.58642
 Alpha virt. eigenvalues --    0.61695   0.63531   0.63771   0.69650   0.71583
 Alpha virt. eigenvalues --    0.74421   0.76411   0.81733   0.82074   0.87327
 Alpha virt. eigenvalues --    0.88993   0.89376   0.90600   0.90749   0.91417
 Alpha virt. eigenvalues --    0.92072   0.92792   0.94844   0.95690   0.96401
 Alpha virt. eigenvalues --    0.97149   0.99251   0.99712   1.02165   1.03799
 Alpha virt. eigenvalues --    1.20664   1.37579   1.39260   1.42566   1.50249
 Alpha virt. eigenvalues --    1.57771   1.61452   1.67710   1.71918   1.72935
 Alpha virt. eigenvalues --    1.80223   1.83707   1.87833   1.92221   1.93294
 Alpha virt. eigenvalues --    1.96503   1.99308   2.08738   2.10120   2.11311
 Alpha virt. eigenvalues --    2.12661   2.15612   2.24311   2.24939   2.25931
 Alpha virt. eigenvalues --    2.26732   2.30132   2.35316   2.36483   2.47310
 Alpha virt. eigenvalues --    2.57886   2.68508   2.70998   2.73661   2.76049
 Alpha virt. eigenvalues --    4.11341   4.21241   4.27232   4.30895   4.43896
 Alpha virt. eigenvalues --    4.66814
  Beta  occ. eigenvalues --  -10.19724 -10.17747 -10.17578 -10.17480 -10.17047
  Beta  occ. eigenvalues --  -10.16850  -0.81500  -0.73079  -0.68063  -0.64740
  Beta  occ. eigenvalues --   -0.61735  -0.51547  -0.45340  -0.45119  -0.42089
  Beta  occ. eigenvalues --   -0.41375  -0.38891  -0.37905  -0.36583  -0.35375
  Beta  occ. eigenvalues --   -0.34772  -0.31870  -0.31052  -0.30542
  Beta virt. eigenvalues --   -0.06114   0.08103   0.12461   0.13586   0.14300
  Beta virt. eigenvalues --    0.14403   0.14745   0.17053   0.18063   0.18706
  Beta virt. eigenvalues --    0.19882   0.21023   0.22484   0.22965   0.23973
  Beta virt. eigenvalues --    0.25208   0.25748   0.26875   0.27731   0.49428
  Beta virt. eigenvalues --    0.51026   0.51843   0.51993   0.56338   0.58613
  Beta virt. eigenvalues --    0.60478   0.62470   0.63893   0.65180   0.69844
  Beta virt. eigenvalues --    0.71864   0.74812   0.76655   0.82182   0.82564
  Beta virt. eigenvalues --    0.87669   0.89283   0.89682   0.90961   0.91013
  Beta virt. eigenvalues --    0.91843   0.92350   0.93101   0.95018   0.96162
  Beta virt. eigenvalues --    0.96636   0.97507   0.99751   0.99931   1.02375
  Beta virt. eigenvalues --    1.04163   1.21732   1.38174   1.39896   1.43472
  Beta virt. eigenvalues --    1.50394   1.58193   1.61659   1.68938   1.72655
  Beta virt. eigenvalues --    1.74136   1.80680   1.86279   1.88031   1.92695
  Beta virt. eigenvalues --    1.93531   1.97426   2.02541   2.09359   2.10352
  Beta virt. eigenvalues --    2.12972   2.13692   2.17767   2.24775   2.25544
  Beta virt. eigenvalues --    2.26163   2.27880   2.30642   2.35560   2.36655
  Beta virt. eigenvalues --    2.47955   2.58287   2.68965   2.71844   2.74171
  Beta virt. eigenvalues --    2.76088   4.12387   4.23002   4.27969   4.31128
  Beta virt. eigenvalues --    4.43961   4.66978
          Condensed to atoms (all electrons):
               1          2          3          4          5          6
     1  C    5.151201   0.368312   0.363950   0.363884   0.383666  -0.058021
     2  H    0.368312   0.574094  -0.030837  -0.029933  -0.029617  -0.004847
     3  H    0.363950  -0.030837   0.588402  -0.031133  -0.029554  -0.005449
     4  H    0.363884  -0.029933  -0.031133   0.586194  -0.028489   0.005299
     5  C    0.383666  -0.029617  -0.029554  -0.028489   4.750530   0.391507
     6  C   -0.058021  -0.004847  -0.005449   0.005299   0.391507   5.019013
     7  H   -0.005498  -0.000253   0.005512  -0.000048  -0.035791   0.365450
     8  H   -0.005052   0.005336  -0.000250  -0.000026  -0.036157   0.370142
     9  C    0.004568   0.000006  -0.000004  -0.000164  -0.036766   0.369264
    10  H    0.000051  -0.000003   0.000004   0.000001  -0.005178  -0.033920
    11  H   -0.000129  -0.000003  -0.000003   0.000002   0.004100  -0.026676
    12  H    0.000060   0.000003  -0.000003   0.000002  -0.005615  -0.034430
    13  C   -0.061063   0.005799  -0.004718  -0.004792   0.375908  -0.055989
    14  H    0.005695  -0.000191  -0.000050  -0.000058  -0.028633  -0.005690
    15  H   -0.004508  -0.000070   0.003718  -0.000135  -0.027789  -0.004733
    16  H   -0.005767  -0.000028  -0.000157   0.004488  -0.029646   0.005512
    17  C   -0.058952  -0.001886   0.005604  -0.005051   0.383709  -0.054909
    18  H   -0.007398  -0.000066  -0.000044   0.004511  -0.037953   0.005572
    19  H    0.005714  -0.000009  -0.000215  -0.000046  -0.037459  -0.007353
               7          8          9         10         11         12
     1  C   -0.005498  -0.005052   0.004568   0.000051  -0.000129   0.000060
     2  H   -0.000253   0.005336   0.000006  -0.000003  -0.000003   0.000003
     3  H    0.005512  -0.000250  -0.000004   0.000004  -0.000003  -0.000003
     4  H   -0.000048  -0.000026  -0.000164   0.000001   0.000002   0.000002
     5  C   -0.035791  -0.036157  -0.036766  -0.005178   0.004100  -0.005615
     6  C    0.365450   0.370142   0.369264  -0.033920  -0.026676  -0.034430
     7  H    0.624247  -0.037977  -0.040355   0.005326  -0.003277  -0.004153
     8  H   -0.037977   0.609927  -0.038765  -0.004136  -0.003255   0.005198
     9  C   -0.040355  -0.038765   5.080723   0.376780   0.371917   0.376758
    10  H    0.005326  -0.004136   0.376780   0.571377  -0.031053  -0.033024
    11  H   -0.003277  -0.003255   0.371917  -0.031053   0.576816  -0.031440
    12  H   -0.004153   0.005198   0.376758  -0.033024  -0.031440   0.577322
    13  C   -0.006844   0.006217  -0.005439  -0.000432   0.000085   0.003282
    14  H   -0.000077  -0.000049   0.001898   0.000190  -0.000068   0.002785
    15  H    0.004461  -0.000042  -0.000225   0.000047  -0.000030   0.000269
    16  H   -0.000080  -0.000179   0.000082  -0.000022   0.000000  -0.000111
    17  C    0.005981  -0.003263  -0.005932   0.003876   0.000072  -0.000450
    18  H   -0.000198  -0.000031   0.000102  -0.000140   0.000000  -0.000022
    19  H   -0.000069  -0.000016   0.002136   0.002559  -0.000066   0.000179
              13         14         15         16         17         18
     1  C   -0.061063   0.005695  -0.004508  -0.005767  -0.058952  -0.007398
     2  H    0.005799  -0.000191  -0.000070  -0.000028  -0.001886  -0.000066
     3  H   -0.004718  -0.000050   0.003718  -0.000157   0.005604  -0.000044
     4  H   -0.004792  -0.000058  -0.000135   0.004488  -0.005051   0.004511
     5  C    0.375908  -0.028633  -0.027789  -0.029646   0.383709  -0.037953
     6  C   -0.055989  -0.005690  -0.004733   0.005512  -0.054909   0.005572
     7  H   -0.006844  -0.000077   0.004461  -0.000080   0.005981  -0.000198
     8  H    0.006217  -0.000049  -0.000042  -0.000179  -0.003263  -0.000031
     9  C   -0.005439   0.001898  -0.000225   0.000082  -0.005932   0.000102
    10  H   -0.000432   0.000190   0.000047  -0.000022   0.003876  -0.000140
    11  H    0.000085  -0.000068  -0.000030   0.000000   0.000072   0.000000
    12  H    0.003282   0.002785   0.000269  -0.000111  -0.000450  -0.000022
    13  C    5.167650   0.366498   0.362631   0.366127  -0.064141  -0.001492
    14  H    0.366498   0.573720  -0.030453  -0.030867  -0.004148  -0.000223
    15  H    0.362631  -0.030453   0.576304  -0.030333   0.005894  -0.000171
    16  H    0.366127  -0.030867  -0.030333   0.579940  -0.003830   0.004000
    17  C   -0.064141  -0.004148   0.005894  -0.003830   5.392202   0.347879
    18  H   -0.001492  -0.000223  -0.000171   0.004000   0.347879   0.603235
    19  H   -0.001665   0.004128  -0.000133  -0.000243   0.348230  -0.044792
              19
     1  C    0.005714
     2  H   -0.000009
     3  H   -0.000215
     4  H   -0.000046
     5  C   -0.037459
     6  C   -0.007353
     7  H   -0.000069
     8  H   -0.000016
     9  C    0.002136
    10  H    0.002559
    11  H   -0.000066
    12  H    0.000179
    13  C   -0.001665
    14  H    0.004128
    15  H   -0.000133
    16  H   -0.000243
    17  C    0.348230
    18  H   -0.044792
    19  H    0.597065
          Atomic-Atomic Spin Densities.
               1          2          3          4          5          6
     1  C    0.010658  -0.002923  -0.000635   0.000021   0.005373   0.002651
     2  H   -0.002923   0.000784   0.000834  -0.000079  -0.000737  -0.000724
     3  H   -0.000635   0.000834  -0.001170   0.000052   0.000206  -0.000270
     4  H    0.000021  -0.000079   0.000052  -0.000576   0.000440   0.000011
     5  C    0.005373  -0.000737   0.000206   0.000440  -0.031985   0.006205
     6  C    0.002651  -0.000724  -0.000270   0.000011   0.006205   0.011689
     7  H   -0.000372   0.000150  -0.000067   0.000001   0.000125  -0.001313
     8  H   -0.000852   0.000341   0.000134  -0.000010  -0.000906  -0.003584
     9  C    0.000018  -0.000006   0.000002   0.000000   0.000546   0.000422
    10  H   -0.000018   0.000005   0.000001   0.000000  -0.000296  -0.000324
    11  H    0.000003  -0.000001   0.000000   0.000000   0.000000   0.000094
    12  H   -0.000006   0.000001   0.000001   0.000000  -0.000012  -0.000062
    13  C   -0.003835   0.000467   0.001059  -0.000339   0.010345  -0.004230
    14  H    0.000014  -0.000002  -0.000001   0.000001   0.000344   0.000056
    15  H    0.000732  -0.000085  -0.000683   0.000079  -0.002047   0.000869
    16  H    0.000085  -0.000014  -0.000027   0.000003   0.000249   0.000023
    17  C   -0.007703   0.003249   0.000122  -0.000077  -0.032217  -0.007389
    18  H    0.000985  -0.000231  -0.000050   0.000070   0.002171   0.000064
    19  H    0.000113  -0.000062  -0.000001   0.000012   0.002072   0.000981
               7          8          9         10         11         12
     1  C   -0.000372  -0.000852   0.000018  -0.000018   0.000003  -0.000006
     2  H    0.000150   0.000341  -0.000006   0.000005  -0.000001   0.000001
     3  H   -0.000067   0.000134   0.000002   0.000001   0.000000   0.000001
     4  H    0.000001  -0.000010   0.000000   0.000000   0.000000   0.000000
     5  C    0.000125  -0.000906   0.000546  -0.000296   0.000000  -0.000012
     6  C   -0.001313  -0.003584   0.000422  -0.000324   0.000094  -0.000062
     7  H   -0.000212   0.001084   0.000045   0.000042  -0.000121   0.000080
     8  H    0.001084   0.001266  -0.000135   0.000299  -0.000155   0.000038
     9  C    0.000045  -0.000135  -0.000450  -0.000685   0.000350  -0.000344
    10  H    0.000042   0.000299  -0.000685   0.000962  -0.000268   0.000203
    11  H   -0.000121  -0.000155   0.000350  -0.000268   0.000402  -0.000125
    12  H    0.000080   0.000038  -0.000344   0.000203  -0.000125   0.000405
    13  C    0.001252   0.000508  -0.000711   0.000289  -0.000029   0.000279
    14  H   -0.000012  -0.000008   0.000044  -0.000019   0.000002  -0.000024
    15  H   -0.000843  -0.000098   0.000127  -0.000031   0.000010  -0.000120
    16  H   -0.000007  -0.000004   0.000006  -0.000002   0.000000  -0.000003
    17  C    0.000171   0.003625  -0.000188   0.000751  -0.000031  -0.000076
    18  H   -0.000004  -0.000070   0.000023  -0.000015   0.000001  -0.000003
    19  H   -0.000034  -0.000205   0.000603  -0.000671   0.000003  -0.000071
              13         14         15         16         17         18
     1  C   -0.003835   0.000014   0.000732   0.000085  -0.007703   0.000985
     2  H    0.000467  -0.000002  -0.000085  -0.000014   0.003249  -0.000231
     3  H    0.001059  -0.000001  -0.000683  -0.000027   0.000122  -0.000050
     4  H   -0.000339   0.000001   0.000079   0.000003  -0.000077   0.000070
     5  C    0.010345   0.000344  -0.002047   0.000249  -0.032217   0.002171
     6  C   -0.004230   0.000056   0.000869   0.000023  -0.007389   0.000064
     7  H    0.001252  -0.000012  -0.000843  -0.000007   0.000171  -0.000004
     8  H    0.000508  -0.000008  -0.000098  -0.000004   0.003625  -0.000070
     9  C   -0.000711   0.000044   0.000127   0.000006  -0.000188   0.000023
    10  H    0.000289  -0.000019  -0.000031  -0.000002   0.000751  -0.000015
    11  H   -0.000029   0.000002   0.000010   0.000000  -0.000031   0.000001
    12  H    0.000279  -0.000024  -0.000120  -0.000003  -0.000076  -0.000003
    13  C    0.077585  -0.000772  -0.014221  -0.001546  -0.028359  -0.002383
    14  H   -0.000772  -0.002046   0.000357   0.000332   0.000483   0.000044
    15  H   -0.014221   0.000357   0.030243   0.000733   0.002449   0.000139
    16  H   -0.001546   0.000332   0.000733  -0.002003   0.000984   0.000112
    17  C   -0.028359   0.000483   0.002449   0.000984   1.129052  -0.011576
    18  H   -0.002383   0.000044   0.000139   0.000112  -0.011576  -0.026625
    19  H   -0.002544   0.000049   0.000148   0.000073  -0.012014   0.006241
              19
     1  C    0.000113
     2  H   -0.000062
     3  H   -0.000001
     4  H    0.000012
     5  C    0.002072
     6  C    0.000981
     7  H   -0.000034
     8  H   -0.000205
     9  C    0.000603
    10  H   -0.000671
    11  H    0.000003
    12  H   -0.000071
    13  C   -0.002544
    14  H    0.000049
    15  H    0.000148
    16  H    0.000073
    17  C   -0.012014
    18  H    0.006241
    19  H   -0.024103
 Mulliken charges and spin densities:
               1          2
     1  C   -0.440713   0.004307
     2  H    0.144192   0.000965
     3  H    0.135227  -0.000492
     4  H    0.135493  -0.000389
     5  C    0.079224  -0.040123
     6  C   -0.239743   0.005167
     7  H    0.123641  -0.000036
     8  H    0.132380   0.001269
     9  C   -0.456583  -0.000332
    10  H    0.147696   0.000223
    11  H    0.143009   0.000134
    12  H    0.143391   0.000161
    13  C   -0.447620   0.032814
    14  H    0.145594  -0.001158
    15  H    0.145298   0.017757
    16  H    0.141112  -0.001006
    17  C   -0.290885   1.041256
    18  H    0.127232  -0.031107
    19  H    0.132054  -0.029410
 Sum of Mulliken charges =   0.00000   1.00000
 Mulliken charges and spin densities with hydrogens summed into heavy atoms:
               1          2
     1  C   -0.025801   0.004391
     5  C    0.079224  -0.040123
     6  C    0.016278   0.006400
     9  C   -0.022487   0.000186
    13  C   -0.015615   0.048407
    17  C   -0.031599   0.980739
 Electronic spatial extent (au):  <R**2>=            686.2734
 Charge=              0.0000 electrons
 Dipole moment (field-independent basis, Debye):
    X=             -0.0056    Y=             -0.2487    Z=             -0.5741  Tot=              0.6257
 Quadrupole moment (field-independent basis, Debye-Ang):
   XX=            -40.7933   YY=            -40.3832   ZZ=            -42.1854
   XY=             -0.4434   XZ=             -0.2059   YZ=             -0.2336
 Traceless Quadrupole moment (field-independent basis, Debye-Ang):
   XX=              0.3273   YY=              0.7374   ZZ=             -1.0648
   XY=             -0.4434   XZ=             -0.2059   YZ=             -0.2336
 Octapole moment (field-independent basis, Debye-Ang**2):
  XXX=              0.8304  YYY=             -0.4626  ZZZ=             -6.1201  XYY=             -0.6622
  XXY=             -1.0862  XXZ=              0.0763  XZZ=             -1.1852  YZZ=              1.0392
  YYZ=              0.7677  XYZ=             -0.1634
 Hexadecapole moment (field-independent basis, Debye-Ang**3):
 XXXX=           -496.8639 YYYY=           -240.4986 ZZZZ=           -226.7710 XXXY=             -8.9981
 XXXZ=              0.7437 YYYX=              0.0255 YYYZ=              0.4139 ZZZX=             -3.1708
 ZZZY=             -0.2128 XXYY=           -120.9845 XXZZ=           -119.7711 YYZZ=            -74.4978
 XXYZ=             -0.4469 YYXZ=              0.6334 ZZXY=              1.6073
 N-N= 2.541179731095D+02 E-N=-1.053782985374D+03  KE= 2.339796429762D+02
                          Isotropic Fermi Contact Couplings
        Atom                 a.u.       MegaHertz       Gauss      10(-4) cm-1
     1  C(13)              0.00647       7.27247       2.59500       2.42583
     2  H(1)              -0.00019      -0.83068      -0.29641      -0.27709
     3  H(1)              -0.00016      -0.73705      -0.26300      -0.24585
     4  H(1)              -0.00020      -0.89204      -0.31830      -0.29755
     5  C(13)             -0.00907     -10.20041      -3.63976      -3.40249
     6  C(13)              0.00772       8.67832       3.09664       2.89477
     7  H(1)              -0.00001      -0.06349      -0.02265      -0.02118
     8  H(1)              -0.00019      -0.84869      -0.30283      -0.28309
     9  C(13)             -0.00044      -0.49609      -0.17702      -0.16548
    10  H(1)               0.00004       0.19005       0.06781       0.06339
    11  H(1)               0.00009       0.38028       0.13569       0.12685
    12  H(1)               0.00006       0.25030       0.08931       0.08349
    13  C(13)              0.04772      53.64263      19.14102      17.89326
    14  H(1)              -0.00018      -0.81432      -0.29057      -0.27163
    15  H(1)               0.00697      31.17184      11.12289      10.39781
    16  H(1)              -0.00027      -1.21655      -0.43410      -0.40580
    17  C(13)              0.30202     339.52844     121.15219     113.25450
    18  H(1)              -0.00454     -20.30464      -7.24520      -6.77290
    19  H(1)              -0.00392     -17.53926      -6.25845      -5.85047
 --------------------------------------------------------
       Center         ----  Spin Dipole Couplings  ----
                      3XX-RR        3YY-RR        3ZZ-RR
 --------------------------------------------------------
     1   Atom       -0.000504     -0.001906      0.002410
     2   Atom       -0.003951      0.007618     -0.003667
     3   Atom       -0.002484      0.000620      0.001864
     4   Atom        0.004212     -0.003566     -0.000646
     5   Atom       -0.023702     -0.018035      0.041737
     6   Atom        0.002064     -0.004160      0.002097
     7   Atom       -0.002078      0.000046      0.002032
     8   Atom       -0.002245      0.005756     -0.003511
     9   Atom        0.004788     -0.003853     -0.000935
    10   Atom        0.009916     -0.005546     -0.004370
    11   Atom        0.002449     -0.001487     -0.000961
    12   Atom        0.002575     -0.002928      0.000354
    13   Atom       -0.029965     -0.016631      0.046597
    14   Atom       -0.004575     -0.000518      0.005093
    15   Atom       -0.005655     -0.002077      0.007732
    16   Atom       -0.001464     -0.003582      0.005046
    17   Atom       -0.466640      0.159375      0.307265
    18   Atom        0.042167     -0.014088     -0.028079
    19   Atom        0.014244      0.014078     -0.028322
 --------------------------------------------------------
                        XY            XZ            YZ
 --------------------------------------------------------
     1   Atom        0.008562     -0.010904     -0.009738
     2   Atom        0.007719     -0.002911     -0.005373
     3   Atom        0.002153     -0.002221     -0.004087
     4   Atom        0.004727     -0.006725     -0.002887
     5   Atom       -0.001093     -0.000802     -0.002904
     6   Atom       -0.009566      0.012682     -0.009247
     7   Atom       -0.002360      0.002564     -0.003939
     8   Atom       -0.008730      0.003594     -0.005115
     9   Atom       -0.002124      0.004839     -0.000606
    10   Atom       -0.000029      0.003631      0.000383
    11   Atom       -0.001559      0.002020     -0.000658
    12   Atom        0.000153      0.003846      0.000201
    13   Atom       -0.001527     -0.004094      0.033233
    14   Atom        0.005740      0.004968      0.006583
    15   Atom       -0.000478      0.000368     -0.002888
    16   Atom       -0.005982     -0.006482      0.005073
    17   Atom       -0.084476     -0.093570      0.710514
    18   Atom       -0.050331      0.016438      0.016729
    19   Atom        0.057539     -0.020160      0.012214
 --------------------------------------------------------


 ---------------------------------------------------------------------------------
              Anisotropic Spin Dipole Couplings in Principal Axis System
 ---------------------------------------------------------------------------------

       Atom             a.u.   MegaHertz   Gauss  10(-4) cm-1        Axes

              Baa    -0.0100    -1.349    -0.481    -0.450  0.7733 -0.0580  0.6314
     1 C(13)  Bbb    -0.0097    -1.298    -0.463    -0.433 -0.2872  0.8558  0.4303
              Bcc     0.0197     2.647     0.945     0.883 -0.5653 -0.5141  0.6451
 
              Baa    -0.0078    -4.178    -1.491    -1.394  0.9030 -0.4202  0.0892
     2 H(1)   Bbb    -0.0058    -3.098    -1.105    -1.033  0.0648  0.3385  0.9387
              Bcc     0.0136     7.275     2.596     2.427  0.4247  0.8419 -0.3329
 
              Baa    -0.0036    -1.918    -0.685    -0.640  0.9173 -0.3897  0.0814
     3 H(1)   Bbb    -0.0028    -1.520    -0.542    -0.507  0.2271  0.6802  0.6969
              Bcc     0.0064     3.438     1.227     1.147 -0.3269 -0.6208  0.7125
 
              Baa    -0.0059    -3.135    -1.119    -1.046 -0.5536  0.7848 -0.2787
     4 H(1)   Bbb    -0.0052    -2.750    -0.981    -0.917  0.3180  0.5085  0.8002
              Bcc     0.0110     5.884     2.100     1.963  0.7697  0.3544 -0.5311
 
              Baa    -0.0239    -3.212    -1.146    -1.071  0.9812  0.1919  0.0205
     5 C(13)  Bbb    -0.0180    -2.409    -0.860    -0.804 -0.1926  0.9802  0.0451
              Bcc     0.0419     5.621     2.006     1.875 -0.0114 -0.0482  0.9988
 
              Baa    -0.0111    -1.491    -0.532    -0.497  0.5677  0.8227  0.0309
     6 C(13)  Bbb    -0.0105    -1.411    -0.504    -0.471 -0.5296  0.3361  0.7788
              Bcc     0.0216     2.902     1.036     0.968  0.6303 -0.4585  0.6265
 
              Baa    -0.0036    -1.923    -0.686    -0.641  0.8449  0.5349 -0.0106
     7 H(1)   Bbb    -0.0029    -1.549    -0.553    -0.517 -0.3812  0.6158  0.6895
              Bcc     0.0065     3.472     1.239     1.158  0.3753 -0.5785  0.7242
 
              Baa    -0.0079    -4.203    -1.500    -1.402  0.8553  0.5060 -0.1112
     8 H(1)   Bbb    -0.0058    -3.072    -1.096    -1.025 -0.0855  0.3497  0.9330
              Bcc     0.0136     7.275     2.596     2.427 -0.5110  0.7885 -0.3424
 
              Baa    -0.0046    -0.611    -0.218    -0.204  0.3855  0.8435 -0.3741
     9 C(13)  Bbb    -0.0034    -0.454    -0.162    -0.152 -0.3381  0.5064  0.7933
              Bcc     0.0079     1.065     0.380     0.355  0.8585 -0.1794  0.4804
 
              Baa    -0.0058    -3.096    -1.105    -1.033  0.1273  0.8291 -0.5445
    10 H(1)   Bbb    -0.0050    -2.659    -0.949    -0.887 -0.1953  0.5591  0.8058
              Bcc     0.0108     5.755     2.053     1.920  0.9725  0.0037  0.2331
 
              Baa    -0.0020    -1.088    -0.388    -0.363  0.4091  0.8838 -0.2269
    11 H(1)   Bbb    -0.0019    -1.001    -0.357    -0.334 -0.2851  0.3601  0.8883
              Bcc     0.0039     2.090     0.746     0.697  0.8668 -0.2987  0.3993
 
              Baa    -0.0029    -1.572    -0.561    -0.524  0.0768  0.9858 -0.1494
    12 H(1)   Bbb    -0.0025    -1.348    -0.481    -0.450 -0.5968  0.1655  0.7852
              Bcc     0.0055     2.921     1.042     0.974  0.7987  0.0289  0.6010
 
              Baa    -0.0309    -4.152    -1.482    -1.385 -0.2637  0.8815 -0.3917
    13 C(13)  Bbb    -0.0301    -4.041    -1.442    -1.348  0.9634  0.2608 -0.0616
              Bcc     0.0611     8.194     2.924     2.733 -0.0479  0.3936  0.9180
 
              Baa    -0.0086    -4.611    -1.645    -1.538  0.8281 -0.5597 -0.0313
    14 H(1)   Bbb    -0.0040    -2.111    -0.753    -0.704 -0.3969 -0.6248  0.6724
              Bcc     0.0126     6.722     2.399     2.242  0.3959  0.5444  0.7395
 
              Baa    -0.0057    -3.051    -1.089    -1.018  0.9914  0.1311  0.0010
    15 H(1)   Bbb    -0.0028    -1.504    -0.537    -0.502 -0.1266  0.9556  0.2660
              Bcc     0.0085     4.554     1.625     1.519  0.0339 -0.2639  0.9640
 
              Baa    -0.0086    -4.593    -1.639    -1.532  0.6598  0.7507  0.0343
    16 H(1)   Bbb    -0.0040    -2.109    -0.753    -0.704  0.5398 -0.5051  0.6735
              Bcc     0.0126     6.702     2.391     2.236 -0.5229  0.4258  0.7384
 
              Baa    -0.4810   -64.550   -23.033   -21.532  0.0315  0.7443 -0.6671
    17 C(13)  Bbb    -0.4778   -64.114   -22.878   -21.386  0.9956  0.0354  0.0866
              Bcc     0.9588   128.664    45.911    42.918 -0.0881  0.6669  0.7399
 
              Baa    -0.0600   -31.997   -11.417   -10.673  0.4326  0.6873 -0.5835
    18 H(1)   Bbb    -0.0121    -6.439    -2.298    -2.148  0.2479  0.5316  0.8099
              Bcc     0.0720    38.436    13.715    12.821  0.8668 -0.4950  0.0596
 
              Baa    -0.0600   -32.028   -11.428   -10.683  0.5890 -0.5543  0.5881
    19 H(1)   Bbb    -0.0120    -6.405    -2.285    -2.136 -0.3774  0.4548  0.8067
              Bcc     0.0720    38.433    13.714    12.820  0.7146  0.6971 -0.0587
 

 ---------------------------------------------------------------------------------

 No NMR shielding tensors so no spin-rotation constants.
 Leave Link  601 at Sat Nov  7 02:13:22 2015, MaxMem=   805306368 cpu:         1.5
 (Enter /home/hetanjin/apps/g09D01/g09/l701.exe)
 Compute integral first derivatives.
 ... and contract with generalized density number  0.
 Leave Link  701 at Sat Nov  7 02:13:22 2015, MaxMem=   805306368 cpu:         0.7
 (Enter /home/hetanjin/apps/g09D01/g09/l702.exe)
 L702 exits ... SP integral derivatives will be done elsewhere.
 Leave Link  702 at Sat Nov  7 02:13:22 2015, MaxMem=   805306368 cpu:         0.1
 (Enter /home/hetanjin/apps/g09D01/g09/l703.exe)
 Compute integral first derivatives, UseDBF=F ICtDFT=           0.
 Integral derivatives from FoFJK, PRISM(SPDF).
 Calling FoFJK, ICntrl=      2127 FMM=F ISym2X=0 I1Cent= 0 IOpClX= 1 NMat=1 NMatS=1 NMatT=0.
 FoFJK:  IHMeth= 1 ICntrl=    2127 DoSepK=F KAlg= 0 I1Cent=   0 FoldK=F
 IRaf=         0 NMat=   1 IRICut=       1 DoRegI=T DoRafI=F ISym2E= 0.
 FoFCou: FMM=F IPFlag=           0 FMFlag=      100000 FMFlg1=         800
         NFxFlg=           0 DoJE=F BraDBF=F KetDBF=F FulRan=T
         wScrn=  0.000000 ICntrl=    2127 IOpCl=  1 I1Cent=           0 NGrid=           0
         NMat0=    1 NMatS0=      1 NMatT0=    0 NMatD0=    1 NMtDS0=    0 NMtDT0=    0
 Symmetry not used in FoFCou.
 Leave Link  703 at Sat Nov  7 02:13:32 2015, MaxMem=   805306368 cpu:        35.8
 (Enter /home/hetanjin/apps/g09D01/g09/l716.exe)
 Dipole        =-2.22091290D-03-9.78265129D-02-2.25870297D-01
 ***** Axes restored to original set *****
 -------------------------------------------------------------------
 Center     Atomic                   Forces (Hartrees/Bohr)
 Number     Number              X              Y              Z
 -------------------------------------------------------------------
      1        6           0.001092690    0.001405306   -0.000118928
      2        1          -0.000146818   -0.000645781   -0.000415448
      3        1           0.000007358   -0.000148070   -0.000217367
      4        1          -0.000014688   -0.000050010    0.000029993
      5        6          -0.000903963    0.008998417    0.017465620
      6        6          -0.001564022    0.001420845    0.000106378
      7        1           0.000040090   -0.000078879   -0.000226584
      8        1           0.000193935   -0.000648776   -0.000498957
      9        6           0.000147132   -0.000268708   -0.000019098
     10        1           0.000102220    0.000185954    0.000047576
     11        1           0.000113417   -0.000010089   -0.000018966
     12        1          -0.000162566   -0.000033842   -0.000154642
     13        6           0.000624536   -0.006237915    0.001189824
     14        1           0.000091874    0.000105070   -0.000392949
     15        1          -0.000216780    0.001436124    0.000672037
     16        1          -0.000168855    0.000120596   -0.000325697
     17        6           0.002707900   -0.018996429   -0.041710602
     18        1           0.003128546    0.007280130    0.012291122
     19        1          -0.005072006    0.006166058    0.012296687
 -------------------------------------------------------------------
 Cartesian Forces:  Max     0.041710602 RMS     0.007226340
 Leave Link  716 at Sat Nov  7 02:13:32 2015, MaxMem=   805306368 cpu:         0.1
 (Enter /home/hetanjin/apps/g09D01/g09/l103.exe)

 GradGradGradGradGradGradGradGradGradGradGradGradGradGradGradGradGradGrad
 Berny optimization.
 FormGI is forming the generalized inverse of G from B-inverse, IUseBI=4.
 Internal  Forces:  Max     0.013675947 RMS     0.003224843
 Search for a local minimum.
 Step number   1 out of a maximum of  103
 All quantities printed in internal units (Hartrees-Bohrs-Radians)
 RMS Force = .32248D-02 SwitMx=.10000D-02 MixMth= 1
 Mixed Optimization -- RFO/linear search
 Second derivative matrix not updated -- first step.
 ITU=  0
     Eigenvalues ---    0.00230   0.00230   0.00230   0.00230   0.00316
     Eigenvalues ---    0.03068   0.03538   0.04674   0.04701   0.05073
     Eigenvalues ---    0.05293   0.05319   0.05397   0.05404   0.05446
     Eigenvalues ---    0.05447   0.05522   0.09014   0.12691   0.14837
     Eigenvalues ---    0.15122   0.16000   0.16000   0.16000   0.16000
     Eigenvalues ---    0.16000   0.16000   0.16000   0.16000   0.16000
     Eigenvalues ---    0.16000   0.16000   0.21977   0.27481   0.28370
     Eigenvalues ---    0.28418   0.28418   0.29059   0.33721   0.33721
     Eigenvalues ---    0.33969   0.33990   0.33990   0.34015   0.34017
     Eigenvalues ---    0.34017   0.34112   0.34156   0.34156   0.34166
     Eigenvalues ---    0.34166
 RFO step:  Lambda=-1.35977219D-02 EMin= 2.30000000D-03
 Linear search not attempted -- first point.
 Iteration  1 RMS(Cart)=  0.04535909 RMS(Int)=  0.00824557
 Iteration  2 RMS(Cart)=  0.00643510 RMS(Int)=  0.00569838
 Iteration  3 RMS(Cart)=  0.00008561 RMS(Int)=  0.00569803
 Iteration  4 RMS(Cart)=  0.00000194 RMS(Int)=  0.00569803
 Iteration  5 RMS(Cart)=  0.00000006 RMS(Int)=  0.00569803
 ITry= 1 IFail=0 DXMaxC= 2.27D-01 DCOld= 1.00D+10 DXMaxT= 3.00D-01 DXLimC= 3.00D+00 Rises=F
 Variable       Old X    -DE/DX   Delta X   Delta X   Delta X     New X
                                 (Linear)    (Quad)   (Total)
    R1        2.07346  -0.00071   0.00000  -0.00202  -0.00202   2.07145
    R2        2.07346   0.00009   0.00000   0.00025   0.00025   2.07371
    R3        2.07305   0.00001   0.00000   0.00003   0.00003   2.07308
    R4        2.91336   0.00108   0.00000   0.00363   0.00363   2.91699
    R5        2.93287   0.00126   0.00000   0.00436   0.00436   2.93723
    R6        2.91234   0.00171   0.00000   0.00575   0.00575   2.91809
    R7        2.91234  -0.01075   0.00000  -0.03611  -0.03611   2.87623
    R8        2.07803   0.00013   0.00000   0.00038   0.00038   2.07841
    R9        2.07803  -0.00079   0.00000  -0.00224  -0.00224   2.07579
   R10        2.89880  -0.00011   0.00000  -0.00035  -0.00035   2.89845
   R11        2.07051  -0.00008   0.00000  -0.00022  -0.00022   2.07029
   R12        2.07142  -0.00009   0.00000  -0.00027  -0.00027   2.07115
   R13        2.07051   0.00016   0.00000   0.00045   0.00045   2.07096
   R14        2.07067  -0.00013   0.00000  -0.00036  -0.00036   2.07031
   R15        2.07382   0.00024   0.00000   0.00069   0.00069   2.07451
   R16        2.07301  -0.00020   0.00000  -0.00055  -0.00055   2.07245
   R17        2.07301  -0.00039   0.00000  -0.00111  -0.00111   2.07190
   R18        2.07067  -0.00030   0.00000  -0.00085  -0.00085   2.06983
    A1        1.87988   0.00032   0.00000   0.00240   0.00240   1.88228
    A2        1.88010   0.00013   0.00000   0.00028   0.00028   1.88039
    A3        1.94072  -0.00036   0.00000  -0.00203  -0.00203   1.93869
    A4        1.88010   0.00004   0.00000   0.00011   0.00011   1.88022
    A5        1.94072  -0.00008   0.00000  -0.00022  -0.00022   1.94050
    A6        1.93954  -0.00002   0.00000  -0.00040  -0.00040   1.93914
    A7        1.88414  -0.00085   0.00000   0.00428   0.00419   1.88834
    A8        1.89923   0.00072   0.00000   0.00272   0.00274   1.90197
    A9        1.89923   0.00107   0.00000   0.00925   0.00916   1.90839
   A10        1.93449   0.00067   0.00000   0.00186   0.00186   1.93635
   A11        1.93449   0.00121   0.00000   0.00946   0.00935   1.94384
   A12        1.91142  -0.00277   0.00000  -0.02691  -0.02687   1.88455
   A13        1.88615   0.00001   0.00000  -0.00020  -0.00020   1.88596
   A14        1.88616  -0.00014   0.00000  -0.00165  -0.00165   1.88450
   A15        2.04055  -0.00011   0.00000  -0.00088  -0.00088   2.03967
   A16        1.84789   0.00009   0.00000   0.00181   0.00181   1.84970
   A17        1.89691   0.00004   0.00000   0.00044   0.00044   1.89736
   A18        1.89691   0.00014   0.00000   0.00075   0.00075   1.89767
   A19        1.95529  -0.00024   0.00000  -0.00136  -0.00136   1.95393
   A20        1.92445  -0.00011   0.00000  -0.00100  -0.00100   1.92345
   A21        1.95528   0.00023   0.00000   0.00167   0.00167   1.95696
   A22        1.87221   0.00010   0.00000  -0.00004  -0.00004   1.87218
   A23        1.88042   0.00009   0.00000   0.00116   0.00116   1.88157
   A24        1.87221  -0.00007   0.00000  -0.00043  -0.00043   1.87179
   A25        1.95325   0.00089   0.00000   0.00613   0.00610   1.95935
   A26        1.94002  -0.00259   0.00000  -0.01713  -0.01712   1.92290
   A27        1.93250   0.00076   0.00000   0.00560   0.00557   1.93807
   A28        1.88195   0.00063   0.00000   0.00143   0.00143   1.88338
   A29        1.87429  -0.00029   0.00000   0.00251   0.00245   1.87674
   A30        1.87869   0.00067   0.00000   0.00188   0.00188   1.88057
   A31        1.93250   0.01329   0.00000   0.14463   0.11666   2.04916
   A32        1.95325   0.01368   0.00000   0.14545   0.11766   2.07092
   A33        1.87429  -0.00078   0.00000   0.12231   0.08725   1.96154
    D1        1.04736   0.00033   0.00000   0.00385   0.00385   1.05121
    D2       -3.13510   0.00105   0.00000   0.01015   0.01016  -3.12494
    D3       -1.05336  -0.00125   0.00000  -0.01534  -0.01535  -1.06871
    D4       -1.04737   0.00022   0.00000   0.00232   0.00232  -1.04505
    D5        1.05335   0.00094   0.00000   0.00862   0.00863   1.06198
    D6        3.13509  -0.00135   0.00000  -0.01687  -0.01688   3.11821
    D7        3.14159   0.00024   0.00000   0.00259   0.00259  -3.13901
    D8       -1.04087   0.00096   0.00000   0.00889   0.00890  -1.03197
    D9        1.04086  -0.00134   0.00000  -0.01660  -0.01661   1.02425
   D10        0.99614  -0.00021   0.00000  -0.00248  -0.00248   0.99365
   D11       -0.99615  -0.00025   0.00000  -0.00366  -0.00366  -0.99981
   D12        3.14159  -0.00023   0.00000  -0.00268  -0.00268   3.13890
   D13       -1.08232  -0.00095   0.00000  -0.00951  -0.00953  -1.09185
   D14       -3.07460  -0.00099   0.00000  -0.01068  -0.01070  -3.08531
   D15        1.06313  -0.00098   0.00000  -0.00971  -0.00973   1.05340
   D16        3.07459   0.00128   0.00000   0.01693   0.01695   3.09154
   D17        1.08231   0.00124   0.00000   0.01575   0.01578   1.09808
   D18       -1.06314   0.00126   0.00000   0.01673   0.01675  -1.04639
   D19        3.09341   0.00047   0.00000   0.00149   0.00153   3.09494
   D20       -1.08437   0.00008   0.00000  -0.00440  -0.00438  -1.08875
   D21        1.00293  -0.00027   0.00000  -0.00957  -0.00956   0.99336
   D22       -1.12043   0.00027   0.00000   0.00952   0.00950  -1.11093
   D23        0.98498  -0.00012   0.00000   0.00362   0.00359   0.98857
   D24        3.07227  -0.00047   0.00000  -0.00154  -0.00159   3.07068
   D25        1.01930   0.00037   0.00000   0.00440   0.00443   1.02373
   D26        3.12471  -0.00003   0.00000  -0.00149  -0.00148   3.12322
   D27       -1.07118  -0.00038   0.00000  -0.00666  -0.00666  -1.07785
   D28       -1.00294   0.00878   0.00000   0.18644   0.19274  -0.81020
   D29       -3.09342  -0.00837   0.00000  -0.16376  -0.16997   3.01979
   D30       -3.07228   0.00844   0.00000   0.16985   0.17607  -2.89622
   D31        1.12042  -0.00871   0.00000  -0.18035  -0.18665   0.93377
   D32        1.07117   0.00867   0.00000   0.17949   0.18574   1.25692
   D33       -1.01931  -0.00848   0.00000  -0.17071  -0.17697  -1.19628
   D34        1.05782   0.00004   0.00000   0.00070   0.00070   1.05852
   D35        3.14158  -0.00007   0.00000  -0.00090  -0.00090   3.14068
   D36       -1.05785  -0.00008   0.00000  -0.00102  -0.00102  -1.05887
   D37       -3.08547  -0.00001   0.00000   0.00016   0.00016  -3.08531
   D38       -1.00171  -0.00011   0.00000  -0.00144  -0.00144  -1.00315
   D39        1.08205  -0.00012   0.00000  -0.00156  -0.00156   1.08049
   D40       -1.08208   0.00020   0.00000   0.00293   0.00293  -1.07915
   D41        1.00168   0.00009   0.00000   0.00133   0.00133   1.00301
   D42        3.08544   0.00008   0.00000   0.00120   0.00121   3.08665
         Item               Value     Threshold  Converged?
 Maximum Force            0.013676     0.000015     NO 
 RMS     Force            0.003225     0.000010     NO 
 Maximum Displacement     0.226963     0.000060     NO 
 RMS     Displacement     0.042706     0.000040     NO 
 Predicted change in Energy=-9.815987D-03
 Lowest energy point so far.  Saving SCF results.
 GradGradGradGradGradGradGradGradGradGradGradGradGradGradGradGradGradGrad

 Leave Link  103 at Sat Nov  7 02:13:36 2015, MaxMem=   805306368 cpu:        11.8
 (Enter /home/hetanjin/apps/g09D01/g09/l202.exe)
                          Input orientation:                          
 ---------------------------------------------------------------------
 Center     Atomic      Atomic             Coordinates (Angstroms)
 Number     Number       Type             X           Y           Z
 ---------------------------------------------------------------------
      1          6           0        1.624444    0.982313   -0.006859
      2          1           0        1.606094    1.611859    0.890307
      3          1           0        1.597220    1.643470   -0.882262
      4          1           0        2.582746    0.448525   -0.021059
      5          6           0        0.438016   -0.005113   -0.016540
      6          6           0       -0.879590    0.819211    0.000663
      7          1           0       -0.869406    1.496402   -0.865925
      8          1           0       -0.863918    1.464866    0.889198
      9          6           0       -2.192936    0.027033   -0.009356
     10          1           0       -2.284124   -0.625808    0.865693
     11          1           0       -3.048343    0.712085    0.005277
     12          1           0       -2.291734   -0.597008   -0.904796
     13          6           0        0.524403   -0.881382   -1.285087
     14          1           0       -0.268931   -1.635984   -1.323099
     15          1           0        0.439113   -0.256338   -2.183516
     16          1           0        1.484645   -1.408841   -1.334704
     17          6           0        0.534893   -0.921469    1.194862
     18          1           0        1.511864   -1.369092    1.412252
     19          1           0       -0.293621   -1.607194    1.402321
 ---------------------------------------------------------------------
                    Distance matrix (angstroms):
                    1          2          3          4          5
     1  C    0.000000
     2  H    1.096162   0.000000
     3  H    1.097361   1.772873   0.000000
     4  H    1.097029   1.771379   1.772238   0.000000
     5  C    1.543605   2.191205   2.193411   2.192184   0.000000
     6  C    2.509352   2.756516   2.755639   3.482190   1.554315
     7  H    2.687298   3.037397   2.471060   3.705293   2.164569
     8  H    2.688442   2.474382   3.037625   3.706886   2.162460
     9  C    3.935093   4.213514   4.211902   4.794260   2.631159
    10  H    4.315588   4.487934   4.823878   5.062305   2.928079
    11  H    4.680611   4.822516   4.820421   5.637315   3.559432
    12  H    4.317059   4.826443   4.488231   5.063070   2.931020
    13  C    2.513427   3.481185   2.772739   2.757389   1.544189
    14  H    3.488960   4.354695   3.798905   3.764644   2.206040
    15  H    2.770759   3.781586   2.577547   3.125414   2.181490
    16  H    2.738674   3.753672   3.087715   2.526123   2.191675
    17  C    2.501128   2.767305   3.467261   2.747553   1.522035
    18  H    2.748755   3.027768   3.787824   2.550470   2.248340
    19  H    3.517145   3.772715   4.400161   3.811230   2.261664
                    6          7          8          9         10
     6  C    0.000000
     7  H    1.099848   0.000000
[...]
 .13795597,0.22400077,-0.24855136,0.11301674,0.00276588,-0.00027437,0.0
 0037252,0.00036896,0.00012844,0.00003411,-0.00026247,0.27135283,0.1136
 1799,-0.11195792,-0.00174053,0.01495223,-0.00874450,0.00112541,0.01708
 563,-0.00974093,-0.00166201,-0.12180325,0.12013450,0.00275778,-0.00156
 939,-0.04952801,0.02540566,-0.01327526,0.00060617,-0.02382229,0.012365
 70,0.00120138,-0.00313465,0.00197222,0.04839550,-0.11605078,-0.0425371
 2,0.00489538,0.00082580,0.00181852,-0.00016839,-0.00145050,0.00007601,
 -0.00088941,-0.02124635,-0.01912330,-0.00083636,0.42355950,-0.03101881
 ,-0.10171330,0.00099762,-0.01270721,-0.01244632,-0.00002009,-0.0164062
 8,-0.01439012,-0.00182743,0.01169603,0.01002760,0.00080357,-0.02757343
 ,0.46374789,-0.00962048,-0.01115961,-0.07172451,-0.02099772,-0.0169519
 7,-0.00132282,0.01974600,0.01675686,0.00029681,0.00091181,0.00037611,-
 0.00175597,-0.00390431,-0.00646639,0.49884937,-0.03555176,0.00980868,0
 .00012339,0.00137592,0.00150121,0.00066027,0.00127299,0.00165084,-0.00
 044754,-0.00336171,-0.00252329,-0.00014197,-0.12703050,0.03172045,0.00
 249364,0.44446216,-0.01745948,0.01046305,-0.00017727,-0.00091930,0.000
 26410,0.00006109,-0.00082887,0.00024339,0.00008688,-0.00522590,-0.0030
 8393,-0.00009570,0.04036276,-0.09695766,-0.00378220,0.02027513,0.52557
 882,-0.00164582,-0.00016973,0.00164128,-0.00131121,-0.00001547,-0.0001
 4286,0.00108527,-0.00008614,-0.00024020,-0.00028748,-0.00021674,-0.000
 34676,-0.00109146,-0.00184193,-0.07991806,-0.00037884,-0.00696448,0.59
 643393,0.00115958,0.00113889,-0.00098089,-0.00008678,-0.00009309,-0.00
 002841,-0.00062483,-0.00046179,0.00048828,0.00037360,-0.00014745,0.000
 23809,-0.00280411,0.01755054,-0.02183298,-0.04794656,-0.00258742,0.003
 50104,0.05801945,-0.00167683,0.00036151,-0.00019294,0.00009822,0.00006
 789,-0.00011980,0.00036838,0.00087649,-0.00030688,-0.00009449,0.000065
 31,-0.00041190,0.00135228,-0.01310036,0.01506187,-0.00226498,-0.155957
 59,0.12300647,0.00366731,0.16958843,0.00040923,0.00005639,-0.00010720,
 -0.00001975,0.00011781,-0.00008961,-0.00052816,-0.00033654,0.00048704,
 -0.00008586,-0.00035596,0.00025625,0.00083951,-0.00099091,-0.00065210,
 0.00266382,0.12320402,-0.19517141,-0.00326108,-0.13689434,0.20968544,0
 .00112906,0.00108365,0.00136927,-0.00051241,-0.00035771,-0.00052696,-0
 .00011335,-0.00005226,0.00001184,0.00033741,-0.00011489,-0.00026775,-0
 .00273966,0.01498053,0.02419753,-0.04704334,0.00118774,0.00141030,-0.0
 0038247,0.00021389,0.00025011,0.05867049,-0.00140622,0.00037451,0.0002
 4926,0.00026692,0.00072666,0.00027652,0.00007050,0.00004323,0.00013190
 ,-0.00009987,-0.00004961,0.00033860,0.00168902,-0.01172871,-0.01667945
 ,0.00109161,-0.11988257,-0.11101604,-0.00034620,0.01252495,0.01849213,
 -0.00080740,0.12914697,-0.00055603,0.00009956,-0.00015496,0.00058391,0
 .00039137,0.00054398,-0.00000058,-0.00011155,-0.00002387,0.00007913,0.
 00028299,0.00034755,-0.00014401,-0.00036158,-0.00227996,0.00224476,-0.
 11116329,-0.23111033,0.00042205,-0.01327616,-0.02176101,-0.00150502,0.
 12409703,0.24953100,-0.00317296,0.00354693,0.00016261,0.00014160,-0.00
 006250,-0.00025192,0.00009414,-0.00007744,0.00023707,-0.00070739,-0.00
 116856,-0.00007447,-0.02551520,-0.01228203,-0.00099390,-0.15673944,-0.
 05290931,-0.00519344,-0.00165230,-0.00134260,-0.00029633,-0.00217105,-
 0.00111432,-0.00034467,0.50365720,0.00369524,-0.00280186,0.00004494,0.
 00009153,0.00002141,0.00023617,0.00007962,0.00007475,-0.00032153,0.001
 59226,0.00119800,-0.00000340,0.01165138,0.01435869,0.00149306,-0.05035
 472,-0.11861137,-0.00281824,-0.02000032,-0.01278506,-0.00244645,-0.016
 21913,-0.01028976,-0.00033183,-0.04619429,0.55074967,0.00036963,-0.000
 17145,-0.00038812,0.00027252,0.00027202,0.00029445,-0.00020837,-0.0002
 8421,0.00029362,0.00013740,0.00005099,0.00073933,0.00043976,0.00088254
 ,-0.00034086,-0.00427242,-0.00356320,-0.08281697,0.02260705,0.01418139
 ,0.00247941,-0.02595862,-0.01643787,-0.00054471,-0.00170084,-0.0014140
 9,0.57559471,-0.00013203,-0.00016284,-0.00027036,0.00002155,-0.0000174
 8,0.00004123,0.00021067,0.00027103,-0.00018564,-0.00003160,0.00012938,
 -0.00009175,0.00177425,-0.00000018,0.00078375,-0.00058807,-0.02033102,
 0.02291915,-0.00499069,-0.00355894,-0.00059213,0.00102558,0.00073608,-
 0.00042158,-0.04861486,-0.00370795,0.00471641,0.05141496,-0.00010574,-
 0.00003146,-0.00004823,0.00000780,-0.00004096,0.00001439,0.00013909,0.
 00011485,-0.00009520,-0.00008449,0.00005290,-0.00006017,0.00089129,0.0
 0034600,-0.00014568,-0.00078547,-0.01283830,0.01358269,-0.00346044,-0.
 00111984,-0.00083274,0.00051501,0.00012745,-0.00021825,-0.00411404,-0.
 17079487,0.12966475,0.00740712,0.18431740,0.00022390,-0.00010024,0.000
 06368,-0.00003028,-0.00001676,-0.00002217,-0.00005012,-0.00005578,0.00
 001226,0.00008080,0.00002866,-0.00001081,-0.00008756,0.00075810,-0.000
 02783,0.00107312,-0.00201573,0.00215347,-0.00069012,-0.00036971,0.0014
 4191,0.00057661,0.00002674,0.00065485,0.00500512,0.12957206,-0.1910911
 3,-0.00470010,-0.14414043,0.20422822,-0.00129623,0.00139943,0.00003059
 ,0.00001308,-0.00002434,-0.00008045,0.00003083,-0.00002828,0.00008430,
 -0.00057635,-0.00045948,-0.00002852,-0.00217656,-0.00517118,-0.0004366
 9,-0.02245850,0.01805630,0.00240761,0.00085770,-0.00005343,0.00060104,
 0.00111720,0.00021513,-0.00065664,-0.21336325,0.12571349,0.02064501,0.
 00144973,-0.00101389,-0.00094784,0.23330606,-0.00090182,0.00060808,-0.
 00003275,0.00002646,0.00001533,-0.00001920,0.00005750,0.00002850,0.000
 03416,-0.00033858,-0.00022150,-0.00002328,-0.00254884,-0.00247214,-0.0
 0024525,-0.01747605,0.01257165,0.00182005,0.00081688,0.00072738,0.0001
 1741,0.00074685,0.00098954,0.00011324,0.12647034,-0.14387281,-0.015323
 30,0.01715358,-0.01336103,-0.00380476,-0.13609489,0.15459200,-0.000005
 76,0.00019913,0.00026208,0.00001274,0.00003821,-0.00000478,-0.00003414
 ,-0.00005619,-0.00000195,-0.00007085,-0.00002196,0.00000879,-0.0004669
 9,-0.00056189,0.00008619,-0.00192535,0.00128347,-0.00093993,0.00022981
 ,-0.00026010,-0.00004436,-0.00022314,0.00044561,0.00025219,0.02091500,
 -0.01536004,-0.05213261,-0.02079143,0.01451335,0.00340862,-0.02216464,
 0.01769723,0.05091853,-0.00000662,0.00000970,0.00018047,0.00018156,0.0
 0018872,0.00016457,0.00001329,-0.00003536,-0.00001298,-0.00009154,0.00
 010738,0.00012181,0.00117100,-0.00027548,-0.00084492,-0.00106090,-0.01
 373823,-0.02677425,0.00128897,0.00073025,0.00052435,-0.00492893,-0.003
 43076,-0.00021290,-0.05050097,-0.00870528,-0.01668328,-0.00088100,0.00
 055552,0.00009713,0.00271060,0.01155774,0.02450974,0.05386155,-0.00001
 118,0.00006855,-0.00015324,0.00005978,0.00006661,0.00011435,0.00002028
 ,-0.00002216,0.00000662,-0.00009923,0.00003511,0.00007802,0.00066022,-
 0.00000626,0.00019049,-0.00107526,-0.00966246,-0.01648809,0.00065319,0
 .00028027,0.00011045,-0.00381086,-0.00127564,0.00022685,-0.00900006,-0
 .10820509,-0.10804851,0.00163646,0.01275964,0.02063171,-0.00195571,-0.
 00967933,-0.01798811,0.01175701,0.11547980,-0.00018281,0.00015127,0.00
 011772,0.00003663,0.00008669,0.00006514,0.00000087,-0.00002221,-0.0000
 1017,-0.00011891,-0.00003159,-0.00000776,0.00027552,-0.00073947,-0.000
 35537,-0.00080513,0.00020654,0.00019265,-0.00050102,-0.00015150,0.0009
 3161,0.00015725,0.00013093,0.00168461,-0.01755581,-0.10832178,-0.25267
 920,-0.00095223,-0.01215514,-0.02053538,0.00049343,-0.00051570,-0.0021
 2393,0.01794345,0.12124449,0.27241366,-0.00063422,-0.01656246,-0.02229
 763,-0.00411514,-0.00416498,-0.00111624,0.00076901,0.00077614,-0.00016
 673,0.00052032,-0.00044482,-0.00092319,-0.07819567,0.00647190,0.005246
 83,-0.00348004,0.01678970,0.02554840,0.00085210,-0.00086227,0.00013070
 ,-0.00527885,0.00353230,0.00086912,0.00034541,0.00062374,0.00044258,-0
 .00017356,-0.00016399,0.00031233,0.00024036,-0.00013936,0.00007217,-0.
 00074863,0.00045285,0.00020117,0.58055933,-0.00326172,-0.01734923,-0.0
 2331036,-0.00293439,-0.00298383,-0.00047599,0.00090161,0.00058745,-0.0
 0074109,0.00150876,0.00116327,0.00060968,0.00501378,-0.10237623,-0.039
 63523,0.00578280,-0.01180368,-0.01557357,-0.00060466,0.00015136,-0.000
 67090,0.00247087,-0.00113439,0.00001346,0.00055195,0.00044510,0.001333
 92,0.00011630,0.00011743,0.00002828,-0.00041534,-0.00052241,-0.0004772
 6,-0.00007219,0.00003764,-0.00113140,0.00944683,0.55177169,-0.00311081
 ,-0.00739793,-0.00467776,0.00052438,0.00091531,0.00085432,0.00070676,0
 .00125269,0.00061033,0.00078857,0.00065956,0.00014957,0.00144856,-0.04
 342521,-0.14403057,0.00589667,-0.00435602,-0.00246511,-0.00097782,0.00
 139528,0.00070863,-0.00105877,0.00154987,0.00109768,-0.00003987,0.0006
 4609,0.00025173,0.00004290,-0.00007196,-0.00000815,-0.00047922,-0.0002
 3036,0.00007976,0.00011474,-0.00024015,-0.00005096,0.01144224,-0.05349
 201,0.49268295,0.00029733,0.00010931,-0.00040923,0.00030142,-0.0001031
 7,0.00017069,-0.00005893,0.00008869,0.00014347,0.00047640,0.00011087,0
 .00021877,0.00278936,0.00310951,-0.00037160,0.00002117,0.00012751,-0.0
 0053473,-0.00004853,0.00007033,0.00003133,0.00012645,-0.00019681,-0.00
 004152,-0.00094267,0.00049750,0.00016560,0.00002432,-0.00006136,-0.000
 04426,0.00010159,0.00013466,0.00010812,-0.00117242,0.00089645,0.000827
 13,-0.18738845,-0.13227578,-0.01231540,0.20310173,0.00116886,-0.001565
 98,-0.00387420,-0.00114604,-0.00050680,-0.00033079,0.00038029,0.000492
 38,0.00005445,-0.00016431,0.00015336,0.00003019,-0.01138954,-0.0110616
 6,0.00015939,-0.00115417,-0.00022290,0.00033274,0.00004760,-0.00000423
 ,-0.00010973,0.00016630,0.00017395,-0.00000008,-0.00036627,-0.00013670
 ,-0.00089253,0.00005398,0.00001424,0.00002811,0.00008136,0.00037390,0.
 00047606,0.00106409,0.00019427,0.00062647,-0.13138544,-0.17530546,-0.0
 1116909,0.14500695,0.18780484,0.00139210,-0.00240224,-0.00542781,-0.00
 138330,-0.00160463,0.00004832,0.00016624,-0.00023395,0.00021164,0.0001
 5266,0.00026099,-0.00005906,-0.02175598,-0.01834483,-0.00141266,-0.000
 52458,0.00064583,0.00080669,0.00009861,-0.00002827,-0.00001900,-0.0001
 0441,0.00015204,-0.00000617,0.00039346,-0.00013141,0.00026072,0.000147
 65,0.00001676,-0.00023299,0.00002299,0.00017976,-0.00000486,0.00042128
 ,-0.00017290,0.00014805,-0.01167470,-0.01029173,-0.05051641,0.01257174
 ,0.01430306,0.05257541,-0.00015202,0.00043822,-0.00082836,-0.00011018,
 -0.00003790,0.00019227,0.00020681,-0.00031281,-0.00012833,-0.00000601,
 0.00007197,-0.00010887,-0.00098304,-0.00146909,0.00279546,0.00031002,-
 0.00073204,0.00089721,0.00010906,0.00026745,-0.00002969,-0.00001056,-0
 .00001786,-0.00017740,-0.00000958,0.00006769,0.00008673,0.00010540,0.0
 0002185,-0.00017254,-0.00001890,0.00003398,-0.00006759,-0.00010848,-0.
 00019427,-0.00001420,-0.05100424,0.00966238,-0.01362994,0.00257281,-0.
 01440171,0.02029779,0.04919432,0.00023026,0.00100354,-0.00029055,0.000
 18577,0.00023923,0.00014125,0.00000989,-0.00000587,0.00005998,-0.00009
 782,-0.00008742,0.00003016,-0.00185294,0.01027207,-0.01419557,-0.00012
 278,0.00104460,-0.00023420,-0.00009677,0.00001348,0.00020106,-0.000272
 90,0.00017792,0.00010733,-0.00004184,0.00007922,0.00013823,-0.00001604
 ,-0.00006248,-0.00013494,-0.00000672,0.00005226,0.00000443,-0.00003737
 ,-0.00014271,0.00005237,0.01003450,-0.14664517,0.12577382,0.00325381,-
 0.01336656,0.01726745,-0.01153328,0.15733491,0.00064913,0.00168966,0.0
 0086990,0.00020457,-0.00020875,0.00044654,-0.00056210,-0.00109089,0.00
 040603,-0.00003301,-0.00011377,-0.00001744,-0.00237170,0.01788363,-0.0
 2235498,-0.00089543,0.00168438,0.00054788,0.00057486,-0.00102975,0.000
 41899,-0.00021182,-0.00019419,0.00045314,0.00029674,-0.00018214,-0.000
 03086,-0.00021922,-0.00007731,0.00013224,0.00007941,0.00001325,0.00003
 669,0.00016105,0.00014813,-0.00007250,-0.01385272,0.12479670,-0.210158
 75,0.00087155,-0.00183262,0.00265743,0.01458099,-0.13662911,0.23057259
 ,0.00066060,-0.00080181,-0.00063446,0.00025426,-0.00009369,0.00013428,
 -0.00002522,-0.00002394,0.00006985,0.00062897,0.00021724,-0.00002579,-
 0.00289904,0.00067908,-0.00011277,0.00098321,-0.00048513,0.00081006,0.
 00004313,-0.00005397,-0.00012985,-0.00010127,0.00022824,0.00010999,0.0
 0004116,0.00010923,-0.00035509,-0.00000826,-0.00002889,0.00006555,-0.0
 0002146,0.00012448,0.00016445,0.00030246,0.00010261,0.00030547,-0.2532
 2309,0.10741355,0.00729049,-0.02044795,0.01161603,0.00023407,-0.000772
 96,-0.00014186,-0.00043062,0.27410099,0.00145382,0.00022893,0.00071347
 ,-0.00029224,0.00032846,0.00017179,0.00002224,-0.00013435,-0.00002352,
 -0.00085457,-0.00008216,-0.00043084,0.01546098,-0.00962658,-0.00012727
 ,-0.00114637,-0.00143782,-0.00388530,-0.00031686,0.00037802,0.00002806
 ,0.00129139,-0.00052175,-0.00042177,-0.00062821,-0.00006173,-0.0002753
 6,0.00008940,0.00003492,-0.00005982,0.00009477,0.00016198,0.00019264,0
 .00014855,0.00011471,0.00040463,0.10674608,-0.10500948,-0.00286314,-0.
 02087671,0.01240225,0.00073548,0.01802013,-0.00944348,-0.00132094,-0.1
 1848361,0.11196661,0.00109216,0.00078267,0.00098793,0.00003335,0.00040
 373,0.00001542,-0.00019243,-0.00002203,-0.00002993,-0.00064965,-0.0001
 2129,0.00006465,0.02594263,-0.01357010,-0.00162258,-0.00100724,-0.0021
 5369,-0.00522456,-0.00005267,-0.00028085,0.00017583,0.00157249,-0.0012
 0476,0.00003637,-0.00055209,-0.00026916,-0.00009760,0.00002706,0.00006
 596,0.00002613,0.00006186,0.00008139,0.00008951,0.00013119,0.00024319,
 0.00015655,0.00650364,-0.00240697,-0.04871123,-0.00127600,0.00125371,-
 0.00077538,-0.02431491,0.01118936,0.00159604,-0.00755592,0.00623005,0.
 05188191,-0.00003934,-0.01415132,0.01627118,0.00038036,0.00091318,-0.0
 0002708,-0.00221615,-0.00399850,0.00109608,0.00125416,-0.00048899,0.00
 049644,-0.05347594,0.02135876,0.00242329,-0.00353261,0.01843461,-0.020
 15863,-0.00395729,0.00309548,-0.00043518,0.00057652,-0.00020057,-0.000
 27319,-0.00108593,0.00078228,-0.00035642,-0.00023036,0.00027179,-0.000
 74165,0.00010992,0.00051999,-0.00033602,0.00000822,-0.00009193,-0.0000
 6682,0.00015532,-0.00319552,0.00347468,0.00061052,0.00045652,-0.000108
 87,0.00037451,0.00080047,0.00147784,0.00021362,-0.00059815,0.00061506,
 0.20561269,-0.00761156,-0.02243241,0.01860705,0.00102237,0.00093670,0.
 00109000,-0.00271604,-0.00271644,0.00129234,0.00145526,0.00139031,-0.0
 0053200,0.02043339,-0.12319715,0.06428398,0.00738312,-0.01997219,0.017
 20871,0.00348619,-0.00164454,0.00040414,-0.00085793,0.00068115,0.00101
 476,-0.00121768,0.00072657,0.00017064,0.00036571,0.00032487,-0.0003388
 4,-0.00046995,-0.00002104,-0.00018182,0.00018823,-0.00002567,0.0000853
 1,-0.00148083,0.01068421,-0.00944490,-0.00014778,0.00040548,-0.0006534
 3,0.00052649,-0.00144885,-0.00441502,0.00048224,0.00027252,-0.00108352
 ,-0.21552397,0.49021952,0.00868728,0.01176719,-0.00362558,-0.00095377,
 -0.00138308,0.00080785,-0.00047308,-0.00021487,0.00068467,-0.00094957,
 -0.00048724,-0.00023796,0.00478546,0.06167952,-0.16194005,-0.00690326,
 0.00609580,-0.00002357,0.00145935,-0.00144910,0.00069821,0.00083485,-0
 .00159297,0.00060001,0.00005507,-0.00096926,0.00026225,0.00013391,0.00
 051468,-0.00016552,0.00055867,0.00033918,-0.00001316,0.00001771,0.0001
 8069,-0.00008572,0.00057848,0.01582032,-0.03502559,0.00020510,0.001245
 03,0.00176319,0.00036485,-0.00245132,-0.00436051,-0.00062100,0.0010756
 5,0.00142816,-0.10570841,-0.00091601,0.54198315,-0.00050833,0.00055843
 ,-0.00079046,0.00000869,-0.00014856,0.00010053,0.00004127,0.00027864,0
 .00006207,-0.00015991,0.00002074,0.00007840,0.00272126,-0.00172134,0.0
 0124104,-0.00031999,0.00083191,-0.00032570,-0.00010823,0.00016850,-0.0
 0024124,0.00006461,-0.00022009,-0.00001663,0.00012060,0.00018851,-0.00
 017926,0.00001608,0.00006253,0.00017627,-0.00001052,-0.00005340,-0.000
 01082,-0.00006739,0.00001172,-0.00011403,0.00037867,0.00029564,0.00064
 515,-0.00034119,-0.00010507,-0.00029165,-0.00001957,-0.00032709,-0.000
 05719,0.00012548,-0.00001550,-0.00019328,-0.09973724,0.15117833,0.0175
 8496,0.09876336,0.00047770,0.00037105,-0.00027839,0.00001830,0.0000127
 2,0.00007737,-0.00025497,0.00006926,0.00016416,-0.00066407,-0.00013136
 ,0.00011340,0.01106698,-0.00878991,-0.00486767,-0.00202468,-0.00110596
 ,0.00299353,0.00099900,-0.00043588,0.00011535,-0.00018692,0.00020370,-
 0.00012311,-0.00026855,-0.00016883,-0.00008505,0.00001017,0.00008944,-
 0.00007476,0.00010106,0.00006940,-0.00000699,0.00005983,0.00004698,0.0
 0006397,-0.00009580,0.00071632,-0.00138406,0.00006153,0.00009515,0.000
 27782,-0.00023644,0.00011984,-0.00006053,-0.00051532,0.00041608,0.0006
 7441,0.14448201,-0.25573664,-0.00878990,-0.15692453,0.26754754,-0.0008
 1852,0.00006149,-0.00078118,0.00009206,0.00009875,0.00003555,0.0003806
 3,0.00021753,-0.00003214,0.00031388,-0.00004327,0.00017268,-0.01226171
 ,0.01707283,0.00457694,0.00087676,0.00239610,-0.00364113,-0.00127442,0
 .00100574,0.00015840,-0.00001547,0.00030958,0.00024390,0.00013187,0.00
 019556,0.00009384,-0.00020992,-0.00020405,-0.00001315,-0.00008699,-0.0
 0008125,-0.00000040,-0.00003056,-0.00005194,0.00000582,-0.00104632,0.0
 0094578,0.00178989,-0.00024059,-0.00022025,-0.00017461,0.00012101,-0.0
 0027805,0.00029060,0.00056165,-0.00009154,-0.00025606,0.01634418,-0.00
 888771,-0.05556039,-0.01622688,0.00938090,0.05078680,0.00006404,0.0007
 6350,-0.00085579,-0.00001104,-0.00037737,-0.00004769,0.00018049,0.0001
 6087,-0.00017491,-0.00006553,-0.00003941,0.00013865,0.00172618,0.00105
 822,-0.00072397,0.00068794,-0.00084895,-0.00087746,-0.00010180,-0.0001
 2459,0.00016917,0.00023457,0.00001030,0.00004120,0.00007552,0.00008922
 ,-0.00016839,-0.00039209,-0.00005366,-0.00014636,-0.00001531,-0.000089
 52,0.00008470,0.00002923,-0.00001207,0.00007004,0.00042137,-0.00040488
 ,-0.00076332,-0.00002294,0.00007055,-0.00005511,0.00032259,0.00003270,
 -0.00026230,0.00014539,-0.00011513,-0.00018524,-0.04502096,0.04350440,
 0.08034337,-0.00096767,0.00389470,0.01338936,0.04271001,0.00051555,0.0
 0086838,-0.00018979,-0.00012934,-0.00023501,-0.00028365,0.00008141,-0.
 00006040,-0.00020918,-0.00014910,-0.00012102,0.00006041,-0.00545142,0.
 00911414,0.01593456,-0.00028607,0.00137079,0.00036574,-0.00024458,0.00
 001242,-0.00020927,0.00002376,-0.00028761,-0.00033898,0.00021849,0.000
 07465,-0.00019892,-0.00017477,-0.00005021,0.00003813,0.00003168,-0.000
 03976,0.00006422,-0.00007233,-0.00006427,0.00001613,0.00042591,-0.0025
 4462,0.00188223,0.00019450,0.00006045,0.00002422,-0.00017475,0.0008654
 6,0.00093926,-0.00034450,0.00001288,0.00018790,0.04713385,-0.07844641,
 -0.08046431,0.00592061,-0.00338892,-0.02182618,-0.04751889,0.07285905,
 -0.00050213,-0.00062350,-0.00019775,0.00032856,0.00055323,0.00031377,0
 .00009051,0.00031365,0.00010508,-0.00000666,0.00003742,0.00002192,0.00
 535107,-0.01192796,-0.01407097,0.00126933,-0.00139252,0.00026496,-0.00
 001973,0.00012056,0.00040298,-0.00050829,0.00092506,0.00043574,-0.0001
 9360,0.00038144,-0.00014800,-0.00037771,-0.00032342,-0.00001426,-0.000
 10392,-0.00011982,0.00012362,0.00017141,-0.00003205,0.00020519,-0.0002
 7013,0.00465837,-0.00258033,-0.00008016,-0.00007992,0.00015750,0.00013
 552,-0.00075167,-0.00143302,0.00011965,-0.00005227,0.00025884,0.086013
 51,-0.07770367,-0.28718944,-0.00144128,0.00180957,0.00230468,-0.089975
 95,0.08420749,0.30103947\\0.00000034,0.00000016,-0.00000023,0.00000011
 ,0.00000013,-0.00000042,0.,-0.00000028,-0.00000042,-0.00000003,-0.0000
 0014,-0.00000028,-0.00000030,-0.00000014,0.00000003,0.00000023,0.00000
 003,-0.00000008,0.00000005,-0.00000004,-0.00000024,0.00000012,0.000000
 34,-0.00000022,-0.00000014,0.00000002,0.00000019,0.00000006,0.00000034
 ,0.00000031,0.00000002,0.00000016,0.00000006,-0.00000010,-0.00000003,0
 .00000026,-0.00000009,-0.00000037,0.00000021,-0.00000018,-0.00000023,0
 .00000026,-0.00000015,-0.00000048,-0.00000010,-0.00000016,-0.00000031,
 0.00000014,0.00000017,0.00000020,0.00000009,-0.00000004,0.00000019,0.0
 0000032,0.00000009,0.00000045,0.00000013\\\@


 ON A CLEAR DISK YOU CAN SEEK FOREVER.
 Job cpu time:       0 days  0 hours 30 minutes 45.8 seconds.
 File lengths (MBytes):  RWF=     64 Int=      0 D2E=      0 Chk=      3 Scr=      1
 Normal termination of Gaussian 09 at Sat Nov  7 02:58:12 2015.
