 Entering Gaussian System, Link 0=/share/apps/g09/g09
 Input=C6H14_4_02_1_opt_B3L.gjf
 Output=C6H14_4_02_1_opt_B3L.log
 Initial command:
 /share/apps/g09/l1.exe /state/partition1/Gau-9638.inp -scrdir=/state/partition1/
 Entering Link 1 = /share/apps/g09/l1.exe PID=      9639.
  
 Copyright (c) 1988,1990,1992,1993,1995,1998,2003,2009, Gaussian, Inc.
                  All Rights Reserved.
  
 This is part of the Gaussian(R) 09 program.  It is based on
 the Gaussian(R) 03 system (copyright 2003, Gaussian, Inc.),
 the Gaussian(R) 98 system (copyright 1998, Gaussian, Inc.),
 the Gaussian(R) 94 system (copyright 1995, Gaussian, Inc.),
 the Gaussian 92(TM) system (copyright 1992, Gaussian, Inc.),
 the Gaussian 90(TM) system (copyright 1990, Gaussian, Inc.),
 the Gaussian 88(TM) system (copyright 1988, Gaussian, Inc.),
 the Gaussian 86(TM) system (copyright 1986, Carnegie Mellon
 University), and the Gaussian 82(TM) system (copyright 1983,
 Carnegie Mellon University). Gaussian is a federally registered
 trademark of Gaussian, Inc.
  
 This software contains proprietary and confidential information,
 including trade secrets, belonging to Gaussian, Inc.
  
 This software is provided under written license and may be
 used, copied, transmitted, or stored only in accord with that
 written license.
  
 The following legend is applicable only to US Government
 contracts under FAR:
  
                    RESTRICTED RIGHTS LEGEND
  
 Use, reproduction and disclosure by the US Government is
 subject to restrictions as set forth in subparagraphs (a)
 and (c) of the Commercial Computer Software - Restricted
 Rights clause in FAR 52.227-19.
  
 Gaussian, Inc.
 340 Quinnipiac St., Bldg. 40, Wallingford CT 06492
  
  
 ---------------------------------------------------------------
 Warning -- This program may not be used in any manner that
 competes with the business of Gaussian, Inc. or will provide
 assistance to any competitor of Gaussian, Inc.  The licensee
 of this program is prohibited from giving any competitor of
 Gaussian, Inc. access to this program.  By using this program,
 the user acknowledges that Gaussian, Inc. is engaged in the
 business of creating and licensing software in the field of
 computational chemistry and represents and warrants to the
 licensee that it is not a competitor of Gaussian, Inc. and that
 it will not use this program in any manner prohibited above.
 ---------------------------------------------------------------
  

 Cite this work as:
 Gaussian 09, Revision A.01,
 M. J. Frisch, G. W. Trucks, H. B. Schlegel, G. E. Scuseria, 
 M. A. Robb, J. R. Cheeseman, G. Scalmani, V. Barone, B. Mennucci, 
 G. A. Petersson, H. Nakatsuji, M. Caricato, X. Li, H. P. Hratchian, 
 A. F. Izmaylov, J. Bloino, G. Zheng, J. L. Sonnenberg, M. Hada, 
 M. Ehara, K. Toyota, R. Fukuda, J. Hasegawa, M. Ishida, T. Nakajima, 
 Y. Honda, O. Kitao, H. Nakai, T. Vreven, J. A. Montgomery, Jr., 
 J. E. Peralta, F. Ogliaro, M. Bearpark, J. J. Heyd, E. Brothers, 
 K. N. Kudin, V. N. Staroverov, R. Kobayashi, J. Normand, 
 K. Raghavachari, A. Rendell, J. C. Burant, S. S. Iyengar, J. Tomasi, 
 M. Cossi, N. Rega, J. M. Millam, M. Klene, J. E. Knox, J. B. Cross, 
 V. Bakken, C. Adamo, J. Jaramillo, R. Gomperts, R. E. Stratmann, 
 O. Yazyev, A. J. Austin, R. Cammi, C. Pomelli, J. W. Ochterski, 
 R. L. Martin, K. Morokuma, V. G. Zakrzewski, G. A. Voth, 
 P. Salvador, J. J. Dannenberg, S. Dapprich, A. D. Daniels, 
 O. Farkas, J. B. Foresman, J. V. Ortiz, J. Cioslowski, 
 and D. J. Fox, Gaussian, Inc., Wallingford CT, 2009.
 
 ******************************************
 Gaussian 09:  EM64L-G09RevA.01  8-May-2009
                18-Sep-2015 
 ******************************************
 %mem=3GB
 %nprocshared=2
 Will use up to    2 processors via shared memory.
 -----------------------------------------
 #p B3LYP/6-31G(d) opt=tight int=ultrafine
 -----------------------------------------
 1/7=10,14=-1,18=20,19=15,26=3,38=1/1,3;
 2/9=110,12=2,17=6,18=5,40=1/2;
 3/5=1,6=6,7=1,11=2,16=1,25=1,30=1,71=1,74=-5,75=-5/1,2,3;
 4//1;
 5/5=2,38=5/2;
 6/7=2,8=2,9=2,10=2,28=1/1;
 7//1,2,3,16;
 1/7=10,14=-1,18=20,19=15/3(2);
 2/9=110/2;
 99//99;
 2/9=110/2;
 3/5=1,6=6,7=1,11=2,16=1,25=1,30=1,71=1,74=-5,75=-5/1,2,3;
 4/5=5,16=3/1;
 5/5=2,38=5/2;
 7//1,2,3,16;
 1/7=10,14=-1,18=20,19=15/3(-5);
 2/9=110/2;
 6/7=2,8=2,9=2,10=2,19=2,28=1/1;
 99/9=1/99;
 Leave Link    1 at Fri Sep 18 13:24:16 2015, MaxMem=  402653184 cpu:       0.1
 (Enter /share/apps/g09/l101.exe)
 ---------------------------------------------
 using B3LYP/6-31G(d) to do opt and freq calc.
 ---------------------------------------------
 Symbolic Z-matrix:
 Charge =  0 Multiplicity = 1
 C                    -0.96193   1.17402   0.8735 
 H                    -0.15878   1.89902   1.04318 
 H                    -1.03362   0.54725   1.76878 
 H                    -1.90034   1.7316    0.78908 
 C                    -0.70048   0.3377   -0.38424 
 H                    -0.7336    1.02777  -1.2662 
 C                     0.70048  -0.3377   -0.38424 
 H                     0.7336   -1.02777  -1.2662 
 C                     1.80722   0.7099   -0.5698 
 H                     1.82977   1.42431   0.26042 
 H                     2.79385   0.23741  -0.61912 
 H                     1.66944   1.28183  -1.49287 
 C                    -1.80722  -0.7099   -0.5698 
 H                    -1.66946  -1.28181  -1.49289 
 H                    -1.82975  -1.42432   0.26041 
 H                    -2.79385  -0.23741  -0.6191 
 C                     0.96193  -1.17402   0.8735 
 H                     1.03363  -0.54725   1.76878 
 H                     0.15878  -1.89901   1.04318 
 H                     1.90034  -1.73161   0.78907 
 
 NAtoms=     20 NQM=     20 NQMF=      0 NMic=      0 NMicF=      0 NTot=     20.
                    Isotopes and Nuclear Properties:
 (Nuclear quadrupole moments (NQMom) in fm**2, nuclear magnetic moments (NMagM)
  in nuclear magnetons)

  Atom         1           2           3           4           5           6           7           8           9          10
 IAtWgt=          12           1           1           1          12           1          12           1          12           1
 AtmWgt=  12.0000000   1.0078250   1.0078250   1.0078250  12.0000000   1.0078250  12.0000000   1.0078250  12.0000000   1.0078250
 NucSpn=           0           1           1           1           0           1           0           1           0           1
 AtZEff=   0.0000000   0.0000000   0.0000000   0.0000000   0.0000000   0.0000000   0.0000000   0.0000000   0.0000000   0.0000000
 NQMom=    0.0000000   0.0000000   0.0000000   0.0000000   0.0000000   0.0000000   0.0000000   0.0000000   0.0000000   0.0000000
 NMagM=    0.0000000   2.7928460   2.7928460   2.7928460   0.0000000   2.7928460   0.0000000   2.7928460   0.0000000   2.7928460

  Atom        11          12          13          14          15          16          17          18          19          20
 IAtWgt=           1           1          12           1           1           1          12           1           1           1
 AtmWgt=   1.0078250   1.0078250  12.0000000   1.0078250   1.0078250   1.0078250  12.0000000   1.0078250   1.0078250   1.0078250
 NucSpn=           1           1           0           1           1           1           0           1           1           1
 AtZEff=   0.0000000   0.0000000   0.0000000   0.0000000   0.0000000   0.0000000   0.0000000   0.0000000   0.0000000   0.0000000
 NQMom=    0.0000000   0.0000000   0.0000000   0.0000000   0.0000000   0.0000000   0.0000000   0.0000000   0.0000000   0.0000000
 NMagM=    2.7928460   2.7928460   0.0000000   2.7928460   2.7928460   2.7928460   0.0000000   2.7928460   2.7928460   2.7928460
 Leave Link  101 at Fri Sep 18 13:24:16 2015, MaxMem=  402653184 cpu:       0.1
 (Enter /share/apps/g09/l103.exe)

 GradGradGradGradGradGradGradGradGradGradGradGradGradGradGradGradGradGrad
 Berny optimization.
 Initialization pass.
                           ----------------------------
                           !    Initial Parameters    !
                           ! (Angstroms and Degrees)  !
 --------------------------                            --------------------------
 ! Name  Definition              Value          Derivative Info.                !
 --------------------------------------------------------------------------------
 ! R1    R(1,2)                  1.0952         estimate D2E/DX2                !
 ! R2    R(1,3)                  1.0952         estimate D2E/DX2                !
 ! R3    R(1,4)                  1.0948         estimate D2E/DX2                !
 ! R4    R(1,5)                  1.5329         estimate D2E/DX2                !
 ! R5    R(5,6)                  1.1203         estimate D2E/DX2                !
 ! R6    R(5,7)                  1.5553         estimate D2E/DX2                !
 ! R7    R(5,13)                 1.5352         estimate D2E/DX2                !
 ! R8    R(7,8)                  1.1203         estimate D2E/DX2                !
 ! R9    R(7,9)                  1.5352         estimate D2E/DX2                !
 ! R10   R(7,17)                 1.5329         estimate D2E/DX2                !
 ! R11   R(9,10)                 1.0955         estimate D2E/DX2                !
 ! R12   R(9,11)                 1.095          estimate D2E/DX2                !
 ! R13   R(9,12)                 1.0946         estimate D2E/DX2                !
 ! R14   R(13,14)                1.0946         estimate D2E/DX2                !
 ! R15   R(13,15)                1.0955         estimate D2E/DX2                !
 ! R16   R(13,16)                1.095          estimate D2E/DX2                !
 ! R17   R(17,18)                1.0952         estimate D2E/DX2                !
 ! R18   R(17,19)                1.0952         estimate D2E/DX2                !
 ! R19   R(17,20)                1.0948         estimate D2E/DX2                !
 ! A1    A(2,1,3)              107.4692         estimate D2E/DX2                !
 ! A2    A(2,1,4)              107.6612         estimate D2E/DX2                !
 ! A3    A(2,1,5)              111.2969         estimate D2E/DX2                !
 ! A4    A(3,1,4)              107.361          estimate D2E/DX2                !
 ! A5    A(3,1,5)              111.694          estimate D2E/DX2                !
 ! A6    A(4,1,5)              111.1484         estimate D2E/DX2                !
 ! A7    A(1,5,6)              107.7478         estimate D2E/DX2                !
 ! A8    A(1,5,7)              112.9903         estimate D2E/DX2                !
 ! A9    A(1,5,13)             110.3968         estimate D2E/DX2                !
 ! A10   A(6,5,7)              107.1047         estimate D2E/DX2                !
 ! A11   A(6,5,13)             107.6893         estimate D2E/DX2                !
 ! A12   A(7,5,13)             110.6741         estimate D2E/DX2                !
 ! A13   A(5,7,8)              107.1047         estimate D2E/DX2                !
 ! A14   A(5,7,9)              110.6742         estimate D2E/DX2                !
 ! A15   A(5,7,17)             112.9902         estimate D2E/DX2                !
 ! A16   A(8,7,9)              107.6894         estimate D2E/DX2                !
 ! A17   A(8,7,17)             107.7479         estimate D2E/DX2                !
 ! A18   A(9,7,17)             110.3968         estimate D2E/DX2                !
 ! A19   A(7,9,10)             111.607          estimate D2E/DX2                !
 ! A20   A(7,9,11)             111.134          estimate D2E/DX2                !
 ! A21   A(7,9,12)             111.5762         estimate D2E/DX2                !
 ! A22   A(10,9,11)            107.2756         estimate D2E/DX2                !
 ! A23   A(10,9,12)            107.5142         estimate D2E/DX2                !
 ! A24   A(11,9,12)            107.5102         estimate D2E/DX2                !
 ! A25   A(5,13,14)            111.5762         estimate D2E/DX2                !
 ! A26   A(5,13,15)            111.6069         estimate D2E/DX2                !
 ! A27   A(5,13,16)            111.134          estimate D2E/DX2                !
 ! A28   A(14,13,15)           107.5143         estimate D2E/DX2                !
 ! A29   A(14,13,16)           107.5102         estimate D2E/DX2                !
 ! A30   A(15,13,16)           107.2756         estimate D2E/DX2                !
 ! A31   A(7,17,18)            111.6941         estimate D2E/DX2                !
 ! A32   A(7,17,19)            111.297          estimate D2E/DX2                !
 ! A33   A(7,17,20)            111.1483         estimate D2E/DX2                !
 ! A34   A(18,17,19)           107.4692         estimate D2E/DX2                !
 ! A35   A(18,17,20)           107.361          estimate D2E/DX2                !
 ! A36   A(19,17,20)           107.6611         estimate D2E/DX2                !
 ! D1    D(2,1,5,6)            -65.0145         estimate D2E/DX2                !
 ! D2    D(2,1,5,7)             53.1014         estimate D2E/DX2                !
 ! D3    D(2,1,5,13)           177.6377         estimate D2E/DX2                !
 ! D4    D(3,1,5,6)            174.8639         estimate D2E/DX2                !
 ! D5    D(3,1,5,7)            -67.0203         estimate D2E/DX2                !
 ! D6    D(3,1,5,13)            57.5161         estimate D2E/DX2                !
 ! D7    D(4,1,5,6)             54.9814         estimate D2E/DX2                !
 ! D8    D(4,1,5,7)            173.0972         estimate D2E/DX2                !
 ! D9    D(4,1,5,13)           -62.3664         estimate D2E/DX2                !
 ! D10   D(1,5,7,8)            172.4148         estimate D2E/DX2                !
 ! D11   D(1,5,7,9)            -70.4607         estimate D2E/DX2                !
 ! D12   D(1,5,7,17)            53.9241         estimate D2E/DX2                !
 ! D13   D(6,5,7,8)            -69.0945         estimate D2E/DX2                !
 ! D14   D(6,5,7,9)             48.03           estimate D2E/DX2                !
 ! D15   D(6,5,7,17)           172.4148         estimate D2E/DX2                !
 ! D16   D(13,5,7,8)            48.0298         estimate D2E/DX2                !
 ! D17   D(13,5,7,9)           165.1543         estimate D2E/DX2                !
 ! D18   D(13,5,7,17)          -70.4609         estimate D2E/DX2                !
 ! D19   D(1,5,13,14)          176.8531         estimate D2E/DX2                !
 ! D20   D(1,5,13,15)          -62.8353         estimate D2E/DX2                !
 ! D21   D(1,5,13,16)           56.8704         estimate D2E/DX2                !
 ! D22   D(6,5,13,14)           59.4692         estimate D2E/DX2                !
 ! D23   D(6,5,13,15)          179.7808         estimate D2E/DX2                !
 ! D24   D(6,5,13,16)          -60.5135         estimate D2E/DX2                !
 ! D25   D(7,5,13,14)          -57.2947         estimate D2E/DX2                !
 ! D26   D(7,5,13,15)           63.0169         estimate D2E/DX2                !
 ! D27   D(7,5,13,16)         -177.2774         estimate D2E/DX2                !
 ! D28   D(5,7,9,10)            63.0181         estimate D2E/DX2                !
 ! D29   D(5,7,9,11)          -177.2761         estimate D2E/DX2                !
 ! D30   D(5,7,9,12)           -57.2935         estimate D2E/DX2                !
 ! D31   D(8,7,9,10)           179.7821         estimate D2E/DX2                !
 ! D32   D(8,7,9,11)           -60.5121         estimate D2E/DX2                !
 ! D33   D(8,7,9,12)            59.4706         estimate D2E/DX2                !
 ! D34   D(17,7,9,10)          -62.8339         estimate D2E/DX2                !
 ! D35   D(17,7,9,11)           56.8718         estimate D2E/DX2                !
 ! D36   D(17,7,9,12)          176.8545         estimate D2E/DX2                !
 ! D37   D(5,7,17,18)          -67.0206         estimate D2E/DX2                !
 ! D38   D(5,7,17,19)           53.1011         estimate D2E/DX2                !
 ! D39   D(5,7,17,20)          173.0969         estimate D2E/DX2                !
 ! D40   D(8,7,17,18)          174.8636         estimate D2E/DX2                !
 ! D41   D(8,7,17,19)          -65.0147         estimate D2E/DX2                !
 ! D42   D(8,7,17,20)           54.981          estimate D2E/DX2                !
 ! D43   D(9,7,17,18)           57.5157         estimate D2E/DX2                !
 ! D44   D(9,7,17,19)          177.6374         estimate D2E/DX2                !
 ! D45   D(9,7,17,20)          -62.3668         estimate D2E/DX2                !
 --------------------------------------------------------------------------------
 Trust Radius=3.00D-01 FncErr=1.00D-07 GrdErr=1.00D-06
 Number of steps in this run= 110 maximum allowed number of steps= 120.
 GradGradGradGradGradGradGradGradGradGradGradGradGradGradGradGradGradGrad

 Leave Link  103 at Fri Sep 18 13:24:16 2015, MaxMem=  402653184 cpu:       0.0
 (Enter /share/apps/g09/l202.exe)
                          Input orientation:                          
 ---------------------------------------------------------------------
 Center     Atomic      Atomic             Coordinates (Angstroms)
 Number     Number       Type             X           Y           Z
 ---------------------------------------------------------------------
      1          6           0       -0.961933    1.174024    0.873504
      2          1           0       -0.158777    1.899015    1.043179
      3          1           0       -1.033619    0.547250    1.768776
      4          1           0       -1.900344    1.731602    0.789075
      5          6           0       -0.700476    0.337699   -0.384242
      6          1           0       -0.733598    1.027774   -1.266202
      7          6           0        0.700476   -0.337699   -0.384243
      8          1           0        0.733597   -1.027774   -1.266202
      9          6           0        1.807222    0.709901   -0.569803
     10          1           0        1.829768    1.424306    0.260419
     11          1           0        2.793850    0.237409   -0.619124
     12          1           0        1.669444    1.281826   -1.492874
     13          6           0       -1.807222   -0.709902   -0.569803
     14          1           0       -1.669457   -1.281810   -1.492886
     15          1           0       -1.829752   -1.424321    0.260408
     16          1           0       -2.793853   -0.237412   -0.619100
     17          6           0        0.961933   -1.174023    0.873504
     18          1           0        1.033625   -0.547249    1.768775
     19          1           0        0.158775   -1.899011    1.043183
     20          1           0        1.900341   -1.731606    0.789072
 ---------------------------------------------------------------------
                    Distance matrix (angstroms):
                    1          2          3          4          5
     1  C    0.000000
     2  H    1.095199   0.000000
     3  H    1.095215   1.766100   0.000000
     4  H    1.094823   1.767951   1.764572   0.000000
     5  C    1.532881   2.183730   2.188694   2.181587   0.000000
     6  H    2.156819   2.534309   3.087395   2.465935   1.120337
     7  C    2.575041   2.789039   2.902708   3.524620   1.555258
     8  H    3.507289   3.833493   3.849006   4.333124   2.167703
     9  C    3.157018   2.807286   3.683176   4.078783   2.541951
    10  H    2.869165   2.189149   3.353111   3.779900   2.828151
    11  H    4.148625   3.773883   4.521901   5.123582   3.503647
    12  H    3.540552   3.186672   4.299362   4.260631   2.781539
    13  C    2.519291   3.482173   2.765474   2.795740   1.535183
    14  H    3.483032   4.339519   3.793177   3.786992   2.188795
    15  H    2.807204   3.801243   2.606932   3.200675   2.189875
    16  H    2.752444   3.777713   3.068562   2.580374   2.183607
    17  C    3.035554   3.275415   2.783257   4.079512   2.575040
    18  H    2.783261   2.816473   2.339108   3.842024   2.902709
    19  H    3.275412   3.811278   2.816466   4.181614   2.789037
    20  H    4.079513   4.181620   3.842021   5.141888   3.524619
                    6          7          8          9         10
     6  H    0.000000
     7  C    2.167703   0.000000
     8  H    2.525458   1.120336   0.000000
     9  C    2.653635   1.535182   2.158045   0.000000
    10  H    3.009760   2.189875   3.089476   1.095514   0.000000
    11  H    3.672367   2.183606   2.502807   1.095042   1.764022
    12  H    2.427042   2.188795   2.502287   1.094596   1.766364
    13  C    2.158045   2.541951   2.653634   3.883303   4.297884
    14  H    2.502278   2.781549   2.427053   4.111726   4.758331
    15  H    3.089476   2.828140   3.009742   4.297875   4.637538
    16  H    2.502816   3.503648   3.672372   4.697842   4.991266
    17  C    3.507289   1.532881   2.156819   2.519289   2.807192
    18  H    3.849008   2.188695   3.087395   2.765470   2.606916
    19  H    3.833492   2.183731   2.534311   3.482172   3.801233
    20  H    4.333124   2.181587   2.465932   2.795741   3.200662
                   11         12         13         14         15
    11  H    0.000000
    12  H    1.765937   0.000000
    13  C    4.697839   4.111721   0.000000
    14  H    4.795060   4.209571   1.094596   0.000000
    15  H    4.991254   4.758319   1.095515   1.766365   0.000000
    16  H    5.607841   4.795058   1.095042   1.765938   1.764023
    17  C    2.752453   3.483032   3.157018   3.540570   2.869153
    18  H    3.068573   3.793170   3.683180   4.299380   3.353111
    19  H    3.777721   4.339520   2.807285   3.186693   2.189134
    20  H    2.580386   3.786999   4.078780   4.260646   3.779881
                   16         17         18         19         20
    16  H    0.000000
    17  C    4.148618   0.000000
    18  H    4.521895   1.095215   0.000000
    19  H    3.773872   1.095199   1.766099   0.000000
    20  H    5.123575   1.094823   1.764572   1.767950   0.000000
 Stoichiometry    C6H14
 Framework group  C1[X(C6H14)]
 Deg. of freedom    54
 Full point group                 C1      NOp   1
 Largest Abelian subgroup         C1      NOp   1
 Largest concise Abelian subgroup C1      NOp   1
                         Standard orientation:                         
 ---------------------------------------------------------------------
 Center     Atomic      Atomic             Coordinates (Angstroms)
 Number     Number       Type             X           Y           Z
 ---------------------------------------------------------------------
      1          6           0       -0.961933    1.174024    0.873504
      2          1           0       -0.158777    1.899015    1.043179
      3          1           0       -1.033619    0.547250    1.768776
      4          1           0       -1.900344    1.731602    0.789075
      5          6           0       -0.700476    0.337699   -0.384242
      6          1           0       -0.733598    1.027774   -1.266202
      7          6           0        0.700476   -0.337699   -0.384243
      8          1           0        0.733597   -1.027774   -1.266202
      9          6           0        1.807222    0.709901   -0.569803
     10          1           0        1.829768    1.424306    0.260419
     11          1           0        2.793850    0.237409   -0.619124
     12          1           0        1.669444    1.281826   -1.492874
     13          6           0       -1.807222   -0.709902   -0.569803
     14          1           0       -1.669457   -1.281810   -1.492886
     15          1           0       -1.829752   -1.424321    0.260408
     16          1           0       -2.793853   -0.237412   -0.619100
     17          6           0        0.961933   -1.174023    0.873504
     18          1           0        1.033625   -0.547249    1.768775
     19          1           0        0.158775   -1.899011    1.043183
     20          1           0        1.900341   -1.731606    0.789072
 ---------------------------------------------------------------------
 Rotational constants (GHZ):      4.2296519      2.5386527      2.2712786
 Leave Link  202 at Fri Sep 18 13:24:16 2015, MaxMem=  402653184 cpu:       0.0
 (Enter /share/apps/g09/l301.exe)
 Standard basis: 6-31G(d) (6D, 7F)
 Ernie: Thresh=  0.10000D-02 Tol=  0.10000D-05 Strict=F.
 There are   118 symmetry adapted basis functions of A   symmetry.
 Integral buffers will be    131072 words long.
 Raffenetti 2 integral format.
 Two-electron integral symmetry is turned on.
   118 basis functions,   224 primitive gaussians,   118 cartesian basis functions
    25 alpha electrons       25 beta electrons
       nuclear repulsion energy       263.5089485771 Hartrees.
 IExCor=  402 DFT=T Ex+Corr=B3LYP ExCW=0 ScaHFX=  0.200000
 ScaDFX=  0.800000  0.720000  1.000000  0.810000 ScalE2=  1.000000  1.000000
 IRadAn=      5 IRanWt=     -1 IRanGd=            0 ICorTp=0
 NAtoms=   20 NActive=   20 NUniq=   20 SFac= 7.50D-01 NAtFMM=   80 NAOKFM=F Big=F
 Leave Link  301 at Fri Sep 18 13:24:16 2015, MaxMem=  402653184 cpu:       0.1
 (Enter /share/apps/g09/l302.exe)
 NPDir=0 NMtPBC=     1 NCelOv=     1 NCel=       1 NClECP=     1 NCelD=      1
         NCelK=      1 NCelE2=     1 NClLst=     1 CellRange=     0.0.
 One-electron integrals computed using PRISM.
 NBasis=   118 RedAO= T  NBF=   118
 NBsUse=   118 1.00D-06 NBFU=   118
 Precomputing XC quadrature grid using
 IXCGrd= 2 IRadAn=           5 IRanWt=          -1 IRanGd=           0 AccXCQ= 1.00D-10.
 NRdTot=    1640 NPtTot=      438216 NUsed=      449969 NTot=      450001
 NSgBfM=   118   118   118   118   118 NAtAll=    20    20.
 Leave Link  302 at Fri Sep 18 13:24:17 2015, MaxMem=  402653184 cpu:       1.2
 (Enter /share/apps/g09/l303.exe)
 DipDrv:  MaxL=1.
 Leave Link  303 at Fri Sep 18 13:24:17 2015, MaxMem=  402653184 cpu:       0.0
 (Enter /share/apps/g09/l401.exe)
 Harris functional with IExCor=  402 diagonalized for initial guess.
 ExpMin= 1.61D-01 ExpMax= 3.05D+03 ExpMxC= 4.57D+02 IAcc=3 IRadAn=         5 AccDes= 0.00D+00
 HarFok:  IExCor=  402 AccDes= 0.00D+00 IRadAn=         5 IDoV= 1
 ScaDFX=  1.000000  1.000000  1.000000  1.000000
 FoFCou: FMM=F IPFlag=           0 FMFlag=      100000 FMFlg1=           0
         NFxFlg=           0 DoJE=T BraDBF=F KetDBF=T FulRan=T
         Omega=  0.000000  0.000000  1.000000  0.000000  0.000000 ICntrl=     500 IOpCl=  0
         NMat0=    1 NMatS0=    1 NMatT0=    0 NMatD0=    1 NMtDS0=    0 NMtDT0=    0
         I1Cent=           4 NGrid=           0.
 Petite list used in FoFCou.
 Harris En= -237.177511184311    
 Initial guess orbital symmetries:
       Occupied  (A) (A) (A) (A) (A) (A) (A) (A) (A) (A) (A) (A)
                 (A) (A) (A) (A) (A) (A) (A) (A) (A) (A) (A) (A)
                 (A)
       Virtual   (A) (A) (A) (A) (A) (A) (A) (A) (A) (A) (A) (A)
                 (A) (A) (A) (A) (A) (A) (A) (A) (A) (A) (A) (A)
                 (A) (A) (A) (A) (A) (A) (A) (A) (A) (A) (A) (A)
                 (A) (A) (A) (A) (A) (A) (A) (A) (A) (A) (A) (A)
                 (A) (A) (A) (A) (A) (A) (A) (A) (A) (A) (A) (A)
                 (A) (A) (A) (A) (A) (A) (A) (A) (A) (A) (A) (A)
                 (A) (A) (A) (A) (A) (A) (A) (A) (A) (A) (A) (A)
                 (A) (A) (A) (A) (A) (A) (A) (A) (A)
 The electronic state of the initial guess is 1-A.
 Leave Link  401 at Fri Sep 18 13:24:22 2015, MaxMem=  402653184 cpu:      10.6
 (Enter /share/apps/g09/l502.exe)
 Closed shell SCF:
 Requested convergence on RMS density matrix=1.00D-08 within 128 cycles.
 Requested convergence on MAX density matrix=1.00D-06.
 Requested convergence on             energy=1.00D-06.
 No special actions if energy rises.
 Using DIIS extrapolation, IDIIS=  1040.
 Integral symmetry usage will be decided dynamically.
       449776 words used for storage of precomputed grid.
 Keep R1 ints in memory in canonical form, NReq=26103831.
 IEnd=      511320 IEndB=      511320 NGot=   402653184 MDV=   377521788
 LenX=   377521788 LenY=   377507423
 Symmetry not used in FoFDir.
 MinBra= 0 MaxBra= 2 Meth= 1.
 IRaf=       0 NMat=   1 IRICut=       1 DoRegI=T DoRafI=F ISym2E= 0 JSym2E=0.
 Integral accuracy reduced to 1.0D-05 until final iterations.

 Cycle   1  Pass 0  IDiag  1:
 E= -236.787061764816    
 DIIS: error= 5.03D-02 at cycle   1 NSaved=   1.
 NSaved= 1 IEnMin= 1 EnMin= -236.787061764816     IErMin= 1 ErrMin= 5.03D-02
 ErrMax= 5.03D-02 EMaxC= 1.00D-01 BMatC= 2.63D-01 BMatP= 2.63D-01
 IDIUse=3 WtCom= 4.97D-01 WtEn= 5.03D-01
 Coeff-Com:  0.100D+01
 Coeff-En:   0.100D+01
 Coeff:      0.100D+01
 Gap=     0.320 Goal=   None    Shift=    0.000
 GapD=    0.320 DampG=1.000 DampE=0.500 DampFc=0.5000 IDamp=-1.
 Damping current iteration by 5.00D-01
 RMSDP=1.03D-02 MaxDP=1.54D-01              OVMax= 1.80D-01

 Cycle   2  Pass 0  IDiag  1:
 E= -236.914684536271     Delta-E=       -0.127622771455 Rises=F Damp=T
 DIIS: error= 8.30D-03 at cycle   2 NSaved=   2.
 NSaved= 2 IEnMin= 2 EnMin= -236.914684536271     IErMin= 2 ErrMin= 8.30D-03
 ErrMax= 8.30D-03 EMaxC= 1.00D-01 BMatC= 1.09D-02 BMatP= 2.63D-01
 IDIUse=3 WtCom= 9.17D-01 WtEn= 8.30D-02
 Coeff-Com:  0.917D-01 0.908D+00
 Coeff-En:   0.153D+00 0.847D+00
 Coeff:      0.968D-01 0.903D+00
 Gap=     0.390 Goal=   None    Shift=    0.000
 RMSDP=1.82D-03 MaxDP=2.67D-02 DE=-1.28D-01 OVMax= 1.07D-01

 Cycle   3  Pass 0  IDiag  1:
 E= -237.079631163858     Delta-E=       -0.164946627587 Rises=F Damp=F
 DIIS: error= 3.50D-03 at cycle   3 NSaved=   3.
 NSaved= 3 IEnMin= 3 EnMin= -237.079631163858     IErMin= 3 ErrMin= 3.50D-03
 ErrMax= 3.50D-03 EMaxC= 1.00D-01 BMatC= 1.76D-03 BMatP= 1.09D-02
 IDIUse=3 WtCom= 9.65D-01 WtEn= 3.50D-02
 Coeff-Com:  0.141D-01 0.241D+00 0.745D+00
 Coeff-En:   0.000D+00 0.000D+00 0.100D+01
 Coeff:      0.136D-01 0.233D+00 0.754D+00
 Gap=     0.377 Goal=   None    Shift=    0.000
 RMSDP=6.18D-04 MaxDP=1.04D-02 DE=-1.65D-01 OVMax= 1.18D-02

 Cycle   4  Pass 0  IDiag  1:
 E= -237.080712919266     Delta-E=       -0.001081755408 Rises=F Damp=F
 DIIS: error= 1.84D-03 at cycle   4 NSaved=   4.
 NSaved= 4 IEnMin= 4 EnMin= -237.080712919266     IErMin= 4 ErrMin= 1.84D-03
 ErrMax= 1.84D-03 EMaxC= 1.00D-01 BMatC= 6.68D-04 BMatP= 1.76D-03
 IDIUse=3 WtCom= 9.82D-01 WtEn= 1.84D-02
 Coeff-Com:  0.351D-03 0.351D-01 0.384D+00 0.580D+00
 Coeff-En:   0.000D+00 0.000D+00 0.263D+00 0.737D+00
 Coeff:      0.344D-03 0.344D-01 0.382D+00 0.583D+00
 Gap=     0.381 Goal=   None    Shift=    0.000
 RMSDP=2.29D-04 MaxDP=4.28D-03 DE=-1.08D-03 OVMax= 5.50D-03

 Cycle   5  Pass 0  IDiag  1:
 E= -237.081337178655     Delta-E=       -0.000624259389 Rises=F Damp=F
 DIIS: error= 3.50D-04 at cycle   5 NSaved=   5.
 NSaved= 5 IEnMin= 5 EnMin= -237.081337178655     IErMin= 5 ErrMin= 3.50D-04
 ErrMax= 3.50D-04 EMaxC= 1.00D-01 BMatC= 1.84D-05 BMatP= 6.68D-04
 IDIUse=3 WtCom= 9.97D-01 WtEn= 3.50D-03
 Coeff-Com:  0.391D-04-0.982D-03 0.102D+00 0.225D+00 0.675D+00
 Coeff-En:   0.000D+00 0.000D+00 0.000D+00 0.000D+00 0.100D+01
 Coeff:      0.390D-04-0.979D-03 0.101D+00 0.224D+00 0.676D+00
 Gap=     0.381 Goal=   None    Shift=    0.000
 RMSDP=4.10D-05 MaxDP=6.05D-04 DE=-6.24D-04 OVMax= 8.45D-04

 Cycle   6  Pass 0  IDiag  1:
 E= -237.081354293108     Delta-E=       -0.000017114454 Rises=F Damp=F
 DIIS: error= 5.33D-05 at cycle   6 NSaved=   6.
 NSaved= 6 IEnMin= 6 EnMin= -237.081354293108     IErMin= 6 ErrMin= 5.33D-05
 ErrMax= 5.33D-05 EMaxC= 1.00D-01 BMatC= 2.99D-07 BMatP= 1.84D-05
 IDIUse=1 WtCom= 1.00D+00 WtEn= 0.00D+00
 Coeff-Com:  0.131D-03-0.113D-02 0.264D-01 0.630D-01 0.233D+00 0.679D+00
 Coeff:      0.131D-03-0.113D-02 0.264D-01 0.630D-01 0.233D+00 0.679D+00
 Gap=     0.381 Goal=   None    Shift=    0.000
 RMSDP=8.54D-06 MaxDP=8.41D-05 DE=-1.71D-05 OVMax= 1.50D-04

 Initial convergence to 1.0D-05 achieved.  Increase integral accuracy.
 Cycle   7  Pass 1  IDiag  1:
 E= -237.081346231001     Delta-E=        0.000008062107 Rises=F Damp=F
 DIIS: error= 1.18D-05 at cycle   1 NSaved=   1.
 NSaved= 1 IEnMin= 1 EnMin= -237.081346231001     IErMin= 1 ErrMin= 1.18D-05
 ErrMax= 1.18D-05 EMaxC= 1.00D-01 BMatC= 1.66D-08 BMatP= 1.66D-08
 IDIUse=1 WtCom= 1.00D+00 WtEn= 0.00D+00
 Coeff-Com:  0.100D+01
 Coeff:      0.100D+01
 Gap=     0.381 Goal=   None    Shift=    0.000
 RMSDP=8.54D-06 MaxDP=8.41D-05 DE= 8.06D-06 OVMax= 4.36D-05

 Cycle   8  Pass 1  IDiag  1:
 E= -237.081346233044     Delta-E=       -0.000000002043 Rises=F Damp=F
 DIIS: error= 1.21D-05 at cycle   2 NSaved=   2.
 NSaved= 2 IEnMin= 2 EnMin= -237.081346233044     IErMin= 1 ErrMin= 1.18D-05
 ErrMax= 1.21D-05 EMaxC= 1.00D-01 BMatC= 1.66D-08 BMatP= 1.66D-08
 IDIUse=1 WtCom= 1.00D+00 WtEn= 0.00D+00
 Coeff-Com:  0.500D+00 0.500D+00
 Coeff:      0.500D+00 0.500D+00
 Gap=     0.381 Goal=   None    Shift=    0.000
 RMSDP=1.13D-06 MaxDP=2.05D-05 DE=-2.04D-09 OVMax= 2.47D-05

 Cycle   9  Pass 1  IDiag  1:
 E= -237.081346249452     Delta-E=       -0.000000016407 Rises=F Damp=F
 DIIS: error= 1.55D-06 at cycle   3 NSaved=   3.
 NSaved= 3 IEnMin= 3 EnMin= -237.081346249452     IErMin= 3 ErrMin= 1.55D-06
 ErrMax= 1.55D-06 EMaxC= 1.00D-01 BMatC= 2.68D-10 BMatP= 1.66D-08
 IDIUse=1 WtCom= 1.00D+00 WtEn= 0.00D+00
 Coeff-Com:  0.496D-02 0.109D+00 0.886D+00
 Coeff:      0.496D-02 0.109D+00 0.886D+00
 Gap=     0.381 Goal=   None    Shift=    0.000
 RMSDP=1.35D-07 MaxDP=2.70D-06 DE=-1.64D-08 OVMax= 2.83D-06

 Cycle  10  Pass 1  IDiag  1:
 E= -237.081346249702     Delta-E=       -0.000000000250 Rises=F Damp=F
 DIIS: error= 2.53D-07 at cycle   4 NSaved=   4.
 NSaved= 4 IEnMin= 4 EnMin= -237.081346249702     IErMin= 4 ErrMin= 2.53D-07
 ErrMax= 2.53D-07 EMaxC= 1.00D-01 BMatC= 8.53D-12 BMatP= 2.68D-10
 IDIUse=1 WtCom= 1.00D+00 WtEn= 0.00D+00
 Coeff-Com: -0.994D-02 0.246D-01 0.278D+00 0.707D+00
 Coeff:     -0.994D-02 0.246D-01 0.278D+00 0.707D+00
 Gap=     0.381 Goal=   None    Shift=    0.000
 RMSDP=4.46D-08 MaxDP=4.76D-07 DE=-2.50D-10 OVMax= 8.06D-07

 Cycle  11  Pass 1  IDiag  1:
 E= -237.081346249710     Delta-E=       -0.000000000008 Rises=F Damp=F
 DIIS: error= 4.83D-08 at cycle   5 NSaved=   5.
 NSaved= 5 IEnMin= 5 EnMin= -237.081346249710     IErMin= 5 ErrMin= 4.83D-08
 ErrMax= 4.83D-08 EMaxC= 1.00D-01 BMatC= 3.65D-13 BMatP= 8.53D-12
 IDIUse=1 WtCom= 1.00D+00 WtEn= 0.00D+00
 Coeff-Com: -0.368D-02 0.614D-02 0.767D-01 0.257D+00 0.664D+00
 Coeff:     -0.368D-02 0.614D-02 0.767D-01 0.257D+00 0.664D+00
 Gap=     0.381 Goal=   None    Shift=    0.000
 RMSDP=7.20D-09 MaxDP=8.72D-08 DE=-8.47D-12 OVMax= 1.32D-07

 SCF Done:  E(RB3LYP) =  -237.081346250     A.U. after   11 cycles
             Convg  =    0.7196D-08             -V/T =  2.0104
 KE= 2.346367572112D+02 PE=-1.073944447516D+03 EE= 3.387173954777D+02
 Leave Link  502 at Fri Sep 18 13:25:15 2015, MaxMem=  402653184 cpu:     105.7
 (Enter /share/apps/g09/l601.exe)
 Copying SCF densities to generalized density rwf, IOpCl= 0 IROHF=0.

 **********************************************************************

            Population analysis using the SCF density.

 **********************************************************************

 Orbital symmetries:
       Occupied  (A) (A) (A) (A) (A) (A) (A) (A) (A) (A) (A) (A)
                 (A) (A) (A) (A) (A) (A) (A) (A) (A) (A) (A) (A)
                 (A)
       Virtual   (A) (A) (A) (A) (A) (A) (A) (A) (A) (A) (A) (A)
                 (A) (A) (A) (A) (A) (A) (A) (A) (A) (A) (A) (A)
                 (A) (A) (A) (A) (A) (A) (A) (A) (A) (A) (A) (A)
                 (A) (A) (A) (A) (A) (A) (A) (A) (A) (A) (A) (A)
                 (A) (A) (A) (A) (A) (A) (A) (A) (A) (A) (A) (A)
                 (A) (A) (A) (A) (A) (A) (A) (A) (A) (A) (A) (A)
                 (A) (A) (A) (A) (A) (A) (A) (A) (A) (A) (A) (A)
                 (A) (A) (A) (A) (A) (A) (A) (A) (A)
 The electronic state is 1-A.
 Alpha  occ. eigenvalues --  -10.18371 -10.18352 -10.16728 -10.16728 -10.16673
 Alpha  occ. eigenvalues --  -10.16673  -0.81227  -0.73982  -0.68055  -0.67373
 Alpha  occ. eigenvalues --   -0.60466  -0.52881  -0.46526  -0.44219  -0.43644
 Alpha  occ. eigenvalues --   -0.40127  -0.39576  -0.38196  -0.36989  -0.36914
 Alpha  occ. eigenvalues --   -0.34201  -0.34079  -0.30971  -0.30786  -0.30049
 Alpha virt. eigenvalues --    0.08027   0.12139   0.12187   0.13659   0.14298
 Alpha virt. eigenvalues --    0.14976   0.16736   0.17362   0.18092   0.18516
 Alpha virt. eigenvalues --    0.20589   0.20858   0.21757   0.23811   0.24023
 Alpha virt. eigenvalues --    0.24741   0.27254   0.28333   0.29012   0.50457
 Alpha virt. eigenvalues --    0.50635   0.51200   0.51301   0.54385   0.57156
 Alpha virt. eigenvalues --    0.61854   0.62373   0.65891   0.66698   0.70472
 Alpha virt. eigenvalues --    0.74236   0.77135   0.77617   0.78496   0.81873
 Alpha virt. eigenvalues --    0.86443   0.87825   0.89021   0.89708   0.90582
 Alpha virt. eigenvalues --    0.90811   0.92665   0.93982   0.94712   0.96324
 Alpha virt. eigenvalues --    0.96654   0.98857   0.99637   1.00745   1.02100
 Alpha virt. eigenvalues --    1.04143   1.04510   1.29519   1.37097   1.41230
 Alpha virt. eigenvalues --    1.41442   1.56885   1.60615   1.66215   1.69542
 Alpha virt. eigenvalues --    1.71202   1.77189   1.79919   1.83872   1.90312
 Alpha virt. eigenvalues --    1.90474   1.97955   2.01876   2.03216   2.06526
 Alpha virt. eigenvalues --    2.09755   2.11129   2.11813   2.17601   2.25811
 Alpha virt. eigenvalues --    2.27177   2.27938   2.28478   2.37879   2.39295
 Alpha virt. eigenvalues --    2.41878   2.50169   2.57033   2.58629   2.73900
 Alpha virt. eigenvalues --    2.74289   2.78131   4.12789   4.26472   4.28860
 Alpha virt. eigenvalues --    4.31104   4.50274   4.62212
          Condensed to atoms (all electrons):
              1          2          3          4          5          6
     1  C    5.120081   0.370271   0.374200   0.370182   0.376254  -0.047732
     2  H    0.370271   0.577447  -0.032172  -0.029944  -0.032912  -0.002482
     3  H    0.374200  -0.032172   0.577043  -0.032233  -0.032877   0.005592
     4  H    0.370182  -0.029944  -0.032233   0.579430  -0.027845  -0.004512
     5  C    0.376254  -0.032912  -0.032877  -0.027845   4.872627   0.376614
     6  H   -0.047732  -0.002482   0.005592  -0.004512   0.376614   0.648919
     7  C   -0.045085  -0.004534  -0.007572   0.004943   0.389938  -0.045923
     8  H    0.005753  -0.000002   0.000003  -0.000145  -0.045923  -0.002347
     9  C   -0.006740   0.001851   0.000100   0.000032  -0.044641  -0.006533
    10  H    0.001628   0.004971   0.000077  -0.000137  -0.006920  -0.000208
    11  H    0.000084  -0.000164  -0.000011   0.000002   0.004801   0.000044
    12  H   -0.000153   0.000162   0.000022  -0.000027  -0.004431   0.006006
    13  C   -0.056354   0.005409  -0.005832  -0.003505   0.377044  -0.045082
    14  H    0.005435  -0.000193   0.000014  -0.000061  -0.029997  -0.003350
    15  H   -0.005724  -0.000029   0.004832  -0.000233  -0.032538   0.005590
    16  H   -0.003340  -0.000052  -0.000222   0.003813  -0.029317  -0.003609
    17  C   -0.009658  -0.000756   0.003586   0.000165  -0.045085   0.005753
    18  H    0.003586   0.000498   0.001313  -0.000050  -0.007572   0.000003
    19  H   -0.000756   0.000108   0.000498  -0.000040  -0.004533  -0.000002
    20  H    0.000165  -0.000040  -0.000050  -0.000002   0.004943  -0.000145
              7          8          9         10         11         12
     1  C   -0.045085   0.005753  -0.006740   0.001628   0.000084  -0.000153
     2  H   -0.004534  -0.000002   0.001851   0.004971  -0.000164   0.000162
     3  H   -0.007572   0.000003   0.000100   0.000077  -0.000011   0.000022
     4  H    0.004943  -0.000145   0.000032  -0.000137   0.000002  -0.000027
     5  C    0.389938  -0.045923  -0.044641  -0.006920   0.004801  -0.004431
     6  H   -0.045923  -0.002347  -0.006533  -0.000208   0.000044   0.006006
     7  C    4.872627   0.376614   0.377044  -0.032538  -0.029317  -0.029997
     8  H    0.376614   0.648918  -0.045082   0.005590  -0.003610  -0.003350
     9  C    0.377044  -0.045082   5.118420   0.371931   0.367760   0.369582
    10  H   -0.032538   0.005590   0.371931   0.579138  -0.031637  -0.032231
    11  H   -0.029317  -0.003610   0.367760  -0.031637   0.584724  -0.030747
    12  H   -0.029997  -0.003350   0.369582  -0.032231  -0.030747   0.581269
    13  C   -0.044641  -0.006532   0.004863   0.000045  -0.000171   0.000059
    14  H   -0.004431   0.006006   0.000059   0.000003  -0.000005  -0.000013
    15  H   -0.006921  -0.000208   0.000045  -0.000001   0.000003   0.000003
    16  H    0.004801   0.000044  -0.000171   0.000003   0.000003  -0.000005
    17  C    0.376253  -0.047732  -0.056355  -0.005725  -0.003340   0.005436
    18  H   -0.032877   0.005592  -0.005833   0.004832  -0.000222   0.000014
    19  H   -0.032912  -0.002482   0.005409  -0.000029  -0.000052  -0.000193
    20  H   -0.027845  -0.004513  -0.003505  -0.000233   0.003813  -0.000061
             13         14         15         16         17         18
     1  C   -0.056354   0.005435  -0.005724  -0.003340  -0.009658   0.003586
     2  H    0.005409  -0.000193  -0.000029  -0.000052  -0.000756   0.000498
     3  H   -0.005832   0.000014   0.004832  -0.000222   0.003586   0.001313
     4  H   -0.003505  -0.000061  -0.000233   0.003813   0.000165  -0.000050
     5  C    0.377044  -0.029997  -0.032538  -0.029317  -0.045085  -0.007572
     6  H   -0.045082  -0.003350   0.005590  -0.003609   0.005753   0.000003
     7  C   -0.044641  -0.004431  -0.006921   0.004801   0.376253  -0.032877
     8  H   -0.006532   0.006006  -0.000208   0.000044  -0.047732   0.005592
     9  C    0.004863   0.000059   0.000045  -0.000171  -0.056355  -0.005833
    10  H    0.000045   0.000003  -0.000001   0.000003  -0.005725   0.004832
    11  H   -0.000171  -0.000005   0.000003   0.000003  -0.003340  -0.000222
    12  H    0.000059  -0.000013   0.000003  -0.000005   0.005436   0.000014
    13  C    5.118421   0.369582   0.371931   0.367760  -0.006740   0.000100
    14  H    0.369582   0.581268  -0.032231  -0.030747  -0.000153   0.000022
    15  H    0.371931  -0.032231   0.579138  -0.031637   0.001628   0.000077
    16  H    0.367760  -0.030747  -0.031637   0.584724   0.000084  -0.000011
    17  C   -0.006740  -0.000153   0.001628   0.000084   5.120082   0.374200
    18  H    0.000100   0.000022   0.000077  -0.000011   0.374200   0.577043
    19  H    0.001851   0.000162   0.004971  -0.000164   0.370271  -0.032172
    20  H    0.000032  -0.000027  -0.000137   0.000002   0.370182  -0.032233
             19         20
     1  C   -0.000756   0.000165
     2  H    0.000108  -0.000040
     3  H    0.000498  -0.000050
     4  H   -0.000040  -0.000002
     5  C   -0.004533   0.004943
     6  H   -0.000002  -0.000145
     7  C   -0.032912  -0.027845
     8  H   -0.002482  -0.004513
     9  C    0.005409  -0.003505
    10  H   -0.000029  -0.000233
    11  H   -0.000052   0.003813
    12  H   -0.000193  -0.000061
    13  C    0.001851   0.000032
    14  H    0.000162  -0.000027
    15  H    0.004971  -0.000137
    16  H   -0.000164   0.000002
    17  C    0.370271   0.370182
    18  H   -0.032172  -0.032233
    19  H    0.577447  -0.029944
    20  H   -0.029944   0.579431
 Mulliken atomic charges:
              1
     1  C   -0.452097
     2  H    0.142564
     3  H    0.143689
     4  H    0.140168
     5  C   -0.057629
     6  H    0.113404
     7  C   -0.057629
     8  H    0.113404
     9  C   -0.448238
    10  H    0.141440
    11  H    0.138043
    12  H    0.138656
    13  C   -0.448238
    14  H    0.138657
    15  H    0.141440
    16  H    0.138042
    17  C   -0.452097
    18  H    0.143689
    19  H    0.142564
    20  H    0.140168
 Sum of Mulliken atomic charges =   0.00000
 Mulliken charges with hydrogens summed into heavy atoms:
              1
     1  C   -0.025676
     5  C    0.055775
     7  C    0.055775
     9  C   -0.030099
    13  C   -0.030099
    17  C   -0.025676
 Sum of Mulliken charges with hydrogens summed into heavy atoms =   0.00000
 Electronic spatial extent (au):  <R**2>=            717.7281
 Charge=              0.0000 electrons
 Dipole moment (field-independent basis, Debye):
    X=              0.0000    Y=              0.0000    Z=             -0.0309  Tot=              0.0309
 Quadrupole moment (field-independent basis, Debye-Ang):
   XX=            -41.8182   YY=            -41.6878   ZZ=            -41.5230
   XY=             -0.3225   XZ=              0.0000   YZ=              0.0000
 Traceless Quadrupole moment (field-independent basis, Debye-Ang):
   XX=             -0.1418   YY=             -0.0115   ZZ=              0.1533
   XY=             -0.3225   XZ=              0.0000   YZ=              0.0000
 Octapole moment (field-independent basis, Debye-Ang**2):
  XXX=              0.0000  YYY=              0.0000  ZZZ=             -0.9005  XYY=              0.0000
  XXY=              0.0000  XXZ=              0.2357  XZZ=              0.0000  YZZ=              0.0000
  YYZ=             -0.3991  XYZ=              1.1172
 Hexadecapole moment (field-independent basis, Debye-Ang**3):
 XXXX=           -509.9641 YYYY=           -278.4584 ZZZZ=           -203.7047 XXXY=            -10.1515
 XXXZ=             -0.0001 YYYX=              0.0075 YYYZ=             -0.0001 ZZZX=              0.0001
 ZZZY=              0.0000 XXYY=           -131.3283 XXZZ=           -121.8976 YYZZ=            -80.2298
 XXYZ=              0.0001 YYXZ=              0.0000 ZZXY=              2.3076
 N-N= 2.635089485771D+02 E-N=-1.073944458795D+03  KE= 2.346367572112D+02
 No NMR shielding tensors so no spin-rotation constants.
 Leave Link  601 at Fri Sep 18 13:25:15 2015, MaxMem=  402653184 cpu:       0.3
 (Enter /share/apps/g09/l701.exe)
 Compute integral first derivatives.
 ... and contract with generalized density number  0.
 Leave Link  701 at Fri Sep 18 13:25:15 2015, MaxMem=  402653184 cpu:       0.3
 (Enter /share/apps/g09/l702.exe)
 L702 exits ... SP integral derivatives will be done elsewhere.
 Leave Link  702 at Fri Sep 18 13:25:16 2015, MaxMem=  402653184 cpu:       0.0
 (Enter /share/apps/g09/l703.exe)
 Compute integral first derivatives, UseDBF=F ICtDFT=           0.
 Integral derivatives from FoFDir, PRISM(SPDF).
 Calling FoFJK, ICntrl=      2127 FMM=F ISym2X=0 I1Cent= 0 IOpClX= 0 NMat=1 NMatS=1 NMatT=0.
 FoFCou: FMM=F IPFlag=           0 FMFlag=      100000 FMFlg1=         800
         NFxFlg=           0 DoJE=F BraDBF=F KetDBF=F FulRan=T
         Omega=  0.000000  0.000000  1.000000  0.000000  0.000000 ICntrl=    2127 IOpCl=  0
         NMat0=    1 NMatS0=    1 NMatT0=    0 NMatD0=    1 NMtDS0=    0 NMtDT0=    0
         I1Cent=           0 NGrid=           0.
 Symmetry not used in FoFCou.
 Leave Link  703 at Fri Sep 18 13:25:29 2015, MaxMem=  402653184 cpu:      26.4
 (Enter /share/apps/g09/l716.exe)
 Dipole        = 1.07667389D-06-3.21464164D-07-1.21543612D-02
 ***** Axes restored to original set *****
 -------------------------------------------------------------------
 Center     Atomic                   Forces (Hartrees/Bohr)
 Number     Number              X              Y              Z
 -------------------------------------------------------------------
      1        6           0.001397412    0.002594616    0.000577639
      2        1          -0.000996172    0.001277136    0.000831055
      3        1          -0.000589271   -0.000646974    0.000212133
      4        1          -0.000788159    0.000283093   -0.000636158
      5        6          -0.001490587   -0.000359541   -0.007972814
      6        1           0.000691521   -0.007501706    0.008853881
      7        6           0.001490107    0.000359702   -0.007971837
      8        1          -0.000691526    0.007501511    0.008853528
      9        6           0.002469174   -0.001441028   -0.001270940
     10        1           0.000363060   -0.000051949    0.000639048
     11        1           0.001167535   -0.000499916    0.000106819
     12        1          -0.000618063    0.000572218   -0.001340975
     13        6          -0.002469366    0.001441503   -0.001270285
     14        1           0.000618177   -0.000572414   -0.001341081
     15        1          -0.000363194    0.000052107    0.000638738
     16        1          -0.001167086    0.000499709    0.000106793
     17        6          -0.001397169   -0.002595235    0.000577273
     18        1           0.000589279    0.000647203    0.000212244
     19        1           0.000996191   -0.001277052    0.000831004
     20        1           0.000788137   -0.000282982   -0.000636063
 -------------------------------------------------------------------
 Cartesian Forces:  Max     0.008853881 RMS     0.002767446
 Leave Link  716 at Fri Sep 18 13:25:29 2015, MaxMem=  402653184 cpu:       0.1
 (Enter /share/apps/g09/l103.exe)

 GradGradGradGradGradGradGradGradGradGradGradGradGradGradGradGradGradGrad
 Berny optimization.
 Internal  Forces:  Max     0.011610914 RMS     0.002058667
 Search for a local minimum.
 Step number   1 out of a maximum of  110
 All quantities printed in internal units (Hartrees-Bohrs-Radians)
 RMS Force = .20587D-02 SwitMx=.10000D-02 MixMth= 1
 Mixed Optimization -- RFO/linear search
 Second derivative matrix not updated -- first step.
     Eigenvalues ---    0.00230   0.00301   0.00301   0.00331   0.00331
     Eigenvalues ---    0.03357   0.03357   0.04670   0.04670   0.04914
     Eigenvalues ---    0.04914   0.05369   0.05369   0.05407   0.05407
     Eigenvalues ---    0.05428   0.05428   0.05453   0.05453   0.16000
     Eigenvalues ---    0.16000   0.16000   0.16000   0.16000   0.16000
     Eigenvalues ---    0.16000   0.16000   0.16000   0.16000   0.16000
     Eigenvalues ---    0.16000   0.16726   0.16726   0.17195   0.17195
     Eigenvalues ---    0.27209   0.28950   0.28950   0.29159   0.29159
     Eigenvalues ---    0.31530   0.31530   0.34183   0.34183   0.34217
     Eigenvalues ---    0.34217   0.34219   0.34219   0.34236   0.34236
     Eigenvalues ---    0.34261   0.34261   0.34287   0.342871000.00000
     Eigenvalues --- 1000.000001000.000001000.000001000.000001000.00000
     Eigenvalues --- 1000.000001000.000001000.000001000.000001000.00000
     Eigenvalues --- 1000.000001000.000001000.000001000.000001000.00000
     Eigenvalues --- 1000.000001000.000001000.000001000.000001000.00000
     Eigenvalues --- 1000.000001000.000001000.000001000.000001000.00000
     Eigenvalues --- 1000.000001000.000001000.000001000.000001000.00000
     Eigenvalues --- 1000.000001000.000001000.000001000.000001000.00000
     Eigenvalues --- 1000.000001000.000001000.000001000.000001000.00000
     Eigenvalues --- 1000.000001000.000001000.000001000.000001000.00000
 RFO step:  Lambda=-2.73349129D-03 EMin= 2.30000000D-03
 Linear search not attempted -- first point.
 Iteration  1 RMS(Cart)=  0.05643981 RMS(Int)=  0.00094616
 Iteration  2 RMS(Cart)=  0.00135280 RMS(Int)=  0.00024137
 Iteration  3 RMS(Cart)=  0.00000062 RMS(Int)=  0.00024137
 Variable       Old X    -DE/DX   Delta X   Delta X   Delta X     New X
                                 (Linear)    (Quad)   (Total)
    R1        2.06963   0.00024   0.00000   0.00071   0.00071   2.07034
    R2        2.06966   0.00058   0.00000   0.00169   0.00169   2.07134
    R3        2.06892   0.00087   0.00000   0.00251   0.00251   2.07143
    R4        2.89673   0.00289   0.00000   0.00982   0.00982   2.90654
    R5        2.11713  -0.01161   0.00000  -0.03651  -0.03651   2.08062
    R6        2.93901   0.00337   0.00000   0.01228   0.01228   2.95129
    R7        2.90108   0.00169   0.00000   0.00579   0.00579   2.90687
    R8        2.11713  -0.01161   0.00000  -0.03651  -0.03651   2.08062
    R9        2.90107   0.00169   0.00000   0.00579   0.00579   2.90687
   R10        2.89673   0.00289   0.00000   0.00982   0.00982   2.90654
   R11        2.07022   0.00046   0.00000   0.00133   0.00133   2.07155
   R12        2.06933   0.00126   0.00000   0.00366   0.00366   2.07299
   R13        2.06849   0.00151   0.00000   0.00436   0.00436   2.07285
   R14        2.06849   0.00151   0.00000   0.00436   0.00436   2.07285
   R15        2.07022   0.00046   0.00000   0.00133   0.00133   2.07155
   R16        2.06933   0.00126   0.00000   0.00366   0.00366   2.07299
   R17        2.06966   0.00058   0.00000   0.00169   0.00169   2.07134
   R18        2.06963   0.00024   0.00000   0.00071   0.00071   2.07034
   R19        2.06892   0.00087   0.00000   0.00251   0.00251   2.07143
    A1        1.87569  -0.00031   0.00000   0.00525   0.00517   1.88086
    A2        1.87904  -0.00080   0.00000  -0.00620  -0.00613   1.87291
    A3        1.94250   0.00265   0.00000   0.01946   0.01945   1.96195
    A4        1.87380   0.00041   0.00000  -0.00334  -0.00343   1.87037
    A5        1.94943  -0.00060   0.00000  -0.00298  -0.00307   1.94636
    A6        1.93991  -0.00141   0.00000  -0.01253  -0.01254   1.92736
    A7        1.88055   0.00012   0.00000  -0.01442  -0.01426   1.86629
    A8        1.97205   0.00188   0.00000   0.02711   0.02653   1.99858
    A9        1.92679  -0.00210   0.00000   0.00331   0.00216   1.92894
   A10        1.86933  -0.00192   0.00000  -0.02649  -0.02605   1.84328
   A11        1.87953  -0.00055   0.00000  -0.02323  -0.02303   1.85650
   A12        1.93163   0.00240   0.00000   0.02885   0.02829   1.95991
   A13        1.86933  -0.00192   0.00000  -0.02649  -0.02605   1.84328
   A14        1.93163   0.00240   0.00000   0.02885   0.02829   1.95991
   A15        1.97205   0.00188   0.00000   0.02711   0.02653   1.99859
   A16        1.87953  -0.00055   0.00000  -0.02324  -0.02303   1.85650
   A17        1.88056   0.00012   0.00000  -0.01442  -0.01426   1.86629
   A18        1.92679  -0.00210   0.00000   0.00331   0.00216   1.92894
   A19        1.94791   0.00006   0.00000   0.00023   0.00023   1.94814
   A20        1.93965   0.00011   0.00000   0.00013   0.00013   1.93978
   A21        1.94737  -0.00062   0.00000  -0.00312  -0.00312   1.94425
   A22        1.87231  -0.00023   0.00000  -0.00263  -0.00263   1.86969
   A23        1.87648   0.00041   0.00000   0.00350   0.00350   1.87998
   A24        1.87641   0.00030   0.00000   0.00207   0.00207   1.87848
   A25        1.94737  -0.00062   0.00000  -0.00313  -0.00312   1.94425
   A26        1.94791   0.00006   0.00000   0.00023   0.00023   1.94814
   A27        1.93965   0.00011   0.00000   0.00013   0.00013   1.93978
   A28        1.87648   0.00041   0.00000   0.00350   0.00350   1.87998
   A29        1.87641   0.00030   0.00000   0.00207   0.00207   1.87848
   A30        1.87231  -0.00023   0.00000  -0.00263  -0.00263   1.86969
   A31        1.94943  -0.00060   0.00000  -0.00298  -0.00307   1.94636
   A32        1.94250   0.00265   0.00000   0.01946   0.01945   1.96195
   A33        1.93990  -0.00141   0.00000  -0.01253  -0.01254   1.92736
   A34        1.87569  -0.00031   0.00000   0.00525   0.00517   1.88086
   A35        1.87380   0.00041   0.00000  -0.00334  -0.00343   1.87037
   A36        1.87904  -0.00080   0.00000  -0.00620  -0.00613   1.87291
    D1       -1.13472   0.00026   0.00000   0.01123   0.01130  -1.12342
    D2        0.92679  -0.00093   0.00000  -0.01494  -0.01492   0.91188
    D3        3.10036   0.00201   0.00000   0.04574   0.04578  -3.13705
    D4        3.05195  -0.00077   0.00000  -0.00679  -0.00676   3.04519
    D5       -1.16972  -0.00196   0.00000  -0.03295  -0.03297  -1.20270
    D6        1.00384   0.00099   0.00000   0.02772   0.02772   1.03156
    D7        0.95961   0.00007   0.00000   0.00801   0.00799   0.96760
    D8        3.02112  -0.00111   0.00000  -0.01816  -0.01822   3.00289
    D9       -1.08850   0.00183   0.00000   0.04252   0.04247  -1.04603
   D10        3.00921   0.00015   0.00000  -0.00896  -0.00865   3.00056
   D11       -1.22977  -0.00033   0.00000  -0.03663  -0.03662  -1.26639
   D12        0.94115   0.00016   0.00000   0.01029   0.01092   0.95208
   D13       -1.20593   0.00015   0.00000  -0.02820  -0.02821  -1.23414
   D14        0.83828  -0.00034   0.00000  -0.05587  -0.05619   0.78209
   D15        3.00921   0.00015   0.00000  -0.00896  -0.00865   3.00056
   D16        0.83828  -0.00034   0.00000  -0.05587  -0.05619   0.78209
   D17        2.88249  -0.00082   0.00000  -0.08354  -0.08416   2.79832
   D18       -1.22977  -0.00033   0.00000  -0.03663  -0.03662  -1.26639
   D19        3.08667  -0.00126   0.00000  -0.01253  -0.01251   3.07415
   D20       -1.09668  -0.00112   0.00000  -0.01006  -0.01004  -1.10672
   D21        0.99258  -0.00130   0.00000  -0.01314  -0.01312   0.97945
   D22        1.03793   0.00007   0.00000   0.01653   0.01647   1.05440
   D23        3.13777   0.00021   0.00000   0.01901   0.01894  -3.12648
   D24       -1.05616   0.00004   0.00000   0.01592   0.01586  -1.04030
   D25       -0.99998   0.00139   0.00000   0.04611   0.04617  -0.95381
   D26        1.09985   0.00153   0.00000   0.04859   0.04864   1.14849
   D27       -3.09407   0.00135   0.00000   0.04550   0.04556  -3.04852
   D28        1.09987   0.00153   0.00000   0.04858   0.04863   1.14850
   D29       -3.09405   0.00135   0.00000   0.04549   0.04555  -3.04850
   D30       -0.99996   0.00139   0.00000   0.04610   0.04616  -0.95380
   D31        3.13779   0.00021   0.00000   0.01900   0.01893  -3.12647
   D32       -1.05614   0.00004   0.00000   0.01591   0.01584  -1.04029
   D33        1.03796   0.00007   0.00000   0.01652   0.01645   1.05441
   D34       -1.09666  -0.00112   0.00000  -0.01007  -0.01005  -1.10671
   D35        0.99260  -0.00130   0.00000  -0.01315  -0.01314   0.97946
   D36        3.08669  -0.00126   0.00000  -0.01254  -0.01253   3.07417
   D37       -1.16973  -0.00196   0.00000  -0.03295  -0.03297  -1.20270
   D38        0.92679  -0.00093   0.00000  -0.01493  -0.01491   0.91188
   D39        3.02111  -0.00111   0.00000  -0.01816  -0.01822   3.00289
   D40        3.05195  -0.00077   0.00000  -0.00679  -0.00676   3.04519
   D41       -1.13472   0.00026   0.00000   0.01123   0.01130  -1.12342
   D42        0.95960   0.00007   0.00000   0.00801   0.00799   0.96759
   D43        1.00384   0.00099   0.00000   0.02773   0.02772   1.03156
   D44        3.10036   0.00201   0.00000   0.04574   0.04578  -3.13705
   D45       -1.08851   0.00183   0.00000   0.04252   0.04247  -1.04603
         Item               Value     Threshold  Converged?
 Maximum Force            0.011611     0.000015     NO 
 RMS     Force            0.002059     0.000010     NO 
 Maximum Displacement     0.162895     0.000060     NO 
 RMS     Displacement     0.056056     0.000040     NO 
 Predicted change in Energy=-1.466354D-03
 GradGradGradGradGradGradGradGradGradGradGradGradGradGradGradGradGradGrad

 Leave Link  103 at Fri Sep 18 13:25:29 2015, MaxMem=  402653184 cpu:       0.1
 (Enter /share/apps/g09/l202.exe)
                          Input orientation:                          
 ---------------------------------------------------------------------
 Center     Atomic      Atomic             Coordinates (Angstroms)
 Number     Number       Type             X           Y           Z
 ---------------------------------------------------------------------
      1          6           0       -1.013322    1.182340    0.892548
      2          1           0       -0.233726    1.925791    1.092031
      3          1           0       -1.119819    0.560639    1.788984
      4          1           0       -1.956328    1.725655    0.761775
      5          6           0       -0.707252    0.331006   -0.351328
      6          1           0       -0.715529    1.012351   -1.216162
      7          6           0        0.707251   -0.331006   -0.351329
      8          1           0        0.715528   -1.012351   -1.216163
      9          6           0        1.830235    0.691744   -0.594413
     10          1           0        1.908568    1.409309    0.230606
     11          1           0        2.804465    0.195659   -0.684637
     12          1           0        1.660523    1.260774   -1.516693
     13          6           0       -1.830237   -0.691744   -0.594412
     14          1           0       -1.660531   -1.260764   -1.516700
     15          1           0       -1.908561   -1.409317    0.230600
     16          1           0       -2.804468   -0.195659   -0.684622
     17          6           0        1.013324   -1.182341    0.892546
     18          1           0        1.119824   -0.560639    1.788982
     19          1           0        0.233728   -1.925792    1.092031
     20          1           0        1.956329   -1.725656    0.761771
 ---------------------------------------------------------------------
                    Distance matrix (angstroms):
                    1          2          3          4          5
     1  C    0.000000
     2  H    1.095574   0.000000
     3  H    1.096108   1.770465   0.000000
     4  H    1.096153   1.765355   1.764134   0.000000
     5  C    1.538075   2.202465   2.191776   2.178127   0.000000
     6  H    2.136407   2.528687   3.065681   2.441438   1.101017
     7  C    2.607262   2.839341   2.951975   3.544504   1.561754
     8  H    3.500322   3.855065   3.856645   4.306708   2.139357
     9  C    3.246160   2.937158   3.794811   4.152864   2.574502
    10  H    3.004517   2.366058   3.509973   3.914030   2.888580
    11  H    4.246945   3.921799   4.653173   5.205587   3.530094
    12  H    3.600005   3.291787   4.375842   4.299900   2.798017
    13  C    2.527962   3.499204   2.784553   2.774700   1.538247
    14  H    3.491720   4.358369   3.812797   3.767975   2.191019
    15  H    2.820694   3.830154   2.632755   3.180012   2.193287
    16  H    2.755821   3.777004   3.086869   2.550070   2.187871
    17  C    3.114323   3.354909   2.896874   4.158410   2.607263
    18  H    2.896875   2.915506   2.504649   3.967998   2.951976
    19  H    3.354909   3.879846   2.915505   4.270653   2.839342
    20  H    4.158410   4.270654   3.967997   5.217320   3.544504
                    6          7          8          9         10
     6  H    0.000000
     7  C    2.139357   0.000000
     8  H    2.479384   1.101017   0.000000
     9  C    2.640129   1.538247   2.129105   0.000000
    10  H    3.022681   2.193287   3.062829   1.096216   0.000000
    11  H    3.652378   2.187870   2.470924   1.096979   1.764439
    12  H    2.407832   2.191019   2.480006   1.096904   1.771057
    13  C    2.129105   2.574503   2.640129   3.913195   4.367349
    14  H    2.480001   2.798022   2.407839   4.104675   4.787570
    15  H    3.062829   2.888575   3.022672   4.367345   4.745010
    16  H    2.470929   3.530095   3.652381   4.719756   5.062239
    17  C    3.500322   1.538076   2.136407   2.527961   2.820686
    18  H    3.856645   2.191776   3.065681   2.784550   2.632745
    19  H    3.855066   2.202465   2.528689   3.499203   3.830148
    20  H    4.306708   2.178127   2.441437   2.774700   3.180004
                   11         12         13         14         15
    11  H    0.000000
    12  H    1.770703   0.000000
    13  C    4.719755   4.104672   0.000000
    14  H    4.769663   4.169839   1.096904   0.000000
    15  H    5.062234   4.787565   1.096216   1.771057   0.000000
    16  H    5.622566   4.769663   1.096979   1.770703   1.764439
    17  C    2.755826   3.491720   3.246162   3.600016   3.004513
    18  H    3.086874   3.812793   3.794814   4.375852   3.509975
    19  H    3.777008   4.358370   2.937161   3.291802   2.366054
    20  H    2.550075   3.767979   4.152865   4.299910   3.914024
                   16         17         18         19         20
    16  H    0.000000
    17  C    4.246944   0.000000
    18  H    4.653171   1.096108   0.000000
    19  H    3.921797   1.095574   1.770465   0.000000
    20  H    5.205586   1.096154   1.764134   1.765355   0.000000
 Stoichiometry    C6H14
 Framework group  C1[X(C6H14)]
 Deg. of freedom    54
 Full point group                 C1      NOp   1
 Largest Abelian subgroup         C1      NOp   1
 Largest concise Abelian subgroup C1      NOp   1
                         Standard orientation:                         
 ---------------------------------------------------------------------
 Center     Atomic      Atomic             Coordinates (Angstroms)
 Number     Number       Type             X           Y           Z
 ---------------------------------------------------------------------
      1          6           0        1.051622   -1.148408    0.887078
      2          1           0        0.296874   -1.917073    1.086561
      3          1           0        1.137635   -0.523543    1.783515
      4          1           0        2.011970   -1.660446    0.756306
      5          6           0        0.717745   -0.307590   -0.356797
      6          1           0        0.748405   -0.988295   -1.221632
      7          6           0       -0.717744    0.307590   -0.356799
      8          1           0       -0.748403    0.988295   -1.221633
      9          6           0       -1.806519   -0.751505   -0.599882
     10          1           0       -1.861233   -1.471256    0.225137
     11          1           0       -2.796522   -0.287697   -0.690106
     12          1           0       -1.618202   -1.314652   -1.522162
     13          6           0        1.806521    0.751505   -0.599882
     14          1           0        1.618211    1.314641   -1.522169
     15          1           0        1.861226    1.471264    0.225131
     16          1           0        2.796525    0.287697   -0.690092
     17          6           0       -1.051624    1.148409    0.887077
     18          1           0       -1.137640    0.523544    1.783513
     19          1           0       -0.296876    1.917073    1.086562
     20          1           0       -2.011971    1.660447    0.756301
 ---------------------------------------------------------------------
 Rotational constants (GHZ):      4.2036712      2.4462710      2.2136038
 Leave Link  202 at Fri Sep 18 13:25:29 2015, MaxMem=  402653184 cpu:       0.0
 (Enter /share/apps/g09/l301.exe)
 Standard basis: 6-31G(d) (6D, 7F)
 Ernie: Thresh=  0.10000D-02 Tol=  0.10000D-05 Strict=F.
 There are   118 symmetry adapted basis functions of A   symmetry.
 Integral buffers will be    131072 words long.
 Raffenetti 2 integral format.
 Two-electron integral symmetry is turned on.
   118 basis functions,   224 primitive gaussians,   118 cartesian basis functions
    25 alpha electrons       25 beta electrons
       nuclear repulsion energy       261.6687979173 Hartrees.
 IExCor=  402 DFT=T Ex+Corr=B3LYP ExCW=0 ScaHFX=  0.200000
 ScaDFX=  0.800000  0.720000  1.000000  0.810000 ScalE2=  1.000000  1.000000
 IRadAn=      5 IRanWt=     -1 IRanGd=            0 ICorTp=0
 NAtoms=   20 NActive=   20 NUniq=   20 SFac= 7.50D-01 NAtFMM=   80 NAOKFM=F Big=F
 Leave Link  301 at Fri Sep 18 13:25:29 2015, MaxMem=  402653184 cpu:       0.1
 (Enter /share/apps/g09/l302.exe)
 NPDir=0 NMtPBC=     1 NCelOv=     1 NCel=       1 NClECP=     1 NCelD=      1
         NCelK=      1 NCelE2=     1 NClLst=     1 CellRange=     0.0.
 One-electron integrals computed using PRISM.
 NBasis=   118 RedAO= T  NBF=   118
 NBsUse=   118 1.00D-06 NBFU=   118
 Precomputing XC quadrature grid using
 IXCGrd= 2 IRadAn=           5 IRanWt=          -1 IRanGd=           0 AccXCQ= 1.00D-10.
 NRdTot=    1642 NPtTot=      438820 NUsed=      450587 NTot=      450619
 NSgBfM=   118   118   118   118   118 NAtAll=    20    20.
 Leave Link  302 at Fri Sep 18 13:25:30 2015, MaxMem=  402653184 cpu:       1.3
 (Enter /share/apps/g09/l303.exe)
 DipDrv:  MaxL=1.
 Leave Link  303 at Fri Sep 18 13:25:30 2015, MaxMem=  402653184 cpu:       0.1
 (Enter /share/apps/g09/l401.exe)
 Initial guess read from the read-write file.
 B after Tr=     0.000000    0.000000    0.000000
         Rot=    1.000000    0.000000    0.000000    0.000000 Ang=   0.00 deg.
 Guess basis will be translated and rotated to current coordinates.
 Initial guess orbital symmetries:
       Occupied  (A) (A) (A) (A) (A) (A) (A) (A) (A) (A) (A) (A)
                 (A) (A) (A) (A) (A) (A) (A) (A) (A) (A) (A) (A)
                 (A)
       Virtual   (A) (A) (A) (A) (A) (A) (A) (A) (A) (A) (A) (A)
                 (A) (A) (A) (A) (A) (A) (A) (A) (A) (A) (A) (A)
                 (A) (A) (A) (A) (A) (A) (A) (A) (A) (A) (A) (A)
                 (A) (A) (A) (A) (A) (A) (A) (A) (A) (A) (A) (A)
                 (A) (A) (A) (A) (A) (A) (A) (A) (A) (A) (A) (A)
                 (A) (A) (A) (A) (A) (A) (A) (A) (A) (A) (A) (A)
                 (A) (A) (A) (A) (A) (A) (A) (A) (A) (A) (A) (A)
                 (A) (A) (A) (A) (A) (A) (A) (A) (A)
 The electronic state of the initial guess is 1-A.
 Generating alternative initial guess.
 Harris functional with IExCor=  402 diagonalized for initial guess.
 ExpMin= 1.61D-01 ExpMax= 3.05D+03 ExpMxC= 4.57D+02 IAcc=3 IRadAn=         5 AccDes= 0.00D+00
 HarFok:  IExCor=  402 AccDes= 0.00D+00 IRadAn=         5 IDoV= 1
 ScaDFX=  1.000000  1.000000  1.000000  1.000000
 FoFCou: FMM=F IPFlag=           0 FMFlag=      100000 FMFlg1=           0
         NFxFlg=           0 DoJE=T BraDBF=F KetDBF=T FulRan=T
         Omega=  0.000000  0.000000  1.000000  0.000000  0.000000 ICntrl=     500 IOpCl=  0
         NMat0=    1 NMatS0=    1 NMatT0=    0 NMatD0=    1 NMtDS0=    0 NMtDT0=    0
         I1Cent=           4 NGrid=           0.
 Petite list used in FoFCou.
 Harris En= -237.180011891891    
 Leave Link  401 at Fri Sep 18 13:25:35 2015, MaxMem=  402653184 cpu:      10.8
 (Enter /share/apps/g09/l502.exe)
 Closed shell SCF:
 Requested convergence on RMS density matrix=1.00D-08 within 128 cycles.
 Requested convergence on MAX density matrix=1.00D-06.
 Requested convergence on             energy=1.00D-06.
 No special actions if energy rises.
 Using DIIS extrapolation, IDIIS=  1040.
 Integral symmetry usage will be decided dynamically.
       450394 words used for storage of precomputed grid.
 Keep R1 ints in memory in canonical form, NReq=26104449.
 IEnd=      511938 IEndB=      511938 NGot=   402653184 MDV=   377521170
 LenX=   377521170 LenY=   377506805
 Symmetry not used in FoFDir.
 MinBra= 0 MaxBra= 2 Meth= 1.
 IRaf=       0 NMat=   1 IRICut=       1 DoRegI=T DoRafI=F ISym2E= 0 JSym2E=0.
 Integral accuracy reduced to 1.0D-05 until final iterations.

 Cycle   1  Pass 0  IDiag  1:
 E= -226.200053934926    
 DIIS: error= 8.63D-02 at cycle   1 NSaved=   1.
 NSaved= 1 IEnMin= 1 EnMin= -226.200053934926     IErMin= 1 ErrMin= 8.63D-02
 ErrMax= 8.63D-02 EMaxC= 1.00D-01 BMatC= 1.97D+00 BMatP= 1.97D+00
 IDIUse=3 WtCom= 1.37D-01 WtEn= 8.63D-01
 Coeff-Com:  0.100D+01
 Coeff-En:   0.100D+01
 Coeff:      0.100D+01
 Recover alternate guess density for next cycle.
 RMSDP=4.22D-02 MaxDP=5.73D-01              OVMax= 0.00D+00

 Cycle   2  Pass 0  IDiag  1:
 E= -236.790007670158     Delta-E=      -10.589953735232 Rises=F Damp=F
 DIIS: error= 4.95D-02 at cycle   2 NSaved=   2.
 NSaved= 2 IEnMin= 2 EnMin= -236.790007670158     IErMin= 2 ErrMin= 4.95D-02
 ErrMax= 4.95D-02 EMaxC= 1.00D-01 BMatC= 2.61D-01 BMatP= 1.97D+00
 IDIUse=3 WtCom= 5.05D-01 WtEn= 4.95D-01
 Coeff-Com:  0.729D-01 0.927D+00
 Coeff-En:   0.000D+00 0.100D+01
 Coeff:      0.368D-01 0.963D+00
 Gap=     0.313 Goal=   None    Shift=    0.000
 RMSDP=1.04D-02 MaxDP=1.53D-01 DE=-1.06D+01 OVMax= 1.81D-01

 Cycle   3  Pass 0  IDiag  1:
 E= -236.663348361236     Delta-E=        0.126659308922 Rises=F Damp=F
 DIIS: error= 5.71D-02 at cycle   3 NSaved=   3.
 NSaved= 3 IEnMin= 2 EnMin= -236.790007670158     IErMin= 2 ErrMin= 4.95D-02
 ErrMax= 5.71D-02 EMaxC= 1.00D-01 BMatC= 3.81D-01 BMatP= 2.61D-01
 IDIUse=2 WtCom= 0.00D+00 WtEn= 1.00D+00
 Coeff-En:   0.000D+00 0.585D+00 0.415D+00
 Coeff:      0.000D+00 0.585D+00 0.415D+00
 Gap=     0.384 Goal=   None    Shift=    0.000
 RMSDP=6.00D-03 MaxDP=9.87D-02 DE= 1.27D-01 OVMax= 9.99D-02

 Cycle   4  Pass 0  IDiag  1:
 E= -237.079236400011     Delta-E=       -0.415888038775 Rises=F Damp=F
 DIIS: error= 4.99D-03 at cycle   4 NSaved=   4.
 NSaved= 4 IEnMin= 4 EnMin= -237.079236400011     IErMin= 4 ErrMin= 4.99D-03
 ErrMax= 4.99D-03 EMaxC= 1.00D-01 BMatC= 3.03D-03 BMatP= 2.61D-01
 IDIUse=3 WtCom= 9.50D-01 WtEn= 4.99D-02
 Coeff-Com: -0.630D-03 0.142D+00 0.668D-01 0.792D+00
 Coeff-En:   0.000D+00 0.000D+00 0.000D+00 0.100D+01
 Coeff:     -0.599D-03 0.135D+00 0.635D-01 0.802D+00
 Gap=     0.375 Goal=   None    Shift=    0.000
 RMSDP=5.93D-04 MaxDP=9.56D-03 DE=-4.16D-01 OVMax= 1.30D-02

 Cycle   5  Pass 0  IDiag  1:
 E= -237.081398684135     Delta-E=       -0.002162284124 Rises=F Damp=F
 DIIS: error= 2.03D-03 at cycle   5 NSaved=   5.
 NSaved= 5 IEnMin= 5 EnMin= -237.081398684135     IErMin= 5 ErrMin= 2.03D-03
 ErrMax= 2.03D-03 EMaxC= 1.00D-01 BMatC= 8.25D-04 BMatP= 3.03D-03
 IDIUse=3 WtCom= 9.80D-01 WtEn= 2.03D-02
 Coeff-Com:  0.162D-05 0.231D-01-0.712D-02 0.418D+00 0.566D+00
 Coeff-En:   0.000D+00 0.000D+00 0.000D+00 0.134D+00 0.866D+00
 Coeff:      0.159D-05 0.226D-01-0.697D-02 0.412D+00 0.572D+00
 Gap=     0.379 Goal=   None    Shift=    0.000
 RMSDP=2.43D-04 MaxDP=4.60D-03 DE=-2.16D-03 OVMax= 6.23D-03

 Cycle   6  Pass 0  IDiag  1:
 E= -237.082170837129     Delta-E=       -0.000772152995 Rises=F Damp=F
 DIIS: error= 3.55D-04 at cycle   6 NSaved=   6.
 NSaved= 6 IEnMin= 6 EnMin= -237.082170837129     IErMin= 6 ErrMin= 3.55D-04
 ErrMax= 3.55D-04 EMaxC= 1.00D-01 BMatC= 1.94D-05 BMatP= 8.25D-04
 IDIUse=3 WtCom= 9.96D-01 WtEn= 3.55D-03
 Coeff-Com:  0.159D-05 0.218D-02-0.622D-02 0.110D+00 0.213D+00 0.681D+00
 Coeff-En:   0.000D+00 0.000D+00 0.000D+00 0.000D+00 0.000D+00 0.100D+01
 Coeff:      0.159D-05 0.217D-02-0.620D-02 0.110D+00 0.212D+00 0.682D+00
 Gap=     0.379 Goal=   None    Shift=    0.000
 RMSDP=4.16D-05 MaxDP=5.90D-04 DE=-7.72D-04 OVMax= 8.57D-04

 Cycle   7  Pass 0  IDiag  1:
 E= -237.082188759955     Delta-E=       -0.000017922825 Rises=F Damp=F
 DIIS: error= 5.94D-05 at cycle   7 NSaved=   7.
 NSaved= 7 IEnMin= 7 EnMin= -237.082188759955     IErMin= 7 ErrMin= 5.94D-05
 ErrMax= 5.94D-05 EMaxC= 1.00D-01 BMatC= 3.87D-07 BMatP= 1.94D-05
 IDIUse=1 WtCom= 1.00D+00 WtEn= 0.00D+00
 Coeff-Com:  0.124D-04 0.434D-03-0.203D-02 0.279D-01 0.581D-01 0.231D+00
 Coeff-Com:  0.685D+00
 Coeff:      0.124D-04 0.434D-03-0.203D-02 0.279D-01 0.581D-01 0.231D+00
 Coeff:      0.685D+00
 Gap=     0.379 Goal=   None    Shift=    0.000
 RMSDP=9.51D-06 MaxDP=1.03D-04 DE=-1.79D-05 OVMax= 1.67D-04

 Initial convergence to 1.0D-05 achieved.  Increase integral accuracy.
 Cycle   8  Pass 1  IDiag  1:
 E= -237.082206451535     Delta-E=       -0.000017691581 Rises=F Damp=F
 DIIS: error= 1.23D-05 at cycle   1 NSaved=   1.
 NSaved= 1 IEnMin= 1 EnMin= -237.082206451535     IErMin= 1 ErrMin= 1.23D-05
 ErrMax= 1.23D-05 EMaxC= 1.00D-01 BMatC= 3.04D-08 BMatP= 3.04D-08
 IDIUse=1 WtCom= 1.00D+00 WtEn= 0.00D+00
 Coeff-Com:  0.100D+01
 Coeff:      0.100D+01
 Gap=     0.379 Goal=   None    Shift=    0.000
 RMSDP=9.51D-06 MaxDP=1.03D-04 DE=-1.77D-05 OVMax= 6.16D-05

 Cycle   9  Pass 1  IDiag  1:
 E= -237.082206450371     Delta-E=        0.000000001165 Rises=F Damp=F
 DIIS: error= 1.53D-05 at cycle   2 NSaved=   2.
 NSaved= 2 IEnMin= 1 EnMin= -237.082206451535     IErMin= 1 ErrMin= 1.23D-05
 ErrMax= 1.53D-05 EMaxC= 1.00D-01 BMatC= 3.47D-08 BMatP= 3.04D-08
 IDIUse=1 WtCom= 1.00D+00 WtEn= 0.00D+00
 Coeff-Com:  0.518D+00 0.482D+00
 Coeff:      0.518D+00 0.482D+00
 Gap=     0.379 Goal=   None    Shift=    0.000
 RMSDP=1.56D-06 MaxDP=3.13D-05 DE= 1.16D-09 OVMax= 3.52D-05

 Cycle  10  Pass 1  IDiag  1:
 E= -237.082206484913     Delta-E=       -0.000000034542 Rises=F Damp=F
 DIIS: error= 1.49D-06 at cycle   3 NSaved=   3.
 NSaved= 3 IEnMin= 3 EnMin= -237.082206484913     IErMin= 3 ErrMin= 1.49D-06
 ErrMax= 1.49D-06 EMaxC= 1.00D-01 BMatC= 2.73D-10 BMatP= 3.04D-08
 IDIUse=1 WtCom= 1.00D+00 WtEn= 0.00D+00
 Coeff-Com:  0.762D-02 0.795D-01 0.913D+00
 Coeff:      0.762D-02 0.795D-01 0.913D+00
 Gap=     0.379 Goal=   None    Shift=    0.000
 RMSDP=1.52D-07 MaxDP=2.83D-06 DE=-3.45D-08 OVMax= 3.43D-06

 Cycle  11  Pass 1  IDiag  1:
 E= -237.082206485166     Delta-E=       -0.000000000253 Rises=F Damp=F
 DIIS: error= 3.21D-07 at cycle   4 NSaved=   4.
 NSaved= 4 IEnMin= 4 EnMin= -237.082206485166     IErMin= 4 ErrMin= 3.21D-07
 ErrMax= 3.21D-07 EMaxC= 1.00D-01 BMatC= 1.41D-11 BMatP= 2.73D-10
 IDIUse=1 WtCom= 1.00D+00 WtEn= 0.00D+00
 Coeff-Com: -0.797D-02 0.186D-01 0.309D+00 0.680D+00
 Coeff:     -0.797D-02 0.186D-01 0.309D+00 0.680D+00
 Gap=     0.379 Goal=   None    Shift=    0.000
 RMSDP=5.92D-08 MaxDP=5.69D-07 DE=-2.53D-10 OVMax= 9.69D-07

 Cycle  12  Pass 1  IDiag  1:
 E= -237.082206485180     Delta-E=       -0.000000000014 Rises=F Damp=F
 DIIS: error= 5.66D-08 at cycle   5 NSaved=   5.
 NSaved= 5 IEnMin= 5 EnMin= -237.082206485180     IErMin= 5 ErrMin= 5.66D-08
 ErrMax= 5.66D-08 EMaxC= 1.00D-01 BMatC= 5.25D-13 BMatP= 1.41D-11
 IDIUse=1 WtCom= 1.00D+00 WtEn= 0.00D+00
 Coeff-Com: -0.294D-02 0.396D-02 0.736D-01 0.225D+00 0.700D+00
 Coeff:     -0.294D-02 0.396D-02 0.736D-01 0.225D+00 0.700D+00
 Gap=     0.379 Goal=   None    Shift=    0.000
 RMSDP=8.83D-09 MaxDP=1.48D-07 DE=-1.39D-11 OVMax= 1.89D-07

 SCF Done:  E(RB3LYP) =  -237.082206485     A.U. after   12 cycles
             Convg  =    0.8830D-08             -V/T =  2.0105
 KE= 2.346110511516D+02 PE=-1.070250892312D+03 EE= 3.368888367584D+02
 Leave Link  502 at Fri Sep 18 13:26:31 2015, MaxMem=  402653184 cpu:     112.5
 (Enter /share/apps/g09/l701.exe)
 Compute integral first derivatives.
 ... and contract with generalized density number  0.
 Leave Link  701 at Fri Sep 18 13:26:32 2015, MaxMem=  402653184 cpu:       0.3
 (Enter /share/apps/g09/l702.exe)
 L702 exits ... SP integral derivatives will be done elsewhere.
 Leave Link  702 at Fri Sep 18 13:26:32 2015, MaxMem=  402653184 cpu:       0.0
 (Enter /share/apps/g09/l703.exe)
 Compute integral first derivatives, UseDBF=F ICtDFT=           0.
 Integral derivatives from FoFDir, PRISM(SPDF).
 Calling FoFJK, ICntrl=      2127 FMM=F ISym2X=0 I1Cent= 0 IOpClX= 0 NMat=1 NMatS=1 NMatT=0.
 FoFCou: FMM=F IPFlag=           0 FMFlag=      100000 FMFlg1=         800
         NFxFlg=           0 DoJE=F BraDBF=F KetDBF=F FulRan=T
         Omega=  0.000000  0.000000  1.000000  0.000000  0.000000 ICntrl=    2127 IOpCl=  0
         NMat0=    1 NMatS0=    1 NMatT0=    0 NMatD0=    1 NMtDS0=    0 NMtDT0=    0
         I1Cent=           0 NGrid=           0.
 Symmetry not used in FoFCou.
 Leave Link  703 at Fri Sep 18 13:26:45 2015, MaxMem=  402653184 cpu:      27.3
 (Enter /share/apps/g09/l716.exe)
 Dipole        =-2.43373188D-07 1.48279132D-07-3.24772413D-02
 ***** Axes restored to original set *****
 -------------------------------------------------------------------
 Center     Atomic                   Forces (Hartrees/Bohr)
 Number     Number              X              Y              Z
 -------------------------------------------------------------------
      1        6           0.000712056   -0.000864675    0.000237930
      2        1           0.000515909   -0.000086971   -0.000286589
      3        1           0.000291787   -0.000360729    0.000474356
      4        1          -0.000216591   -0.000041009   -0.000225922
      5        6           0.001399747    0.001050026   -0.001733017
      6        1           0.000419362    0.000174931   -0.000052504
      7        6          -0.001399734   -0.001050101   -0.001732884
      8        1          -0.000419401   -0.000174927   -0.000052589
      9        6          -0.000877397    0.000652104    0.000889342
     10        1           0.000009113    0.000615935    0.000457792
     11        1          -0.000523226   -0.000435298    0.000088587
     12        1          -0.000214186   -0.000060829    0.000150010
     13        6           0.000877459   -0.000651974    0.000889426
     14        1           0.000214214    0.000060754    0.000150008
     15        1          -0.000009110   -0.000615945    0.000457835
[...]
 GradGradGradGradGradGradGradGradGradGradGradGradGradGradGradGradGradGrad

 Largest change from initial coordinates is atom   16       5.171 Angstoms.
 Leave Link  103 at Fri Sep 18 13:33:22 2015, MaxMem=  402653184 cpu:       0.0
 (Enter /share/apps/g09/l202.exe)
                          Input orientation:                          
 ---------------------------------------------------------------------
 Center     Atomic      Atomic             Coordinates (Angstroms)
 Number     Number       Type             X           Y           Z
 ---------------------------------------------------------------------
      1          6           0       -0.981549    1.216667    0.849448
      2          1           0       -0.218684    1.992339    0.977927
      3          1           0       -1.020963    0.628443    1.774138
      4          1           0       -1.948883    1.722093    0.744133
      5          6           0       -0.705186    0.327428   -0.374219
      6          1           0       -0.735074    0.977566   -1.262384
      7          6           0        0.705185   -0.327428   -0.374221
      8          1           0        0.735071   -0.977564   -1.262387
      9          6           0        1.824192    0.712929   -0.543634
     10          1           0        1.901179    1.372638    0.329092
     11          1           0        2.797145    0.222340   -0.666713
     12          1           0        1.654275    1.343354   -1.425072
     13          6           0       -1.824193   -0.712928   -0.543632
     14          1           0       -1.654277   -1.343351   -1.425072
     15          1           0       -1.901178   -1.372638    0.329093
     16          1           0       -2.797147   -0.222339   -0.666708
     17          6           0        0.981550   -1.216669    0.849444
     18          1           0        1.020966   -0.628446    1.774135
     19          1           0        0.218685   -1.992341    0.977923
     20          1           0        1.948884   -1.722095    0.744126
 ---------------------------------------------------------------------
                    Distance matrix (angstroms):
                    1          2          3          4          5
     1  C    0.000000
     2  H    1.095507   0.000000
     3  H    1.096637   1.771388   0.000000
     4  H    1.096487   1.766715   1.765791   0.000000
     5  C    1.537688   2.199298   2.192205   2.177748   0.000000
     6  H    2.139568   2.513049   3.069867   2.460440   1.101094
     7  C    2.593581   2.839569   2.916971   3.534873   1.554986
     8  H    3.495894   3.840439   3.857900   4.303241   2.136864
     9  C    3.172792   2.850505   3.670710   4.112523   2.564188
    10  H    2.933465   2.301920   3.343785   3.888104   2.894865
    11  H    4.191176   3.864319   4.549794   5.173445   3.516094
    12  H    3.483828   3.115054   4.231187   4.222753   2.775509
    13  C    2.524689   3.494462   2.795802   2.757392   1.537276
    14  H    3.489942   4.354556   3.811037   3.766854   2.190108
    15  H    2.796603   3.817702   2.620546   3.122803   2.194373
    16  H    2.768729   3.775989   3.136301   2.547712   2.182681
    17  C    3.126480   3.428527   2.875683   4.151488   2.593581
    18  H    2.875683   3.006525   2.397759   3.925041   2.916971
    19  H    3.428527   4.008611   3.006525   4.306974   2.839569
    20  H    4.151488   4.306974   3.925041   5.201444   3.534873
                    6          7          8          9         10
     6  H    0.000000
     7  C    2.136864   0.000000
     8  H    2.446192   1.101094   0.000000
     9  C    2.671418   1.537276   2.135545   0.000000
    10  H    3.104626   2.194373   3.068560   1.096719   0.000000
    11  H    3.660842   2.182681   2.459014   1.096570   1.765663
    12  H    2.422654   2.190108   2.501611   1.096924   1.771697
    13  C    2.135545   2.564188   2.671418   3.917113   4.357709
    14  H    2.501611   2.775509   2.422654   4.135815   4.805721
    15  H    3.068560   2.894865   3.104626   4.357709   4.689825
    16  H    2.459014   3.516094   3.660842   4.716634   5.060616
    17  C    3.495894   1.537688   2.139568   2.524689   2.796603
    18  H    3.857900   2.192205   3.069867   2.795802   2.620546
    19  H    3.840439   2.199298   2.513049   3.494462   3.817702
    20  H    4.303241   2.177748   2.460440   2.757392   3.122803
                   11         12         13         14         15
    11  H    0.000000
    12  H    1.771422   0.000000
    13  C    4.716634   4.135815   0.000000
    14  H    4.779295   4.262030   1.096924   0.000000
    15  H    5.060616   4.805721   1.096719   1.771697   0.000000
    16  H    5.611938   4.779295   1.096570   1.771422   1.765663
    17  C    2.768729   3.489942   3.172792   3.483828   2.933465
    18  H    3.136301   3.811037   3.670710   4.231187   3.343785
    19  H    3.775989   4.354556   2.850505   3.115054   2.301920
    20  H    2.547712   3.766854   4.112523   4.222753   3.888104
                   16         17         18         19         20
    16  H    0.000000
    17  C    4.191176   0.000000
    18  H    4.549794   1.096637   0.000000
    19  H    3.864319   1.095507   1.771388   0.000000
    20  H    5.173445   1.096487   1.765791   1.766715   0.000000
 Stoichiometry    C6H14
 Framework group  C1[X(C6H14)]
 Deg. of freedom    54
 Full point group                 C1      NOp   1
 Largest Abelian subgroup         C1      NOp   1
 Largest concise Abelian subgroup C1      NOp   1
                         Standard orientation:                         
 ---------------------------------------------------------------------
 Center     Atomic      Atomic             Coordinates (Angstroms)
 Number     Number       Type             X           Y           Z
 ---------------------------------------------------------------------
      1          6           0        1.004216   -1.198026    0.847021
      2          1           0        0.256047   -1.987882    0.975500
      3          1           0        1.032581   -0.609166    1.771711
      4          1           0        1.980868   -1.685204    0.741706
      5          6           0        0.711208   -0.314132   -0.376646
      6          1           0        0.753296   -0.963594   -1.264811
      7          6           0       -0.711207    0.314132   -0.376648
      8          1           0       -0.753293    0.963592   -1.264814
      9          6           0       -1.810486   -0.747048   -0.546061
     10          1           0       -1.875076   -1.408086    0.326665
     11          1           0       -2.792479   -0.274811   -0.669139
     12          1           0       -1.628765   -1.374173   -1.427499
     13          6           0        1.810488    0.747047   -0.546059
     14          1           0        1.628767    1.374170   -1.427499
     15          1           0        1.875075    1.408087    0.326666
     16          1           0        2.792480    0.274810   -0.669135
     17          6           0       -1.004217    1.198028    0.847017
     18          1           0       -1.032584    0.609169    1.771708
     19          1           0       -0.256049    1.987884    0.975496
     20          1           0       -1.980869    1.685205    0.741699
 ---------------------------------------------------------------------
 Rotational constants (GHZ):      4.2102070      2.5258754      2.2071851
 Leave Link  202 at Fri Sep 18 13:33:22 2015, MaxMem=  402653184 cpu:       0.0
 (Enter /share/apps/g09/l601.exe)
 Copying SCF densities to generalized density rwf, IOpCl= 0 IROHF=0.

 **********************************************************************

            Population analysis using the SCF density.

 **********************************************************************

 Orbital symmetries:
       Occupied  (A) (A) (A) (A) (A) (A) (A) (A) (A) (A) (A) (A)
                 (A) (A) (A) (A) (A) (A) (A) (A) (A) (A) (A) (A)
                 (A)
       Virtual   (A) (A) (A) (A) (A) (A) (A) (A) (A) (A) (A) (A)
                 (A) (A) (A) (A) (A) (A) (A) (A) (A) (A) (A) (A)
                 (A) (A) (A) (A) (A) (A) (A) (A) (A) (A) (A) (A)
                 (A) (A) (A) (A) (A) (A) (A) (A) (A) (A) (A) (A)
                 (A) (A) (A) (A) (A) (A) (A) (A) (A) (A) (A) (A)
                 (A) (A) (A) (A) (A) (A) (A) (A) (A) (A) (A) (A)
                 (A) (A) (A) (A) (A) (A) (A) (A) (A) (A) (A) (A)
                 (A) (A) (A) (A) (A) (A) (A) (A) (A)
 The electronic state is 1-A.
 Alpha  occ. eigenvalues --  -10.18215 -10.18196 -10.16787 -10.16787 -10.16759
 Alpha  occ. eigenvalues --  -10.16759  -0.81058  -0.74039  -0.67985  -0.67216
 Alpha  occ. eigenvalues --   -0.60656  -0.52999  -0.46456  -0.43955  -0.43683
 Alpha  occ. eigenvalues --   -0.40203  -0.39330  -0.38306  -0.36949  -0.36924
 Alpha  occ. eigenvalues --   -0.34211  -0.34088  -0.30884  -0.30880  -0.30102
 Alpha virt. eigenvalues --    0.07885   0.12318   0.12344   0.13683   0.14547
 Alpha virt. eigenvalues --    0.14771   0.16635   0.17189   0.18141   0.18839
 Alpha virt. eigenvalues --    0.20281   0.20944   0.21701   0.23565   0.23687
 Alpha virt. eigenvalues --    0.24724   0.26805   0.28115   0.28699   0.50020
 Alpha virt. eigenvalues --    0.50306   0.50772   0.51227   0.54458   0.57488
 Alpha virt. eigenvalues --    0.61553   0.62020   0.65832   0.66620   0.70304
 Alpha virt. eigenvalues --    0.73894   0.77634   0.78001   0.78468   0.81340
 Alpha virt. eigenvalues --    0.86810   0.87669   0.89272   0.89413   0.90394
 Alpha virt. eigenvalues --    0.91062   0.92303   0.94387   0.94914   0.95924
 Alpha virt. eigenvalues --    0.96323   0.98827   0.99422   1.01064   1.01641
 Alpha virt. eigenvalues --    1.02690   1.03852   1.27010   1.38034   1.41540
 Alpha virt. eigenvalues --    1.41672   1.54848   1.60845   1.66528   1.69064
 Alpha virt. eigenvalues --    1.73007   1.76244   1.78288   1.84337   1.90104
 Alpha virt. eigenvalues --    1.91013   1.97600   2.02734   2.03521   2.07124
 Alpha virt. eigenvalues --    2.09299   2.10616   2.11557   2.17468   2.25298
 Alpha virt. eigenvalues --    2.25850   2.27297   2.28910   2.38363   2.39130
 Alpha virt. eigenvalues --    2.42045   2.48781   2.57601   2.59068   2.73258
 Alpha virt. eigenvalues --    2.74910   2.77404   4.11904   4.25964   4.28755
 Alpha virt. eigenvalues --    4.30470   4.50568   4.61711
          Condensed to atoms (all electrons):
              1          2          3          4          5          6
     1  C    5.116737   0.370833   0.373574   0.370507   0.376359  -0.048678
     2  H    0.370833   0.575785  -0.031802  -0.030637  -0.030388  -0.002953
     3  H    0.373574  -0.031802   0.578167  -0.032367  -0.033252   0.005798
     4  H    0.370507  -0.030637  -0.032367   0.582062  -0.028982  -0.004403
     5  C    0.376359  -0.030388  -0.033252  -0.028982   4.865073   0.376253
     6  H   -0.048678  -0.002953   0.005798  -0.004403   0.376253   0.649498
     7  C   -0.044905  -0.004427  -0.006929   0.004913   0.394245  -0.046063
     8  H    0.006023   0.000000  -0.000002  -0.000160  -0.046063  -0.003321
     9  C   -0.005495   0.002332  -0.000073   0.000015  -0.043074  -0.006729
    10  H    0.002018   0.003470   0.000104  -0.000102  -0.006241  -0.000205
    11  H    0.000076  -0.000112  -0.000012   0.000002   0.004586   0.000004
    12  H   -0.000302   0.000228   0.000036  -0.000031  -0.004339   0.006294
    13  C   -0.055898   0.005167  -0.005525  -0.003724   0.377646  -0.046496
    14  H    0.005359  -0.000183  -0.000013  -0.000042  -0.030643  -0.002981
    15  H   -0.005718  -0.000022   0.004871  -0.000256  -0.032631   0.005794
    16  H   -0.003160  -0.000062  -0.000261   0.004015  -0.028402  -0.004520
    17  C   -0.008657  -0.000360   0.003459   0.000094  -0.044905   0.006023
    18  H    0.003459   0.000261   0.001735  -0.000074  -0.006929  -0.000002
    19  H   -0.000360   0.000050   0.000261  -0.000026  -0.004427   0.000000
    20  H    0.000094  -0.000026  -0.000074   0.000000   0.004913  -0.000160
              7          8          9         10         11         12
     1  C   -0.044905   0.006023  -0.005495   0.002018   0.000076  -0.000302
     2  H   -0.004427   0.000000   0.002332   0.003470  -0.000112   0.000228
     3  H   -0.006929  -0.000002  -0.000073   0.000104  -0.000012   0.000036
     4  H    0.004913  -0.000160   0.000015  -0.000102   0.000002  -0.000031
     5  C    0.394245  -0.046063  -0.043074  -0.006241   0.004586  -0.004339
     6  H   -0.046063  -0.003321  -0.006729  -0.000205   0.000004   0.006294
     7  C    4.865073   0.376253   0.377646  -0.032631  -0.028402  -0.030643
     8  H    0.376253   0.649498  -0.046496   0.005794  -0.004520  -0.002981
     9  C    0.377646  -0.046496   5.116731   0.372009   0.368356   0.368948
    10  H   -0.032631   0.005794   0.372009   0.579353  -0.032041  -0.031897
    11  H   -0.028402  -0.004520   0.368356  -0.032041   0.583232  -0.030364
    12  H   -0.030643  -0.002981   0.368948  -0.031897  -0.030364   0.581891
    13  C   -0.043074  -0.006729   0.004749   0.000000  -0.000155   0.000054
    14  H   -0.004339   0.006294   0.000054   0.000003  -0.000006  -0.000010
    15  H   -0.006241  -0.000205   0.000000   0.000001   0.000002   0.000003
    16  H    0.004586   0.000004  -0.000155   0.000002   0.000002  -0.000006
    17  C    0.376359  -0.048678  -0.055898  -0.005718  -0.003160   0.005359
    18  H   -0.033252   0.005798  -0.005525   0.004871  -0.000261  -0.000013
    19  H   -0.030388  -0.002953   0.005167  -0.000022  -0.000062  -0.000183
    20  H   -0.028982  -0.004403  -0.003724  -0.000256   0.004015  -0.000042
             13         14         15         16         17         18
     1  C   -0.055898   0.005359  -0.005718  -0.003160  -0.008657   0.003459
     2  H    0.005167  -0.000183  -0.000022  -0.000062  -0.000360   0.000261
     3  H   -0.005525  -0.000013   0.004871  -0.000261   0.003459   0.001735
     4  H   -0.003724  -0.000042  -0.000256   0.004015   0.000094  -0.000074
     5  C    0.377646  -0.030643  -0.032631  -0.028402  -0.044905  -0.006929
     6  H   -0.046496  -0.002981   0.005794  -0.004520   0.006023  -0.000002
     7  C   -0.043074  -0.004339  -0.006241   0.004586   0.376359  -0.033252
     8  H   -0.006729   0.006294  -0.000205   0.000004  -0.048678   0.005798
     9  C    0.004749   0.000054   0.000000  -0.000155  -0.055898  -0.005525
    10  H    0.000000   0.000003   0.000001   0.000002  -0.005718   0.004871
    11  H   -0.000155  -0.000006   0.000002   0.000002  -0.003160  -0.000261
    12  H    0.000054  -0.000010   0.000003  -0.000006   0.005359  -0.000013
    13  C    5.116731   0.368948   0.372009   0.368356  -0.005495  -0.000073
    14  H    0.368948   0.581891  -0.031897  -0.030364  -0.000302   0.000036
    15  H    0.372009  -0.031897   0.579353  -0.032041   0.002018   0.000104
    16  H    0.368356  -0.030364  -0.032041   0.583232   0.000076  -0.000012
    17  C   -0.005495  -0.000302   0.002018   0.000076   5.116737   0.373574
    18  H   -0.000073   0.000036   0.000104  -0.000012   0.373574   0.578167
    19  H    0.002332   0.000228   0.003470  -0.000112   0.370833  -0.031802
    20  H    0.000015  -0.000031  -0.000102   0.000002   0.370507  -0.032367
             19         20
     1  C   -0.000360   0.000094
     2  H    0.000050  -0.000026
     3  H    0.000261  -0.000074
     4  H   -0.000026   0.000000
     5  C   -0.004427   0.004913
     6  H    0.000000  -0.000160
     7  C   -0.030388  -0.028982
     8  H   -0.002953  -0.004403
     9  C    0.005167  -0.003724
    10  H   -0.000022  -0.000256
    11  H   -0.000062   0.004015
    12  H   -0.000183  -0.000042
    13  C    0.002332   0.000015
    14  H    0.000228  -0.000031
    15  H    0.003470  -0.000102
    16  H   -0.000112   0.000002
    17  C    0.370833   0.370507
    18  H   -0.031802  -0.032367
    19  H    0.575785  -0.030637
    20  H   -0.030637   0.582062
 Mulliken atomic charges:
              1
     1  C   -0.451866
     2  H    0.142846
     3  H    0.142306
     4  H    0.139198
     5  C   -0.058798
     6  H    0.116848
     7  C   -0.058798
     8  H    0.116848
     9  C   -0.448838
    10  H    0.141487
    11  H    0.138820
    12  H    0.137997
    13  C   -0.448838
    14  H    0.137997
    15  H    0.141487
    16  H    0.138820
    17  C   -0.451866
    18  H    0.142306
    19  H    0.142846
    20  H    0.139198
 Sum of Mulliken atomic charges =   0.00000
 Mulliken charges with hydrogens summed into heavy atoms:
              1
     1  C   -0.027516
     5  C    0.058050
     7  C    0.058050
     9  C   -0.030534
    13  C   -0.030534
    17  C   -0.027516
 Sum of Mulliken charges with hydrogens summed into heavy atoms =   0.00000
 Electronic spatial extent (au):  <R**2>=            726.4437
 Charge=              0.0000 electrons
 Dipole moment (field-independent basis, Debye):
    X=              0.0000    Y=              0.0000    Z=             -0.0821  Tot=              0.0821
 Quadrupole moment (field-independent basis, Debye-Ang):
   XX=            -41.7168   YY=            -41.7053   ZZ=            -41.4844
   XY=             -0.3068   XZ=              0.0000   YZ=              0.0000
 Traceless Quadrupole moment (field-independent basis, Debye-Ang):
   XX=             -0.0813   YY=             -0.0698   ZZ=              0.1511
   XY=             -0.3068   XZ=              0.0000   YZ=              0.0000
 Octapole moment (field-independent basis, Debye-Ang**2):
  XXX=              0.0000  YYY=              0.0000  ZZZ=             -0.8044  XYY=              0.0000
  XXY=              0.0000  XXZ=             -0.1140  XZZ=              0.0000  YZZ=              0.0000
  YYZ=             -0.4893  XYZ=              1.2355
 Hexadecapole moment (field-independent basis, Debye-Ang**3):
 XXXX=           -519.1775 YYYY=           -287.2032 ZZZZ=           -196.1247 XXXY=            -10.2000
 XXXZ=             -0.0001 YYYX=              0.5555 YYYZ=              0.0000 ZZZX=             -0.0002
 ZZZY=              0.0000 XXYY=           -135.5877 XXZZ=           -122.3739 YYZZ=            -80.4530
 XXYZ=              0.0000 YYXZ=              0.0000 ZZXY=              2.2700
 N-N= 2.624722645687D+02 E-N=-1.071872757038D+03  KE= 2.346286129972D+02
 No NMR shielding tensors so no spin-rotation constants.
 Leave Link  601 at Fri Sep 18 13:33:22 2015, MaxMem=  402653184 cpu:       0.3
 (Enter /share/apps/g09/l9999.exe)
 1\1\GINC-COMPUTE-0-8\FOpt\RB3LYP\6-31G(d)\C6H14\HETANJIN\18-Sep-2015\0
 \\#p B3LYP/6-31G(d) opt=tight int=ultrafine\\using B3LYP/6-31G(d) to d
 o opt and freq calc.\\0,1\C,-0.9815485446,1.2166669283,0.8494479895\H,
 -0.2186835251,1.9923387462,0.9779269986\H,-1.0209631346,0.6284427548,1
 .7741377104\H,-1.9488829747,1.7220931863,0.7441329711\C,-0.7051855937,
 0.3274284137,-0.3742191663\H,-0.7350735736,0.9775659383,-1.2623838813\
 C,0.7051848061,-0.3274277255,-0.3742211271\H,0.7350710907,-0.977563572
 7,-1.2623871266\C,1.824191563,0.7129287999,-0.5436339338\H,1.901179084
 4,1.3726376122,0.3290917493\H,2.7971454512,0.2223400036,-0.666712574\H
 ,1.6542745155,1.343353981,-1.4250723644\C,-1.8241926677,-0.7129277947,
 -0.5436318059\H,-1.6542773233,-1.3433512699,-1.4250717841\H,-1.9011784
 888,-1.372638295,0.3290927517\H,-2.7971467961,-0.2223387631,-0.6667076
 101\C,0.9815500786,-1.2166685611,0.8494438161\H,1.0209664173,-0.628446
 1371,1.7741345757\H,0.2186853051,-1.9923406261,0.9779228004\H,1.948884
 3104,-1.722094619,0.7441260107\\Version=EM64L-G09RevA.01\State=1-A\HF=
 -237.0824675\RMSD=3.119e-09\RMSF=1.491e-06\Dipole=0.,0.,-0.032309\Quad
 rupole=-0.0690083,-0.0433392,0.1123476,-0.2277563,0.,0.\PG=C01 [X(C6H1
 4)]\\@


 A COMPUTER IS LIKE A HORSE, IT WILL SENSE WEAKNESS.
     -- GREG WETTSTEIN
 Job cpu time:  0 days  0 hours 18 minutes 10.1 seconds.
 File lengths (MBytes):  RWF=     15 Int=      0 D2E=      0 Chk=      2 Scr=      1
 Normal termination of Gaussian 09 at Fri Sep 18 13:33:22 2015.
