using PM6 to do opt and freq calc.                                      
FOpt      RPM6                                                        ZDO                 
Number of atoms                            I               20
Info1-9                                    I   N=           9
          33          29           0           0           0         110
           2           8         302
Charge                                     I                0
Multiplicity                               I                1
Number of electrons                        I               38
Number of alpha electrons                  I               19
Number of beta electrons                   I               19
Number of basis functions                  I               38
Number of independent functions            I               38
Number of point charges in /Mol/           I                0
Number of translation vectors              I                0
Atomic numbers                             I   N=          20
           6           1           1           1           6           1
           1           6           1           1           6           1
           1           6           1           1           6           1
           1           1
Nuclear charges                            R   N=          20
  4.00000000E+00  1.00000000E+00  1.00000000E+00  1.00000000E+00  4.00000000E+00
  1.00000000E+00  1.00000000E+00  4.00000000E+00  1.00000000E+00  1.00000000E+00
  4.00000000E+00  1.00000000E+00  1.00000000E+00  4.00000000E+00  1.00000000E+00
  1.00000000E+00  4.00000000E+00  1.00000000E+00  1.00000000E+00  1.00000000E+00
Current cartesian coordinates              R   N=          60
 -4.88711454E+00  1.61973669E+00 -4.88307388E-01 -5.16133692E+00  1.36018627E+00
 -2.52428469E+00 -3.60607284E+00  3.22872449E+00 -2.41629327E-01 -6.71518563E+00
  2.14794267E+00  3.26106722E-01 -3.83894697E+00 -7.65970135E-01  7.52416122E-01
 -3.66094425E+00 -4.68391648E-01  2.81664819E+00 -5.21310087E+00 -2.32945225E+00
  5.22104956E-01 -1.28120976E+00 -1.58184783E+00 -3.49841647E-01 -1.39043142E+00
 -1.61766970E+00 -2.43859535E+00 -8.79159681E-01 -3.55164382E+00  2.31307078E-01
  8.90781302E-01  1.43846966E-01  4.93913252E-01  9.97917266E-01  1.85534320E-01
  2.58198471E+00  4.99346700E-01  2.11392314E+00 -9.08910006E-02  3.43071566E+00
 -7.24111726E-01 -6.06720080E-01  3.32506936E+00 -7.57890514E-01 -2.69667575E+00
  3.82288419E+00 -2.69522794E+00 -2.29638668E-02  5.59823725E+00  9.87819667E-01
  2.30353737E-01  5.80049238E+00  1.00859794E+00  2.29123055E+00  7.40210989E+00
  3.54288846E-01 -5.63884160E-01  5.30363416E+00  2.94423639E+00 -3.81342026E-01
Force Field                                I                0
Int Atom Types                             I   N=          20
           0           0           0           0           0           0
           0           0           0           0           0           0
           0           0           0           0           0           0
           0           0
MM charges                                 R   N=          20
  0.00000000E+00  0.00000000E+00  0.00000000E+00  0.00000000E+00  0.00000000E+00
  0.00000000E+00  0.00000000E+00  0.00000000E+00  0.00000000E+00  0.00000000E+00
  0.00000000E+00  0.00000000E+00  0.00000000E+00  0.00000000E+00  0.00000000E+00
  0.00000000E+00  0.00000000E+00  0.00000000E+00  0.00000000E+00  0.00000000E+00
Integer atomic weights                     I   N=          20
          12           1           1           1          12           1
           1          12           1           1          12           1
           1          12           1           1          12           1
           1           1
Real atomic weights                        R   N=          20
  1.20000000E+01  1.00782504E+00  1.00782504E+00  1.00782504E+00  1.20000000E+01
  1.00782504E+00  1.00782504E+00  1.20000000E+01  1.00782504E+00  1.00782504E+00
  1.20000000E+01  1.00782504E+00  1.00782504E+00  1.20000000E+01  1.00782504E+00
  1.00782504E+00  1.20000000E+01  1.00782504E+00  1.00782504E+00  1.00782504E+00
Atom fragment info                         I   N=          20
           0           0           0           0           0           0
           0           0           0           0           0           0
           0           0           0           0           0           0
           0           0
Atom residue num                           I   N=          20
           0           0           0           0           0           0
           0           0           0           0           0           0
           0           0           0           0           0           0
           0           0
Nuclear spins                              I   N=          20
           0           1           1           1           0           1
           1           0           1           1           0           1
           1           0           1           1           0           1
           1           1
Nuclear ZEff                               R   N=          20
 -3.90000000E+00 -1.00000000E+00 -1.00000000E+00 -1.00000000E+00 -3.90000000E+00
 -1.00000000E+00 -1.00000000E+00 -3.90000000E+00 -1.00000000E+00 -1.00000000E+00
 -3.90000000E+00 -1.00000000E+00 -1.00000000E+00 -3.90000000E+00 -1.00000000E+00
 -1.00000000E+00 -3.90000000E+00 -1.00000000E+00 -1.00000000E+00 -1.00000000E+00
Nuclear QMom                               R   N=          20
  0.00000000E+00  0.00000000E+00  0.00000000E+00  0.00000000E+00  0.00000000E+00
  0.00000000E+00  0.00000000E+00  0.00000000E+00  0.00000000E+00  0.00000000E+00
  0.00000000E+00  0.00000000E+00  0.00000000E+00  0.00000000E+00  0.00000000E+00
  0.00000000E+00  0.00000000E+00  0.00000000E+00  0.00000000E+00  0.00000000E+00
Nuclear GFac                               R   N=          20
  0.00000000E+00  2.79284600E+00  2.79284600E+00  2.79284600E+00  0.00000000E+00
  2.79284600E+00  2.79284600E+00  0.00000000E+00  2.79284600E+00  2.79284600E+00
  0.00000000E+00  2.79284600E+00  2.79284600E+00  0.00000000E+00  2.79284600E+00
  2.79284600E+00  0.00000000E+00  2.79284600E+00  2.79284600E+00  2.79284600E+00
MicOpt                                     I   N=          20
          -1          -1          -1          -1          -1          -1
          -1          -1          -1          -1          -1          -1
          -1          -1          -1          -1          -1          -1
          -1          -1
Number of contracted shells                I               20
Number of primitive shells                 I              120
Pure/Cartesian d shells                    I                0
Pure/Cartesian f shells                    I                0
Highest angular momentum                   I                1
Largest degree of contraction              I                6
Shell types                                I   N=          20
          -1           0           0           0          -1           0
           0          -1           0           0          -1           0
           0          -1           0           0          -1           0
           0           0
Number of primitives per shell             I   N=          20
           6           6           6           6           6           6
           6           6           6           6           6           6
           6           6           6           6           6           6
           6           6
Shell to atom map                          I   N=          20
           1           2           3           4           5           6
           7           8           9          10          11          12
          13          14          15          16          17          18
          19          20
Primitive exponents                        R   N=         120
  1.14476344E+01  3.29633588E+00  1.29653143E+00  5.92558930E-01  2.94896438E-01
  1.51447622E-01  4.39461478E+00  1.26542531E+00  4.97723458E-01  2.27476537E-01
  1.13207340E-01  5.81389949E-02  4.39461478E+00  1.26542531E+00  4.97723458E-01
  2.27476537E-01  1.13207340E-01  5.81389949E-02  4.39461478E+00  1.26542531E+00
  4.97723458E-01  2.27476537E-01  1.13207340E-01  5.81389949E-02  1.14476344E+01
  3.29633588E+00  1.29653143E+00  5.92558930E-01  2.94896438E-01  1.51447622E-01
  4.39461478E+00  1.26542531E+00  4.97723458E-01  2.27476537E-01  1.13207340E-01
  5.81389949E-02  4.39461478E+00  1.26542531E+00  4.97723458E-01  2.27476537E-01
  1.13207340E-01  5.81389949E-02  1.14476344E+01  3.29633588E+00  1.29653143E+00
  5.92558930E-01  2.94896438E-01  1.51447622E-01  4.39461478E+00  1.26542531E+00
  4.97723458E-01  2.27476537E-01  1.13207340E-01  5.81389949E-02  4.39461478E+00
  1.26542531E+00  4.97723458E-01  2.27476537E-01  1.13207340E-01  5.81389949E-02
  1.14476344E+01  3.29633588E+00  1.29653143E+00  5.92558930E-01  2.94896438E-01
  1.51447622E-01  4.39461478E+00  1.26542531E+00  4.97723458E-01  2.27476537E-01
  1.13207340E-01  5.81389949E-02  4.39461478E+00  1.26542531E+00  4.97723458E-01
  2.27476537E-01  1.13207340E-01  5.81389949E-02  1.14476344E+01  3.29633588E+00
  1.29653143E+00  5.92558930E-01  2.94896438E-01  1.51447622E-01  4.39461478E+00
  1.26542531E+00  4.97723458E-01  2.27476537E-01  1.13207340E-01  5.81389949E-02
  4.39461478E+00  1.26542531E+00  4.97723458E-01  2.27476537E-01  1.13207340E-01
  5.81389949E-02  1.14476344E+01  3.29633588E+00  1.29653143E+00  5.92558930E-01
  2.94896438E-01  1.51447622E-01  4.39461478E+00  1.26542531E+00  4.97723458E-01
  2.27476537E-01  1.13207340E-01  5.81389949E-02  4.39461478E+00  1.26542531E+00
  4.97723458E-01  2.27476537E-01  1.13207340E-01  5.81389949E-02  4.39461478E+00
  1.26542531E+00  4.97723458E-01  2.27476537E-01  1.13207340E-01  5.81389949E-02
Contraction coefficients                   R   N=         120
 -9.73739553E-03 -7.26587678E-02 -1.71615520E-01  1.28977624E-01  7.28861451E-01
  3.01331742E-01 -9.73739553E-03 -7.26587678E-02 -1.71615520E-01  1.28977624E-01
  7.28861451E-01  3.01331742E-01 -9.73739553E-03 -7.26587678E-02 -1.71615520E-01
  1.28977624E-01  7.28861451E-01  3.01331742E-01 -9.73739553E-03 -7.26587678E-02
 -1.71615520E-01  1.28977624E-01  7.28861451E-01  3.01331742E-01 -9.73739553E-03
 -7.26587678E-02 -1.71615520E-01  1.28977624E-01  7.28861451E-01  3.01331742E-01
 -9.73739553E-03 -7.26587678E-02 -1.71615520E-01  1.28977624E-01  7.28861451E-01
  3.01331742E-01 -9.73739553E-03 -7.26587678E-02 -1.71615520E-01  1.28977624E-01
  7.28861451E-01  3.01331742E-01 -9.73739553E-03 -7.26587678E-02 -1.71615520E-01
  1.28977624E-01  7.28861451E-01  3.01331742E-01 -9.73739553E-03 -7.26587678E-02
 -1.71615520E-01  1.28977624E-01  7.28861451E-01  3.01331742E-01 -9.73739553E-03
 -7.26587678E-02 -1.71615520E-01  1.28977624E-01  7.28861451E-01  3.01331742E-01
 -9.73739553E-03 -7.26587678E-02 -1.71615520E-01  1.28977624E-01  7.28861451E-01
  3.01331742E-01 -9.73739553E-03 -7.26587678E-02 -1.71615520E-01  1.28977624E-01
  7.28861451E-01  3.01331742E-01 -9.73739553E-03 -7.26587678E-02 -1.71615520E-01
  1.28977624E-01  7.28861451E-01  3.01331742E-01 -9.73739553E-03 -7.26587678E-02
 -1.71615520E-01  1.28977624E-01  7.28861451E-01  3.01331742E-01 -9.73739553E-03
 -7.26587678E-02 -1.71615520E-01  1.28977624E-01  7.28861451E-01  3.01331742E-01
 -9.73739553E-03 -7.26587678E-02 -1.71615520E-01  1.28977624E-01  7.28861451E-01
  3.01331742E-01 -9.73739553E-03 -7.26587678E-02 -1.71615520E-01  1.28977624E-01
  7.28861451E-01  3.01331742E-01 -9.73739553E-03 -7.26587678E-02 -1.71615520E-01
  1.28977624E-01  7.28861451E-01  3.01331742E-01 -9.73739553E-03 -7.26587678E-02
 -1.71615520E-01  1.28977624E-01  7.28861451E-01  3.01331742E-01 -9.73739553E-03
 -7.26587678E-02 -1.71615520E-01  1.28977624E-01  7.28861451E-01  3.01331742E-01
P(S=P) Contraction coefficients            R   N=         120
 -8.10494336E-03 -1.71547892E-02  7.36978576E-02  3.96514999E-01  4.97808488E-01
  1.17482582E-01  0.00000000E+00  0.00000000E+00  0.00000000E+00  0.00000000E+00
  0.00000000E+00  0.00000000E+00  0.00000000E+00  0.00000000E+00  0.00000000E+00
  0.00000000E+00  0.00000000E+00  0.00000000E+00  0.00000000E+00  0.00000000E+00
  0.00000000E+00  0.00000000E+00  0.00000000E+00  0.00000000E+00 -8.10494336E-03
 -1.71547892E-02  7.36978576E-02  3.96514999E-01  4.97808488E-01  1.17482582E-01
  0.00000000E+00  0.00000000E+00  0.00000000E+00  0.00000000E+00  0.00000000E+00
  0.00000000E+00  0.00000000E+00  0.00000000E+00  0.00000000E+00  0.00000000E+00
  0.00000000E+00  0.00000000E+00 -8.10494336E-03 -1.71547892E-02  7.36978576E-02
  3.96514999E-01  4.97808488E-01  1.17482582E-01  0.00000000E+00  0.00000000E+00
  0.00000000E+00  0.00000000E+00  0.00000000E+00  0.00000000E+00  0.00000000E+00
  0.00000000E+00  0.00000000E+00  0.00000000E+00  0.00000000E+00  0.00000000E+00
 -8.10494336E-03 -1.71547892E-02  7.36978576E-02  3.96514999E-01  4.97808488E-01
  1.17482582E-01  0.00000000E+00  0.00000000E+00  0.00000000E+00  0.00000000E+00
  0.00000000E+00  0.00000000E+00  0.00000000E+00  0.00000000E+00  0.00000000E+00
  0.00000000E+00  0.00000000E+00  0.00000000E+00 -8.10494336E-03 -1.71547892E-02
  7.36978576E-02  3.96514999E-01  4.97808488E-01  1.17482582E-01  0.00000000E+00
  0.00000000E+00  0.00000000E+00  0.00000000E+00  0.00000000E+00  0.00000000E+00
  0.00000000E+00  0.00000000E+00  0.00000000E+00  0.00000000E+00  0.00000000E+00
  0.00000000E+00 -8.10494336E-03 -1.71547892E-02  7.36978576E-02  3.96514999E-01
  4.97808488E-01  1.17482582E-01  0.00000000E+00  0.00000000E+00  0.00000000E+00
  0.00000000E+00  0.00000000E+00  0.00000000E+00  0.00000000E+00  0.00000000E+00
  0.00000000E+00  0.00000000E+00  0.00000000E+00  0.00000000E+00  0.00000000E+00
  0.00000000E+00  0.00000000E+00  0.00000000E+00  0.00000000E+00  0.00000000E+00
Coordinates of each shell                  R   N=          60
 -4.88711454E+00  1.61973669E+00 -4.88307388E-01 -5.16133692E+00  1.36018627E+00
 -2.52428469E+00 -3.60607284E+00  3.22872449E+00 -2.41629327E-01 -6.71518563E+00
  2.14794267E+00  3.26106722E-01 -3.83894697E+00 -7.65970135E-01  7.52416122E-01
 -3.66094425E+00 -4.68391648E-01  2.81664819E+00 -5.21310087E+00 -2.32945225E+00
  5.22104956E-01 -1.28120976E+00 -1.58184783E+00 -3.49841647E-01 -1.39043142E+00
 -1.61766970E+00 -2.43859535E+00 -8.79159681E-01 -3.55164382E+00  2.31307078E-01
  8.90781302E-01  1.43846966E-01  4.93913252E-01  9.97917266E-01  1.85534320E-01
  2.58198471E+00  4.99346700E-01  2.11392314E+00 -9.08910006E-02  3.43071566E+00
 -7.24111726E-01 -6.06720080E-01  3.32506936E+00 -7.57890514E-01 -2.69667575E+00
  3.82288419E+00 -2.69522794E+00 -2.29638668E-02  5.59823725E+00  9.87819667E-01
  2.30353737E-01  5.80049238E+00  1.00859794E+00  2.29123055E+00  7.40210989E+00
  3.54288846E-01 -5.63884160E-01  5.30363416E+00  2.94423639E+00 -3.81342026E-01
Constraint Structure                       R   N=          60
 -4.89087600E+00  1.65850888E+00 -4.12361585E-01 -4.91441996E+00  1.57823554E+00
 -2.51518325E+00 -3.71451815E+00  3.28788193E+00  2.08742451E-01 -6.85677150E+00
  1.96609660E+00  2.72537604E-01 -3.86913646E+00 -8.11752343E-01  6.79646258E-01
 -3.77363837E+00 -6.51942986E-01  2.77792204E+00 -5.24273916E+00 -2.34018934E+00
  2.16192577E-01 -1.27370064E+00 -1.59000721E+00 -3.59921033E-01 -1.38042784E+00
 -1.74093172E+00 -2.45927391E+00 -8.37680156E-01 -3.50616173E+00  4.00600201E-01
  8.80109024E-01  2.12403418E-01  3.72657986E-01  8.81778021E-01  4.79077921E-01
  2.46295729E+00  5.62475207E-01  2.08259656E+00 -5.41950821E-01  3.46765161E+00
 -7.98585851E-01 -4.53312195E-01  3.47030989E+00 -1.11821912E+00 -2.53578344E+00
  3.84138069E+00 -2.63850476E+00  5.02682728E-01  5.60578921E+00  1.02514492E+00
  1.97325356E-01  5.67235563E+00  1.36683927E+00  2.27320977E+00  7.44409633E+00
  2.01021728E-01 -4.10216297E-01  5.32877893E+00  2.85992921E+00 -7.96645662E-01
Num ILSW                                   I              100
ILSW                                       I   N=         100
           0           0           0           0           2           0
           0           0           0           0           0          -1
           0           0           0           0           0           0
           0           0           0           0           1           0
           1           0           0           0           0           0
           0           0      100000           0          -1           0
           0           0           0           0           0           0
           0           0           0          40           0           0
           0           0           1           0           0           0
           0           0           4          40           0           0
           0           0           0           0           0           0
           0           0           0           0           0           0
           0           0           0           0           0           0
           0           0           0           0           0           0
           0           0           0           0           0           0
           0           0           0           0           0           0
           0           0           0           0
Num RLSW                                   I               40
RLSW                                       R   N=          40
  1.00000000E+00  1.00000000E+00  1.00000000E+00  1.00000000E+00  1.00000000E+00
  0.00000000E+00  0.00000000E+00  1.00000000E+00  0.00000000E+00  0.00000000E+00
  0.00000000E+00  0.00000000E+00  1.00000000E+00  0.00000000E+00  0.00000000E+00
  0.00000000E+00  0.00000000E+00  1.00000000E+00  0.00000000E+00  0.00000000E+00
  0.00000000E+00  0.00000000E+00  1.00000000E+00  0.00000000E+00  0.00000000E+00
  0.00000000E+00  0.00000000E+00  1.00000000E+00  0.00000000E+00  0.00000000E+00
  0.00000000E+00  0.00000000E+00  0.00000000E+00  0.00000000E+00  0.00000000E+00
  0.00000000E+00  0.00000000E+00  0.00000000E+00  1.00000000E+00  1.00000000E+00
MxBond                                     I                4
NBond                                      I   N=          20
           4           1           1           1           4           1
           1           4           1           1           4           1
           1           4           1           1           4           1
           1           1
IBond                                      I   N=          80
           2           3           4           5           1           0
           0           0           1           0           0           0
           1           0           0           0           1           6
           7           8           5           0           0           0
           5           0           0           0           5           9
          10          11           8           0           0           0
           8           0           0           0           8          12
          13          14          11           0           0           0
          11           0           0           0          11          15
          16          17          14           0           0           0
          14           0           0           0          14          18
          19          20          17           0           0           0
          17           0           0           0          17           0
           0           0
RBond                                      R   N=          80
  1.00000000E+00  1.00000000E+00  1.00000000E+00  1.00000000E+00  1.00000000E+00
  0.00000000E+00  0.00000000E+00  0.00000000E+00  1.00000000E+00  0.00000000E+00
  0.00000000E+00  0.00000000E+00  1.00000000E+00  0.00000000E+00  0.00000000E+00
  0.00000000E+00  1.00000000E+00  1.00000000E+00  1.00000000E+00  1.00000000E+00
  1.00000000E+00  0.00000000E+00  0.00000000E+00  0.00000000E+00  1.00000000E+00
  0.00000000E+00  0.00000000E+00  0.00000000E+00  1.00000000E+00  1.00000000E+00
  1.00000000E+00  1.00000000E+00  1.00000000E+00  0.00000000E+00  0.00000000E+00
  0.00000000E+00  1.00000000E+00  0.00000000E+00  0.00000000E+00  0.00000000E+00
  1.00000000E+00  1.00000000E+00  1.00000000E+00  1.00000000E+00  1.00000000E+00
  0.00000000E+00  0.00000000E+00  0.00000000E+00  1.00000000E+00  0.00000000E+00
  0.00000000E+00  0.00000000E+00  1.00000000E+00  1.00000000E+00  1.00000000E+00
  1.00000000E+00  1.00000000E+00  0.00000000E+00  0.00000000E+00  0.00000000E+00
  1.00000000E+00  0.00000000E+00  0.00000000E+00  0.00000000E+00  1.00000000E+00
  1.00000000E+00  1.00000000E+00  1.00000000E+00  1.00000000E+00  0.00000000E+00
  0.00000000E+00  0.00000000E+00  1.00000000E+00  0.00000000E+00  0.00000000E+00
  0.00000000E+00  1.00000000E+00  0.00000000E+00  0.00000000E+00  0.00000000E+00
Virial Ratio                               R      9.989954743685657E-01
SCF Energy                                 R     -5.634322479170351E-02
Total Energy                               R     -5.634322479170351E-02
RMS Force                                  R      7.954145024948773E-06
RMS Density                                R      1.715435617143964E-09
External E-field                           R   N=          35
  0.00000000E+00  0.00000000E+00  0.00000000E+00  0.00000000E+00  0.00000000E+00
  0.00000000E+00  0.00000000E+00  0.00000000E+00  0.00000000E+00  0.00000000E+00
  0.00000000E+00  0.00000000E+00  0.00000000E+00  0.00000000E+00  0.00000000E+00
  0.00000000E+00  0.00000000E+00  0.00000000E+00  0.00000000E+00  0.00000000E+00
  0.00000000E+00  0.00000000E+00  0.00000000E+00  0.00000000E+00  0.00000000E+00
  0.00000000E+00  0.00000000E+00  0.00000000E+00  0.00000000E+00  0.00000000E+00
  0.00000000E+00  0.00000000E+00  0.00000000E+00  0.00000000E+00  0.00000000E+00
IOpCl                                      I                0
IROHF                                      I                0
Alpha Orbital Energies                     R   N=          38
 -1.05608396E+00 -1.00007128E+00 -9.09463742E-01 -8.23186999E-01 -7.46821290E-01
 -7.24449556E-01 -5.92274924E-01 -5.65993669E-01 -5.45579094E-01 -5.18844935E-01
 -5.15599496E-01 -4.87433825E-01 -4.69005636E-01 -4.56242938E-01 -4.40646233E-01
 -4.27430566E-01 -4.16958373E-01 -4.08228459E-01 -4.03642947E-01  1.52661209E-01
  1.58569062E-01  1.68634622E-01  1.75363107E-01  1.84844412E-01  2.05320140E-01
  2.11365460E-01  2.16514256E-01  2.20865050E-01  2.22318697E-01  2.27684905E-01
  2.29796088E-01  2.35957558E-01  2.40917322E-01  2.44634689E-01  2.46865344E-01
  2.49601197E-01  2.56132349E-01  2.58984633E-01
Alpha MO coefficients                      R   N=        1444
  2.48098396E-01  4.58701823E-02 -5.94533585E-02  2.50094359E-02  1.06149273E-01
  1.14459490E-01  9.39414086E-02  3.53164142E-01  6.50933599E-02  1.84695687E-02
 -4.12737530E-02  1.49657261E-01  1.38123679E-01  4.16378036E-01  1.01164635E-02
  6.42764628E-02  3.74411412E-02  1.76134032E-01  1.70891265E-01  4.19101502E-01
 -1.30158113E-02 -5.27554860E-02 -3.89134216E-02  1.76294624E-01  1.80750895E-01
  3.43151331E-01 -5.52332960E-02  3.47242947E-02  3.48732617E-02  1.44473884E-01
  1.44059393E-01  2.19452208E-01 -6.42184569E-02 -3.49992248E-02 -1.35618008E-02
  9.44648157E-02  8.36123954E-02  9.46160329E-02 -3.53063484E-01 -2.83788164E-02
  6.79694089E-02 -3.14197629E-02 -1.50757924E-01 -1.45869028E-01 -1.48920946E-01
 -3.87743576E-01  1.24695894E-02 -4.40070963E-02  4.09436661E-02 -1.58008037E-01
 -1.66963188E-01 -1.64328755E-01  1.39389592E-01 -1.49168656E-02 -2.13122323E-02
 -6.78043489E-02 -5.55479907E-02  1.57576474E-01  1.57457719E-01  6.67694729E-04
 -2.22485513E-02  6.48496813E-02  5.64191039E-02  4.09803104E-01  4.91770978E-02
  5.77711081E-02  3.40663357E-02  1.67145552E-01  1.68293507E-01  3.99010589E-01
 -6.69693481E-02 -4.82969238E-02 -2.21711948E-02  1.70243840E-01  1.67352916E-01
  1.69910384E-01  4.27121755E-01 -3.20619648E-02 -1.78867126E-03  1.30122182E-02
  1.89533006E-01  1.79974325E-01  2.13415878E-01  1.27786002E-01 -1.65922069E-01
  1.25701874E-01 -1.56420279E-02  4.96326326E-02  6.66364646E-02 -3.46327646E-01
 -1.19920446E-01 -2.89225750E-03 -1.62067907E-02 -1.40792800E-01 -1.69272523E-01
 -3.13076225E-01  1.01268995E-01  7.18000171E-02  1.80308821E-02 -1.25706598E-01
 -1.08794640E-01  7.27263328E-02  1.99309683E-01  5.63433249E-02  1.58710145E-04
  2.54274277E-02  2.24743072E-02  3.98984014E-01  2.46405622E-02 -4.11359686E-03
 -8.58995294E-03  1.77665723E-01  1.96337531E-01  1.78597241E-01  3.48677371E-01
 -5.25621976E-02  1.33312341E-01 -4.84073514E-02  1.78707189E-01  2.00428734E-01
  1.93412153E-01 -2.82650902E-01 -9.76930137E-02  1.90450742E-01 -3.08312938E-02
 -1.30822735E-01 -1.69369759E-01 -2.60261687E-01  1.85586997E-01  1.02792652E-01
 -2.12129164E-02 -1.07261732E-01 -1.54272942E-01  2.95841954E-01  1.08602932E-01
  5.00077284E-02 -1.11772801E-02  1.26423193E-01  1.54942712E-01  1.77152616E-01
 -1.77575136E-01 -3.10339510E-02  2.73100884E-03  8.18633370E-02  7.53352465E-02
 -3.21938753E-01 -1.11845111E-01 -5.15144074E-02 -1.90449992E-02 -1.62549673E-01
 -1.88613736E-01 -1.60333945E-01 -7.19149261E-02 -1.50142244E-02 -9.71518433E-02
  4.25424419E-02 -4.86405095E-02 -8.86139376E-02 -2.98848062E-02  1.87068280E-01
 -8.52068141E-02 -8.08912822E-02  3.23991430E-02  8.82257399E-02  1.52037788E-01
 -5.38663997E-02 -9.88627312E-02 -1.11871904E-01 -3.09952379E-02  8.90303642E-04
  2.62334624E-02 -2.77175343E-01  1.71738408E-01 -1.37299135E-01 -1.14735052E-01
 -1.90907499E-01 -2.07419242E-01  4.51835387E-01  4.00476532E-02 -1.94109701E-01
 -1.41944154E-01  2.89021836E-01  2.94302904E-01 -2.43661104E-01 -1.37603144E-01
 -1.90824055E-01 -1.10369361E-01 -1.87319035E-01 -1.23721304E-01 -1.89267286E-01
  1.83868367E-01 -3.67171832E-02  1.52782967E-01 -1.62821730E-01  1.75483668E-01
  1.23863813E-01  9.02512634E-02 -3.44689179E-01  1.18060496E-01  1.88051792E-02
 -2.18926931E-01 -2.82959618E-01 -1.97128773E-01  3.62887774E-01  7.48896097E-02
 -1.51414691E-01 -2.12317734E-01  2.95232374E-01  2.24984515E-01 -2.30420994E-01
 -9.10482823E-02 -1.68929269E-01 -1.53070256E-01 -2.05873349E-01 -1.58992211E-01
  3.67417142E-03  6.14941747E-02 -8.10455140E-02 -8.82293206E-02  5.81470561E-02
  4.29629587E-02  5.43322486E-02  6.72378473E-02 -9.97743286E-03 -2.69295975E-02
  1.03725589E-02  6.78312371E-02  1.65884217E-02  5.24422763E-02 -1.47167370E-01
  1.31672771E-01  3.60480498E-02  9.26986961E-04  2.47961434E-02  1.43403722E-01
 -6.38100614E-02 -5.57560321E-03 -5.08351714E-02  1.61648772E-01  7.54632231E-02
 -1.40822482E-02  2.40106392E-02  1.29382415E-01 -2.30759707E-01  2.47978503E-01
 -1.60069159E-01  2.24960646E-01 -2.90079696E-03  4.74238297E-02 -2.87161523E-01
  3.17663250E-01  2.12031166E-01 -2.48169122E-01 -1.65936787E-02  4.41461972E-02
 -2.51305559E-01  3.19864930E-01 -2.23854422E-01  2.20469023E-01  7.74923371E-03
  7.08994828E-02 -1.50460868E-01  2.33048508E-01  1.63248163E-01  1.59642863E-02
 -1.45770194E-01  5.99160544E-04  2.65445756E-01  2.06033281E-01  2.04745265E-01
 -1.78603358E-01  2.35916709E-01 -6.85109074E-02  4.94736268E-03  3.07120498E-01
  2.70287850E-01  2.26944844E-01  2.00270243E-01 -2.94769425E-01  3.89915587E-02
  4.24473233E-02  2.15787960E-01  1.87498851E-01 -1.12513850E-01 -7.77605105E-02
 -5.56704680E-02 -2.80230702E-01 -4.54638774E-02 -7.36730360E-03 -3.97192307E-02
 -8.11769438E-03  4.87119572E-03  1.56992083E-01 -1.63812376E-01 -1.84752950E-01
  1.22370955E-01  9.09511013E-02  4.24320753E-03  1.81187269E-01 -1.14302666E-01
 -1.49802437E-01 -8.75842197E-02  1.72023335E-01 -5.80654739E-02  1.05599176E-02
 -3.08627309E-01  1.67423118E-01  2.48116087E-01 -1.49454837E-01 -1.82205179E-02
  2.92419269E-01 -5.38679345E-02 -1.61989635E-01 -5.17296086E-02  3.25950967E-01
  1.80974708E-01  5.14963589E-02  1.88285933E-02  2.65275267E-01 -2.12073036E-01
  6.56141607E-02 -4.51507021E-02  1.95253283E-01  1.90004889E-02  1.65192755E-02
 -1.07076236E-01 -1.39633674E-01 -8.58286155E-02 -3.49583161E-02 -3.93100173E-02
 -1.76880283E-01  1.38761437E-01 -2.20896291E-01  1.39093899E-01 -1.73036913E-01
  1.30428218E-02  2.28577790E-02  2.83604399E-01 -1.89336881E-01 -1.21389500E-01
  1.06438960E-02  2.25956354E-01 -1.11673210E-02 -1.99891667E-01 -2.96063601E-01
  9.40298727E-02 -2.42721748E-02 -2.44318039E-01  9.28495954E-02  1.57974218E-02
 -2.80951266E-01  1.07344166E-01 -6.01448704E-02 -4.27411891E-02  8.82345623E-02
 -3.54263493E-02  2.46370333E-01  2.20329312E-01 -1.74510645E-01  9.45871962E-02
 -1.65201919E-01  1.09950789E-01 -1.67989359E-01 -1.03193748E-01 -1.37307175E-01
 -4.99725827E-02  2.07354376E-02 -7.99924032E-02 -1.10585950E-01 -2.84150690E-01
 -6.06775654E-02  1.31791191E-02  1.22205189E-01 -1.15897231E-03  4.51377177E-01
 -1.01873901E-01  6.97753209E-02  7.75979190E-02  2.84354548E-01 -1.28952814E-01
 -2.84223749E-04  1.69645816E-01  6.86317498E-03  3.32197404E-01 -2.44773138E-01
  1.01801273E-01 -1.25078315E-02  3.68199101E-02 -2.52405246E-02  2.61771057E-01
  8.40585165E-02  9.84261682E-02 -1.19369327E-01  2.07206534E-02  6.40742818E-02
  6.32063388E-02 -2.50829863E-01  1.78158133E-01 -7.48476882E-02 -6.12971623E-02
  1.40579091E-01 -9.68344521E-02 -2.50979350E-01 -1.98215644E-01 -5.77423145E-02
  3.02101825E-02 -1.70755789E-01  1.78447801E-02  2.00344955E-01 -1.19732574E-01
  1.86713102E-02  1.09403592E-02 -1.86965168E-01  1.04454875E-01  4.12127197E-01
  2.80991035E-01 -2.48023811E-01  6.88329657E-03  2.94481548E-02  2.08272985E-01
 -2.04400080E-01 -2.64624502E-01  2.01753399E-01 -4.24863951E-02 -2.38166291E-01
  5.51887997E-02  4.24579271E-02  1.16091068E-01 -6.83938915E-02 -8.26211729E-03
 -5.33546357E-02 -4.33311466E-02  9.84868255E-02  1.06224500E-01  2.21863148E-01
 -1.84797551E-01 -3.72884935E-02  6.56238999E-03  3.75433113E-02 -3.64429275E-01
  2.40750914E-03  4.16462732E-04 -2.48329062E-01  9.65345676E-03 -2.80194843E-01
 -1.45404211E-01 -8.03913647E-02  7.31953711E-02  5.05483526E-02 -1.23862322E-02
  4.25325722E-02  4.52049022E-01  1.52038421E-02  1.07759111E-02 -8.59852996E-02