 Entering Gaussian System, Link 0=/share/apps/g09/g09
 Input=C6H14_1_01_1_opt_PM6.gjf
 Output=C6H14_1_01_1_opt_PM6.log
 Initial command:
 /share/apps/g09/l1.exe /state/partition1/Gau-12373.inp -scrdir=/state/partition1/
 Entering Link 1 = /share/apps/g09/l1.exe PID=     12404.
  
 Copyright (c) 1988,1990,1992,1993,1995,1998,2003,2009, Gaussian, Inc.
                  All Rights Reserved.
  
 This is part of the Gaussian(R) 09 program.  It is based on
 the Gaussian(R) 03 system (copyright 2003, Gaussian, Inc.),
 the Gaussian(R) 98 system (copyright 1998, Gaussian, Inc.),
 the Gaussian(R) 94 system (copyright 1995, Gaussian, Inc.),
 the Gaussian 92(TM) system (copyright 1992, Gaussian, Inc.),
 the Gaussian 90(TM) system (copyright 1990, Gaussian, Inc.),
 the Gaussian 88(TM) system (copyright 1988, Gaussian, Inc.),
 the Gaussian 86(TM) system (copyright 1986, Carnegie Mellon
 University), and the Gaussian 82(TM) system (copyright 1983,
 Carnegie Mellon University). Gaussian is a federally registered
 trademark of Gaussian, Inc.
  
 This software contains proprietary and confidential information,
 including trade secrets, belonging to Gaussian, Inc.
  
 This software is provided under written license and may be
 used, copied, transmitted, or stored only in accord with that
 written license.
  
 The following legend is applicable only to US Government
 contracts under FAR:
  
                    RESTRICTED RIGHTS LEGEND
  
 Use, reproduction and disclosure by the US Government is
 subject to restrictions as set forth in subparagraphs (a)
 and (c) of the Commercial Computer Software - Restricted
 Rights clause in FAR 52.227-19.
  
 Gaussian, Inc.
 340 Quinnipiac St., Bldg. 40, Wallingford CT 06492
  
  
 ---------------------------------------------------------------
 Warning -- This program may not be used in any manner that
 competes with the business of Gaussian, Inc. or will provide
 assistance to any competitor of Gaussian, Inc.  The licensee
 of this program is prohibited from giving any competitor of
 Gaussian, Inc. access to this program.  By using this program,
 the user acknowledges that Gaussian, Inc. is engaged in the
 business of creating and licensing software in the field of
 computational chemistry and represents and warrants to the
 licensee that it is not a competitor of Gaussian, Inc. and that
 it will not use this program in any manner prohibited above.
 ---------------------------------------------------------------
  

 Cite this work as:
 Gaussian 09, Revision A.01,
 M. J. Frisch, G. W. Trucks, H. B. Schlegel, G. E. Scuseria, 
 M. A. Robb, J. R. Cheeseman, G. Scalmani, V. Barone, B. Mennucci, 
 G. A. Petersson, H. Nakatsuji, M. Caricato, X. Li, H. P. Hratchian, 
 A. F. Izmaylov, J. Bloino, G. Zheng, J. L. Sonnenberg, M. Hada, 
 M. Ehara, K. Toyota, R. Fukuda, J. Hasegawa, M. Ishida, T. Nakajima, 
 Y. Honda, O. Kitao, H. Nakai, T. Vreven, J. A. Montgomery, Jr., 
 J. E. Peralta, F. Ogliaro, M. Bearpark, J. J. Heyd, E. Brothers, 
 K. N. Kudin, V. N. Staroverov, R. Kobayashi, J. Normand, 
 K. Raghavachari, A. Rendell, J. C. Burant, S. S. Iyengar, J. Tomasi, 
 M. Cossi, N. Rega, J. M. Millam, M. Klene, J. E. Knox, J. B. Cross, 
 V. Bakken, C. Adamo, J. Jaramillo, R. Gomperts, R. E. Stratmann, 
 O. Yazyev, A. J. Austin, R. Cammi, C. Pomelli, J. W. Ochterski, 
 R. L. Martin, K. Morokuma, V. G. Zakrzewski, G. A. Voth, 
 P. Salvador, J. J. Dannenberg, S. Dapprich, A. D. Daniels, 
 O. Farkas, J. B. Foresman, J. V. Ortiz, J. Cioslowski, 
 and D. J. Fox, Gaussian, Inc., Wallingford CT, 2009.
 
 ******************************************
 Gaussian 09:  EM64L-G09RevA.01  8-May-2009
                14-Sep-2015 
 ******************************************
 %mem=3GB
 %nprocshared=2
 Will use up to    2 processors via shared memory.
 %chk=C6H14_1_01_1_opt_PM6.chk
 ----------
 #p PM6 opt
 ----------
 1/14=-1,18=20,19=15,26=1,38=1/1,3;
 2/9=110,12=2,17=6,18=5,40=1/2;
 3/5=2,16=1,25=1,41=3900000,71=1/1,2,3;
 4/35=1/1;
 5/5=2,35=1,38=5/2;
 6/7=2,8=2,9=2,10=2,28=1/1;
 7//1,2,3,16;
 1/14=-1,18=20,19=15/3(2);
 2/9=110/2;
 99//99;
 2/9=110/2;
 3/5=2,16=1,25=1,41=3900000,71=1,135=20/1,2,3;
 4/5=5,16=3,35=1/1;
 5/5=2,35=1,38=5/2;
 7//1,2,3,16;
 1/14=-1,18=20,19=15/3(-5);
 2/9=110/2;
 6/7=2,8=2,9=2,10=2,19=2,28=1/1;
 99/9=1/99;
 Leave Link    1 at Mon Sep 14 19:11:51 2015, MaxMem=  402653184 cpu:       1.8
 (Enter /share/apps/g09/l101.exe)
 ----------------------------------
 using PM6 to do opt and freq calc.
 ----------------------------------
 Symbolic Z-matrix:
 Charge =  0 Multiplicity = 1
 C                     1.8744    1.9012    0.7765 
 H                     1.8807    1.5686    1.8393 
 H                     1.0227    2.5992    0.6141 
 H                     2.8203    2.4511    0.5692 
 C                     1.7712    0.6972   -0.1588 
 H                     1.7157    1.0567   -1.2125 
 H                     2.7072    0.101    -0.0533 
 C                     0.5817   -0.2288    0.1348 
 H                     0.6414   -0.5824    1.1908 
 H                     0.6804   -1.1199   -0.5282 
 C                    -0.7893    0.4181   -0.112 
 H                    -0.815     0.8429   -1.1427 
 H                    -0.9415    1.2468    0.6174 
 C                    -1.9351   -0.5896    0.0424 
 H                    -1.9029   -1.0397    1.0619 
 H                    -1.8157   -1.4064   -0.707 
 C                    -3.3024    0.0585   -0.159 
 H                    -3.3731    0.5077   -1.1758 
 H                    -4.0994   -0.7118   -0.0527 
 H                    -3.47      0.8525    0.6041 
 
 NAtoms=     20 NQM=     20 NQMF=      0 NMic=      0 NMicF=      0 NTot=     20.
                    Isotopes and Nuclear Properties:
 (Nuclear quadrupole moments (NQMom) in fm**2, nuclear magnetic moments (NMagM)
  in nuclear magnetons)

  Atom         1           2           3           4           5           6           7           8           9          10
 IAtWgt=          12           1           1           1          12           1           1          12           1           1
 AtmWgt=  12.0000000   1.0078250   1.0078250   1.0078250  12.0000000   1.0078250   1.0078250  12.0000000   1.0078250   1.0078250
 NucSpn=           0           1           1           1           0           1           1           0           1           1
 AtZEff=   0.0000000   0.0000000   0.0000000   0.0000000   0.0000000   0.0000000   0.0000000   0.0000000   0.0000000   0.0000000
 NQMom=    0.0000000   0.0000000   0.0000000   0.0000000   0.0000000   0.0000000   0.0000000   0.0000000   0.0000000   0.0000000
 NMagM=    0.0000000   2.7928460   2.7928460   2.7928460   0.0000000   2.7928460   2.7928460   0.0000000   2.7928460   2.7928460

  Atom        11          12          13          14          15          16          17          18          19          20
 IAtWgt=          12           1           1          12           1           1          12           1           1           1
 AtmWgt=  12.0000000   1.0078250   1.0078250  12.0000000   1.0078250   1.0078250  12.0000000   1.0078250   1.0078250   1.0078250
 NucSpn=           0           1           1           0           1           1           0           1           1           1
 AtZEff=   0.0000000   0.0000000   0.0000000   0.0000000   0.0000000   0.0000000   0.0000000   0.0000000   0.0000000   0.0000000
 NQMom=    0.0000000   0.0000000   0.0000000   0.0000000   0.0000000   0.0000000   0.0000000   0.0000000   0.0000000   0.0000000
 NMagM=    0.0000000   2.7928460   2.7928460   0.0000000   2.7928460   2.7928460   0.0000000   2.7928460   2.7928460   2.7928460
 Leave Link  101 at Mon Sep 14 19:11:53 2015, MaxMem=  402653184 cpu:       0.1
 (Enter /share/apps/g09/l103.exe)

 GradGradGradGradGradGradGradGradGradGradGradGradGradGradGradGradGradGrad
 Berny optimization.
 Initialization pass.
                           ----------------------------
                           !    Initial Parameters    !
                           ! (Angstroms and Degrees)  !
 --------------------------                            --------------------------
 ! Name  Definition              Value          Derivative Info.                !
 --------------------------------------------------------------------------------
 ! R1    R(1,2)                  1.1136         estimate D2E/DX2                !
 ! R2    R(1,3)                  1.1131         estimate D2E/DX2                !
 ! R3    R(1,4)                  1.1136         estimate D2E/DX2                !
 ! R4    R(1,5)                  1.5281         estimate D2E/DX2                !
 ! R5    R(5,6)                  1.1147         estimate D2E/DX2                !
 ! R6    R(5,7)                  1.1148         estimate D2E/DX2                !
 ! R7    R(5,8)                  1.5358         estimate D2E/DX2                !
 ! R8    R(8,9)                  1.1152         estimate D2E/DX2                !
 ! R9    R(8,10)                 1.1151         estimate D2E/DX2                !
 ! R10   R(8,11)                 1.5359         estimate D2E/DX2                !
 ! R11   R(11,12)                1.1151         estimate D2E/DX2                !
 ! R12   R(11,13)                1.1144         estimate D2E/DX2                !
 ! R13   R(11,14)                1.5337         estimate D2E/DX2                !
 ! R14   R(14,15)                1.1149         estimate D2E/DX2                !
 ! R15   R(14,16)                1.1149         estimate D2E/DX2                !
 ! R16   R(14,17)                1.5265         estimate D2E/DX2                !
 ! R17   R(17,18)                1.1138         estimate D2E/DX2                !
 ! R18   R(17,19)                1.1135         estimate D2E/DX2                !
 ! R19   R(17,20)                1.1139         estimate D2E/DX2                !
 ! A1    A(2,1,3)              109.3204         estimate D2E/DX2                !
 ! A2    A(2,1,4)              108.6829         estimate D2E/DX2                !
 ! A3    A(2,1,5)              110.4379         estimate D2E/DX2                !
 ! A4    A(3,1,4)              108.2476         estimate D2E/DX2                !
 ! A5    A(3,1,5)              110.6776         estimate D2E/DX2                !
 ! A6    A(4,1,5)              109.4207         estimate D2E/DX2                !
 ! A7    A(1,5,6)              109.1368         estimate D2E/DX2                !
 ! A8    A(1,5,7)              107.8643         estimate D2E/DX2                !
 ! A9    A(1,5,8)              114.2282         estimate D2E/DX2                !
 ! A10   A(6,5,7)              107.6827         estimate D2E/DX2                !
 ! A11   A(6,5,8)              109.6699         estimate D2E/DX2                !
 ! A12   A(7,5,8)              108.0449         estimate D2E/DX2                !
 ! A13   A(5,8,9)              109.3134         estimate D2E/DX2                !
 ! A14   A(5,8,10)             107.4349         estimate D2E/DX2                !
 ! A15   A(5,8,11)             113.9974         estimate D2E/DX2                !
 ! A16   A(9,8,10)             107.7514         estimate D2E/DX2                !
 ! A17   A(9,8,11)             109.48           estimate D2E/DX2                !
 ! A18   A(10,8,11)            108.6663         estimate D2E/DX2                !
 ! A19   A(8,11,12)            109.2412         estimate D2E/DX2                !
 ! A20   A(8,11,13)            109.2649         estimate D2E/DX2                !
 ! A21   A(8,11,14)            111.9603         estimate D2E/DX2                !
 ! A22   A(12,11,13)           108.5747         estimate D2E/DX2                !
 ! A23   A(12,11,14)           109.0346         estimate D2E/DX2                !
 ! A24   A(13,11,14)           108.7033         estimate D2E/DX2                !
 ! A25   A(11,14,15)           109.6176         estimate D2E/DX2                !
 ! A26   A(11,14,16)           109.4927         estimate D2E/DX2                !
 ! A27   A(11,14,17)           112.1445         estimate D2E/DX2                !
 ! A28   A(15,14,16)           108.4083         estimate D2E/DX2                !
 ! A29   A(15,14,17)           108.5375         estimate D2E/DX2                !
 ! A30   A(16,14,17)           108.5598         estimate D2E/DX2                !
 ! A31   A(14,17,18)           110.397          estimate D2E/DX2                !
 ! A32   A(14,17,19)           109.5616         estimate D2E/DX2                !
 ! A33   A(14,17,20)           110.305          estimate D2E/DX2                !
 ! A34   A(18,17,19)           108.7054         estimate D2E/DX2                !
 ! A35   A(18,17,20)           109.1689         estimate D2E/DX2                !
 ! A36   A(19,17,20)           108.6633         estimate D2E/DX2                !
 ! D1    D(2,1,5,6)            177.2205         estimate D2E/DX2                !
 ! D2    D(2,1,5,7)            -66.059          estimate D2E/DX2                !
 ! D3    D(2,1,5,8)             54.0688         estimate D2E/DX2                !
 ! D4    D(3,1,5,6)             56.02           estimate D2E/DX2                !
 ! D5    D(3,1,5,7)            172.7406         estimate D2E/DX2                !
 ! D6    D(3,1,5,8)            -67.1317         estimate D2E/DX2                !
 ! D7    D(4,1,5,6)            -63.1853         estimate D2E/DX2                !
 ! D8    D(4,1,5,7)             53.5353         estimate D2E/DX2                !
 ! D9    D(4,1,5,8)            173.663          estimate D2E/DX2                !
 ! D10   D(1,5,8,9)            -56.9706         estimate D2E/DX2                !
 ! D11   D(1,5,8,10)          -173.6301         estimate D2E/DX2                !
 ! D12   D(1,5,8,11)            65.9047         estimate D2E/DX2                !
 ! D13   D(6,5,8,9)           -179.8332         estimate D2E/DX2                !
 ! D14   D(6,5,8,10)            63.5073         estimate D2E/DX2                !
 ! D15   D(6,5,8,11)           -56.9579         estimate D2E/DX2                !
 ! D16   D(7,5,8,9)             63.0561         estimate D2E/DX2                !
 ! D17   D(7,5,8,10)           -53.6034         estimate D2E/DX2                !
 ! D18   D(7,5,8,11)          -174.0686         estimate D2E/DX2                !
 ! D19   D(5,8,11,12)           52.7092         estimate D2E/DX2                !
 ! D20   D(5,8,11,13)          -65.9366         estimate D2E/DX2                !
 ! D21   D(5,8,11,14)          173.5864         estimate D2E/DX2                !
 ! D22   D(9,8,11,12)          175.4936         estimate D2E/DX2                !
 ! D23   D(9,8,11,13)           56.8478         estimate D2E/DX2                !
 ! D24   D(9,8,11,14)          -63.6292         estimate D2E/DX2                !
 ! D25   D(10,8,11,12)         -67.0642         estimate D2E/DX2                !
 ! D26   D(10,8,11,13)         174.2899         estimate D2E/DX2                !
 ! D27   D(10,8,11,14)          53.813          estimate D2E/DX2                !
 ! D28   D(8,11,14,15)          57.5841         estimate D2E/DX2                !
 ! D29   D(8,11,14,16)         -61.2187         estimate D2E/DX2                !
 ! D30   D(8,11,14,17)         178.2113         estimate D2E/DX2                !
 ! D31   D(12,11,14,15)        178.581          estimate D2E/DX2                !
 ! D32   D(12,11,14,16)         59.7781         estimate D2E/DX2                !
 ! D33   D(12,11,14,17)        -60.7919         estimate D2E/DX2                !
 ! D34   D(13,11,14,15)        -63.219          estimate D2E/DX2                !
 ! D35   D(13,11,14,16)        177.9782         estimate D2E/DX2                !
 ! D36   D(13,11,14,17)         57.4081         estimate D2E/DX2                !
 ! D37   D(11,14,17,18)         59.484          estimate D2E/DX2                !
 ! D38   D(11,14,17,19)        179.1695         estimate D2E/DX2                !
 ! D39   D(11,14,17,20)        -61.254          estimate D2E/DX2                !
 ! D40   D(15,14,17,18)       -179.2656         estimate D2E/DX2                !
 ! D41   D(15,14,17,19)        -59.5801         estimate D2E/DX2                !
 ! D42   D(15,14,17,20)         59.9964         estimate D2E/DX2                !
 ! D43   D(16,14,17,18)        -61.6248         estimate D2E/DX2                !
 ! D44   D(16,14,17,19)         58.0606         estimate D2E/DX2                !
 ! D45   D(16,14,17,20)        177.6371         estimate D2E/DX2                !
 --------------------------------------------------------------------------------
 Trust Radius=3.00D-01 FncErr=1.00D-07 GrdErr=1.00D-07
 Number of steps in this run= 110 maximum allowed number of steps= 120.
 GradGradGradGradGradGradGradGradGradGradGradGradGradGradGradGradGradGrad

 Leave Link  103 at Mon Sep 14 19:11:54 2015, MaxMem=  402653184 cpu:       0.0
 (Enter /share/apps/g09/l202.exe)
                          Input orientation:                          
 ---------------------------------------------------------------------
 Center     Atomic      Atomic             Coordinates (Angstroms)
 Number     Number       Type             X           Y           Z
 ---------------------------------------------------------------------
      1          6           0        1.874400    1.901200    0.776500
      2          1           0        1.880700    1.568600    1.839300
      3          1           0        1.022700    2.599200    0.614100
      4          1           0        2.820300    2.451100    0.569200
      5          6           0        1.771200    0.697200   -0.158800
      6          1           0        1.715700    1.056700   -1.212500
      7          1           0        2.707200    0.101000   -0.053300
      8          6           0        0.581700   -0.228800    0.134800
      9          1           0        0.641400   -0.582400    1.190800
     10          1           0        0.680400   -1.119900   -0.528200
     11          6           0       -0.789300    0.418100   -0.112000
     12          1           0       -0.815000    0.842900   -1.142700
     13          1           0       -0.941500    1.246800    0.617400
     14          6           0       -1.935100   -0.589600    0.042400
     15          1           0       -1.902900   -1.039700    1.061900
     16          1           0       -1.815700   -1.406400   -0.707000
     17          6           0       -3.302400    0.058500   -0.159000
     18          1           0       -3.373100    0.507700   -1.175800
     19          1           0       -4.099400   -0.711800   -0.052700
     20          1           0       -3.470000    0.852500    0.604100
 ---------------------------------------------------------------------
                    Distance matrix (angstroms):
                    1          2          3          4          5
     1  C    0.000000
     2  H    1.113645   0.000000
     3  H    1.113091   1.816429   0.000000
     4  H    1.113593   1.809643   1.804249   0.000000
     5  C    1.528088   2.182597   2.185230   2.169507   0.000000
     6  H    2.166676   3.098830   2.489181   2.517727   1.114722
     7  H    2.150080   2.533552   3.086092   2.433776   1.114756
     8  C    2.572888   2.797028   2.902033   3.518792   1.535769
     9  H    2.803605   2.565778   3.255849   3.786306   2.176062
    10  H    3.500703   3.778069   3.905602   4.305287   2.151314
    11  C    3.175581   3.501446   2.927074   4.198373   2.576091
    12  H    3.469323   4.084821   3.089996   4.328084   2.770870
    13  H    2.895314   3.092153   2.384760   3.950165   2.874594
    14  C    4.610345   4.737827   4.386783   5.668969   3.928485
    15  H    4.795659   4.660816   4.690549   5.893815   4.243341
    16  H    5.172797   5.384946   5.083960   6.164535   4.194223
    17  C    5.574044   5.756573   5.075365   6.613794   5.113644
    18  H    5.769712   6.149695   5.186634   6.721609   5.247287
    19  H    6.572795   6.673941   6.135410   7.633672   6.038252
    20  H    5.449046   5.537916   4.820313   6.490348   5.298709
                    6          7          8          9         10
     6  H    0.000000
     7  H    1.800050   0.000000
     8  C    2.180294   2.159143   0.000000
     9  H    3.101068   2.506462   1.115228   0.000000
    10  H    2.505534   2.413306   1.115065   1.801496   0.000000
    11  C    2.809615   3.511340   1.535914   2.178346   2.167645
    12  H    2.540674   3.760731   2.175159   3.098032   2.542915
    13  H    3.231932   3.882745   2.174957   2.486027   3.089373
    14  C    4.196834   4.694362   2.544208   2.820856   2.729037
    15  H    4.760468   4.878308   2.773141   2.588281   3.034516
    16  H    4.335110   4.812089   2.800517   3.212158   2.518842
    17  C    5.223753   6.010680   3.905777   4.217377   4.169848
    18  H    5.118460   6.196407   4.230904   4.785951   4.415805
    19  H    6.187739   6.854958   4.709686   4.902879   4.820698
    20  H    5.498474   6.257374   4.219683   4.393946   4.732683
                   11         12         13         14         15
    11  C    0.000000
    12  H    1.115104   0.000000
    13  H    1.114420   1.810273   0.000000
    14  C    1.533674   2.170517   2.165694   0.000000
    15  H    2.177918   3.096445   2.519911   1.114902   0.000000
    16  H    2.176309   2.500117   3.091558   1.114908   1.808613
    17  C    2.539132   2.787491   2.754760   1.526468   2.157601
    18  H    2.795661   2.580180   3.110388   2.180808   3.092448
    19  H    3.498136   3.793742   3.775908   2.169832   2.484847
    20  H    2.808497   3.178117   2.559094   2.179697   2.499161
                   16         17         18         19         20
    16  H    0.000000
    17  C    2.157895   0.000000
    18  H    2.511782   1.113850   0.000000
    19  H    2.475048   1.113495   1.809985   0.000000
    20  H    3.091653   1.113933   1.815577   1.809576   0.000000
 Stoichiometry    C6H14
 Framework group  C1[X(C6H14)]
 Deg. of freedom    54
 Full point group                 C1      NOp   1
 Largest Abelian subgroup         C1      NOp   1
 Largest concise Abelian subgroup C1      NOp   1
                         Standard orientation:                         
 ---------------------------------------------------------------------
 Center     Atomic      Atomic             Coordinates (Angstroms)
 Number     Number       Type             X           Y           Z
 ---------------------------------------------------------------------
      1          6           0       -2.588140    0.877645   -0.218212
      2          1           0       -2.600599    0.835166   -1.330978
      3          1           0       -1.965638    1.739872    0.110462
      4          1           0       -3.628447    1.040414    0.144221
      5          6           0       -2.047459   -0.429561    0.359653
      6          1           0       -1.996923   -0.344993    1.470013
      7          1           0       -2.774338   -1.238375    0.114404
      8          6           0       -0.674013   -0.841396   -0.190462
      9          1           0       -0.730491   -0.921261   -1.301392
     10          1           0       -0.443281   -1.855381    0.211988
     11          6           0        0.465734    0.112399    0.197202
     12          1           0        0.466617    0.253517    1.303341
     13          1           0        0.297649    1.102063   -0.286788
     14          6           0        1.835002   -0.422593   -0.239882
     15          1           0        1.836409   -0.591736   -1.341879
     16          1           0        2.032771   -1.396237    0.266008
     17          6           0        2.966456    0.542483    0.104420
     18          1           0        3.001681    0.723300    1.202931
     19          1           0        3.939246    0.106376   -0.217077
     20          1           0        2.819868    1.513409   -0.421567
 ---------------------------------------------------------------------
 Rotational constants (GHZ):      8.7089112      1.3411803      1.2481608
 Leave Link  202 at Mon Sep 14 19:11:56 2015, MaxMem=  402653184 cpu:       0.0
 (Enter /share/apps/g09/l301.exe)
 Standard basis: VSTO-6G (5D, 7F)
 Ernie: Thresh=  0.10000D-02 Tol=  0.10000D-05 Strict=F.
  NNHCO=     0 NNPyr=     0 NCTC=     0               EPep=         0.000000000
    EC=       124.934384291  ECS=         3.145484613   EG=         0.309018516
   EHC=         0.000409337  EAt=       -31.187935768  AtH=         2.796400831
 EPDDG=         0.000000000  ECC=       128.389296758 EAtT=        33.984336599
 There are    38 symmetry adapted basis functions of A   symmetry.
 Integral buffers will be    131072 words long.
 Regular integral format.
 Two-electron integral symmetry is turned off.
    38 basis functions,   228 primitive gaussians,    38 cartesian basis functions
    19 alpha electrons       19 beta electrons
       nuclear repulsion energy       162.3736333570 Hartrees.
 IExCor=    0 DFT=F Ex=HF Corr=None ExCW=0 ScaHFX=  1.000000
 ScaDFX=  1.000000  1.000000  1.000000  1.000000 ScalE2=  1.000000  1.000000
 IRadAn=      0 IRanWt=     -1 IRanGd=            0 ICorTp=0
 Leave Link  301 at Mon Sep 14 19:11:56 2015, MaxMem=  402653184 cpu:       0.1
 (Enter /share/apps/g09/l302.exe)
 Do NDO integrals.
 NPDir=0 NMtPBC=     1 NCelOv=     1 NCel=       1 NClECP=     1 NCelD=      1
         NCelK=      1 NCelE2=     1 NClLst=     1 CellRange=     0.0.
 One-electron integrals computed using PRISM.
 NBasis=    38 RedAO= F  NBF=    38
 NBsUse=    38 1.00D-04 NBFU=    38
 Leave Link  302 at Mon Sep 14 19:11:57 2015, MaxMem=  402653184 cpu:       0.1
 (Enter /share/apps/g09/l303.exe)
 DipDrv:  MaxL=1.
 Leave Link  303 at Mon Sep 14 19:11:57 2015, MaxMem=  402653184 cpu:       0.0
 (Enter /share/apps/g09/l401.exe)
 Simple Huckel Guess.
 Initial guess orbital symmetries:
       Occupied  (A) (A) (A) (A) (A) (A) (A) (A) (A) (A) (A) (A)
                 (A) (A) (A) (A) (A) (A) (A)
       Virtual   (A) (A) (A) (A) (A) (A) (A) (A) (A) (A) (A) (A)
                 (A) (A) (A) (A) (A) (A) (A)
 The electronic state of the initial guess is 1-A.
 Leave Link  401 at Mon Sep 14 19:11:59 2015, MaxMem=  402653184 cpu:       0.1
 (Enter /share/apps/g09/l502.exe)
 Closed shell SCF:
 Requested convergence on RMS density matrix=1.00D-08 within 128 cycles.
 Requested convergence on MAX density matrix=1.00D-06.
 Requested convergence on             energy=1.00D-06.
 No special actions if energy rises.
 Using DIIS extrapolation, IDIIS=  1040.
 Overlap will be assumed to be unity.
 Two-electron integral symmetry not used.
 Keep J ints in memory in canonical form, NReq=884654.
 IEnd=       81865 IEndB=       81865 NGot=   402653184 MDV=   402586639
 LenX=   402586639 LenY=   402584754
 Symmetry not used in FoFDir.
 MinBra= 0 MaxBra= 1 Meth=40.
 IRaf=       0 NMat=   1 IRICut=       1 DoRegI=T DoRafI=F ISym2E= 0 JSym2E=0.

 Cycle   1  Pass 1  IDiag  1:
 E= 0.733878054796264E-01
 DIIS: error= 2.20D-02 at cycle   1 NSaved=   1.
 NSaved= 1 IEnMin= 1 EnMin= 0.733878054796264E-01 IErMin= 1 ErrMin= 2.20D-02
 ErrMax= 2.20D-02 EMaxC= 1.00D-01 BMatC= 4.41D-02 BMatP= 4.41D-02
 IDIUse=3 WtCom= 7.80D-01 WtEn= 2.20D-01
 Coeff-Com:  0.100D+01
 Coeff-En:   0.100D+01
 Coeff:      0.100D+01
 GapD=    2.000 DampG=2.000 DampE=0.500 DampFc=1.0000 IDamp=-1.
 RMSDP=8.41D-03 MaxDP=6.95D-02              OVMax= 0.00D+00

 Cycle   2  Pass 1  IDiag  1:
 E=-0.436811002576576E-01 Delta-E=       -0.117068905737 Rises=F Damp=F
 DIIS: error= 5.37D-03 at cycle   2 NSaved=   2.
 NSaved= 2 IEnMin= 2 EnMin=-0.436811002576576E-01 IErMin= 2 ErrMin= 5.37D-03
 ErrMax= 5.37D-03 EMaxC= 1.00D-01 BMatC= 2.96D-03 BMatP= 4.41D-02
 IDIUse=3 WtCom= 9.46D-01 WtEn= 5.37D-02
 Coeff-Com: -0.324D+00 0.132D+01
 Coeff-En:   0.000D+00 0.100D+01
 Coeff:     -0.307D+00 0.131D+01
 RMSDP=3.05D-03 MaxDP=2.15D-02 DE=-1.17D-01 OVMax= 0.00D+00

 Cycle   3  Pass 1  IDiag  3:
 E=-0.532744211253089E-01 Delta-E=       -0.009593320868 Rises=F Damp=F
 DIIS: error= 1.47D-03 at cycle   3 NSaved=   3.
 NSaved= 3 IEnMin= 3 EnMin=-0.532744211253089E-01 IErMin= 3 ErrMin= 1.47D-03
 ErrMax= 1.47D-03 EMaxC= 1.00D-01 BMatC= 8.33D-05 BMatP= 2.96D-03
 IDIUse=3 WtCom= 9.85D-01 WtEn= 1.47D-02
 Coeff-Com:  0.246D+00-0.105D+01 0.180D+01
 Coeff-En:   0.000D+00 0.000D+00 0.100D+01
 Coeff:      0.242D+00-0.104D+01 0.179D+01
 Gap=     0.558 Goal=   None    Shift=    0.000
 RMSDP=8.74D-04 MaxDP=9.01D-03 DE=-9.59D-03 OVMax= 0.00D+00

 Cycle   4  Pass 1  IDiag  3:
 E=-0.537717527611221E-01 Delta-E=       -0.000497331636 Rises=F Damp=F
 DIIS: error= 3.40D-04 at cycle   4 NSaved=   4.
 NSaved= 4 IEnMin= 4 EnMin=-0.537717527611221E-01 IErMin= 4 ErrMin= 3.40D-04
 ErrMax= 3.40D-04 EMaxC= 1.00D-01 BMatC= 4.36D-06 BMatP= 8.33D-05
 IDIUse=3 WtCom= 9.97D-01 WtEn= 3.40D-03
 Coeff-Com: -0.118D+00 0.509D+00-0.103D+01 0.164D+01
 Coeff-En:   0.000D+00 0.000D+00 0.000D+00 0.100D+01
 Coeff:     -0.117D+00 0.507D+00-0.103D+01 0.164D+01
 Gap=     0.559 Goal=   None    Shift=    0.000
 RMSDP=2.29D-04 MaxDP=2.38D-03 DE=-4.97D-04 OVMax= 0.00D+00

 Cycle   5  Pass 1  IDiag  3:
 E=-0.538012865394819E-01 Delta-E=       -0.000029533778 Rises=F Damp=F
 DIIS: error= 9.19D-05 at cycle   5 NSaved=   5.
 NSaved= 5 IEnMin= 5 EnMin=-0.538012865394819E-01 IErMin= 5 ErrMin= 9.19D-05
 ErrMax= 9.19D-05 EMaxC= 1.00D-01 BMatC= 3.63D-07 BMatP= 4.36D-06
 IDIUse=1 WtCom= 1.00D+00 WtEn= 0.00D+00
 Coeff-Com:  0.666D-01-0.290D+00 0.623D+00-0.120D+01 0.180D+01
 Coeff:      0.666D-01-0.290D+00 0.623D+00-0.120D+01 0.180D+01
 Gap=     0.559 Goal=   None    Shift=    0.000
 RMSDP=7.02D-05 MaxDP=6.44D-04 DE=-2.95D-05 OVMax= 0.00D+00

 Cycle   6  Pass 1  IDiag  3:
 E=-0.538040082556392E-01 Delta-E=       -0.000002721716 Rises=F Damp=F
 DIIS: error= 2.60D-05 at cycle   6 NSaved=   6.
 NSaved= 6 IEnMin= 6 EnMin=-0.538040082556392E-01 IErMin= 6 ErrMin= 2.60D-05
 ErrMax= 2.60D-05 EMaxC= 1.00D-01 BMatC= 2.77D-08 BMatP= 3.63D-07
 IDIUse=1 WtCom= 1.00D+00 WtEn= 0.00D+00
 Coeff-Com: -0.574D-03 0.316D-02-0.203D-01 0.918D-01-0.432D+00 0.136D+01
 Coeff:     -0.574D-03 0.316D-02-0.203D-01 0.918D-01-0.432D+00 0.136D+01
 Gap=     0.559 Goal=   None    Shift=    0.000
 RMSDP=1.98D-05 MaxDP=2.08D-04 DE=-2.72D-06 OVMax= 0.00D+00

 Cycle   7  Pass 1  IDiag  3:
 E=-0.538042059914403E-01 Delta-E=       -0.000000197736 Rises=F Damp=F
 DIIS: error= 5.73D-06 at cycle   7 NSaved=   7.
 NSaved= 7 IEnMin= 7 EnMin=-0.538042059914403E-01 IErMin= 7 ErrMin= 5.73D-06
 ErrMax= 5.73D-06 EMaxC= 1.00D-01 BMatC= 2.00D-09 BMatP= 2.77D-08
 IDIUse=1 WtCom= 1.00D+00 WtEn= 0.00D+00
 Coeff-Com:  0.905D-03-0.423D-02 0.148D-01-0.487D-01 0.206D+00-0.774D+00
 Coeff-Com:  0.161D+01
 Coeff:      0.905D-03-0.423D-02 0.148D-01-0.487D-01 0.206D+00-0.774D+00
 Coeff:      0.161D+01
 Gap=     0.559 Goal=   None    Shift=    0.000
 RMSDP=4.80D-06 MaxDP=5.33D-05 DE=-1.98D-07 OVMax= 0.00D+00

 Cycle   8  Pass 1  IDiag  3:
 E=-0.538042184737719E-01 Delta-E=       -0.000000012482 Rises=F Damp=F
 DIIS: error= 1.96D-06 at cycle   8 NSaved=   8.
 NSaved= 8 IEnMin= 8 EnMin=-0.538042184737719E-01 IErMin= 8 ErrMin= 1.96D-06
 ErrMax= 1.96D-06 EMaxC= 1.00D-01 BMatC= 1.06D-10 BMatP= 2.00D-09
 IDIUse=1 WtCom= 1.00D+00 WtEn= 0.00D+00
 Coeff-Com: -0.369D-03 0.182D-02-0.795D-02 0.295D-01-0.135D+00 0.533D+00
 Coeff-Com: -0.124D+01 0.181D+01
 Coeff:     -0.369D-03 0.182D-02-0.795D-02 0.295D-01-0.135D+00 0.533D+00
 Coeff:     -0.124D+01 0.181D+01
 Gap=     0.559 Goal=   None    Shift=    0.000
 RMSDP=1.13D-06 MaxDP=1.21D-05 DE=-1.25D-08 OVMax= 0.00D+00

 Cycle   9  Pass 1  IDiag  3:
 E=-0.538042191361399E-01 Delta-E=       -0.000000000662 Rises=F Damp=F
 DIIS: error= 2.30D-07 at cycle   9 NSaved=   9.
 NSaved= 9 IEnMin= 9 EnMin=-0.538042191361399E-01 IErMin= 9 ErrMin= 2.30D-07
 ErrMax= 2.30D-07 EMaxC= 1.00D-01 BMatC= 2.33D-12 BMatP= 1.06D-10
 IDIUse=1 WtCom= 1.00D+00 WtEn= 0.00D+00
 Coeff-Com: -0.274D-04 0.512D-04 0.114D-02-0.660D-02 0.367D-01-0.156D+00
 Coeff-Com:  0.379D+00-0.652D+00 0.140D+01
 Coeff:     -0.274D-04 0.512D-04 0.114D-02-0.660D-02 0.367D-01-0.156D+00
 Coeff:      0.379D+00-0.652D+00 0.140D+01
 Gap=     0.559 Goal=   None    Shift=    0.000
 RMSDP=1.40D-07 MaxDP=1.63D-06 DE=-6.62D-10 OVMax= 0.00D+00

 Cycle  10  Pass 1  IDiag  3:
 E=-0.538042191485317E-01 Delta-E=       -0.000000000012 Rises=F Damp=F
 DIIS: error= 4.08D-08 at cycle  10 NSaved=  10.
 NSaved=10 IEnMin=10 EnMin=-0.538042191485317E-01 IErMin=10 ErrMin= 4.08D-08
 ErrMax= 4.08D-08 EMaxC= 1.00D-01 BMatC= 1.39D-13 BMatP= 2.33D-12
 IDIUse=1 WtCom= 1.00D+00 WtEn= 0.00D+00
 Coeff-Com:  0.280D-05 0.201D-04-0.636D-03 0.329D-02-0.176D-01 0.743D-01
 Coeff-Com: -0.180D+00 0.316D+00-0.783D+00 0.159D+01
 Coeff:      0.280D-05 0.201D-04-0.636D-03 0.329D-02-0.176D-01 0.743D-01
 Coeff:     -0.180D+00 0.316D+00-0.783D+00 0.159D+01
 Gap=     0.559 Goal=   None    Shift=    0.000
 RMSDP=3.60D-08 MaxDP=3.77D-07 DE=-1.24D-11 OVMax= 0.00D+00

 Cycle  11  Pass 1  IDiag  3:
 E=-0.538042191498391E-01 Delta-E=       -0.000000000001 Rises=F Damp=F
 DIIS: error= 2.22D-08 at cycle  11 NSaved=  11.
 NSaved=11 IEnMin=11 EnMin=-0.538042191498391E-01 IErMin=11 ErrMin= 2.22D-08
 ErrMax= 2.22D-08 EMaxC= 1.00D-01 BMatC= 2.50D-14 BMatP= 1.39D-13
 IDIUse=1 WtCom= 1.00D+00 WtEn= 0.00D+00
 Coeff-Com:  0.574D-05-0.517D-04 0.600D-03-0.285D-02 0.147D-01-0.615D-01
 Coeff-Com:  0.149D+00-0.262D+00 0.671D+00-0.171D+01 0.220D+01
 Coeff:      0.574D-05-0.517D-04 0.600D-03-0.285D-02 0.147D-01-0.615D-01
 Coeff:      0.149D+00-0.262D+00 0.671D+00-0.171D+01 0.220D+01
 Gap=     0.559 Goal=   None    Shift=    0.000
 RMSDP=2.41D-08 MaxDP=2.51D-07 DE=-1.31D-12 OVMax= 0.00D+00

 Cycle  12  Pass 1  IDiag  3:
 E=-0.538042191497254E-01 Delta-E=        0.000000000000 Rises=F Damp=F
 DIIS: error= 4.00D-09 at cycle  12 NSaved=  12.
 NSaved=12 IEnMin=11 EnMin=-0.538042191498391E-01 IErMin=12 ErrMin= 4.00D-09
 ErrMax= 4.00D-09 EMaxC= 1.00D-01 BMatC= 1.13D-15 BMatP= 2.50D-14
 IDIUse=1 WtCom= 1.00D+00 WtEn= 0.00D+00
 Coeff-Com: -0.169D-05 0.174D-04-0.220D-03 0.106D-02-0.547D-02 0.229D-01
 Coeff-Com: -0.554D-01 0.979D-01-0.254D+00 0.694D+00-0.108D+01 0.158D+01
 Coeff:     -0.169D-05 0.174D-04-0.220D-03 0.106D-02-0.547D-02 0.229D-01
 Coeff:     -0.554D-01 0.979D-01-0.254D+00 0.694D+00-0.108D+01 0.158D+01
 Gap=     0.559 Goal=   None    Shift=    0.000
 RMSDP=4.65D-09 MaxDP=5.62D-08 DE= 1.14D-13 OVMax= 0.00D+00

 Cycle  13  Pass 2  IDiag  1:
 RMSDP=4.65D-09 MaxDP=5.62D-08 DE= 1.14D-13 OVMax= 0.00D+00

 SCF Done:  E(RPM6) = -0.538042191497E-01 A.U. after   13 cycles
             Convg  =    0.4652D-08             -V/T =  0.9990
 KE=-5.602862233111D+01 PE=-2.459430959771D+02 EE= 1.395442807321D+02
 Leave Link  502 at Mon Sep 14 19:12:01 2015, MaxMem=  402653184 cpu:       1.4
 (Enter /share/apps/g09/l601.exe)
 Copying SCF densities to generalized density rwf, IOpCl= 0 IROHF=0.

 **********************************************************************

            Population analysis using the SCF density.

 **********************************************************************

 Orbital symmetries:
       Occupied  (A) (A) (A) (A) (A) (A) (A) (A) (A) (A) (A) (A)
                 (A) (A) (A) (A) (A) (A) (A)
       Virtual   (A) (A) (A) (A) (A) (A) (A) (A) (A) (A) (A) (A)
                 (A) (A) (A) (A) (A) (A) (A)
 The electronic state is 1-A.
 Alpha  occ. eigenvalues --   -1.05036  -0.99467  -0.90208  -0.81598  -0.73804
 Alpha  occ. eigenvalues --   -0.71252  -0.59506  -0.56439  -0.54587  -0.51812
 Alpha  occ. eigenvalues --   -0.51110  -0.48663  -0.46497  -0.45295  -0.43852
 Alpha  occ. eigenvalues --   -0.42519  -0.41281  -0.40748  -0.40482
 Alpha virt. eigenvalues --    0.15377   0.15714   0.16867   0.17565   0.18464
 Alpha virt. eigenvalues --    0.20530   0.21029   0.21597   0.21853   0.21970
 Alpha virt. eigenvalues --    0.22675   0.22948   0.23563   0.23891   0.24185
 Alpha virt. eigenvalues --    0.24376   0.24572   0.25034   0.25323
          Condensed to atoms (all electrons):
              1          2          3          4          5          6
     1  C    4.458060   0.000000   0.000000   0.000000   0.000000   0.000000
     2  H    0.000000   0.852522   0.000000   0.000000   0.000000   0.000000
     3  H    0.000000   0.000000   0.852147   0.000000   0.000000   0.000000
     4  H    0.000000   0.000000   0.000000   0.858325   0.000000   0.000000
     5  C    0.000000   0.000000   0.000000   0.000000   4.225839   0.000000
     6  H    0.000000   0.000000   0.000000   0.000000   0.000000   0.873146
     7  H    0.000000   0.000000   0.000000   0.000000   0.000000   0.000000
     8  C    0.000000   0.000000   0.000000   0.000000   0.000000   0.000000
     9  H    0.000000   0.000000   0.000000   0.000000   0.000000   0.000000
    10  H    0.000000   0.000000   0.000000   0.000000   0.000000   0.000000
    11  C    0.000000   0.000000   0.000000   0.000000   0.000000   0.000000
    12  H    0.000000   0.000000   0.000000   0.000000   0.000000   0.000000
    13  H    0.000000   0.000000   0.000000   0.000000   0.000000   0.000000
    14  C    0.000000   0.000000   0.000000   0.000000   0.000000   0.000000
    15  H    0.000000   0.000000   0.000000   0.000000   0.000000   0.000000
    16  H    0.000000   0.000000   0.000000   0.000000   0.000000   0.000000
    17  C    0.000000   0.000000   0.000000   0.000000   0.000000   0.000000
    18  H    0.000000   0.000000   0.000000   0.000000   0.000000   0.000000
    19  H    0.000000   0.000000   0.000000   0.000000   0.000000   0.000000
    20  H    0.000000   0.000000   0.000000   0.000000   0.000000   0.000000
              7          8          9         10         11         12
     1  C    0.000000   0.000000   0.000000   0.000000   0.000000   0.000000
     2  H    0.000000   0.000000   0.000000   0.000000   0.000000   0.000000
     3  H    0.000000   0.000000   0.000000   0.000000   0.000000   0.000000
     4  H    0.000000   0.000000   0.000000   0.000000   0.000000   0.000000
     5  C    0.000000   0.000000   0.000000   0.000000   0.000000   0.000000
     6  H    0.000000   0.000000   0.000000   0.000000   0.000000   0.000000
     7  H    0.877042   0.000000   0.000000   0.000000   0.000000   0.000000
     8  C    0.000000   4.267184   0.000000   0.000000   0.000000   0.000000
     9  H    0.000000   0.000000   0.867790   0.000000   0.000000   0.000000
    10  H    0.000000   0.000000   0.000000   0.872420   0.000000   0.000000
    11  C    0.000000   0.000000   0.000000   0.000000   4.259856   0.000000
    12  H    0.000000   0.000000   0.000000   0.000000   0.000000   0.868052
    13  H    0.000000   0.000000   0.000000   0.000000   0.000000   0.000000
    14  C    0.000000   0.000000   0.000000   0.000000   0.000000   0.000000
    15  H    0.000000   0.000000   0.000000   0.000000   0.000000   0.000000
    16  H    0.000000   0.000000   0.000000   0.000000   0.000000   0.000000
    17  C    0.000000   0.000000   0.000000   0.000000   0.000000   0.000000
    18  H    0.000000   0.000000   0.000000   0.000000   0.000000   0.000000
    19  H    0.000000   0.000000   0.000000   0.000000   0.000000   0.000000
    20  H    0.000000   0.000000   0.000000   0.000000   0.000000   0.000000
             13         14         15         16         17         18
     1  C    0.000000   0.000000   0.000000   0.000000   0.000000   0.000000
     2  H    0.000000   0.000000   0.000000   0.000000   0.000000   0.000000
     3  H    0.000000   0.000000   0.000000   0.000000   0.000000   0.000000
     4  H    0.000000   0.000000   0.000000   0.000000   0.000000   0.000000
     5  C    0.000000   0.000000   0.000000   0.000000   0.000000   0.000000
     6  H    0.000000   0.000000   0.000000   0.000000   0.000000   0.000000
     7  H    0.000000   0.000000   0.000000   0.000000   0.000000   0.000000
     8  C    0.000000   0.000000   0.000000   0.000000   0.000000   0.000000
     9  H    0.000000   0.000000   0.000000   0.000000   0.000000   0.000000
    10  H    0.000000   0.000000   0.000000   0.000000   0.000000   0.000000
    11  C    0.000000   0.000000   0.000000   0.000000   0.000000   0.000000
    12  H    0.000000   0.000000   0.000000   0.000000   0.000000   0.000000
    13  H    0.865970   0.000000   0.000000   0.000000   0.000000   0.000000
    14  C    0.000000   4.231377   0.000000   0.000000   0.000000   0.000000
    15  H    0.000000   0.000000   0.872959   0.000000   0.000000   0.000000
    16  H    0.000000   0.000000   0.000000   0.873710   0.000000   0.000000
    17  C    0.000000   0.000000   0.000000   0.000000   4.462688   0.000000
    18  H    0.000000   0.000000   0.000000   0.000000   0.000000   0.852542
    19  H    0.000000   0.000000   0.000000   0.000000   0.000000   0.000000
    20  H    0.000000   0.000000   0.000000   0.000000   0.000000   0.000000
             19         20
     1  C    0.000000   0.000000
     2  H    0.000000   0.000000
     3  H    0.000000   0.000000
     4  H    0.000000   0.000000
     5  C    0.000000   0.000000
     6  H    0.000000   0.000000
     7  H    0.000000   0.000000
     8  C    0.000000   0.000000
     9  H    0.000000   0.000000
    10  H    0.000000   0.000000
    11  C    0.000000   0.000000
    12  H    0.000000   0.000000
    13  H    0.000000   0.000000
    14  C    0.000000   0.000000
    15  H    0.000000   0.000000
    16  H    0.000000   0.000000
    17  C    0.000000   0.000000
    18  H    0.000000   0.000000
    19  H    0.855708   0.000000
    20  H    0.000000   0.852664
 Mulliken atomic charges:
              1
     1  C   -0.458060
     2  H    0.147478
     3  H    0.147853
     4  H    0.141675
     5  C   -0.225839
     6  H    0.126854
     7  H    0.122958
     8  C   -0.267184
     9  H    0.132210
    10  H    0.127580
    11  C   -0.259856
    12  H    0.131948
    13  H    0.134030
    14  C   -0.231377
    15  H    0.127041
    16  H    0.126290
    17  C   -0.462688
    18  H    0.147458
    19  H    0.144292
    20  H    0.147336
 Sum of Mulliken atomic charges =   0.00000
 Mulliken charges with hydrogens summed into heavy atoms:
              1
     1  C   -0.021054
     5  C    0.023974
     8  C   -0.007395
    11  C    0.006122
    14  C    0.021955
    17  C   -0.023602
 Sum of Mulliken charges with hydrogens summed into heavy atoms =   0.00000
 Charge=              0.0000 electrons
 Dipole moment (field-independent basis, Debye):
    X=             -0.0147    Y=              0.0006    Z=              0.0004  Tot=              0.0147
 N-N= 1.623736333570D+02 E-N=-2.459430959393D+02  KE=-5.602862233111D+01
 Leave Link  601 at Mon Sep 14 19:12:01 2015, MaxMem=  402653184 cpu:       0.0
 (Enter /share/apps/g09/l701.exe)
 Compute integral first derivatives.
 ... and contract with generalized density number  0.
 Leave Link  701 at Mon Sep 14 19:12:01 2015, MaxMem=  402653184 cpu:       0.1
 (Enter /share/apps/g09/l702.exe)
 L702 exits ... SP integral derivatives will be done elsewhere.
 Leave Link  702 at Mon Sep 14 19:12:07 2015, MaxMem=  402653184 cpu:       0.0
 (Enter /share/apps/g09/l703.exe)
 Compute integral first derivatives, UseDBF=F ICtDFT=           0.
 Integral derivatives from FoFDir, PRISM(SPDF).
 Calling FoFJK, ICntrl=      2127 FMM=F ISym2X=0 I1Cent= 0 IOpClX= 0 NMat=1 NMatS=1 NMatT=0.
 FoFCou: FMM=F IPFlag=           0 FMFlag=      100000 FMFlg1=         800
         NFxFlg=           0 DoJE=F BraDBF=F KetDBF=F FulRan=T
         Omega=  0.000000  0.000000  1.000000  0.000000  0.000000 ICntrl=    2127 IOpCl=  0
         NMat0=    1 NMatS0=    1 NMatT0=    0 NMatD0=    1 NMtDS0=    0 NMtDT0=    0
         I1Cent=           0 NGrid=           0.
 Symmetry not used in FoFCou.
 Leave Link  703 at Mon Sep 14 19:12:09 2015, MaxMem=  402653184 cpu:       0.0
 (Enter /share/apps/g09/l716.exe)
 Dipole        =-5.78173271D-03 2.35951674D-04 1.40447875D-04
 ***** Axes restored to original set *****
 -------------------------------------------------------------------
 Center     Atomic                   Forces (Hartrees/Bohr)
 Number     Number              X              Y              Z
 -------------------------------------------------------------------
      1        6           0.000153683    0.002460277    0.001223735
      2        1          -0.000584225    0.005736108   -0.008749948
      3        1           0.007746284   -0.005202072    0.003904647
      4        1          -0.008645132   -0.002659662    0.004069099
      5        6           0.000473674    0.000981152   -0.000299222
      6        1           0.001274402   -0.002406479    0.003379817
      7        1          -0.002134204    0.001124285   -0.003312834
      8        6          -0.000305170   -0.002262258    0.000174509
      9        1          -0.000373611   -0.000052419   -0.004947878
     10        1          -0.000553607    0.000659368    0.004344283
     11        6           0.001688683    0.002785806   -0.000184484
     12        1          -0.000037975    0.001299124    0.005473906
     13        1           0.001254290   -0.000585599   -0.005204583
     14        6           0.000067010   -0.003452538    0.000407899
     15        1           0.001381163   -0.001095999   -0.004708135
     16        1           0.000765425    0.000750732    0.004909815
     17        6          -0.003439525    0.001909684   -0.000475959
     18        1          -0.002110286   -0.002698450    0.009853901
     19        1           0.004557107    0.008847918   -0.001494289
     20        1          -0.001177987   -0.006138977   -0.008364278
 -------------------------------------------------------------------
 Cartesian Forces:  Max     0.009853901 RMS     0.003814960
 Leave Link  716 at Mon Sep 14 19:12:09 2015, MaxMem=  402653184 cpu:       0.1
 (Enter /share/apps/g09/l103.exe)

 GradGradGradGradGradGradGradGradGradGradGradGradGradGradGradGradGradGrad
 Berny optimization.
 Internal  Forces:  Max     0.010066897 RMS     0.003080204
 Search for a local minimum.
 Step number   1 out of a maximum of  110
 All quantities printed in internal units (Hartrees-Bohrs-Radians)
 RMS Force = .30802D-02 SwitMx=.10000D-02 MixMth= 1
 Mixed Optimization -- RFO/linear search
 Second derivative matrix not updated -- first step.
     Eigenvalues ---    0.00291   0.00293   0.00321   0.00394   0.00416
     Eigenvalues ---    0.03393   0.03410   0.03626   0.03652   0.04796
     Eigenvalues ---    0.04829   0.04863   0.04895   0.05606   0.05667
     Eigenvalues ---    0.05777   0.05779   0.08119   0.08189   0.08472
     Eigenvalues ---    0.08537   0.12051   0.12093   0.12316   0.12358
     Eigenvalues ---    0.16000   0.16000   0.16000   0.16000   0.16000
     Eigenvalues ---    0.16000   0.21970   0.21973   0.21988   0.21991
     Eigenvalues ---    0.28884   0.28897   0.29087   0.29601   0.29752
     Eigenvalues ---    0.32053   0.32066   0.32070   0.32086   0.32086
     Eigenvalues ---    0.32102   0.32105   0.32136   0.32187   0.32196
     Eigenvalues ---    0.32217   0.32223   0.32233   0.322751000.00000
     Eigenvalues --- 1000.000001000.000001000.000001000.000001000.00000
     Eigenvalues --- 1000.000001000.000001000.000001000.000001000.00000
     Eigenvalues --- 1000.000001000.000001000.000001000.000001000.00000
     Eigenvalues --- 1000.000001000.000001000.000001000.000001000.00000
     Eigenvalues --- 1000.000001000.000001000.000001000.000001000.00000
     Eigenvalues --- 1000.000001000.000001000.000001000.000001000.00000
     Eigenvalues --- 1000.000001000.000001000.000001000.000001000.00000
     Eigenvalues --- 1000.000001000.000001000.000001000.000001000.00000
     Eigenvalues --- 1000.000001000.000001000.000001000.000001000.00000
 RFO step:  Lambda=-3.94635573D-03 EMin= 2.90878225D-03
 Linear search not attempted -- first point.
 Iteration  1 RMS(Cart)=  0.03185155 RMS(Int)=  0.00048202
 Iteration  2 RMS(Cart)=  0.00061637 RMS(Int)=  0.00007549
 Iteration  3 RMS(Cart)=  0.00000028 RMS(Int)=  0.00007549
 Variable       Old X    -DE/DX   Delta X   Delta X   Delta X     New X
                                 (Linear)    (Quad)   (Total)
    R1        2.10448  -0.01007   0.00000  -0.03087  -0.03087   2.07362
    R2        2.10344  -0.00976   0.00000  -0.02987  -0.02987   2.07356
    R3        2.10439  -0.00941   0.00000  -0.02886  -0.02886   2.07552
    R4        2.88767   0.00045   0.00000   0.00149   0.00149   2.88916
    R5        2.10652  -0.00403   0.00000  -0.01241  -0.01241   2.09411
    R6        2.10658  -0.00271   0.00000  -0.00833  -0.00833   2.09825
    R7        2.90218  -0.00135   0.00000  -0.00461  -0.00461   2.89758
    R8        2.10748  -0.00469   0.00000  -0.01445  -0.01445   2.09303
    R9        2.10717  -0.00316   0.00000  -0.00973  -0.00973   2.09744
   R10        2.90246  -0.00198   0.00000  -0.00677  -0.00677   2.89568
   R11        2.10724  -0.00456   0.00000  -0.01406  -0.01406   2.09318
   R12        2.10595  -0.00401   0.00000  -0.01234  -0.01234   2.09361
   R13        2.89822   0.00121   0.00000   0.00412   0.00412   2.90234
   R14        2.10686  -0.00382   0.00000  -0.01177  -0.01177   2.09509
   R15        2.10687  -0.00377   0.00000  -0.01160  -0.01160   2.09527
   R16        2.88461   0.00282   0.00000   0.00936   0.00936   2.89397
   R17        2.10487  -0.00995   0.00000  -0.03053  -0.03053   2.07434
   R18        2.10420  -0.00953   0.00000  -0.02919  -0.02919   2.07501
   R19        2.10503  -0.00993   0.00000  -0.03047  -0.03047   2.07456
    A1        1.90800  -0.00329   0.00000  -0.02624  -0.02623   1.88178
    A2        1.89687  -0.00294   0.00000  -0.01504  -0.01530   1.88157
    A3        1.92750   0.00271   0.00000   0.01473   0.01459   1.94210
    A4        1.88928  -0.00254   0.00000  -0.01194  -0.01217   1.87710
    A5        1.93169   0.00208   0.00000   0.01119   0.01108   1.94277
    A6        1.90975   0.00377   0.00000   0.02627   0.02600   1.93575
    A7        1.90480   0.00149   0.00000   0.00462   0.00455   1.90934
    A8        1.88259   0.00227   0.00000   0.02212   0.02214   1.90473
    A9        1.99366  -0.00385   0.00000  -0.01405  -0.01405   1.97960
   A10        1.87942  -0.00179   0.00000  -0.01917  -0.01918   1.86024
   A11        1.91410   0.00083   0.00000  -0.00347  -0.00348   1.91062
   A12        1.88574   0.00111   0.00000   0.00970   0.00974   1.89548
   A13        1.90788   0.00155   0.00000   0.00278   0.00270   1.91058
   A14        1.87509   0.00249   0.00000   0.02222   0.02228   1.89737
   A15        1.98963  -0.00491   0.00000  -0.01897  -0.01896   1.97067
   A16        1.88062  -0.00201   0.00000  -0.01948  -0.01948   1.86114
   A17        1.91079   0.00141   0.00000   0.00006   0.00001   1.91080
   A18        1.89658   0.00156   0.00000   0.01336   0.01346   1.91004
   A19        1.90662   0.00102   0.00000   0.00555   0.00554   1.91216
   A20        1.90703   0.00062   0.00000   0.00303   0.00301   1.91005
   A21        1.95408  -0.00259   0.00000  -0.00520  -0.00521   1.94887
   A22        1.89499  -0.00225   0.00000  -0.03145  -0.03145   1.86353
   A23        1.90301   0.00136   0.00000   0.01128   0.01128   1.91429
   A24        1.89723   0.00183   0.00000   0.01574   0.01574   1.91297
   A25        1.91319   0.00029   0.00000  -0.00061  -0.00064   1.91254
   A26        1.91101   0.00051   0.00000   0.00180   0.00176   1.91277
   A27        1.95729  -0.00205   0.00000  -0.00301  -0.00303   1.95427
   A28        1.89208  -0.00202   0.00000  -0.02940  -0.02946   1.86262
   A29        1.89434   0.00170   0.00000   0.01544   0.01543   1.90977
   A30        1.89473   0.00155   0.00000   0.01488   0.01488   1.90960
   A31        1.92679   0.00304   0.00000   0.01770   0.01753   1.94432
   A32        1.91221   0.00356   0.00000   0.02313   0.02288   1.93509
   A33        1.92519   0.00323   0.00000   0.01909   0.01890   1.94408
   A34        1.89727  -0.00321   0.00000  -0.01844  -0.01866   1.87861
   A35        1.90536  -0.00361   0.00000  -0.02477  -0.02487   1.88049
   A36        1.89653  -0.00322   0.00000  -0.01798  -0.01823   1.87830
    D1        3.09308  -0.00054   0.00000  -0.00154  -0.00163   3.09145
    D2       -1.15295  -0.00061   0.00000  -0.00962  -0.00968  -1.16262
    D3        0.94368  -0.00004   0.00000   0.00941   0.00933   0.95301
    D4        0.97773   0.00040   0.00000   0.01422   0.01427   0.99200
    D5        3.01489   0.00033   0.00000   0.00614   0.00622   3.02111
    D6       -1.17167   0.00090   0.00000   0.02517   0.02523  -1.14644
    D7       -1.10279  -0.00012   0.00000   0.00553   0.00552  -1.09727
    D8        0.93437  -0.00019   0.00000  -0.00255  -0.00253   0.93184
    D9        3.03099   0.00038   0.00000   0.01648   0.01648   3.04747
   D10       -0.99432  -0.00029   0.00000   0.00165   0.00167  -0.99265
   D11       -3.03042  -0.00010   0.00000   0.01102   0.01102  -3.01940
   D12        1.15025  -0.00074   0.00000  -0.00953  -0.00949   1.14077
   D13       -3.13868  -0.00013   0.00000   0.00832   0.00830  -3.13039
   D14        1.10841   0.00006   0.00000   0.01769   0.01764   1.12605
   D15       -0.99410  -0.00058   0.00000  -0.00287  -0.00287  -0.99697
   D16        1.10054   0.00093   0.00000   0.02763   0.02763   1.12817
   D17       -0.93556   0.00112   0.00000   0.03700   0.03698  -0.89858
   D18       -3.03807   0.00047   0.00000   0.01644   0.01647  -3.02160
   D19        0.91995  -0.00027   0.00000   0.00478   0.00476   0.92471
   D20       -1.15081   0.00150   0.00000   0.03784   0.03782  -1.11300
   D21        3.02965   0.00045   0.00000   0.01938   0.01935   3.04901
   D22        3.06294  -0.00066   0.00000  -0.00496  -0.00494   3.05800
   D23        0.99218   0.00111   0.00000   0.02810   0.02812   1.02030
   D24       -1.11054   0.00006   0.00000   0.00963   0.00966  -1.10088
   D25       -1.17049  -0.00138   0.00000  -0.02066  -0.02065  -1.19114
   D26        3.04193   0.00039   0.00000   0.01240   0.01240   3.05433
   D27        0.93921  -0.00066   0.00000  -0.00606  -0.00606   0.93315
   D28        1.00503  -0.00103   0.00000  -0.01445  -0.01443   0.99060
   D29       -1.06847   0.00095   0.00000   0.02069   0.02068  -1.04779
   D30        3.11037  -0.00002   0.00000   0.00266   0.00266   3.11303
   D31        3.11683  -0.00051   0.00000  -0.00318  -0.00316   3.11367
   D32        1.04333   0.00148   0.00000   0.03196   0.03195   1.07528
   D33       -1.06102   0.00050   0.00000   0.01393   0.01393  -1.04709
   D34       -1.10338  -0.00139   0.00000  -0.02551  -0.02550  -1.12888
   D35        3.10630   0.00060   0.00000   0.00962   0.00960   3.11591
   D36        1.00196  -0.00038   0.00000  -0.00841  -0.00842   0.99354
   D37        1.03819  -0.00013   0.00000  -0.00123  -0.00126   1.03693
   D38        3.12710   0.00004   0.00000   0.00159   0.00158   3.12868
   D39       -1.06908   0.00029   0.00000   0.00574   0.00579  -1.06330
   D40       -3.12877   0.00008   0.00000   0.00657   0.00654  -3.12224
   D41       -1.03987   0.00025   0.00000   0.00939   0.00939  -1.03048
   D42        1.04713   0.00051   0.00000   0.01354   0.01359   1.06072
   D43       -1.07556  -0.00052   0.00000  -0.01166  -0.01170  -1.08725
   D44        1.01335  -0.00035   0.00000  -0.00884  -0.00885   1.00450
   D45        3.10035  -0.00010   0.00000  -0.00468  -0.00465   3.09571
         Item               Value     Threshold  Converged?
 Maximum Force            0.010067     0.000450     NO 
 RMS     Force            0.003080     0.000300     NO 
 Maximum Displacement     0.134602     0.001800     NO 
 RMS     Displacement     0.031880     0.001200     NO 
 Predicted change in Energy=-2.027646D-03
 GradGradGradGradGradGradGradGradGradGradGradGradGradGradGradGradGradGrad

 Leave Link  103 at Mon Sep 14 19:12:09 2015, MaxMem=  402653184 cpu:       0.1
 (Enter /share/apps/g09/l202.exe)
                          Input orientation:                          
 ---------------------------------------------------------------------
 Center     Atomic      Atomic             Coordinates (Angstroms)
 Number     Number       Type             X           Y           Z
 ---------------------------------------------------------------------
      1          6           0        1.840633    1.889257    0.779993
      2          1           0        1.853059    1.568046    1.829164
      3          1           0        0.980104    2.556198    0.643210
      4          1           0        2.749072    2.479294    0.598606
      5          6           0        1.770541    0.690515   -0.166354
      6          1           0        1.707287    1.050656   -1.212442
      7          1           0        2.713292    0.109207   -0.087776
      8          6           0        0.592262   -0.246872    0.123590
      9          1           0        0.649100   -0.597657    1.172617
     10          1           0        0.687420   -1.147418   -0.518185
     11          6           0       -0.768997    0.412559   -0.121686
     12          1           0       -0.795192    0.840235   -1.143120
     13          1           0       -0.901435    1.257728    0.582285
     14          6           0       -1.922353   -0.586961    0.050306
     15          1           0       -1.877442   -1.035412    1.063239
     16          1           0       -1.803963   -1.419296   -0.672584
     17          6           0       -3.288613    0.074034   -0.153840
     18          1           0       -3.375574    0.512690   -1.156312
     19          1           0       -4.098577   -0.658544   -0.039857
     20          1           0       -3.459321    0.874642    0.577644
 ---------------------------------------------------------------------
                    Distance matrix (angstroms):
                    1          2          3          4          5
     1  C    0.000000
     2  H    1.097310   0.000000
     3  H    1.097283   1.773410   0.000000
     4  H    1.098320   1.774115   1.771200   0.000000
     5  C    1.528878   2.181505   2.181961   2.177710   0.000000
     6  H    2.165833   3.088739   2.497778   2.531051   1.108153
     7  H    2.164055   2.557904   3.086429   2.467735   1.110348
     8  C    2.559754   2.791509   2.877087   3.508483   1.533331
     9  H    2.785434   2.563366   3.215064   3.769217   2.170221
    10  H    3.498079   3.773925   3.892463   4.318643   2.162159
    11  C    3.131107   3.466432   2.870472   4.143311   2.555095
    12  H    3.427300   4.046902   3.047488   4.275738   2.749450
    13  H    2.820790   3.039448   2.286903   3.849505   2.832251
    14  C    4.563349   4.697034   4.319171   5.614691   3.913610
    15  H    4.738987   4.613163   4.608867   5.828694   4.218827
    16  H    5.132210   5.343854   5.028607   6.127402   4.181465
    17  C    5.520529   5.709744   5.001837   6.542560   5.096591
    18  H    5.731757   6.112729   5.136744   6.667725   5.243485
    19  H    6.514420   6.623664   6.049310   7.559363   6.023496
    20  H    5.399991   5.501682   4.747676   6.412448   5.285725
                    6          7          8          9         10
     6  H    0.000000
     7  H    1.778551   0.000000
     8  C    2.170678   2.161073   0.000000
     9  H    3.086292   2.519749   1.107581   0.000000
    10  H    2.520644   2.422502   1.109916   1.778346   0.000000
    11  C    2.780090   3.495642   1.532330   2.169505   2.170689
    12  H    2.512267   3.735989   2.170572   3.084825   2.557234
    13  H    3.173224   3.851536   2.169182   2.488996   3.085485
    14  C    4.177392   4.689660   2.538566   2.805720   2.729140
    15  H    4.730823   4.869274   2.757566   2.566517   3.015289
    16  H    4.326775   4.804572   2.783947   3.177637   2.510925
    17  C    5.199370   6.002371   3.903990   4.209066   4.175348
    18  H    5.111559   6.195067   4.237783   4.780667   4.435210
    19  H    6.164769   6.855166   4.711704   4.900432   4.834621
    20  H    5.470761   6.255384   4.228390   4.404632   4.741838
                   11         12         13         14         15
    11  C    0.000000
    12  H    1.107664   0.000000
    13  H    1.107892   1.778373   0.000000
    14  C    1.535854   2.175234   2.174431   0.000000
    15  H    2.174699   3.091494   2.538187   1.108674   0.000000
    16  H    2.174933   2.518829   3.091231   1.108768   1.779283
    17  C    2.542459   2.789782   2.764350   1.531423   2.168768
    18  H    2.806193   2.601121   3.114349   2.185638   3.093126
    19  H    3.498579   3.791553   3.779005   2.179268   2.508444
    20  H    2.817876   3.171718   2.586418   2.185553   2.527142
                   16         17         18         19         20
    16  H    0.000000
    17  C    2.168713   0.000000
    18  H    2.537030   1.097694   0.000000
    19  H    2.498867   1.098046   1.772285   0.000000
    20  H    3.092803   1.097808   1.773310   1.772178   0.000000
 Stoichiometry    C6H14
 Framework group  C1[X(C6H14)]
 Deg. of freedom    54
 Full point group                 C1      NOp   1
 Largest Abelian subgroup         C1      NOp   1
 Largest concise Abelian subgroup C1      NOp   1
                         Standard orientation:                         
 ---------------------------------------------------------------------
 Center     Atomic      Atomic             Coordinates (Angstroms)
 Number     Number       Type             X           Y           Z
 ---------------------------------------------------------------------
      1          6           0       -2.547856    0.891941   -0.224563
      2          1           0       -2.567984    0.857215   -1.321139
      3          1           0       -1.907070    1.731486    0.073072
      4          1           0       -3.565967    1.112864    0.123215
      5          6           0       -2.044616   -0.426741    0.363053
      6          1           0       -1.987579   -0.340042    1.466336
      7          1           0       -2.782822   -1.227197    0.145810
      8          6           0       -0.679748   -0.857659   -0.186991
      9          1           0       -0.733651   -0.933074   -1.290687
     10          1           0       -0.449168   -1.875740    0.190181
     11          6           0        0.450694    0.099586    0.205206
     12          1           0        0.450589    0.243314    1.303505
     13          1           0        0.265613    1.093751   -0.247349
     14          6           0        1.821063   -0.425698   -0.247581
     15          1           0        1.810142   -0.596337   -1.342990
     16          1           0        2.017649   -1.408571    0.226425
     17          6           0        2.951865    0.544860    0.105351
     18          1           0        3.004667    0.721891    1.187388
     19          1           0        3.923718    0.146092   -0.214324
     20          1           0        2.813443    1.516615   -0.386293
 ---------------------------------------------------------------------
 Rotational constants (GHZ):      8.5828454      1.3612538      1.2625182
 Leave Link  202 at Mon Sep 14 19:12:11 2015, MaxMem=  402653184 cpu:       0.0
 (Enter /share/apps/g09/l301.exe)
 Standard basis: VSTO-6G (5D, 7F)
 Ernie: Thresh=  0.10000D-02 Tol=  0.10000D-05 Strict=F.
  NNHCO=     0 NNPyr=     0 NCTC=     0               EPep=         0.000000000
    EC=       125.325472639  ECS=         3.215895725   EG=         0.308671138
   EHC=         0.000451538  EAt=       -31.187935768  AtH=         2.796400831
 EPDDG=         0.000000000  ECC=       128.850491041 EAtT=        33.984336599
 There are    38 symmetry adapted basis functions of A   symmetry.
 Integral buffers will be    131072 words long.
 Regular integral format.
 Two-electron integral symmetry is turned off.
    38 basis functions,   228 primitive gaussians,    38 cartesian basis functions
    19 alpha electrons       19 beta electrons
       nuclear repulsion energy       162.8348276398 Hartrees.
 IExCor=    0 DFT=F Ex=HF Corr=None ExCW=0 ScaHFX=  1.000000
 ScaDFX=  1.000000  1.000000  1.000000  1.000000 ScalE2=  1.000000  1.000000
 IRadAn=      0 IRanWt=     -1 IRanGd=            0 ICorTp=0
 Leave Link  301 at Mon Sep 14 19:12:12 2015, MaxMem=  402653184 cpu:       0.1
 (Enter /share/apps/g09/l302.exe)
 Do NDO integrals.
 NPDir=0 NMtPBC=     1 NCelOv=     1 NCel=       1 NClECP=     1 NCelD=      1
         NCelK=      1 NCelE2=     1 NClLst=     1 CellRange=     0.0.
 One-electron integrals computed using PRISM.
 NBasis=    38 RedAO= F  NBF=    38
 NBsUse=    38 1.00D-04 NBFU=    38
 Leave Link  302 at Mon Sep 14 19:12:13 2015, MaxMem=  402653184 cpu:       0.1
 (Enter /share/apps/g09/l303.exe)
 DipDrv:  MaxL=1.
 Leave Link  303 at Mon Sep 14 19:12:13 2015, MaxMem=  402653184 cpu:       0.0
 (Enter /share/apps/g09/l401.exe)
 Initial guess read from the read-write file.
 B after Tr=     0.000000    0.000000    0.000000
         Rot=    1.000000    0.000000    0.000000    0.000000 Ang=   0.00 deg.
 Guess basis will be translated and rotated to current coordinates.
 Initial guess orbital symmetries:
       Occupied  (A) (A) (A) (A) (A) (A) (A) (A) (A) (A) (A) (A)
                 (A) (A) (A) (A) (A) (A) (A)
       Virtual   (A) (A) (A) (A) (A) (A) (A) (A) (A) (A) (A) (A)
                 (A) (A) (A) (A) (A) (A) (A)
 The electronic state of the initial guess is 1-A.
 Leave Link  401 at Mon Sep 14 19:12:20 2015, MaxMem=  402653184 cpu:       0.2
 (Enter /share/apps/g09/l502.exe)
 Closed shell SCF:
 Requested convergence on RMS density matrix=1.00D-08 within 128 cycles.
 Requested convergence on MAX density matrix=1.00D-06.
 Requested convergence on             energy=1.00D-06.
 No special actions if energy rises.
 Using DIIS extrapolation, IDIIS=  1040.
 Overlap will be assumed to be unity.
 Two-electron integral symmetry not used.
 Keep J ints in memory in canonical form, NReq=884654.
 IEnd=       81865 IEndB=       81865 NGot=   402653184 MDV=   402586639
 LenX=   402586639 LenY=   402584754
 Symmetry not used in FoFDir.
 MinBra= 0 MaxBra= 1 Meth=40.
 IRaf=       0 NMat=   1 IRICut=       1 DoRegI=T DoRafI=F ISym2E= 0 JSym2E=0.

 Cycle   1  Pass 1  IDiag  1:
 E=-0.546144454938826E-01
 DIIS: error= 3.89D-03 at cycle   1 NSaved=   1.
 NSaved= 1 IEnMin= 1 EnMin=-0.546144454938826E-01 IErMin= 1 ErrMin= 3.89D-03
 ErrMax= 3.89D-03 EMaxC= 1.00D-01 BMatC= 3.28D-04 BMatP= 3.28D-04
 IDIUse=3 WtCom= 9.61D-01 WtEn= 3.89D-02
 Coeff-Com:  0.100D+01
 Coeff-En:   0.100D+01
 Coeff:      0.100D+01
 GapD=    2.000 DampG=2.000 DampE=1.000 DampFc=2.0000 IDamp=-1.
 RMSDP=8.80D-04 MaxDP=9.92D-03              OVMax= 0.00D+00

 Cycle   2  Pass 1  IDiag  3:
 E=-0.558088938969377E-01 Delta-E=       -0.001194448403 Rises=F Damp=F
 DIIS: error= 1.72D-03 at cycle   2 NSaved=   2.
 NSaved= 2 IEnMin= 2 EnMin=-0.558088938969377E-01 IErMin= 2 ErrMin= 1.72D-03
 ErrMax= 1.72D-03 EMaxC= 1.00D-01 BMatC= 5.55D-05 BMatP= 3.28D-04
 IDIUse=3 WtCom= 9.83D-01 WtEn= 1.72D-02
 Coeff-Com: -0.641D+00 0.164D+01
 Coeff-En:   0.000D+00 0.100D+01
 Coeff:     -0.630D+00 0.163D+01
 Gap=     0.558 Goal=   None    Shift=    0.000
 RMSDP=6.22D-04 MaxDP=7.22D-03 DE=-1.19D-03 OVMax= 0.00D+00

 Cycle   3  Pass 1  IDiag  3:
 E=-0.560776883137351E-01 Delta-E=       -0.000268794417 Rises=F Damp=F
 DIIS: error= 1.75D-04 at cycle   3 NSaved=   3.
 NSaved= 3 IEnMin= 3 EnMin=-0.560776883137351E-01 IErMin= 3 ErrMin= 1.75D-04
 ErrMax= 1.75D-04 EMaxC= 1.00D-01 BMatC= 8.25D-07 BMatP= 5.55D-05
 IDIUse=3 WtCom= 9.98D-01 WtEn= 1.75D-03
 Coeff-Com:  0.254D+00-0.715D+00 0.146D+01
 Coeff-En:   0.000D+00 0.000D+00 0.100D+01
 Coeff:      0.253D+00-0.714D+00 0.146D+01
 Gap=     0.558 Goal=   None    Shift=    0.000
 RMSDP=8.25D-05 MaxDP=8.47D-04 DE=-2.69D-04 OVMax= 0.00D+00

 Cycle   4  Pass 1  IDiag  3:
 E=-0.560818790951032E-01 Delta-E=       -0.000004190781 Rises=F Damp=F
 DIIS: error= 1.70D-05 at cycle   4 NSaved=   4.
 NSaved= 4 IEnMin= 4 EnMin=-0.560818790951032E-01 IErMin= 4 ErrMin= 1.70D-05
 ErrMax= 1.70D-05 EMaxC= 1.00D-01 BMatC= 1.87D-08 BMatP= 8.25D-07
 IDIUse=1 WtCom= 1.00D+00 WtEn= 0.00D+00
 Coeff-Com: -0.126D+00 0.356D+00-0.773D+00 0.154D+01
 Coeff:     -0.126D+00 0.356D+00-0.773D+00 0.154D+01
 Gap=     0.558 Goal=   None    Shift=    0.000
 RMSDP=1.24D-05 MaxDP=1.03D-04 DE=-4.19D-06 OVMax= 0.00D+00

 Cycle   5  Pass 1  IDiag  3:
 E=-0.560819935469112E-01 Delta-E=       -0.000000114452 Rises=F Damp=F
 DIIS: error= 6.39D-06 at cycle   5 NSaved=   5.
 NSaved= 5 IEnMin= 5 EnMin=-0.560819935469112E-01 IErMin= 5 ErrMin= 6.39D-06
 ErrMax= 6.39D-06 EMaxC= 1.00D-01 BMatC= 2.37D-09 BMatP= 1.87D-08
 IDIUse=1 WtCom= 1.00D+00 WtEn= 0.00D+00
 Coeff-Com:  0.836D-01-0.237D+00 0.522D+00-0.127D+01 0.190D+01
 Coeff:      0.836D-01-0.237D+00 0.522D+00-0.127D+01 0.190D+01
 Gap=     0.558 Goal=   None    Shift=    0.000
 RMSDP=5.99D-06 MaxDP=5.56D-05 DE=-1.14D-07 OVMax= 0.00D+00

 Cycle   6  Pass 1  IDiag  3:
 E=-0.560820119091829E-01 Delta-E=       -0.000000018362 Rises=F Damp=F
 DIIS: error= 1.64D-06 at cycle   6 NSaved=   6.
 NSaved= 6 IEnMin= 6 EnMin=-0.560820119091829E-01 IErMin= 6 ErrMin= 1.64D-06
 ErrMax= 1.64D-06 EMaxC= 1.00D-01 BMatC= 1.67D-10 BMatP= 2.37D-09
 IDIUse=1 WtCom= 1.00D+00 WtEn= 0.00D+00
 Coeff-Com: -0.404D-01 0.115D+00-0.253D+00 0.648D+00-0.118D+01 0.171D+01
 Coeff:     -0.404D-01 0.115D+00-0.253D+00 0.648D+00-0.118D+01 0.171D+01
 Gap=     0.558 Goal=   None    Shift=    0.000
 RMSDP=1.67D-06 MaxDP=1.58D-05 DE=-1.84D-08 OVMax= 0.00D+00

 Cycle   7  Pass 1  IDiag  3:
 E=-0.560820131755690E-01 Delta-E=       -0.000000001266 Rises=F Damp=F
 DIIS: error= 2.92D-07 at cycle   7 NSaved=   7.
 NSaved= 7 IEnMin= 7 EnMin=-0.560820131755690E-01 IErMin= 7 ErrMin= 2.92D-07
 ErrMax= 2.92D-07 EMaxC= 1.00D-01 BMatC= 6.65D-12 BMatP= 1.67D-10
 IDIUse=1 WtCom= 1.00D+00 WtEn= 0.00D+00
 Coeff-Com:  0.121D-01-0.342D-01 0.755D-01-0.198D+00 0.386D+00-0.716D+00
 Coeff-Com:  0.147D+01
 Coeff:      0.121D-01-0.342D-01 0.755D-01-0.198D+00 0.386D+00-0.716D+00
 Coeff:      0.147D+01
 Gap=     0.558 Goal=   None    Shift=    0.000
 RMSDP=2.84D-07 MaxDP=2.14D-06 DE=-1.27D-09 OVMax= 0.00D+00

 Cycle   8  Pass 1  IDiag  3:
 E=-0.560820132180027E-01 Delta-E=       -0.000000000042 Rises=F Damp=F
 DIIS: error= 5.49D-08 at cycle   8 NSaved=   8.
 NSaved= 8 IEnMin= 8 EnMin=-0.560820132180027E-01 IErMin= 8 ErrMin= 5.49D-08
 ErrMax= 5.49D-08 EMaxC= 1.00D-01 BMatC= 2.39D-13 BMatP= 6.65D-12
 IDIUse=1 WtCom= 1.00D+00 WtEn= 0.00D+00
 Coeff-Com: -0.211D-02 0.598D-02-0.132D-01 0.350D-01-0.713D-01 0.147D+00
 Coeff-Com: -0.453D+00 0.135D+01
 Coeff:     -0.211D-02 0.598D-02-0.132D-01 0.350D-01-0.713D-01 0.147D+00
 Coeff:     -0.453D+00 0.135D+01
 Gap=     0.558 Goal=   None    Shift=    0.000
 RMSDP=4.86D-08 MaxDP=4.07D-07 DE=-4.24D-11 OVMax= 0.00D+00

 Cycle   9  Pass 1  IDiag  3:
 E=-0.560820132195659E-01 Delta-E=       -0.000000000002 Rises=F Damp=F
 DIIS: error= 1.54D-08 at cycle   9 NSaved=   9.
 NSaved= 9 IEnMin= 9 EnMin=-0.560820132195659E-01 IErMin= 9 ErrMin= 1.54D-08
 ErrMax= 1.54D-08 EMaxC= 1.00D-01 BMatC= 1.47D-14 BMatP= 2.39D-13
 IDIUse=1 WtCom= 1.00D+00 WtEn= 0.00D+00
 Coeff-Com:  0.272D-03-0.766D-03 0.168D-02-0.470D-02 0.108D-01-0.272D-01
 Coeff-Com:  0.125D+00-0.596D+00 0.149D+01
 Coeff:      0.272D-03-0.766D-03 0.168D-02-0.470D-02 0.108D-01-0.272D-01
 Coeff:      0.125D+00-0.596D+00 0.149D+01
 Gap=     0.558 Goal=   None    Shift=    0.000
 RMSDP=1.16D-08 MaxDP=1.07D-07 DE=-1.56D-12 OVMax= 0.00D+00

 Cycle  10  Pass 1  IDiag  3:
 E=-0.560820132195659E-01 Delta-E=        0.000000000000 Rises=F Damp=F
 DIIS: error= 5.24D-09 at cycle  10 NSaved=  10.
 NSaved=10 IEnMin= 9 EnMin=-0.560820132195659E-01 IErMin=10 ErrMin= 5.24D-09
 ErrMax= 5.24D-09 EMaxC= 1.00D-01 BMatC= 9.14D-16 BMatP= 1.47D-14
 IDIUse=1 WtCom= 1.00D+00 WtEn= 0.00D+00
 Coeff-Com: -0.425D-04 0.118D-03-0.256D-03 0.799D-03-0.218D-02 0.660D-02
 Coeff-Com: -0.391D-01 0.222D+00-0.713D+00 0.153D+01
 Coeff:     -0.425D-04 0.118D-03-0.256D-03 0.799D-03-0.218D-02 0.660D-02
 Coeff:     -0.391D-01 0.222D+00-0.713D+00 0.153D+01
 Gap=     0.558 Goal=   None    Shift=    0.000
 RMSDP=2.93D-09 MaxDP=3.37D-08 DE= 0.00D+00 OVMax= 0.00D+00

 Cycle  11  Pass 2  IDiag  1:
 RMSDP=2.93D-09 MaxDP=3.37D-08 DE= 0.00D+00 OVMax= 0.00D+00

 SCF Done:  E(RPM6) = -0.560820132196E-01 A.U. after   11 cycles
             Convg  =    0.2929D-08             -V/T =  0.9990
 KE=-5.608455428298D+01 PE=-2.466997007957D+02 EE= 1.398933454257D+02
 Leave Link  502 at Mon Sep 14 19:12:22 2015, MaxMem=  402653184 cpu:       0.3
 (Enter /share/apps/g09/l701.exe)
 Compute integral first derivatives.
 ... and contract with generalized density number  0.
 Leave Link  701 at Mon Sep 14 19:12:23 2015, MaxMem=  402653184 cpu:       0.1
 (Enter /share/apps/g09/l702.exe)
 L702 exits ... SP integral derivatives will be done elsewhere.
 Leave Link  702 at Mon Sep 14 19:12:23 2015, MaxMem=  402653184 cpu:       0.0
 (Enter /share/apps/g09/l703.exe)
 Compute integral first derivatives, UseDBF=F ICtDFT=           0.
 Integral derivatives from FoFDir, PRISM(SPDF).
 Calling FoFJK, ICntrl=      2127 FMM=F ISym2X=0 I1Cent= 0 IOpClX= 0 NMat=1 NMatS=1 NMatT=0.
 FoFCou: FMM=F IPFlag=           0 FMFlag=      100000 FMFlg1=         800
         NFxFlg=           0 DoJE=F BraDBF=F KetDBF=F FulRan=T
         Omega=  0.000000  0.000000  1.000000  0.000000  0.000000 ICntrl=    2127 IOpCl=  0
         NMat0=    1 NMatS0=    1 NMatT0=    0 NMatD0=    1 NMtDS0=    0 NMtDT0=    0
         I1Cent=           0 NGrid=           0.
 Symmetry not used in FoFCou.
 Leave Link  703 at Mon Sep 14 19:12:24 2015, MaxMem=  402653184 cpu:       0.0
 (Enter /share/apps/g09/l716.exe)
 Dipole        =-9.67354507D-04 2.11925402D-02-2.34724308D-03
 ***** Axes restored to original set *****
 -------------------------------------------------------------------
 Center     Atomic                   Forces (Hartrees/Bohr)
 Number     Number              X              Y              Z
 -------------------------------------------------------------------
      1        6           0.000774162   -0.000560044   -0.000583977
      2        1          -0.000140227    0.000905820   -0.000794440
      3        1           0.000718510   -0.000437717    0.000758052
      4        1          -0.001362686   -0.000589350    0.000631220
      5        6           0.001041338    0.001300174    0.000076045
      6        1           0.000970616   -0.000294768    0.000061216
      7        1          -0.000540141    0.000818405   -0.001002059
      8        6          -0.000029118   -0.001685071    0.000683105
      9        1           0.000066209   -0.000974326   -0.000484682
     10        1           0.000029727    0.000163618    0.001466431
     11        6          -0.001386809    0.000431887   -0.000581737
     12        1          -0.000552344    0.000905945    0.000980557
     13        1          -0.000281720    0.000419154   -0.001357517
     14        6          -0.001548809    0.000858866   -0.000270183
     15        1          -0.000073296   -0.000538991   -0.001119314
     16        1          -0.000141953    0.000019608    0.001290759
     17        6           0.001816944   -0.000928064    0.000317460
     18        1          -0.000160842   -0.000271743    0.001299021
     19        1           0.000827799    0.001238568   -0.000218715
     20        1          -0.000027358   -0.000781971   -0.001151243
 -------------------------------------------------------------------
 Cartesian Forces:  Max     0.001816944 RMS     0.000840601
 Leave Link  716 at Mon Sep 14 19:12:26 2015, MaxMem=  402653184 cpu:       0.0
 (Enter /share/apps/g09/l103.exe)

 GradGradGradGradGradGradGradGradGradGradGradGradGradGradGradGradGradGrad
 Berny optimization.
 Using GEDIIS/GDIIS optimizer.
 Internal  Forces:  Max     0.002545254 RMS     0.000659087
 Search for a local minimum.
 Step number   2 out of a maximum of  110
 All quantities printed in internal units (Hartrees-Bohrs-Radians)
 RMS Force = .65909D-03 SwitMx=.10000D-02 MixMth= 2
 Mixed Optimization -- En-DIIS/RFO-DIIS
 Update second derivatives using D2CorX and points    1    2
 DE= -2.28D-03 DEPred=-2.03D-03 R= 1.12D+00
 SS=  1.41D+00  RLast= 1.66D-01 DXNew= 5.0454D-01 4.9894D-01
 Trust test= 1.12D+00 RLast= 1.66D-01 DXMaxT set to 4.99D-01
 Use linear search instead of GDIIS.
     Eigenvalues ---    0.00290   0.00292   0.00320   0.00394   0.00416
     Eigenvalues ---    0.03448   0.03508   0.03579   0.03599   0.04469
     Eigenvalues ---    0.04792   0.04812   0.04858   0.05477   0.05486
     Eigenvalues ---    0.05537   0.05549   0.08160   0.08265   0.08343
     Eigenvalues ---    0.08493   0.12067   0.12121   0.12212   0.12294
     Eigenvalues ---    0.15384   0.16000   0.16000   0.16000   0.16000
     Eigenvalues ---    0.16046   0.20813   0.21894   0.21922   0.21987
     Eigenvalues ---    0.28088   0.28892   0.29094   0.29404   0.29610
     Eigenvalues ---    0.31778   0.32061   0.32072   0.32079   0.32086
     Eigenvalues ---    0.32095   0.32111   0.32139   0.32190   0.32202
     Eigenvalues ---    0.32206   0.32229   0.32255   0.337011000.00000
     Eigenvalues --- 1000.000001000.000001000.000001000.000001000.00000
     Eigenvalues --- 1000.000001000.000001000.000001000.000001000.00000
     Eigenvalues --- 1000.000001000.000001000.000001000.000001000.00000
     Eigenvalues --- 1000.000001000.000001000.000001000.000001000.00000
     Eigenvalues --- 1000.000001000.000001000.000001000.000001000.00000
     Eigenvalues --- 1000.000001000.000001000.000001000.000001000.00000
     Eigenvalues --- 1000.000001000.000001000.000001000.000001000.00000
     Eigenvalues --- 1000.000001000.000001000.000001000.000001000.00000
     Eigenvalues --- 1000.000001000.000001000.000001000.000001000.00000
 RFO step:  Lambda=-2.58306885D-04 EMin= 2.90344495D-03
 Quartic linear search produced a step of  0.17491.
 Iteration  1 RMS(Cart)=  0.03119497 RMS(Int)=  0.00044851
 Iteration  2 RMS(Cart)=  0.00058317 RMS(Int)=  0.00001695
 Iteration  3 RMS(Cart)=  0.00000016 RMS(Int)=  0.00001695
 Variable       Old X    -DE/DX   Delta X   Delta X   Delta X     New X
                                 (Linear)    (Quad)   (Total)
    R1        2.07362  -0.00103  -0.00540  -0.00006  -0.00546   2.06815
    R2        2.07356  -0.00092  -0.00522   0.00019  -0.00503   2.06853
    R3        2.07552  -0.00155  -0.00505  -0.00220  -0.00725   2.06827
    R4        2.88916  -0.00053   0.00026  -0.00227  -0.00201   2.88715
    R5        2.09411  -0.00021  -0.00217   0.00071  -0.00146   2.09265
    R6        2.09825  -0.00096  -0.00146  -0.00251  -0.00397   2.09429
    R7        2.89758   0.00198  -0.00081   0.00860   0.00780   2.90537
    R8        2.09303  -0.00015  -0.00253   0.00118  -0.00135   2.09168
    R9        2.09744  -0.00098  -0.00170  -0.00242  -0.00412   2.09331
   R10        2.89568   0.00207  -0.00118   0.00922   0.00803   2.90372
   R11        2.09318  -0.00054  -0.00246  -0.00031  -0.00277   2.09042
   R12        2.09361  -0.00051  -0.00216  -0.00039  -0.00255   2.09106
   R13        2.90234  -0.00024   0.00072  -0.00146  -0.00074   2.90160
   R14        2.09509  -0.00081  -0.00206  -0.00155  -0.00361   2.09148
   R15        2.09527  -0.00087  -0.00203  -0.00181  -0.00384   2.09143
   R16        2.89397  -0.00255   0.00164  -0.01115  -0.00952   2.88445
   R17        2.07434  -0.00128  -0.00534  -0.00104  -0.00638   2.06796
   R18        2.07501  -0.00146  -0.00511  -0.00184  -0.00695   2.06806
   R19        2.07456  -0.00133  -0.00533  -0.00123  -0.00656   2.06799
    A1        1.88178  -0.00075  -0.00459  -0.00378  -0.00836   1.87341
    A2        1.88157  -0.00053  -0.00268  -0.00176  -0.00450   1.87707
    A3        1.94210   0.00062   0.00255   0.00209   0.00462   1.94672
    A4        1.87710  -0.00038  -0.00213   0.00002  -0.00217   1.87493
    A5        1.94277   0.00050   0.00194   0.00221   0.00411   1.94688
    A6        1.93575   0.00045   0.00455   0.00092   0.00540   1.94116
    A7        1.90934   0.00039   0.00080   0.00354   0.00432   1.91366
    A8        1.90473   0.00016   0.00387  -0.00359   0.00029   1.90501
    A9        1.97960  -0.00092  -0.00246  -0.00102  -0.00348   1.97613
[...]
 ! D12   D(1,5,8,11)            73.3683         -DE/DX =    0.0                 !
 ! D13   D(6,5,8,9)           -172.0859         -DE/DX =    0.0                 !
 ! D14   D(6,5,8,10)            72.4476         -DE/DX =    0.0                 !
 ! D15   D(6,5,8,11)           -49.4417         -DE/DX =    0.0                 !
 ! D16   D(7,5,8,9)             72.5147         -DE/DX =    0.0                 !
 ! D17   D(7,5,8,10)           -42.9518         -DE/DX =    0.0                 !
 ! D18   D(7,5,8,11)          -164.8411         -DE/DX =    0.0                 !
 ! D19   D(5,8,11,12)           57.2476         -DE/DX =    0.0                 !
 ! D20   D(5,8,11,13)          -58.5883         -DE/DX =    0.0                 !
 ! D21   D(5,8,11,14)          179.3841         -DE/DX =    0.0                 !
 ! D22   D(9,8,11,12)          179.8291         -DE/DX =    0.0                 !
 ! D23   D(9,8,11,13)           63.9932         -DE/DX =    0.0                 !
 ! D24   D(9,8,11,14)          -58.0344         -DE/DX =    0.0                 !
 ! D25   D(10,8,11,12)         -64.3994         -DE/DX =    0.0                 !
 ! D26   D(10,8,11,13)         179.7647         -DE/DX =    0.0                 !
 ! D27   D(10,8,11,14)          57.7371         -DE/DX =    0.0                 !
 ! D28   D(8,11,14,15)          58.0672         -DE/DX =    0.0                 !
 ! D29   D(8,11,14,16)         -57.9667         -DE/DX =    0.0                 !
 ! D30   D(8,11,14,17)        -179.9582         -DE/DX =    0.0                 !
 ! D31   D(12,11,14,15)       -179.7659         -DE/DX =    0.0                 !
 ! D32   D(12,11,14,16)         64.2001         -DE/DX =    0.0                 !
 ! D33   D(12,11,14,17)        -57.7914         -DE/DX =    0.0                 !
 ! D34   D(13,11,14,15)        -63.941          -DE/DX =    0.0                 !
 ! D35   D(13,11,14,16)       -179.9749         -DE/DX =    0.0                 !
 ! D36   D(13,11,14,17)         58.0336         -DE/DX =    0.0                 !
 ! D37   D(11,14,17,18)         60.0554         -DE/DX =    0.0                 !
 ! D38   D(11,14,17,19)       -179.9958         -DE/DX =    0.0                 !
 ! D39   D(11,14,17,20)        -60.0516         -DE/DX =    0.0                 !
 ! D40   D(15,14,17,18)       -177.8868         -DE/DX =    0.0                 !
 ! D41   D(15,14,17,19)        -57.9379         -DE/DX =    0.0                 !
 ! D42   D(15,14,17,20)         62.0063         -DE/DX =    0.0                 !
 ! D43   D(16,14,17,18)        -62.0408         -DE/DX =    0.0                 !
 ! D44   D(16,14,17,19)         57.908          -DE/DX =    0.0                 !
 ! D45   D(16,14,17,20)        177.8523         -DE/DX =    0.0                 !
 --------------------------------------------------------------------------------
 GradGradGradGradGradGradGradGradGradGradGradGradGradGradGradGradGradGrad

 Largest change from initial coordinates is atom   16       0.225 Angstoms.
 Leave Link  103 at Mon Sep 14 19:14:00 2015, MaxMem=  402653184 cpu:       0.1
 (Enter /share/apps/g09/l202.exe)
                          Input orientation:                          
 ---------------------------------------------------------------------
 Center     Atomic      Atomic             Coordinates (Angstroms)
 Number     Number       Type             X           Y           Z
 ---------------------------------------------------------------------
      1          6           0        1.883197    1.840336    0.855467
      2          1           0        2.048269    1.430389    1.858159
      3          1           0        0.979414    2.458830    0.902126
      4          1           0        2.724786    2.502862    0.626424
      5          6           0        1.750128    0.733179   -0.188101
      6          1           0        1.627591    1.180569   -1.193941
      7          1           0        2.693583    0.153343   -0.230961
      8          6           0        0.585324   -0.224759    0.102013
      9          1           0        0.630695   -0.560688    1.155828
     10          1           0        0.705631   -1.139633   -0.510285
     11          6           0       -0.781782    0.410288   -0.184474
     12          1           0       -0.827056    0.749244   -1.236945
     13          1           0       -0.907510    1.323096    0.429117
     14          6           0       -1.929182   -0.569725    0.097965
     15          1           0       -1.885951   -0.905408    1.152495
     16          1           0       -1.803664   -1.483313   -0.515295
     17          6           0       -3.291860    0.058312   -0.186978
     18          1           0       -3.381875    0.368394   -1.234195
     19          1           0       -4.104076   -0.647937    0.017368
     20          1           0       -3.464362    0.945520    0.432712
 ---------------------------------------------------------------------
                    Distance matrix (angstroms):
                    1          2          3          4          5
     1  C    0.000000
     2  H    1.095763   0.000000
     3  H    1.096146   1.764693   0.000000
     4  H    1.095297   1.767780   1.767562   0.000000
     5  C    1.527265   2.182240   2.181850   2.178345   0.000000
     6  H    2.168110   3.091067   2.539209   2.503204   1.107649
     7  H    2.164024   2.532134   3.088290   2.501265   1.108221
     8  C    2.552800   2.822016   2.827921   3.506027   1.535767
     9  H    2.724683   2.543064   3.050158   3.748444   2.175631
    10  H    3.483125   3.743958   3.875410   4.317044   2.168456
    11  C    3.198222   3.636227   2.911879   4.163226   2.552419
    12  H    3.593625   4.279150   3.280494   4.377546   2.782483
    13  H    2.870079   3.284859   2.252578   3.824180   2.791416
    14  C    4.573449   4.787364   4.275365   5.601739   3.913658
    15  H    4.672667   4.629471   4.426183   5.757774   4.207522
    16  H    5.149619   5.381480   5.029423   6.140031   4.201111
    17  C    5.571670   5.880660   5.019205   6.545035   5.086953
    18  H    5.852716   6.338529   5.287214   6.731209   5.250223
    19  H    6.537686   6.749763   6.023011   7.545319   6.018422
    20  H    5.438364   5.714551   4.717796   6.385014   5.255607
                    6          7          8          9         10
     6  H    0.000000
     7  H    1.766031   0.000000
     8  C    2.177330   2.167623   0.000000
     9  H    3.089854   2.586220   1.106993   0.000000
    10  H    2.588578   2.387836   1.107419   1.765425   0.000000
    11  C    2.723497   3.485161   1.534385   2.175844   2.172742
    12  H    2.492626   3.709717   2.176306   3.092948   2.538705
    13  H    3.013531   3.843423   2.175180   2.538273   3.090265
    14  C    4.169315   4.690520   2.538062   2.769861   2.763514
    15  H    4.711904   4.899698   2.770198   2.540148   3.088042
    16  H    4.396628   4.794238   2.769890   3.093541   2.532726
    17  C    5.145331   5.986359   3.898230   4.191984   4.185635
    18  H    5.075037   6.161487   4.227996   4.761946   4.416549
    19  H    6.136995   6.849225   4.709216   4.870499   4.863483
    20  H    5.350629   6.244061   4.228341   4.422788   4.756674
                   11         12         13         14         15
    11  C    0.000000
    12  H    1.106633   0.000000
    13  H    1.107033   1.763957   0.000000
    14  C    1.535162   2.176315   2.176292   0.000000
    15  H    2.176633   3.093309   2.539066   1.107513   0.000000
    16  H    2.177018   2.541428   3.093694   1.107469   1.766995
    17  C    2.534637   2.766781   2.768461   1.527256   2.167838
    18  H    2.804310   2.583052   3.130583   2.182896   3.091383
    19  H    3.492594   3.776808   3.777902   2.177791   2.504971
    20  H    2.804216   3.127564   2.584583   2.182841   2.536809
                   16         17         18         19         20
    16  H    0.000000
    17  C    2.167747   0.000000
    18  H    2.537004   1.095864   0.000000
    19  H    2.504692   1.095554   1.766610   0.000000
    20  H    3.091256   1.095861   1.765915   1.766592   0.000000
 Stoichiometry    C6H14
 Framework group  C1[X(C6H14)]
 Deg. of freedom    54
 Full point group                 C1      NOp   1
 Largest Abelian subgroup         C1      NOp   1
 Largest concise Abelian subgroup C1      NOp   1
                         Standard orientation:                         
 ---------------------------------------------------------------------
 Center     Atomic      Atomic             Coordinates (Angstroms)
 Number     Number       Type             X           Y           Z
 ---------------------------------------------------------------------
      1          6           0       -2.586150    0.857128   -0.258401
      2          1           0       -2.731262    0.719780   -1.335794
      3          1           0       -1.908252    1.708567   -0.127865
      4          1           0       -3.553523    1.136642    0.172568
      5          6           0       -2.031483   -0.405334    0.398161
      6          1           0       -1.937288   -0.247862    1.490506
      7          1           0       -2.758654   -1.232693    0.276286
      8          6           0       -0.677987   -0.837078   -0.185128
      9          1           0       -0.735785   -0.856034   -1.290449
     10          1           0       -0.465231   -1.879449    0.122402
     11          6           0        0.471381    0.076121    0.261368
     12          1           0        0.528075    0.098181    1.366327
     13          1           0        0.264243    1.118640   -0.048097
     14          6           0        1.815457   -0.383183   -0.321062
     15          1           0        1.759551   -0.401058   -1.427019
     16          1           0        2.022983   -1.426253   -0.012152
     17          6           0        2.962460    0.522732    0.121898
     18          1           0        3.069488    0.533727    1.212467
     19          1           0        3.917028    0.187482   -0.298395
     20          1           0        2.806562    1.558023   -0.201798
 ---------------------------------------------------------------------
 Rotational constants (GHZ):      8.7201233      1.3433672      1.2613742
 Leave Link  202 at Mon Sep 14 19:14:00 2015, MaxMem=  402653184 cpu:       0.0
 (Enter /share/apps/g09/l601.exe)
 Copying SCF densities to generalized density rwf, IOpCl= 0 IROHF=0.

 **********************************************************************

            Population analysis using the SCF density.

 **********************************************************************

 Orbital symmetries:
       Occupied  (A) (A) (A) (A) (A) (A) (A) (A) (A) (A) (A) (A)
                 (A) (A) (A) (A) (A) (A) (A)
       Virtual   (A) (A) (A) (A) (A) (A) (A) (A) (A) (A) (A) (A)
                 (A) (A) (A) (A) (A) (A) (A)
 The electronic state is 1-A.
 Alpha  occ. eigenvalues --   -1.05608  -1.00007  -0.90946  -0.82319  -0.74682
 Alpha  occ. eigenvalues --   -0.72445  -0.59227  -0.56599  -0.54558  -0.51884
 Alpha  occ. eigenvalues --   -0.51560  -0.48743  -0.46901  -0.45624  -0.44065
 Alpha  occ. eigenvalues --   -0.42743  -0.41696  -0.40823  -0.40364
 Alpha virt. eigenvalues --    0.15266   0.15857   0.16863   0.17536   0.18484
 Alpha virt. eigenvalues --    0.20532   0.21137   0.21651   0.22087   0.22232
 Alpha virt. eigenvalues --    0.22768   0.22980   0.23596   0.24092   0.24463
 Alpha virt. eigenvalues --    0.24687   0.24960   0.25613   0.25898
          Condensed to atoms (all electrons):
              1          2          3          4          5          6
     1  C    4.459663   0.000000   0.000000   0.000000   0.000000   0.000000
     2  H    0.000000   0.854333   0.000000   0.000000   0.000000   0.000000
     3  H    0.000000   0.000000   0.852744   0.000000   0.000000   0.000000
     4  H    0.000000   0.000000   0.000000   0.858431   0.000000   0.000000
     5  C    0.000000   0.000000   0.000000   0.000000   4.220344   0.000000
     6  H    0.000000   0.000000   0.000000   0.000000   0.000000   0.873454
     7  H    0.000000   0.000000   0.000000   0.000000   0.000000   0.000000
     8  C    0.000000   0.000000   0.000000   0.000000   0.000000   0.000000
     9  H    0.000000   0.000000   0.000000   0.000000   0.000000   0.000000
    10  H    0.000000   0.000000   0.000000   0.000000   0.000000   0.000000
    11  C    0.000000   0.000000   0.000000   0.000000   0.000000   0.000000
    12  H    0.000000   0.000000   0.000000   0.000000   0.000000   0.000000
    13  H    0.000000   0.000000   0.000000   0.000000   0.000000   0.000000
    14  C    0.000000   0.000000   0.000000   0.000000   0.000000   0.000000
    15  H    0.000000   0.000000   0.000000   0.000000   0.000000   0.000000
    16  H    0.000000   0.000000   0.000000   0.000000   0.000000   0.000000
    17  C    0.000000   0.000000   0.000000   0.000000   0.000000   0.000000
    18  H    0.000000   0.000000   0.000000   0.000000   0.000000   0.000000
    19  H    0.000000   0.000000   0.000000   0.000000   0.000000   0.000000
    20  H    0.000000   0.000000   0.000000   0.000000   0.000000   0.000000
              7          8          9         10         11         12
     1  C    0.000000   0.000000   0.000000   0.000000   0.000000   0.000000
     2  H    0.000000   0.000000   0.000000   0.000000   0.000000   0.000000
     3  H    0.000000   0.000000   0.000000   0.000000   0.000000   0.000000
     4  H    0.000000   0.000000   0.000000   0.000000   0.000000   0.000000
     5  C    0.000000   0.000000   0.000000   0.000000   0.000000   0.000000
     6  H    0.000000   0.000000   0.000000   0.000000   0.000000   0.000000
     7  H    0.877549   0.000000   0.000000   0.000000   0.000000   0.000000
     8  C    0.000000   4.266597   0.000000   0.000000   0.000000   0.000000
     9  H    0.000000   0.000000   0.867274   0.000000   0.000000   0.000000
    10  H    0.000000   0.000000   0.000000   0.873047   0.000000   0.000000
    11  C    0.000000   0.000000   0.000000   0.000000   4.259830   0.000000
    12  H    0.000000   0.000000   0.000000   0.000000   0.000000   0.869382
    13  H    0.000000   0.000000   0.000000   0.000000   0.000000   0.000000
    14  C    0.000000   0.000000   0.000000   0.000000   0.000000   0.000000
    15  H    0.000000   0.000000   0.000000   0.000000   0.000000   0.000000
    16  H    0.000000   0.000000   0.000000   0.000000   0.000000   0.000000
    17  C    0.000000   0.000000   0.000000   0.000000   0.000000   0.000000
    18  H    0.000000   0.000000   0.000000   0.000000   0.000000   0.000000
    19  H    0.000000   0.000000   0.000000   0.000000   0.000000   0.000000
    20  H    0.000000   0.000000   0.000000   0.000000   0.000000   0.000000
             13         14         15         16         17         18
     1  C    0.000000   0.000000   0.000000   0.000000   0.000000   0.000000
     2  H    0.000000   0.000000   0.000000   0.000000   0.000000   0.000000
     3  H    0.000000   0.000000   0.000000   0.000000   0.000000   0.000000
     4  H    0.000000   0.000000   0.000000   0.000000   0.000000   0.000000
     5  C    0.000000   0.000000   0.000000   0.000000   0.000000   0.000000
     6  H    0.000000   0.000000   0.000000   0.000000   0.000000   0.000000
     7  H    0.000000   0.000000   0.000000   0.000000   0.000000   0.000000
     8  C    0.000000   0.000000   0.000000   0.000000   0.000000   0.000000
     9  H    0.000000   0.000000   0.000000   0.000000   0.000000   0.000000
    10  H    0.000000   0.000000   0.000000   0.000000   0.000000   0.000000
    11  C    0.000000   0.000000   0.000000   0.000000   0.000000   0.000000
    12  H    0.000000   0.000000   0.000000   0.000000   0.000000   0.000000
    13  H    0.866834   0.000000   0.000000   0.000000   0.000000   0.000000
    14  C    0.000000   4.224037   0.000000   0.000000   0.000000   0.000000
    15  H    0.000000   0.000000   0.874237   0.000000   0.000000   0.000000
    16  H    0.000000   0.000000   0.000000   0.874710   0.000000   0.000000
    17  C    0.000000   0.000000   0.000000   0.000000   4.463672   0.000000
    18  H    0.000000   0.000000   0.000000   0.000000   0.000000   0.853709
    19  H    0.000000   0.000000   0.000000   0.000000   0.000000   0.000000
    20  H    0.000000   0.000000   0.000000   0.000000   0.000000   0.000000
             19         20
     1  C    0.000000   0.000000
     2  H    0.000000   0.000000
     3  H    0.000000   0.000000
     4  H    0.000000   0.000000
     5  C    0.000000   0.000000
     6  H    0.000000   0.000000
     7  H    0.000000   0.000000
     8  C    0.000000   0.000000
     9  H    0.000000   0.000000
    10  H    0.000000   0.000000
    11  C    0.000000   0.000000
    12  H    0.000000   0.000000
    13  H    0.000000   0.000000
    14  C    0.000000   0.000000
    15  H    0.000000   0.000000
    16  H    0.000000   0.000000
    17  C    0.000000   0.000000
    18  H    0.000000   0.000000
    19  H    0.856434   0.000000
    20  H    0.000000   0.853719
 Mulliken atomic charges:
              1
     1  C   -0.459663
     2  H    0.145667
     3  H    0.147256
     4  H    0.141569
     5  C   -0.220344
     6  H    0.126546
     7  H    0.122451
     8  C   -0.266597
     9  H    0.132726
    10  H    0.126953
    11  C   -0.259830
    12  H    0.130618
    13  H    0.133166
    14  C   -0.224037
    15  H    0.125763
    16  H    0.125290
    17  C   -0.463672
    18  H    0.146291
    19  H    0.143566
    20  H    0.146281
 Sum of Mulliken atomic charges =   0.00000
 Mulliken charges with hydrogens summed into heavy atoms:
              1
     1  C   -0.025171
     5  C    0.028653
     8  C   -0.006917
    11  C    0.003953
    14  C    0.027016
    17  C   -0.027534
 Sum of Mulliken charges with hydrogens summed into heavy atoms =   0.00000
 Charge=              0.0000 electrons
 Dipole moment (field-independent basis, Debye):
    X=              0.0069    Y=              0.0669    Z=             -0.0067  Tot=              0.0676
 N-N= 1.627610905321D+02 E-N=-2.465295667642D+02  KE=-5.608938490824D+01
 Leave Link  601 at Mon Sep 14 19:14:00 2015, MaxMem=  402653184 cpu:       0.0
 (Enter /share/apps/g09/l9999.exe)
 1\1\GINC-COMPUTE-0-12\FOpt\RPM6\ZDO\C6H14\HETANJIN\14-Sep-2015\0\\#p P
 M6 opt\\using PM6 to do opt and freq calc.\\0,1\C,1.8831965002,1.84033
 64708,0.8554668286\H,2.0482688408,1.4303893455,1.8581590908\H,0.979413
 5956,2.4588301239,0.9021264976\H,2.7247864965,2.5028622867,0.626424416
 \C,1.7501282503,0.7331794052,-0.18810148\H,1.6275907139,1.1805693582,-
 1.1939411645\H,2.6935831745,0.1533431314,-0.2309612639\C,0.5853238489,
 -0.2247590647,0.1020127892\H,0.6306953713,-0.5606884157,1.1558282312\H
 ,0.7056314564,-1.1396333048,-0.5102852797\C,-0.7817818788,0.4102875909
 ,-0.1844739452\H,-0.8270562547,0.7492444788,-1.2369450935\H,-0.9075099
 605,1.3230963697,0.4291172874\C,-1.9291823388,-0.5697245405,0.09796530
 91\H,-1.8859514087,-0.9054079264,1.1524952429\H,-1.803663566,-1.483313
 1463,-0.5152951972\C,-3.2918598595,0.0583115505,-0.1869778637\H,-3.381
 8753225,0.3683937152,-1.2341947262\H,-4.1040757407,-0.6479370173,0.017
 3684392\H,-3.4643619181,0.945519589,0.4327118818\\Version=EM64L-G09Rev
 A.01\State=1-A\HF=-0.0563432\RMSD=1.715e-09\RMSF=7.954e-06\Dipole=-0.0
 106587,0.0223335,0.0097138\PG=C01 [X(C6H14)]\\@


 Some scientists claim that hydrogen, because it is so
 plentiful, is the basic building block of the universe. 
 I dispute that. I say that stupidity is far more
 abundant than hydrogen, and THAT is the basic building 
 block of the universe.
                   --Frank Zappa
 Job cpu time:  0 days  0 hours  0 minutes 20.9 seconds.
 File lengths (MBytes):  RWF=      5 Int=      0 D2E=      0 Chk=      3 Scr=      1
 Normal termination of Gaussian 09 at Mon Sep 14 19:14:03 2015.
