 Entering Gaussian System, Link 0=/share/apps/g09/g09
 Input=C6H14_5_02_1_opt_PM6.gjf
 Output=C6H14_5_02_1_opt_PM6.log
 Initial command:
 /share/apps/g09/l1.exe /state/partition1/Gau-11023.inp -scrdir=/state/partition1/
 Entering Link 1 = /share/apps/g09/l1.exe PID=     11035.
  
 Copyright (c) 1988,1990,1992,1993,1995,1998,2003,2009, Gaussian, Inc.
                  All Rights Reserved.
  
 This is part of the Gaussian(R) 09 program.  It is based on
 the Gaussian(R) 03 system (copyright 2003, Gaussian, Inc.),
 the Gaussian(R) 98 system (copyright 1998, Gaussian, Inc.),
 the Gaussian(R) 94 system (copyright 1995, Gaussian, Inc.),
 the Gaussian 92(TM) system (copyright 1992, Gaussian, Inc.),
 the Gaussian 90(TM) system (copyright 1990, Gaussian, Inc.),
 the Gaussian 88(TM) system (copyright 1988, Gaussian, Inc.),
 the Gaussian 86(TM) system (copyright 1986, Carnegie Mellon
 University), and the Gaussian 82(TM) system (copyright 1983,
 Carnegie Mellon University). Gaussian is a federally registered
 trademark of Gaussian, Inc.
  
 This software contains proprietary and confidential information,
 including trade secrets, belonging to Gaussian, Inc.
  
 This software is provided under written license and may be
 used, copied, transmitted, or stored only in accord with that
 written license.
  
 The following legend is applicable only to US Government
 contracts under FAR:
  
                    RESTRICTED RIGHTS LEGEND
  
 Use, reproduction and disclosure by the US Government is
 subject to restrictions as set forth in subparagraphs (a)
 and (c) of the Commercial Computer Software - Restricted
 Rights clause in FAR 52.227-19.
  
 Gaussian, Inc.
 340 Quinnipiac St., Bldg. 40, Wallingford CT 06492
  
  
 ---------------------------------------------------------------
 Warning -- This program may not be used in any manner that
 competes with the business of Gaussian, Inc. or will provide
 assistance to any competitor of Gaussian, Inc.  The licensee
 of this program is prohibited from giving any competitor of
 Gaussian, Inc. access to this program.  By using this program,
 the user acknowledges that Gaussian, Inc. is engaged in the
 business of creating and licensing software in the field of
 computational chemistry and represents and warrants to the
 licensee that it is not a competitor of Gaussian, Inc. and that
 it will not use this program in any manner prohibited above.
 ---------------------------------------------------------------
  

 Cite this work as:
 Gaussian 09, Revision A.01,
 M. J. Frisch, G. W. Trucks, H. B. Schlegel, G. E. Scuseria, 
 M. A. Robb, J. R. Cheeseman, G. Scalmani, V. Barone, B. Mennucci, 
 G. A. Petersson, H. Nakatsuji, M. Caricato, X. Li, H. P. Hratchian, 
 A. F. Izmaylov, J. Bloino, G. Zheng, J. L. Sonnenberg, M. Hada, 
 M. Ehara, K. Toyota, R. Fukuda, J. Hasegawa, M. Ishida, T. Nakajima, 
 Y. Honda, O. Kitao, H. Nakai, T. Vreven, J. A. Montgomery, Jr., 
 J. E. Peralta, F. Ogliaro, M. Bearpark, J. J. Heyd, E. Brothers, 
 K. N. Kudin, V. N. Staroverov, R. Kobayashi, J. Normand, 
 K. Raghavachari, A. Rendell, J. C. Burant, S. S. Iyengar, J. Tomasi, 
 M. Cossi, N. Rega, J. M. Millam, M. Klene, J. E. Knox, J. B. Cross, 
 V. Bakken, C. Adamo, J. Jaramillo, R. Gomperts, R. E. Stratmann, 
 O. Yazyev, A. J. Austin, R. Cammi, C. Pomelli, J. W. Ochterski, 
 R. L. Martin, K. Morokuma, V. G. Zakrzewski, G. A. Voth, 
 P. Salvador, J. J. Dannenberg, S. Dapprich, A. D. Daniels, 
 O. Farkas, J. B. Foresman, J. V. Ortiz, J. Cioslowski, 
 and D. J. Fox, Gaussian, Inc., Wallingford CT, 2009.
 
 ******************************************
 Gaussian 09:  EM64L-G09RevA.01  8-May-2009
                14-Sep-2015 
 ******************************************
 %mem=3GB
 %nprocshared=2
 Will use up to    2 processors via shared memory.
 %chk=C6H14_5_02_1_opt_PM6.chk
 ----------
 #p PM6 opt
 ----------
 1/14=-1,18=20,19=15,26=1,38=1/1,3;
 2/9=110,12=2,17=6,18=5,40=1/2;
 3/5=2,16=1,25=1,41=3900000,71=1/1,2,3;
 4/35=1/1;
 5/5=2,35=1,38=5/2;
 6/7=2,8=2,9=2,10=2,28=1/1;
 7//1,2,3,16;
 1/14=-1,18=20,19=15/3(2);
 2/9=110/2;
 99//99;
 2/9=110/2;
 3/5=2,16=1,25=1,41=3900000,71=1,135=20/1,2,3;
 4/5=5,16=3,35=1/1;
 5/5=2,35=1,38=5/2;
 7//1,2,3,16;
 1/14=-1,18=20,19=15/3(-5);
 2/9=110/2;
 6/7=2,8=2,9=2,10=2,19=2,28=1/1;
 99/9=1/99;
 Leave Link    1 at Mon Sep 14 19:12:23 2015, MaxMem=  402653184 cpu:       0.1
 (Enter /share/apps/g09/l101.exe)
 ----------------------------------
 using PM6 to do opt and freq calc.
 ----------------------------------
 Symbolic Z-matrix:
 Charge =  0 Multiplicity = 1
 C                     0.75     -0.2653   -1.4299 
 H                     0.7904    0.7113   -1.9651 
 H                    -0.0134   -0.906    -1.9262 
 H                     1.7377   -0.7682   -1.5476 
 C                     0.4165   -0.0552    0.064 
 C                    -0.8832    0.7841    0.2434 
 H                    -0.7377    1.7869   -0.2235 
 H                    -1.0613    0.9533    1.3316 
 C                    -2.1742    0.1997   -0.3394 
 H                    -2.419    -0.7782    0.1307 
 H                    -3.016     0.8999   -0.1357 
 H                    -2.0929    0.0713   -1.4414 
 C                     0.3      -1.4288    0.7617 
 H                     0.015    -1.3037    1.8317 
 H                    -0.466    -2.0677    0.2671 
 H                     1.2701   -1.9762    0.7213 
 C                     1.5824    0.7234    0.7169 
 H                     2.5419    0.1647    0.6183 
 H                     1.7134    1.7192    0.2334 
 H                     1.3902    0.8874    1.8025 
 
 NAtoms=     20 NQM=     20 NQMF=      0 NMic=      0 NMicF=      0 NTot=     20.
                    Isotopes and Nuclear Properties:
 (Nuclear quadrupole moments (NQMom) in fm**2, nuclear magnetic moments (NMagM)
  in nuclear magnetons)

  Atom         1           2           3           4           5           6           7           8           9          10
 IAtWgt=          12           1           1           1          12          12           1           1          12           1
 AtmWgt=  12.0000000   1.0078250   1.0078250   1.0078250  12.0000000  12.0000000   1.0078250   1.0078250  12.0000000   1.0078250
 NucSpn=           0           1           1           1           0           0           1           1           0           1
 AtZEff=   0.0000000   0.0000000   0.0000000   0.0000000   0.0000000   0.0000000   0.0000000   0.0000000   0.0000000   0.0000000
 NQMom=    0.0000000   0.0000000   0.0000000   0.0000000   0.0000000   0.0000000   0.0000000   0.0000000   0.0000000   0.0000000
 NMagM=    0.0000000   2.7928460   2.7928460   2.7928460   0.0000000   0.0000000   2.7928460   2.7928460   0.0000000   2.7928460

  Atom        11          12          13          14          15          16          17          18          19          20
 IAtWgt=           1           1          12           1           1           1          12           1           1           1
 AtmWgt=   1.0078250   1.0078250  12.0000000   1.0078250   1.0078250   1.0078250  12.0000000   1.0078250   1.0078250   1.0078250
 NucSpn=           1           1           0           1           1           1           0           1           1           1
 AtZEff=   0.0000000   0.0000000   0.0000000   0.0000000   0.0000000   0.0000000   0.0000000   0.0000000   0.0000000   0.0000000
 NQMom=    0.0000000   0.0000000   0.0000000   0.0000000   0.0000000   0.0000000   0.0000000   0.0000000   0.0000000   0.0000000
 NMagM=    2.7928460   2.7928460   0.0000000   2.7928460   2.7928460   2.7928460   0.0000000   2.7928460   2.7928460   2.7928460
 Leave Link  101 at Mon Sep 14 19:12:28 2015, MaxMem=  402653184 cpu:       0.2
 (Enter /share/apps/g09/l103.exe)

 GradGradGradGradGradGradGradGradGradGradGradGradGradGradGradGradGradGrad
 Berny optimization.
 Initialization pass.
                           ----------------------------
                           !    Initial Parameters    !
                           ! (Angstroms and Degrees)  !
 --------------------------                            --------------------------
 ! Name  Definition              Value          Derivative Info.                !
 --------------------------------------------------------------------------------
 ! R1    R(1,2)                  1.1144         estimate D2E/DX2                !
 ! R2    R(1,3)                  1.1134         estimate D2E/DX2                !
 ! R3    R(1,4)                  1.1146         estimate D2E/DX2                !
 ! R4    R(1,5)                  1.545          estimate D2E/DX2                !
 ! R5    R(5,6)                  1.5575         estimate D2E/DX2                !
 ! R6    R(5,13)                 1.545          estimate D2E/DX2                !
 ! R7    R(5,17)                 1.5466         estimate D2E/DX2                !
 ! R8    R(6,7)                  1.1157         estimate D2E/DX2                !
 ! R9    R(6,8)                  1.1156         estimate D2E/DX2                !
 ! R10   R(6,9)                  1.5323         estimate D2E/DX2                !
 ! R11   R(9,10)                 1.1123         estimate D2E/DX2                !
 ! R12   R(9,11)                 1.1137         estimate D2E/DX2                !
 ! R13   R(9,12)                 1.1124         estimate D2E/DX2                !
 ! R14   R(13,14)                1.1143         estimate D2E/DX2                !
 ! R15   R(13,15)                1.1134         estimate D2E/DX2                !
 ! R16   R(13,16)                1.1146         estimate D2E/DX2                !
 ! R17   R(17,18)                1.1147         estimate D2E/DX2                !
 ! R18   R(17,19)                1.1147         estimate D2E/DX2                !
 ! R19   R(17,20)                1.1146         estimate D2E/DX2                !
 ! A1    A(2,1,3)              108.366          estimate D2E/DX2                !
 ! A2    A(2,1,4)              108.2143         estimate D2E/DX2                !
 ! A3    A(2,1,5)              110.6729         estimate D2E/DX2                !
 ! A4    A(3,1,4)              107.511          estimate D2E/DX2                !
 ! A5    A(3,1,5)              111.1778         estimate D2E/DX2                !
 ! A6    A(4,1,5)              110.7776         estimate D2E/DX2                !
 ! A7    A(1,5,6)              111.3938         estimate D2E/DX2                !
 ! A8    A(1,5,13)             109.391          estimate D2E/DX2                !
 ! A9    A(1,5,17)             108.2962         estimate D2E/DX2                !
 ! A10   A(6,5,13)             111.355          estimate D2E/DX2                !
 ! A11   A(6,5,17)             108.0091         estimate D2E/DX2                !
 ! A12   A(13,5,17)            108.2875         estimate D2E/DX2                !
 ! A13   A(5,6,7)              109.1061         estimate D2E/DX2                !
 ! A14   A(5,6,8)              109.1055         estimate D2E/DX2                !
 ! A15   A(5,6,9)              116.9841         estimate D2E/DX2                !
 ! A16   A(7,6,8)              107.0202         estimate D2E/DX2                !
 ! A17   A(7,6,9)              107.0681         estimate D2E/DX2                !
 ! A18   A(8,6,9)              107.1186         estimate D2E/DX2                !
 ! A19   A(6,9,10)             111.0996         estimate D2E/DX2                !
 ! A20   A(6,9,11)             109.1156         estimate D2E/DX2                !
 ! A21   A(6,9,12)             111.0529         estimate D2E/DX2                !
 ! A22   A(10,9,11)            108.004          estimate D2E/DX2                !
 ! A23   A(10,9,12)            109.4682         estimate D2E/DX2                !
 ! A24   A(11,9,12)            107.9983         estimate D2E/DX2                !
 ! A25   A(5,13,14)            110.6759         estimate D2E/DX2                !
 ! A26   A(5,13,15)            111.1889         estimate D2E/DX2                !
 ! A27   A(5,13,16)            110.7703         estimate D2E/DX2                !
 ! A28   A(14,13,15)           108.362          estimate D2E/DX2                !
 ! A29   A(14,13,16)           108.2118         estimate D2E/DX2                !
 ! A30   A(15,13,16)           107.5103         estimate D2E/DX2                !
 ! A31   A(5,17,18)            111.0537         estimate D2E/DX2                !
 ! A32   A(5,17,19)            110.8072         estimate D2E/DX2                !
 ! A33   A(5,17,20)            110.8091         estimate D2E/DX2                !
 ! A34   A(18,17,19)           107.9526         estimate D2E/DX2                !
 ! A35   A(18,17,20)           107.9587         estimate D2E/DX2                !
 ! A36   A(19,17,20)           108.1365         estimate D2E/DX2                !
 ! D1    D(2,1,5,6)             53.722          estimate D2E/DX2                !
 ! D2    D(2,1,5,13)           177.2612         estimate D2E/DX2                !
 ! D3    D(2,1,5,17)           -64.9153         estimate D2E/DX2                !
 ! D4    D(3,1,5,6)            -66.7655         estimate D2E/DX2                !
 ! D5    D(3,1,5,13)            56.7737         estimate D2E/DX2                !
 ! D6    D(3,1,5,17)           174.5972         estimate D2E/DX2                !
 ! D7    D(4,1,5,6)            173.7543         estimate D2E/DX2                !
 ! D8    D(4,1,5,13)           -62.7066         estimate D2E/DX2                !
 ! D9    D(4,1,5,17)            55.1169         estimate D2E/DX2                !
 ! D10   D(1,5,6,7)            -60.7449         estimate D2E/DX2                !
 ! D11   D(1,5,6,8)           -177.3488         estimate D2E/DX2                !
 ! D12   D(1,5,6,9)             60.9197         estimate D2E/DX2                !
 ! D13   D(13,5,6,7)           176.84           estimate D2E/DX2                !
 ! D14   D(13,5,6,8)            60.2361         estimate D2E/DX2                !
 ! D15   D(13,5,6,9)           -61.4953         estimate D2E/DX2                !
 ! D16   D(17,5,6,7)            58.0642         estimate D2E/DX2                !
 ! D17   D(17,5,6,8)           -58.5397         estimate D2E/DX2                !
 ! D18   D(17,5,6,9)           179.7289         estimate D2E/DX2                !
 ! D19   D(1,5,13,14)         -177.4874         estimate D2E/DX2                !
 ! D20   D(1,5,13,15)          -56.9956         estimate D2E/DX2                !
 ! D21   D(1,5,13,16)           62.4863         estimate D2E/DX2                !
 ! D22   D(6,5,13,14)          -53.9253         estimate D2E/DX2                !
 ! D23   D(6,5,13,15)           66.5665         estimate D2E/DX2                !
 ! D24   D(6,5,13,16)         -173.9516         estimate D2E/DX2                !
 ! D25   D(17,5,13,14)          64.6837         estimate D2E/DX2                !
 ! D26   D(17,5,13,15)        -174.8245         estimate D2E/DX2                !
 ! D27   D(17,5,13,16)         -55.3426         estimate D2E/DX2                !
 ! D28   D(1,5,17,18)          -59.3079         estimate D2E/DX2                !
 ! D29   D(1,5,17,19)           60.6658         estimate D2E/DX2                !
 ! D30   D(1,5,17,20)         -179.2906         estimate D2E/DX2                !
 ! D31   D(6,5,17,18)          179.9295         estimate D2E/DX2                !
 ! D32   D(6,5,17,19)          -60.0968         estimate D2E/DX2                !
 ! D33   D(6,5,17,20)           59.9468         estimate D2E/DX2                !
 ! D34   D(13,5,17,18)          59.2184         estimate D2E/DX2                !
 ! D35   D(13,5,17,19)         179.1922         estimate D2E/DX2                !
 ! D36   D(13,5,17,20)         -60.7642         estimate D2E/DX2                !
 ! D37   D(5,6,9,10)            60.8656         estimate D2E/DX2                !
 ! D38   D(5,6,9,11)           179.8363         estimate D2E/DX2                !
 ! D39   D(5,6,9,12)           -61.2285         estimate D2E/DX2                !
 ! D40   D(7,6,9,10)          -176.4124         estimate D2E/DX2                !
 ! D41   D(7,6,9,11)           -57.4418         estimate D2E/DX2                !
 ! D42   D(7,6,9,12)            61.4934         estimate D2E/DX2                !
 ! D43   D(8,6,9,10)           -61.8961         estimate D2E/DX2                !
 ! D44   D(8,6,9,11)            57.0746         estimate D2E/DX2                !
 ! D45   D(8,6,9,12)           176.0098         estimate D2E/DX2                !
 --------------------------------------------------------------------------------
 Trust Radius=3.00D-01 FncErr=1.00D-07 GrdErr=1.00D-07
 Number of steps in this run= 110 maximum allowed number of steps= 120.
 GradGradGradGradGradGradGradGradGradGradGradGradGradGradGradGradGradGrad

 Leave Link  103 at Mon Sep 14 19:12:30 2015, MaxMem=  402653184 cpu:       0.0
 (Enter /share/apps/g09/l202.exe)
                          Input orientation:                          
 ---------------------------------------------------------------------
 Center     Atomic      Atomic             Coordinates (Angstroms)
 Number     Number       Type             X           Y           Z
 ---------------------------------------------------------------------
      1          6           0        0.750000   -0.265300   -1.429900
      2          1           0        0.790400    0.711300   -1.965100
      3          1           0       -0.013400   -0.906000   -1.926200
      4          1           0        1.737700   -0.768200   -1.547600
      5          6           0        0.416500   -0.055200    0.064000
      6          6           0       -0.883200    0.784100    0.243400
      7          1           0       -0.737700    1.786900   -0.223500
      8          1           0       -1.061300    0.953300    1.331600
      9          6           0       -2.174200    0.199700   -0.339400
     10          1           0       -2.419000   -0.778200    0.130700
     11          1           0       -3.016000    0.899900   -0.135700
     12          1           0       -2.092900    0.071300   -1.441400
     13          6           0        0.300000   -1.428800    0.761700
     14          1           0        0.015000   -1.303700    1.831700
     15          1           0       -0.466000   -2.067700    0.267100
     16          1           0        1.270100   -1.976200    0.721300
     17          6           0        1.582400    0.723400    0.716900
     18          1           0        2.541900    0.164700    0.618300
     19          1           0        1.713400    1.719200    0.233400
     20          1           0        1.390200    0.887400    1.802500
 ---------------------------------------------------------------------
                    Distance matrix (angstroms):
                    1          2          3          4          5
     1  C    0.000000
     2  H    1.114369   0.000000
     3  H    1.113369   1.806451   0.000000
     4  H    1.114591   1.805714   1.796852   0.000000
     5  C    1.545025   2.201038   2.206710   2.202542   0.000000
     6  C    2.562912   2.771950   2.884468   3.533615   1.557507
     7  H    2.807165   2.554442   3.267340   3.795969   2.192753
     8  H    3.520181   3.788877   3.894657   4.368954   2.192664
     9  C    3.155370   3.419574   2.899925   4.207082   2.634280
    10  H    3.569468   4.112327   3.167662   4.482739   2.926984
    11  H    4.149145   4.227405   3.934815   5.231987   3.568494
    12  H    2.862781   2.999547   2.348290   3.922950   2.929048
    13  C    2.521774   3.500851   2.756147   2.799329   1.545035
    14  H    3.500933   4.367741   3.778992   3.830682   2.201072
    15  H    2.758099   3.779431   2.522887   3.136579   2.206856
    16  H    2.797382   3.830080   3.130808   2.612627   2.202480
    17  C    2.505827   2.796522   3.491060   2.716054   1.546551
    18  H    2.755164   3.168672   3.761707   2.491619   2.207471
    19  H    2.762779   2.588666   3.812792   3.059364   2.204346
    20  H    3.490986   3.819107   4.369162   3.752990   2.204307
                    6          7          8          9         10
     6  C    0.000000
     7  H    1.115694   0.000000
     8  H    1.115584   1.793862   0.000000
     9  C    1.532273   2.143868   2.144458   0.000000
    10  H    2.193665   3.087388   2.506711   1.112299   0.000000
    11  H    2.169323   2.446452   2.444723   1.113733   1.800944
    12  H    2.193173   2.502625   3.087337   1.112430   1.816450
    13  C    2.562328   3.519683   2.802200   3.160079   2.866078
    14  H    2.772791   3.787111   2.550014   3.430231   3.015611
    15  H    2.882253   3.895183   3.257911   2.902911   2.344275
    16  H    3.533319   4.368619   3.793397   4.209849   3.923451
    17  C    2.511388   2.719972   2.723942   3.937267   4.313889
    18  H    3.500788   3.754456   3.756825   4.812485   5.073198
    19  H    2.759863   2.494240   3.080845   4.213124   4.829522
    20  H    2.758589   3.072741   2.497187   4.214928   4.480976
                   11         12         13         14         15
    11  H    0.000000
    12  H    1.800984   0.000000
    13  C    4.150184   3.581888   0.000000
    14  H    4.232432   4.128807   1.114350   0.000000
    15  H    3.933370   3.184509   1.113364   1.806386   0.000000
    16  H    5.232309   4.492137   1.114618   1.805691   1.796862
    17  C    4.680103   4.311766   2.505698   2.794397   3.491203
    18  H    5.656791   5.072717   2.754255   3.164453   3.762235
    19  H    4.814012   4.473080   3.490946   3.817990   4.369386
    20  H    4.813665   4.829171   2.763437   2.587073   3.812551
                   16         17         18         19         20
    16  H    0.000000
    17  C    2.717608   0.000000
    18  H    2.492296   1.114678   0.000000
    19  H    3.753737   1.114698   1.803061   0.000000
    20  H    3.063270   1.114614   1.803063   1.805111   0.000000
 Stoichiometry    C6H14
 Framework group  C1[X(C6H14)]
 Deg. of freedom    54
 Full point group                 C1      NOp   1
 Largest Abelian subgroup         C1      NOp   1
 Largest concise Abelian subgroup C1      NOp   1
                         Standard orientation:                         
 ---------------------------------------------------------------------
 Center     Atomic      Atomic             Coordinates (Angstroms)
 Number     Number       Type             X           Y           Z
 ---------------------------------------------------------------------
      1          6           0        0.548165   -0.904469   -1.245222
      2          1           0        0.413374   -0.310791   -2.178601
      3          1           0       -0.219236   -1.710947   -1.228529
      4          1           0        1.548577   -1.394250   -1.285273
      5          6           0        0.431562    0.002814   -0.000094
      6          6           0       -0.897746    0.814387   -0.010964
      7          1           0       -0.921067    1.464891   -0.917096
      8          1           0       -0.920440    1.489853    0.876593
      9          6           0       -2.202704    0.011375   -0.000107
     10          1           0       -2.278887   -0.616509    0.914861
     11          1           0       -3.064851    0.716402   -0.006554
     12          1           0       -2.281179   -0.635819   -0.901484
     13          6           0        0.553937   -0.859380    1.276142
     14          1           0        0.427435   -0.232048    2.188408
     15          1           0       -0.215926   -1.663477    1.293909
     16          1           0        1.553178   -1.350608    1.326986
     17          6           0        1.606092    1.008736   -0.020638
     18          1           0        2.586965    0.479273   -0.012550
     19          1           0        1.566600    1.644953   -0.935087
     20          1           0        1.569617    1.678295    0.869713
 ---------------------------------------------------------------------
 Rotational constants (GHZ):      4.2334183      2.4488620      2.4406557
 Leave Link  202 at Mon Sep 14 19:12:30 2015, MaxMem=  402653184 cpu:       0.0
 (Enter /share/apps/g09/l301.exe)
 Standard basis: VSTO-6G (5D, 7F)
 Ernie: Thresh=  0.10000D-02 Tol=  0.10000D-05 Strict=F.
  NNHCO=     0 NNPyr=     0 NCTC=     0               EPep=         0.000000000
    EC=       133.111768084  ECS=         3.120224787   EG=         0.300179196
   EHC=         0.000404345  EAt=       -31.187935768  AtH=         2.796400831
 EPDDG=         0.000000000  ECC=       136.532576413 EAtT=        33.984336599
 There are    38 symmetry adapted basis functions of A   symmetry.
 Integral buffers will be    131072 words long.
 Regular integral format.
 Two-electron integral symmetry is turned off.
    38 basis functions,   228 primitive gaussians,    38 cartesian basis functions
    19 alpha electrons       19 beta electrons
       nuclear repulsion energy       170.5169130117 Hartrees.
 IExCor=    0 DFT=F Ex=HF Corr=None ExCW=0 ScaHFX=  1.000000
 ScaDFX=  1.000000  1.000000  1.000000  1.000000 ScalE2=  1.000000  1.000000
 IRadAn=      0 IRanWt=     -1 IRanGd=            0 ICorTp=0
 Leave Link  301 at Mon Sep 14 19:12:30 2015, MaxMem=  402653184 cpu:       0.2
 (Enter /share/apps/g09/l302.exe)
 Do NDO integrals.
 NPDir=0 NMtPBC=     1 NCelOv=     1 NCel=       1 NClECP=     1 NCelD=      1
         NCelK=      1 NCelE2=     1 NClLst=     1 CellRange=     0.0.
 One-electron integrals computed using PRISM.
 NBasis=    38 RedAO= F  NBF=    38
 NBsUse=    38 1.00D-04 NBFU=    38
 Leave Link  302 at Mon Sep 14 19:12:31 2015, MaxMem=  402653184 cpu:       0.1
 (Enter /share/apps/g09/l303.exe)
 DipDrv:  MaxL=1.
 Leave Link  303 at Mon Sep 14 19:12:32 2015, MaxMem=  402653184 cpu:       0.0
 (Enter /share/apps/g09/l401.exe)
 Simple Huckel Guess.
 Initial guess orbital symmetries:
       Occupied  (A) (A) (A) (A) (A) (A) (A) (A) (A) (A) (A) (A)
                 (A) (A) (A) (A) (A) (A) (A)
       Virtual   (A) (A) (A) (A) (A) (A) (A) (A) (A) (A) (A) (A)
                 (A) (A) (A) (A) (A) (A) (A)
 The electronic state of the initial guess is 1-A.
 Leave Link  401 at Mon Sep 14 19:12:32 2015, MaxMem=  402653184 cpu:       0.1
 (Enter /share/apps/g09/l502.exe)
 Closed shell SCF:
 Requested convergence on RMS density matrix=1.00D-08 within 128 cycles.
 Requested convergence on MAX density matrix=1.00D-06.
 Requested convergence on             energy=1.00D-06.
 No special actions if energy rises.
 Using DIIS extrapolation, IDIIS=  1040.
 Overlap will be assumed to be unity.
 Two-electron integral symmetry not used.
 Keep J ints in memory in canonical form, NReq=884654.
 IEnd=       81865 IEndB=       81865 NGot=   402653184 MDV=   402586639
 LenX=   402586639 LenY=   402584754
 Symmetry not used in FoFDir.
 MinBra= 0 MaxBra= 1 Meth=40.
 IRaf=       0 NMat=   1 IRICut=       1 DoRegI=T DoRafI=F ISym2E= 0 JSym2E=0.

 Cycle   1  Pass 1  IDiag  1:
 E= 0.718077832802919E-01
 DIIS: error= 2.19D-02 at cycle   1 NSaved=   1.
 NSaved= 1 IEnMin= 1 EnMin= 0.718077832802919E-01 IErMin= 1 ErrMin= 2.19D-02
 ErrMax= 2.19D-02 EMaxC= 1.00D-01 BMatC= 4.35D-02 BMatP= 4.35D-02
 IDIUse=3 WtCom= 7.81D-01 WtEn= 2.19D-01
 Coeff-Com:  0.100D+01
 Coeff-En:   0.100D+01
 Coeff:      0.100D+01
 GapD=    2.000 DampG=2.000 DampE=0.500 DampFc=1.0000 IDamp=-1.
 RMSDP=8.43D-03 MaxDP=6.90D-02              OVMax= 0.00D+00

 Cycle   2  Pass 1  IDiag  1:
 E=-0.438092331181963E-01 Delta-E=       -0.115617016398 Rises=F Damp=F
 DIIS: error= 5.28D-03 at cycle   2 NSaved=   2.
 NSaved= 2 IEnMin= 2 EnMin=-0.438092331181963E-01 IErMin= 2 ErrMin= 5.28D-03
 ErrMax= 5.28D-03 EMaxC= 1.00D-01 BMatC= 3.07D-03 BMatP= 4.35D-02
 IDIUse=3 WtCom= 9.47D-01 WtEn= 5.28D-02
 Coeff-Com: -0.303D+00 0.130D+01
 Coeff-En:   0.000D+00 0.100D+01
 Coeff:     -0.287D+00 0.129D+01
 RMSDP=3.15D-03 MaxDP=2.14D-02 DE=-1.16D-01 OVMax= 0.00D+00

 Cycle   3  Pass 1  IDiag  3:
 E=-0.548291692317946E-01 Delta-E=       -0.011019936114 Rises=F Damp=F
 DIIS: error= 1.82D-03 at cycle   3 NSaved=   3.
 NSaved= 3 IEnMin= 3 EnMin=-0.548291692317946E-01 IErMin= 3 ErrMin= 1.82D-03
 ErrMax= 1.82D-03 EMaxC= 1.00D-01 BMatC= 2.47D-04 BMatP= 3.07D-03
 IDIUse=3 WtCom= 9.82D-01 WtEn= 1.82D-02
 Coeff-Com:  0.223D+00-0.105D+01 0.183D+01
 Coeff-En:   0.000D+00 0.000D+00 0.100D+01
 Coeff:      0.219D+00-0.103D+01 0.181D+01
 Gap=     0.555 Goal=   None    Shift=    0.000
 RMSDP=1.65D-03 MaxDP=1.79D-02 DE=-1.10D-02 OVMax= 0.00D+00

 Cycle   4  Pass 1  IDiag  3:
 E=-0.566664326686634E-01 Delta-E=       -0.001837263437 Rises=F Damp=F
 DIIS: error= 6.90D-04 at cycle   4 NSaved=   4.
 NSaved= 4 IEnMin= 4 EnMin=-0.566664326686634E-01 IErMin= 4 ErrMin= 6.90D-04
 ErrMax= 6.90D-04 EMaxC= 1.00D-01 BMatC= 3.34D-05 BMatP= 2.47D-04
 IDIUse=3 WtCom= 9.93D-01 WtEn= 6.90D-03
 Coeff-Com: -0.125D+00 0.612D+00-0.144D+01 0.195D+01
 Coeff-En:   0.000D+00 0.000D+00 0.000D+00 0.100D+01
 Coeff:     -0.124D+00 0.608D+00-0.143D+01 0.195D+01
 Gap=     0.555 Goal=   None    Shift=    0.000
 RMSDP=8.95D-04 MaxDP=9.82D-03 DE=-1.84D-03 OVMax= 0.00D+00

 Cycle   5  Pass 1  IDiag  3:
 E=-0.569639136856495E-01 Delta-E=       -0.000297481017 Rises=F Damp=F
 DIIS: error= 1.23D-04 at cycle   5 NSaved=   5.
 NSaved= 5 IEnMin= 5 EnMin=-0.569639136856495E-01 IErMin= 5 ErrMin= 1.23D-04
 ErrMax= 1.23D-04 EMaxC= 1.00D-01 BMatC= 1.25D-06 BMatP= 3.34D-05
 IDIUse=3 WtCom= 9.99D-01 WtEn= 1.23D-03
 Coeff-Com:  0.729D-01-0.360D+00 0.882D+00-0.131D+01 0.171D+01
 Coeff-En:   0.000D+00 0.000D+00 0.000D+00 0.000D+00 0.100D+01
 Coeff:      0.728D-01-0.359D+00 0.881D+00-0.131D+01 0.171D+01
 Gap=     0.555 Goal=   None    Shift=    0.000
 RMSDP=1.30D-04 MaxDP=1.41D-03 DE=-2.97D-04 OVMax= 0.00D+00

 Cycle   6  Pass 1  IDiag  3:
 E=-0.569730352902695E-01 Delta-E=       -0.000009121605 Rises=F Damp=F
 DIIS: error= 5.37D-05 at cycle   6 NSaved=   6.
 NSaved= 6 IEnMin= 6 EnMin=-0.569730352902695E-01 IErMin= 6 ErrMin= 5.37D-05
 ErrMax= 5.37D-05 EMaxC= 1.00D-01 BMatC= 1.27D-07 BMatP= 1.25D-06
 IDIUse=1 WtCom= 1.00D+00 WtEn= 0.00D+00
 Coeff-Com: -0.141D-01 0.705D-01-0.179D+00 0.282D+00-0.592D+00 0.143D+01
 Coeff:     -0.141D-01 0.705D-01-0.179D+00 0.282D+00-0.592D+00 0.143D+01
 Gap=     0.555 Goal=   None    Shift=    0.000
 RMSDP=3.79D-05 MaxDP=4.07D-04 DE=-9.12D-06 OVMax= 0.00D+00

 Cycle   7  Pass 1  IDiag  3:
 E=-0.569739513937293E-01 Delta-E=       -0.000000916103 Rises=F Damp=F
 DIIS: error= 2.15D-05 at cycle   7 NSaved=   7.
 NSaved= 7 IEnMin= 7 EnMin=-0.569739513937293E-01 IErMin= 7 ErrMin= 2.15D-05
 ErrMax= 2.15D-05 EMaxC= 1.00D-01 BMatC= 1.81D-08 BMatP= 1.27D-07
 IDIUse=1 WtCom= 1.00D+00 WtEn= 0.00D+00
 Coeff-Com:  0.561D-02-0.284D-01 0.731D-01-0.116D+00 0.259D+00-0.970D+00
 Coeff-Com:  0.178D+01
 Coeff:      0.561D-02-0.284D-01 0.731D-01-0.116D+00 0.259D+00-0.970D+00
 Coeff:      0.178D+01
 Gap=     0.555 Goal=   None    Shift=    0.000
 RMSDP=1.80D-05 MaxDP=2.15D-04 DE=-9.16D-07 OVMax= 0.00D+00

 Cycle   8  Pass 1  IDiag  3:
 E=-0.569740956635769E-01 Delta-E=       -0.000000144270 Rises=F Damp=F
 DIIS: error= 5.95D-06 at cycle   8 NSaved=   8.
 NSaved= 8 IEnMin= 8 EnMin=-0.569740956635769E-01 IErMin= 8 ErrMin= 5.95D-06
 ErrMax= 5.95D-06 EMaxC= 1.00D-01 BMatC= 1.08D-09 BMatP= 1.81D-08
 IDIUse=1 WtCom= 1.00D+00 WtEn= 0.00D+00
 Coeff-Com: -0.714D-03 0.398D-02-0.119D-01 0.220D-01-0.728D-01 0.413D+00
 Coeff-Com: -0.996D+00 0.164D+01
 Coeff:     -0.714D-03 0.398D-02-0.119D-01 0.220D-01-0.728D-01 0.413D+00
 Coeff:     -0.996D+00 0.164D+01
 Gap=     0.555 Goal=   None    Shift=    0.000
 RMSDP=3.84D-06 MaxDP=4.94D-05 DE=-1.44D-07 OVMax= 0.00D+00

 Cycle   9  Pass 1  IDiag  3:
 E=-0.569741029124771E-01 Delta-E=       -0.000000007249 Rises=F Damp=F
 DIIS: error= 1.07D-06 at cycle   9 NSaved=   9.
 NSaved= 9 IEnMin= 9 EnMin=-0.569741029124771E-01 IErMin= 9 ErrMin= 1.07D-06
 ErrMax= 1.07D-06 EMaxC= 1.00D-01 BMatC= 3.95D-11 BMatP= 1.08D-09
 IDIUse=1 WtCom= 1.00D+00 WtEn= 0.00D+00
 Coeff-Com: -0.177D-03 0.733D-03-0.109D-02 0.243D-03 0.110D-01-0.104D+00
 Coeff-Com:  0.288D+00-0.641D+00 0.145D+01
 Coeff:     -0.177D-03 0.733D-03-0.109D-02 0.243D-03 0.110D-01-0.104D+00
 Coeff:      0.288D+00-0.641D+00 0.145D+01
 Gap=     0.555 Goal=   None    Shift=    0.000
 RMSDP=6.28D-07 MaxDP=8.41D-06 DE=-7.25D-09 OVMax= 0.00D+00

 Cycle  10  Pass 1  IDiag  3:
 E=-0.569741031290221E-01 Delta-E=       -0.000000000217 Rises=F Damp=F
 DIIS: error= 1.31D-07 at cycle  10 NSaved=  10.
 NSaved=10 IEnMin=10 EnMin=-0.569741031290221E-01 IErMin=10 ErrMin= 1.31D-07
 ErrMax= 1.31D-07 EMaxC= 1.00D-01 BMatC= 1.17D-12 BMatP= 3.95D-11
 IDIUse=1 WtCom= 1.00D+00 WtEn= 0.00D+00
 Coeff-Com: -0.137D-04 0.132D-03-0.634D-03 0.155D-02-0.766D-02 0.527D-01
 Coeff-Com: -0.138D+00 0.296D+00-0.710D+00 0.151D+01
 Coeff:     -0.137D-04 0.132D-03-0.634D-03 0.155D-02-0.766D-02 0.527D-01
 Coeff:     -0.138D+00 0.296D+00-0.710D+00 0.151D+01
 Gap=     0.555 Goal=   None    Shift=    0.000
 RMSDP=9.20D-08 MaxDP=9.57D-07 DE=-2.17D-10 OVMax= 0.00D+00

 Cycle  11  Pass 1  IDiag  3:
 E=-0.569741031347064E-01 Delta-E=       -0.000000000006 Rises=F Damp=F
 DIIS: error= 2.63D-08 at cycle  11 NSaved=  11.
 NSaved=11 IEnMin=11 EnMin=-0.569741031347064E-01 IErMin=11 ErrMin= 2.63D-08
 ErrMax= 2.63D-08 EMaxC= 1.00D-01 BMatC= 5.43D-14 BMatP= 1.17D-12
 IDIUse=1 WtCom= 1.00D+00 WtEn= 0.00D+00
 Coeff-Com:  0.752D-05-0.671D-04 0.310D-03-0.743D-03 0.361D-02-0.248D-01
 Coeff-Com:  0.648D-01-0.139D+00 0.338D+00-0.846D+00 0.160D+01
 Coeff:      0.752D-05-0.671D-04 0.310D-03-0.743D-03 0.361D-02-0.248D-01
 Coeff:      0.648D-01-0.139D+00 0.338D+00-0.846D+00 0.160D+01
 Gap=     0.555 Goal=   None    Shift=    0.000
 RMSDP=2.27D-08 MaxDP=1.64D-07 DE=-5.68D-12 OVMax= 0.00D+00

 Cycle  12  Pass 1  IDiag  3:
 E=-0.569741031351043E-01 Delta-E=        0.000000000000 Rises=F Damp=F
 DIIS: error= 4.24D-09 at cycle  12 NSaved=  12.
 NSaved=12 IEnMin=12 EnMin=-0.569741031351043E-01 IErMin=12 ErrMin= 4.24D-09
 ErrMax= 4.24D-09 EMaxC= 1.00D-01 BMatC= 1.59D-15 BMatP= 5.43D-14
 IDIUse=1 WtCom= 1.00D+00 WtEn= 0.00D+00
 Coeff-Com: -0.119D-06 0.122D-04-0.869D-04 0.239D-03-0.132D-02 0.951D-02
 Coeff-Com: -0.252D-01 0.544D-01-0.134D+00 0.344D+00-0.735D+00 0.149D+01
 Coeff:     -0.119D-06 0.122D-04-0.869D-04 0.239D-03-0.132D-02 0.951D-02
 Coeff:     -0.252D-01 0.544D-01-0.134D+00 0.344D+00-0.735D+00 0.149D+01
 Gap=     0.555 Goal=   None    Shift=    0.000
 RMSDP=3.46D-09 MaxDP=2.83D-08 DE=-3.98D-13 OVMax= 0.00D+00

 Cycle  13  Pass 2  IDiag  1:
 RMSDP=3.46D-09 MaxDP=2.83D-08 DE=-3.98D-13 OVMax= 0.00D+00

 SCF Done:  E(RPM6) = -0.569741031351E-01 A.U. after   13 cycles
             Convg  =    0.3458D-08             -V/T =  0.9990
 KE=-5.633809250838D+01 PE=-2.620723562651D+02 EE= 1.478365616587D+02
 Leave Link  502 at Mon Sep 14 19:12:33 2015, MaxMem=  402653184 cpu:       0.8
 (Enter /share/apps/g09/l601.exe)
 Copying SCF densities to generalized density rwf, IOpCl= 0 IROHF=0.

 **********************************************************************

            Population analysis using the SCF density.

 **********************************************************************

 Orbital symmetries:
       Occupied  (A) (A) (A) (A) (A) (A) (A) (A) (A) (A) (A) (A)
                 (A) (A) (A) (A) (A) (A) (A)
       Virtual   (A) (A) (A) (A) (A) (A) (A) (A) (A) (A) (A) (A)
                 (A) (A) (A) (A) (A) (A) (A)
 The electronic state is 1-A.
 Alpha  occ. eigenvalues --   -1.05959  -0.94558  -0.86917  -0.86813  -0.78146
 Alpha  occ. eigenvalues --   -0.65932  -0.56467  -0.56384  -0.53660  -0.52086
 Alpha  occ. eigenvalues --   -0.49319  -0.47503  -0.47090  -0.45643  -0.45241
 Alpha  occ. eigenvalues --   -0.43346  -0.40995  -0.40725  -0.40082
 Alpha virt. eigenvalues --    0.15440   0.16223   0.16348   0.17994   0.18446
 Alpha virt. eigenvalues --    0.21367   0.21887   0.22103   0.22122   0.22412
 Alpha virt. eigenvalues --    0.22438   0.22565   0.22615   0.23183   0.24353
 Alpha virt. eigenvalues --    0.25095   0.25362   0.25947   0.26005
          Condensed to atoms (all electrons):
              1          2          3          4          5          6
     1  C    4.523801   0.000000   0.000000   0.000000   0.000000   0.000000
     2  H    0.000000   0.848726   0.000000   0.000000   0.000000   0.000000
     3  H    0.000000   0.000000   0.846975   0.000000   0.000000   0.000000
     4  H    0.000000   0.000000   0.000000   0.849051   0.000000   0.000000
     5  C    0.000000   0.000000   0.000000   0.000000   3.737143   0.000000
     6  C    0.000000   0.000000   0.000000   0.000000   0.000000   4.297151
     7  H    0.000000   0.000000   0.000000   0.000000   0.000000   0.000000
     8  H    0.000000   0.000000   0.000000   0.000000   0.000000   0.000000
     9  C    0.000000   0.000000   0.000000   0.000000   0.000000   0.000000
    10  H    0.000000   0.000000   0.000000   0.000000   0.000000   0.000000
    11  H    0.000000   0.000000   0.000000   0.000000   0.000000   0.000000
    12  H    0.000000   0.000000   0.000000   0.000000   0.000000   0.000000
    13  C    0.000000   0.000000   0.000000   0.000000   0.000000   0.000000
    14  H    0.000000   0.000000   0.000000   0.000000   0.000000   0.000000
    15  H    0.000000   0.000000   0.000000   0.000000   0.000000   0.000000
    16  H    0.000000   0.000000   0.000000   0.000000   0.000000   0.000000
    17  C    0.000000   0.000000   0.000000   0.000000   0.000000   0.000000
    18  H    0.000000   0.000000   0.000000   0.000000   0.000000   0.000000
    19  H    0.000000   0.000000   0.000000   0.000000   0.000000   0.000000
    20  H    0.000000   0.000000   0.000000   0.000000   0.000000   0.000000
              7          8          9         10         11         12
     1  C    0.000000   0.000000   0.000000   0.000000   0.000000   0.000000
     2  H    0.000000   0.000000   0.000000   0.000000   0.000000   0.000000
     3  H    0.000000   0.000000   0.000000   0.000000   0.000000   0.000000
     4  H    0.000000   0.000000   0.000000   0.000000   0.000000   0.000000
     5  C    0.000000   0.000000   0.000000   0.000000   0.000000   0.000000
     6  C    0.000000   0.000000   0.000000   0.000000   0.000000   0.000000
     7  H    0.867981   0.000000   0.000000   0.000000   0.000000   0.000000
     8  H    0.000000   0.867964   0.000000   0.000000   0.000000   0.000000
     9  C    0.000000   0.000000   4.445511   0.000000   0.000000   0.000000
    10  H    0.000000   0.000000   0.000000   0.854656   0.000000   0.000000
    11  H    0.000000   0.000000   0.000000   0.000000   0.860866   0.000000
    12  H    0.000000   0.000000   0.000000   0.000000   0.000000   0.854657
    13  C    0.000000   0.000000   0.000000   0.000000   0.000000   0.000000
    14  H    0.000000   0.000000   0.000000   0.000000   0.000000   0.000000
    15  H    0.000000   0.000000   0.000000   0.000000   0.000000   0.000000
    16  H    0.000000   0.000000   0.000000   0.000000   0.000000   0.000000
    17  C    0.000000   0.000000   0.000000   0.000000   0.000000   0.000000
    18  H    0.000000   0.000000   0.000000   0.000000   0.000000   0.000000
    19  H    0.000000   0.000000   0.000000   0.000000   0.000000   0.000000
    20  H    0.000000   0.000000   0.000000   0.000000   0.000000   0.000000
             13         14         15         16         17         18
     1  C    0.000000   0.000000   0.000000   0.000000   0.000000   0.000000
     2  H    0.000000   0.000000   0.000000   0.000000   0.000000   0.000000
     3  H    0.000000   0.000000   0.000000   0.000000   0.000000   0.000000
     4  H    0.000000   0.000000   0.000000   0.000000   0.000000   0.000000
     5  C    0.000000   0.000000   0.000000   0.000000   0.000000   0.000000
     6  C    0.000000   0.000000   0.000000   0.000000   0.000000   0.000000
     7  H    0.000000   0.000000   0.000000   0.000000   0.000000   0.000000
     8  H    0.000000   0.000000   0.000000   0.000000   0.000000   0.000000
     9  C    0.000000   0.000000   0.000000   0.000000   0.000000   0.000000
    10  H    0.000000   0.000000   0.000000   0.000000   0.000000   0.000000
    11  H    0.000000   0.000000   0.000000   0.000000   0.000000   0.000000
    12  H    0.000000   0.000000   0.000000   0.000000   0.000000   0.000000
    13  C    4.523867   0.000000   0.000000   0.000000   0.000000   0.000000
    14  H    0.000000   0.848739   0.000000   0.000000   0.000000   0.000000
    15  H    0.000000   0.000000   0.847012   0.000000   0.000000   0.000000
    16  H    0.000000   0.000000   0.000000   0.849039   0.000000   0.000000
    17  C    0.000000   0.000000   0.000000   0.000000   4.534302   0.000000
    18  H    0.000000   0.000000   0.000000   0.000000   0.000000   0.846017
    19  H    0.000000   0.000000   0.000000   0.000000   0.000000   0.000000
    20  H    0.000000   0.000000   0.000000   0.000000   0.000000   0.000000
             19         20
     1  C    0.000000   0.000000
     2  H    0.000000   0.000000
     3  H    0.000000   0.000000
     4  H    0.000000   0.000000
     5  C    0.000000   0.000000
     6  C    0.000000   0.000000
     7  H    0.000000   0.000000
     8  H    0.000000   0.000000
     9  C    0.000000   0.000000
    10  H    0.000000   0.000000
    11  H    0.000000   0.000000
    12  H    0.000000   0.000000
    13  C    0.000000   0.000000
    14  H    0.000000   0.000000
    15  H    0.000000   0.000000
    16  H    0.000000   0.000000
    17  C    0.000000   0.000000
    18  H    0.000000   0.000000
    19  H    0.848265   0.000000
    20  H    0.000000   0.848275
 Mulliken atomic charges:
              1
     1  C   -0.523801
     2  H    0.151274
     3  H    0.153025
     4  H    0.150949
     5  C    0.262857
     6  C   -0.297151
     7  H    0.132019
     8  H    0.132036
     9  C   -0.445511
    10  H    0.145344
    11  H    0.139134
    12  H    0.145343
    13  C   -0.523867
    14  H    0.151261
    15  H    0.152988
    16  H    0.150961
    17  C   -0.534302
    18  H    0.153983
    19  H    0.151735
    20  H    0.151725
 Sum of Mulliken atomic charges =   0.00000
 Mulliken charges with hydrogens summed into heavy atoms:
              1
     1  C   -0.068553
     5  C    0.262857
     6  C   -0.033096
     9  C   -0.015690
    13  C   -0.068658
    17  C   -0.076859
 Sum of Mulliken charges with hydrogens summed into heavy atoms =   0.00000
 Charge=              0.0000 electrons
 Dipole moment (field-independent basis, Debye):
    X=              0.0092    Y=              0.0263    Z=             -0.0015  Tot=              0.0279
 N-N= 1.705169130117D+02 E-N=-2.620723561996D+02  KE=-5.633809250838D+01
 Leave Link  601 at Mon Sep 14 19:12:33 2015, MaxMem=  402653184 cpu:       0.0
 (Enter /share/apps/g09/l701.exe)
 Compute integral first derivatives.
 ... and contract with generalized density number  0.
 Leave Link  701 at Mon Sep 14 19:12:33 2015, MaxMem=  402653184 cpu:       0.1
 (Enter /share/apps/g09/l702.exe)
 L702 exits ... SP integral derivatives will be done elsewhere.
 Leave Link  702 at Mon Sep 14 19:12:33 2015, MaxMem=  402653184 cpu:       0.0
 (Enter /share/apps/g09/l703.exe)
 Compute integral first derivatives, UseDBF=F ICtDFT=           0.
 Integral derivatives from FoFDir, PRISM(SPDF).
 Calling FoFJK, ICntrl=      2127 FMM=F ISym2X=0 I1Cent= 0 IOpClX= 0 NMat=1 NMatS=1 NMatT=0.
 FoFCou: FMM=F IPFlag=           0 FMFlag=      100000 FMFlg1=         800
         NFxFlg=           0 DoJE=F BraDBF=F KetDBF=F FulRan=T
         Omega=  0.000000  0.000000  1.000000  0.000000  0.000000 ICntrl=    2127 IOpCl=  0
         NMat0=    1 NMatS0=    1 NMatT0=    0 NMatD0=    1 NMtDS0=    0 NMtDT0=    0
         I1Cent=           0 NGrid=           0.
 Symmetry not used in FoFCou.
 Leave Link  703 at Mon Sep 14 19:12:35 2015, MaxMem=  402653184 cpu:       0.1
 (Enter /share/apps/g09/l716.exe)
 Dipole        = 3.62468390D-03 1.03368604D-02-5.74943567D-04
 ***** Axes restored to original set *****
 -------------------------------------------------------------------
 Center     Atomic                   Forces (Hartrees/Bohr)
 Number     Number              X              Y              Z
 -------------------------------------------------------------------
      1        6          -0.000653922   -0.000044267   -0.003796454
      2        1          -0.000264340   -0.010494987    0.004028126
      3        1           0.007166015    0.006728638    0.004023141
      4        1          -0.009806737    0.005168140    0.000097237
      5        6          -0.000210545   -0.002528032   -0.001359699
      6        6          -0.002494787    0.000622694   -0.000274993
      7        1           0.002007815   -0.003285685    0.003557475
      8        1           0.003504155    0.000639136   -0.003792217
      9        6           0.000491874   -0.001866607   -0.000935106
     10        1           0.001469481    0.007754916   -0.005977003
     11        1           0.005423604   -0.007366688   -0.002847593
     12        1          -0.001828811   -0.000747040    0.009747194
     13        6          -0.001746137   -0.003014122    0.001686836
     14        1           0.002682685   -0.002756197   -0.010556663
     15        1           0.006878647    0.005911335    0.005531438
     16        1          -0.009999765    0.004675001    0.001094380
     17        6           0.003266966    0.004802863    0.003175616
     18        1          -0.009247390    0.006430868    0.001508331
     19        1           0.000000673   -0.009643673    0.005689212
     20        1           0.003360519   -0.000986295   -0.010599258
 -------------------------------------------------------------------
 Cartesian Forces:  Max     0.010599258 RMS     0.005066070
 Leave Link  716 at Mon Sep 14 19:12:37 2015, MaxMem=  402653184 cpu:       0.0
 (Enter /share/apps/g09/l103.exe)

 GradGradGradGradGradGradGradGradGradGradGradGradGradGradGradGradGradGrad
 Berny optimization.
 Internal  Forces:  Max     0.011316733 RMS     0.004242564
 Search for a local minimum.
 Step number   1 out of a maximum of  110
 All quantities printed in internal units (Hartrees-Bohrs-Radians)
 RMS Force = .42426D-02 SwitMx=.10000D-02 MixMth= 1
 Mixed Optimization -- RFO/linear search
 Second derivative matrix not updated -- first step.
     Eigenvalues ---    0.00230   0.00230   0.00230   0.00230   0.00339
     Eigenvalues ---    0.03113   0.04278   0.04696   0.04883   0.05071
     Eigenvalues ---    0.05430   0.05431   0.05443   0.05458   0.05462
     Eigenvalues ---    0.05478   0.05479   0.05756   0.08991   0.12668
     Eigenvalues ---    0.14239   0.14506   0.16000   0.16000   0.16000
     Eigenvalues ---    0.16000   0.16000   0.16000   0.16000   0.16000
     Eigenvalues ---    0.16000   0.16000   0.16000   0.16000   0.22023
     Eigenvalues ---    0.27023   0.27946   0.28077   0.28078   0.29215
     Eigenvalues ---    0.32004   0.32016   0.32108   0.32110   0.32116
     Eigenvalues ---    0.32116   0.32119   0.32142   0.32144   0.32208
     Eigenvalues ---    0.32246   0.32246   0.32344   0.323581000.00000
     Eigenvalues --- 1000.000001000.000001000.000001000.000001000.00000
     Eigenvalues --- 1000.000001000.000001000.000001000.000001000.00000
     Eigenvalues --- 1000.000001000.000001000.000001000.000001000.00000
     Eigenvalues --- 1000.000001000.000001000.000001000.000001000.00000
     Eigenvalues --- 1000.000001000.000001000.000001000.000001000.00000
     Eigenvalues --- 1000.000001000.000001000.000001000.000001000.00000
     Eigenvalues --- 1000.000001000.000001000.000001000.000001000.00000
     Eigenvalues --- 1000.000001000.000001000.000001000.000001000.00000
     Eigenvalues --- 1000.000001000.000001000.000001000.000001000.00000
 RFO step:  Lambda=-6.45834677D-03 EMin= 2.30000000D-03
 Linear search not attempted -- first point.
 Iteration  1 RMS(Cart)=  0.04754032 RMS(Int)=  0.00067084
 Iteration  2 RMS(Cart)=  0.00086120 RMS(Int)=  0.00016182
 Iteration  3 RMS(Cart)=  0.00000070 RMS(Int)=  0.00016182
 Variable       Old X    -DE/DX   Delta X   Delta X   Delta X     New X
                                 (Linear)    (Quad)   (Total)
    R1        2.10585  -0.01114   0.00000  -0.03398  -0.03398   2.07187
    R2        2.10396  -0.01058   0.00000  -0.03216  -0.03216   2.07180
    R3        2.10627  -0.01103   0.00000  -0.03367  -0.03367   2.07260
    R4        2.91967  -0.00516   0.00000  -0.01797  -0.01797   2.90171
    R5        2.94326  -0.00950   0.00000  -0.03435  -0.03435   2.90891
    R6        2.91969  -0.00513   0.00000  -0.01786  -0.01786   2.90183
    R7        2.92256  -0.00177   0.00000  -0.00618  -0.00618   2.91638
    R8        2.10836  -0.00418   0.00000  -0.01280  -0.01280   2.09555
    R9        2.10815  -0.00416   0.00000  -0.01274  -0.01274   2.09541
   R10        2.89558  -0.00383   0.00000  -0.01282  -0.01282   2.88276
   R11        2.10194  -0.00967   0.00000  -0.02929  -0.02929   2.07265
   R12        2.10465  -0.00925   0.00000  -0.02816  -0.02816   2.07649
   R13        2.10219  -0.00970   0.00000  -0.02941  -0.02941   2.07278
   R14        2.10582  -0.01113   0.00000  -0.03395  -0.03395   2.07187
   R15        2.10395  -0.01058   0.00000  -0.03217  -0.03217   2.07178
   R16        2.10632  -0.01104   0.00000  -0.03369  -0.03369   2.07263
   R17        2.10644  -0.01132   0.00000  -0.03455  -0.03455   2.07189
   R18        2.10647  -0.01108   0.00000  -0.03384  -0.03384   2.07264
   R19        2.10632  -0.01105   0.00000  -0.03372  -0.03372   2.07259
    A1        1.89134  -0.00137   0.00000  -0.01083  -0.01083   1.88052
    A2        1.88870  -0.00137   0.00000  -0.00684  -0.00690   1.88180
    A3        1.93161   0.00173   0.00000   0.00970   0.00967   1.94128
    A4        1.87642  -0.00061   0.00000  -0.00238  -0.00239   1.87403
    A5        1.94042   0.00023   0.00000   0.00069   0.00068   1.94110
    A6        1.93343   0.00122   0.00000   0.00871   0.00867   1.94211
    A7        1.94419  -0.00108   0.00000  -0.01805  -0.01814   1.92605
    A8        1.90923   0.00048   0.00000   0.00262   0.00212   1.91135
    A9        1.89013   0.00074   0.00000   0.01622   0.01614   1.90627
   A10        1.94351  -0.00106   0.00000  -0.01778  -0.01788   1.92564
   A11        1.88511   0.00028   0.00000   0.00263   0.00283   1.88794
   A12        1.88997   0.00074   0.00000   0.01637   0.01629   1.90627
   A13        1.90426   0.00119   0.00000  -0.00501  -0.00461   1.89965
   A14        1.90425   0.00122   0.00000  -0.00519  -0.00481   1.89944
   A15        2.04176  -0.00972   0.00000  -0.04268  -0.04249   1.99927
   A16        1.86785  -0.00212   0.00000  -0.00839  -0.00908   1.85878
   A17        1.86869   0.00499   0.00000   0.03248   0.03207   1.90076
   A18        1.86957   0.00494   0.00000   0.03172   0.03129   1.90086
   A19        1.93905   0.00125   0.00000   0.00500   0.00492   1.94397
   A20        1.90443   0.00339   0.00000   0.02517   0.02499   1.92942
   A21        1.93824   0.00134   0.00000   0.00565   0.00557   1.94381
   A22        1.88503  -0.00180   0.00000  -0.00619  -0.00636   1.87867
   A23        1.91058  -0.00252   0.00000  -0.02391  -0.02389   1.88669
   A24        1.88493  -0.00181   0.00000  -0.00612  -0.00630   1.87863
   A25        1.93166   0.00173   0.00000   0.00975   0.00972   1.94138
   A26        1.94061   0.00021   0.00000   0.00050   0.00049   1.94110
   A27        1.93331   0.00123   0.00000   0.00882   0.00878   1.94209
   A28        1.89127  -0.00136   0.00000  -0.01082  -0.01082   1.88046
   A29        1.88865  -0.00138   0.00000  -0.00683  -0.00689   1.88176
   A30        1.87641  -0.00060   0.00000  -0.00236  -0.00237   1.87404
   A31        1.93825   0.00070   0.00000   0.00320   0.00319   1.94144
   A32        1.93395   0.00176   0.00000   0.01106   0.01101   1.94496
   A33        1.93398   0.00176   0.00000   0.01108   0.01103   1.94502
   A34        1.88413  -0.00141   0.00000  -0.00944  -0.00945   1.87468
   A35        1.88424  -0.00142   0.00000  -0.00948  -0.00949   1.87475
   A36        1.88734  -0.00161   0.00000  -0.00773  -0.00781   1.87953
    D1        0.93763   0.00051   0.00000   0.01735   0.01732   0.95494
    D2        3.09379  -0.00124   0.00000  -0.01574  -0.01578   3.07801
    D3       -1.13299   0.00034   0.00000   0.01463   0.01465  -1.11834
    D4       -1.16528   0.00092   0.00000   0.02405   0.02404  -1.14124
    D5        0.99089  -0.00083   0.00000  -0.00904  -0.00906   0.98183
    D6        3.04730   0.00075   0.00000   0.02133   0.02137   3.06867
    D7        3.03258   0.00072   0.00000   0.02085   0.02084   3.05342
    D8       -1.09444  -0.00103   0.00000  -0.01225  -0.01226  -1.10669
    D9        0.96197   0.00055   0.00000   0.01812   0.01817   0.98014
   D10       -1.06020  -0.00105   0.00000  -0.01841  -0.01844  -1.07864
   D11       -3.09532   0.00014   0.00000  -0.00265  -0.00242  -3.09774
   D12        1.06325  -0.00043   0.00000  -0.00993  -0.00984   1.05341
   D13        3.08644  -0.00014   0.00000   0.00374   0.00352   3.08996
   D14        1.05132   0.00105   0.00000   0.01950   0.01954   1.07086
   D15       -1.07330   0.00048   0.00000   0.01222   0.01212  -1.06118
   D16        1.01341  -0.00060   0.00000  -0.00751  -0.00763   1.00578
   D17       -1.02171   0.00059   0.00000   0.00826   0.00839  -1.01332
   D18        3.13686   0.00002   0.00000   0.00097   0.00097   3.13783
   D19       -3.09774   0.00125   0.00000   0.01597   0.01601  -3.08173
   D20       -0.99476   0.00084   0.00000   0.00919   0.00920  -0.98556
   D21        1.09059   0.00103   0.00000   0.01236   0.01237   1.10296
   D22       -0.94117  -0.00051   0.00000  -0.01727  -0.01724  -0.95841
   D23        1.16180  -0.00093   0.00000  -0.02406  -0.02405   1.13776
   D24       -3.03603  -0.00073   0.00000  -0.02088  -0.02088  -3.05691
   D25        1.12894  -0.00033   0.00000  -0.01430  -0.01432   1.11462
   D26       -3.05126  -0.00074   0.00000  -0.02109  -0.02113  -3.07239
   D27       -0.96591  -0.00055   0.00000  -0.01791  -0.01796  -0.98387
   D28       -1.03512  -0.00070   0.00000  -0.01072  -0.01075  -1.04587
   D29        1.05882  -0.00085   0.00000  -0.01314  -0.01320   1.04562
   D30       -3.12921  -0.00055   0.00000  -0.00826  -0.00827  -3.13749
   D31        3.14036   0.00001   0.00000   0.00010   0.00010   3.14046
   D32       -1.04889  -0.00014   0.00000  -0.00233  -0.00235  -1.05123
   D33        1.04627   0.00016   0.00000   0.00256   0.00258   1.04885
   D34        1.03356   0.00069   0.00000   0.01051   0.01055   1.04410
   D35        3.12749   0.00054   0.00000   0.00809   0.00810   3.13560
   D36       -1.06054   0.00084   0.00000   0.01297   0.01303  -1.04751
   D37        1.06231  -0.00071   0.00000  -0.01168  -0.01172   1.05058
   D38        3.13874  -0.00002   0.00000  -0.00034  -0.00034   3.13840
   D39       -1.06864   0.00071   0.00000   0.01146   0.01152  -1.05712
   D40       -3.07898  -0.00185   0.00000  -0.02175  -0.02217  -3.10115
   D41       -1.00255  -0.00116   0.00000  -0.01041  -0.01079  -1.01333
   D42        1.07326  -0.00044   0.00000   0.00138   0.00107   1.07433
   D43       -1.08029   0.00046   0.00000  -0.00070  -0.00038  -1.08067
   D44        0.99614   0.00115   0.00000   0.01064   0.01100   1.00714
   D45        3.07195   0.00187   0.00000   0.02244   0.02285   3.09480
         Item               Value     Threshold  Converged?
 Maximum Force            0.011317     0.000450     NO 
 RMS     Force            0.004243     0.000300     NO 
 Maximum Displacement     0.168000     0.001800     NO 
 RMS     Displacement     0.047544     0.001200     NO 
 Predicted change in Energy=-3.336915D-03
 GradGradGradGradGradGradGradGradGradGradGradGradGradGradGradGradGradGrad

 Leave Link  103 at Mon Sep 14 19:12:38 2015, MaxMem=  402653184 cpu:       0.0
 (Enter /share/apps/g09/l202.exe)
                          Input orientation:                          
 ---------------------------------------------------------------------
 Center     Atomic      Atomic             Coordinates (Angstroms)
 Number     Number       Type             X           Y           Z
 ---------------------------------------------------------------------
      1          6           0        0.713729   -0.248463   -1.420841
      2          1           0        0.763418    0.709134   -1.952447
      3          1           0       -0.063182   -0.856333   -1.899259
      4          1           0        1.670329   -0.764273   -1.568379
      5          6           0        0.416852   -0.041198    0.071378
      6          6           0       -0.864159    0.793111    0.251590
      7          1           0       -0.709004    1.791042   -0.206407
      8          1           0       -1.029433    0.965786    1.334363
      9          6           0       -2.119150    0.164695   -0.346079
     10          1           0       -2.334329   -0.809536    0.109485
     11          1           0       -2.991729    0.810998   -0.177766
     12          1           0       -2.016892    0.019594   -1.428485
     13          6           0        0.265737   -1.406046    0.758671
     14          1           0       -0.006959   -1.290988    1.814349
     15          1           0       -0.512497   -2.009141    0.276397
     16          1           0        1.199464   -1.979709    0.713854
     17          6           0        1.587171    0.727599    0.720241
     18          1           0        2.528849    0.174848    0.621272
     19          1           0        1.731517    1.708466    0.251182
     20          1           0        1.414169    0.892312    1.790681
 ---------------------------------------------------------------------
                    Distance matrix (angstroms):
                    1          2          3          4          5
     1  C    0.000000
     2  H    1.096387   0.000000
     3  H    1.096349   1.771097   0.000000
     4  H    1.096773   1.772265   1.767205   0.000000
     5  C    1.535517   2.186086   2.185929   2.186972   0.000000
     6  C    2.524210   2.741138   2.826373   3.487314   1.539330
     7  H    2.767418   2.527292   3.208026   3.747776   2.168368
     8  H    3.479104   3.752773   3.835371   4.325244   2.168153
     9  C    3.057944   3.344552   2.771620   4.088661   2.578366
    10  H    3.456496   4.019199   3.032384   4.342184   2.856710
    11  H    4.049459   4.154636   3.784168   5.113714   3.522319
    12  H    2.743757   2.912065   2.192227   3.772216   2.859439
    13  C    2.508181   3.474454   2.734038   2.792833   1.535584
    14  H    3.474580   4.333903   3.739381   3.812293   2.186216
    15  H    2.735733   3.739615   2.502864   3.117310   2.185982
    16  H    2.791071   3.811715   3.112010   2.628229   2.187026
    17  C    2.509946   2.796814   3.477684   2.733199   1.543282
    18  H    2.764793   3.166423   3.759659   2.532505   2.193078
    19  H    2.767874   2.606120   3.797833   3.070665   2.195905
    20  H    3.479348   3.803687   4.342348   3.754088   2.195925
                    6          7          8          9         10
     6  C    0.000000
     7  H    1.108919   0.000000
     8  H    1.108841   1.776991   0.000000
     9  C    1.525489   2.157087   2.157108   0.000000
    10  H    2.179466   3.082934   2.520882   1.096799   0.000000
    11  H    2.170535   2.484379   2.482156   1.098831   1.772235
    12  H    2.179398   2.518347   3.082804   1.096865   1.775830
    13  C    2.523903   3.478918   2.763055   3.061926   2.745471
    14  H    2.742348   3.751697   2.523661   3.353776   2.924895
    15  H    2.824340   3.835767   3.199485   2.773874   2.187689
    16  H    3.487228   4.325239   3.745525   4.090859   3.771241
    17  C    2.496587   2.694812   2.698240   3.897527   4.256052
    18  H    3.468633   3.712253   3.714223   4.747606   4.988130
    19  H    2.752346   2.484421   3.057401   4.191371   4.784509
    20  H    2.751258   3.050236   2.486929   4.192793   4.446791
                   11         12         13         14         15
    11  H    0.000000
    12  H    1.772266   0.000000
    13  C    4.050097   3.467924   0.000000
    14  H    4.158812   4.034033   1.096384   0.000000
    15  H    3.782333   3.047227   1.096339   1.771047   0.000000
    16  H    5.113622   4.351065   1.096788   1.772254   1.767213
    17  C    4.666873   4.255298   2.510001   2.795177   3.477836
    18  H    5.614261   4.988924   2.764015   3.162662   3.760123
    19  H    4.826852   4.441187   3.479403   3.802961   4.342446
    20  H    4.826316   4.785064   2.768825   2.605180   3.797832
                   16         17         18         19         20
    16  H    0.000000
    17  C    2.734936   0.000000
    18  H    2.533368   1.096396   0.000000
    19  H    3.754968   1.096792   1.767679   0.000000
    20  H    3.074762   1.096769   1.767706   1.771122   0.000000
 Stoichiometry    C6H14
 Framework group  C1[X(C6H14)]
 Deg. of freedom    54
 Full point group                 C1      NOp   1
 Largest Abelian subgroup         C1      NOp   1
 Largest concise Abelian subgroup C1      NOp   1
                         Standard orientation:                         
 ---------------------------------------------------------------------
 Center     Atomic      Atomic             Coordinates (Angstroms)
 Number     Number       Type             X           Y           Z
 ---------------------------------------------------------------------
      1          6           0        0.477159   -0.892246   -1.250303
      2          1           0        0.377598   -0.296765   -2.165483
      3          1           0       -0.333573   -1.630233   -1.241966
      4          1           0        1.422549   -1.444965   -1.310710
      5          6           0        0.431152   -0.002028   -0.000020
      6          6           0       -0.846316    0.856814   -0.000968
      7          1           0       -0.831834    1.519274   -0.890147
      8          1           0       -0.831714    1.520973    0.886843
      9          6           0       -2.146493    0.058905   -0.000191
     10          1           0       -2.221807   -0.581999    0.886679
     11          1           0       -3.013379    0.734134    0.002355
     12          1           0       -2.224613   -0.578878   -0.889147
     13          6           0        0.481938   -0.881348    1.257850
     14          1           0        0.389638   -0.277603    2.168361
     15          1           0       -0.331043   -1.616883    1.260861
     16          1           0        1.426018   -1.436413    1.317502
     17          6           0        1.648660    0.946315   -0.006474
     18          1           0        2.589958    0.384141   -0.004912
     19          1           0        1.651607    1.588844   -0.895350
     20          1           0        1.654000    1.597898    0.875747
 ---------------------------------------------------------------------
 Rotational constants (GHZ):      4.2872800      2.5237165      2.5154222
 Leave Link  202 at Mon Sep 14 19:12:39 2015, MaxMem=  402653184 cpu:       0.0
 (Enter /share/apps/g09/l301.exe)
 Standard basis: VSTO-6G (5D, 7F)
 Ernie: Thresh=  0.10000D-02 Tol=  0.10000D-05 Strict=F.
  NNHCO=     0 NNPyr=     0 NCTC=     0               EPep=         0.000000000
    EC=       134.286119912  ECS=         3.253762764   EG=         0.304714401
   EHC=         0.000473804  EAt=       -31.187935768  AtH=         2.796400831
 EPDDG=         0.000000000  ECC=       137.845070881 EAtT=        33.984336599
 There are    38 symmetry adapted basis functions of A   symmetry.
 Integral buffers will be    131072 words long.
 Regular integral format.
 Two-electron integral symmetry is turned off.
    38 basis functions,   228 primitive gaussians,    38 cartesian basis functions
    19 alpha electrons       19 beta electrons
       nuclear repulsion energy       171.8294074797 Hartrees.
 IExCor=    0 DFT=F Ex=HF Corr=None ExCW=0 ScaHFX=  1.000000
 ScaDFX=  1.000000  1.000000  1.000000  1.000000 ScalE2=  1.000000  1.000000
 IRadAn=      0 IRanWt=     -1 IRanGd=            0 ICorTp=0
 Leave Link  301 at Mon Sep 14 19:12:39 2015, MaxMem=  402653184 cpu:       0.1
 (Enter /share/apps/g09/l302.exe)
 Do NDO integrals.
 NPDir=0 NMtPBC=     1 NCelOv=     1 NCel=       1 NClECP=     1 NCelD=      1
         NCelK=      1 NCelE2=     1 NClLst=     1 CellRange=     0.0.
 One-electron integrals computed using PRISM.
 NBasis=    38 RedAO= F  NBF=    38
 NBsUse=    38 1.00D-04 NBFU=    38
 Leave Link  302 at Mon Sep 14 19:12:40 2015, MaxMem=  402653184 cpu:       0.1
 (Enter /share/apps/g09/l303.exe)
 DipDrv:  MaxL=1.
 Leave Link  303 at Mon Sep 14 19:12:40 2015, MaxMem=  402653184 cpu:       0.0
 (Enter /share/apps/g09/l401.exe)
 Initial guess read from the read-write file.
 B after Tr=     0.000000    0.000000    0.000000
         Rot=    1.000000    0.000000    0.000000    0.000000 Ang=   0.00 deg.
 Guess basis will be translated and rotated to current coordinates.
 Initial guess orbital symmetries:
       Occupied  (A) (A) (A) (A) (A) (A) (A) (A) (A) (A) (A) (A)
                 (A) (A) (A) (A) (A) (A) (A)
       Virtual   (A) (A) (A) (A) (A) (A) (A) (A) (A) (A) (A) (A)
                 (A) (A) (A) (A) (A) (A) (A)
 The electronic state of the initial guess is 1-A.
 Leave Link  401 at Mon Sep 14 19:12:40 2015, MaxMem=  402653184 cpu:       0.1
 (Enter /share/apps/g09/l502.exe)
 Closed shell SCF:
 Requested convergence on RMS density matrix=1.00D-08 within 128 cycles.
 Requested convergence on MAX density matrix=1.00D-06.
 Requested convergence on             energy=1.00D-06.
 No special actions if energy rises.
 Using DIIS extrapolation, IDIIS=  1040.
 Overlap will be assumed to be unity.
 Two-electron integral symmetry not used.
 Keep J ints in memory in canonical form, NReq=884654.
 IEnd=       81865 IEndB=       81865 NGot=   402653184 MDV=   402586639
 LenX=   402586639 LenY=   402584754
 Symmetry not used in FoFDir.
 MinBra= 0 MaxBra= 1 Meth=40.
 IRaf=       0 NMat=   1 IRICut=       1 DoRegI=T DoRafI=F ISym2E= 0 JSym2E=0.

 Cycle   1  Pass 1  IDiag  1:
 E=-0.521004707188126E-01
 DIIS: error= 7.06D-03 at cycle   1 NSaved=   1.
 NSaved= 1 IEnMin= 1 EnMin=-0.521004707188126E-01 IErMin= 1 ErrMin= 7.06D-03
 ErrMax= 7.06D-03 EMaxC= 1.00D-01 BMatC= 1.80D-03 BMatP= 1.80D-03
 IDIUse=3 WtCom= 9.29D-01 WtEn= 7.06D-02
 Coeff-Com:  0.100D+01
 Coeff-En:   0.100D+01
 Coeff:      0.100D+01
 GapD=    2.000 DampG=2.000 DampE=1.000 DampFc=2.0000 IDamp=-1.
 RMSDP=2.06D-03 MaxDP=1.51D-02              OVMax= 0.00D+00

 Cycle   2  Pass 1  IDiag  3:
 E=-0.586558860059085E-01 Delta-E=       -0.006555415287 Rises=F Damp=F
 DIIS: error= 3.14D-03 at cycle   2 NSaved=   2.
 NSaved= 2 IEnMin= 2 EnMin=-0.586558860059085E-01 IErMin= 2 ErrMin= 3.14D-03
 ErrMax= 3.14D-03 EMaxC= 1.00D-01 BMatC= 3.03D-04 BMatP= 1.80D-03
 IDIUse=3 WtCom= 9.69D-01 WtEn= 3.14D-02
 Coeff-Com: -0.632D+00 0.163D+01
 Coeff-En:   0.000D+00 0.100D+01
 Coeff:     -0.613D+00 0.161D+01
 Gap=     0.557 Goal=   None    Shift=    0.000
 RMSDP=1.44D-03 MaxDP=1.08D-02 DE=-6.56D-03 OVMax= 0.00D+00

 Cycle   3  Pass 1  IDiag  3:
 E=-0.601219475188657E-01 Delta-E=       -0.001466061513 Rises=F Damp=F
 DIIS: error= 3.75D-04 at cycle   3 NSaved=   3.
 NSaved= 3 IEnMin= 3 EnMin=-0.601219475188657E-01 IErMin= 3 ErrMin= 3.75D-04
 ErrMax= 3.75D-04 EMaxC= 1.00D-01 BMatC= 4.50D-06 BMatP= 3.03D-04
 IDIUse=3 WtCom= 9.96D-01 WtEn= 3.75D-03
 Coeff-Com:  0.219D+00-0.642D+00 0.142D+01
 Coeff-En:   0.000D+00 0.000D+00 0.100D+01
 Coeff:      0.218D+00-0.640D+00 0.142D+01
 Gap=     0.557 Goal=   None    Shift=    0.000
 RMSDP=1.93D-04 MaxDP=1.43D-03 DE=-1.47D-03 OVMax= 0.00D+00

 Cycle   4  Pass 1  IDiag  3:
 E=-0.601444477321991E-01 Delta-E=       -0.000022500213 Rises=F Damp=F
 DIIS: error= 3.22D-05 at cycle   4 NSaved=   4.
 NSaved= 4 IEnMin= 4 EnMin=-0.601444477321991E-01 IErMin= 4 ErrMin= 3.22D-05
 ErrMax= 3.22D-05 EMaxC= 1.00D-01 BMatC= 6.51D-08 BMatP= 4.50D-06
 IDIUse=1 WtCom= 1.00D+00 WtEn= 0.00D+00
 Coeff-Com: -0.855D-01 0.253D+00-0.599D+00 0.143D+01
 Coeff:     -0.855D-01 0.253D+00-0.599D+00 0.143D+01
 Gap=     0.557 Goal=   None    Shift=    0.000
 RMSDP=2.10D-05 MaxDP=1.43D-04 DE=-2.25D-05 OVMax= 0.00D+00

 Cycle   5  Pass 1  IDiag  3:
 E=-0.601448051736497E-01 Delta-E=       -0.000000357441 Rises=F Damp=F
 DIIS: error= 1.15D-05 at cycle   5 NSaved=   5.
 NSaved= 5 IEnMin= 5 EnMin=-0.601448051736497E-01 IErMin= 5 ErrMin= 1.15D-05
 ErrMax= 1.15D-05 EMaxC= 1.00D-01 BMatC= 7.46D-09 BMatP= 6.51D-08
 IDIUse=1 WtCom= 1.00D+00 WtEn= 0.00D+00
 Coeff-Com:  0.475D-01-0.141D+00 0.337D+00-0.992D+00 0.175D+01
 Coeff:      0.475D-01-0.141D+00 0.337D+00-0.992D+00 0.175D+01
 Gap=     0.557 Goal=   None    Shift=    0.000
 RMSDP=9.76D-06 MaxDP=9.28D-05 DE=-3.57D-07 OVMax= 0.00D+00

 Cycle   6  Pass 1  IDiag  3:
 E=-0.601448614661990E-01 Delta-E=       -0.000000056293 Rises=F Damp=F
 DIIS: error= 3.54D-06 at cycle   6 NSaved=   6.
 NSaved= 6 IEnMin= 6 EnMin=-0.601448614661990E-01 IErMin= 6 ErrMin= 3.54D-06
 ErrMax= 3.54D-06 EMaxC= 1.00D-01 BMatC= 8.64D-10 BMatP= 7.46D-09
 IDIUse=1 WtCom= 1.00D+00 WtEn= 0.00D+00
 Coeff-Com: -0.260D-01 0.769D-01-0.185D+00 0.575D+00-0.128D+01 0.184D+01
 Coeff:     -0.260D-01 0.769D-01-0.185D+00 0.575D+00-0.128D+01 0.184D+01
 Gap=     0.557 Goal=   None    Shift=    0.000
 RMSDP=4.00D-06 MaxDP=4.58D-05 DE=-5.63D-08 OVMax= 0.00D+00

 Cycle   7  Pass 1  IDiag  3:
 E=-0.601448688166215E-01 Delta-E=       -0.000000007350 Rises=F Damp=F
 DIIS: error= 1.09D-06 at cycle   7 NSaved=   7.
 NSaved= 7 IEnMin= 7 EnMin=-0.601448688166215E-01 IErMin= 7 ErrMin= 1.09D-06
 ErrMax= 1.09D-06 EMaxC= 1.00D-01 BMatC= 6.76D-11 BMatP= 8.64D-10
 IDIUse=1 WtCom= 1.00D+00 WtEn= 0.00D+00
 Coeff-Com:  0.845D-02-0.250D-01 0.601D-01-0.190D+00 0.460D+00-0.884D+00
 Coeff-Com:  0.157D+01
 Coeff:      0.845D-02-0.250D-01 0.601D-01-0.190D+00 0.460D+00-0.884D+00
 Coeff:      0.157D+01
 Gap=     0.557 Goal=   None    Shift=    0.000
 RMSDP=1.04D-06 MaxDP=1.15D-05 DE=-7.35D-09 OVMax= 0.00D+00

 Cycle   8  Pass 1  IDiag  3:
 E=-0.601448693487612E-01 Delta-E=       -0.000000000532 Rises=F Damp=F
 DIIS: error= 3.26D-07 at cycle   8 NSaved=   8.
 NSaved= 8 IEnMin= 8 EnMin=-0.601448693487612E-01 IErMin= 8 ErrMin= 3.26D-07
 ErrMax= 3.26D-07 EMaxC= 1.00D-01 BMatC= 5.78D-12 BMatP= 6.76D-11
 IDIUse=1 WtCom= 1.00D+00 WtEn= 0.00D+00
 Coeff-Com: -0.149D-02 0.441D-02-0.106D-01 0.346D-01-0.948D-01 0.229D+00
 Coeff-Com: -0.690D+00 0.153D+01
 Coeff:     -0.149D-02 0.441D-02-0.106D-01 0.346D-01-0.948D-01 0.229D+00
 Coeff:     -0.690D+00 0.153D+01
 Gap=     0.557 Goal=   None    Shift=    0.000
 RMSDP=2.96D-07 MaxDP=2.99D-06 DE=-5.32D-10 OVMax= 0.00D+00

 Cycle   9  Pass 1  IDiag  3:
 E=-0.601448693927580E-01 Delta-E=       -0.000000000044 Rises=F Damp=F
 DIIS: error= 1.15D-07 at cycle   9 NSaved=   9.
 NSaved= 9 IEnMin= 9 EnMin=-0.601448693927580E-01 IErMin= 9 ErrMin= 1.15D-07
 ErrMax= 1.15D-07 EMaxC= 1.00D-01 BMatC= 6.34D-13 BMatP= 5.78D-12
 IDIUse=1 WtCom= 1.00D+00 WtEn= 0.00D+00
 Coeff-Com:  0.365D-03-0.108D-02 0.262D-02-0.906D-02 0.292D-01-0.866D-01
 Coeff-Com:  0.352D+00-0.107D+01 0.178D+01
 Coeff:      0.365D-03-0.108D-02 0.262D-02-0.906D-02 0.292D-01-0.866D-01
 Coeff:      0.352D+00-0.107D+01 0.178D+01
 Gap=     0.557 Goal=   None    Shift=    0.000
 RMSDP=9.58D-08 MaxDP=1.19D-06 DE=-4.40D-11 OVMax= 0.00D+00

 Cycle  10  Pass 1  IDiag  3:
 E=-0.601448693976181E-01 Delta-E=       -0.000000000005 Rises=F Damp=F
 DIIS: error= 3.89D-08 at cycle  10 NSaved=  10.
 NSaved=10 IEnMin=10 EnMin=-0.601448693976181E-01 IErMin=10 ErrMin= 3.89D-08
 ErrMax= 3.89D-08 EMaxC= 1.00D-01 BMatC= 4.99D-14 BMatP= 6.34D-13
 IDIUse=1 WtCom= 1.00D+00 WtEn= 0.00D+00
 Coeff-Com: -0.298D-04 0.864D-04-0.223D-03 0.109D-02-0.588D-02 0.244D-01
 Coeff-Com: -0.128D+00 0.442D+00-0.992D+00 0.166D+01
 Coeff:     -0.298D-04 0.864D-04-0.223D-03 0.109D-02-0.588D-02 0.244D-01
 Coeff:     -0.128D+00 0.442D+00-0.992D+00 0.166D+01
 Gap=     0.557 Goal=   None    Shift=    0.000
 RMSDP=2.93D-08 MaxDP=3.70D-07 DE=-4.86D-12 OVMax= 0.00D+00

 Cycle  11  Pass 1  IDiag  3:
 E=-0.601448693977886E-01 Delta-E=        0.000000000000 Rises=F Damp=F
 DIIS: error= 6.11D-09 at cycle  11 NSaved=  11.
 NSaved=11 IEnMin=11 EnMin=-0.601448693977886E-01 IErMin=11 ErrMin= 6.11D-09
 ErrMax= 6.11D-09 EMaxC= 1.00D-01 BMatC= 2.11D-15 BMatP= 4.99D-14
 IDIUse=1 WtCom= 1.00D+00 WtEn= 0.00D+00
 Coeff-Com:  0.310D-05-0.838D-05 0.279D-04-0.265D-03 0.205D-02-0.955D-02
 Coeff-Com:  0.538D-01-0.191D+00 0.452D+00-0.897D+00 0.159D+01
 Coeff:      0.310D-05-0.838D-05 0.279D-04-0.265D-03 0.205D-02-0.955D-02
 Coeff:      0.538D-01-0.191D+00 0.452D+00-0.897D+00 0.159D+01
 Gap=     0.557 Goal=   None    Shift=    0.000
 RMSDP=5.06D-09 MaxDP=5.78D-08 DE=-1.71D-13 OVMax= 0.00D+00

 Cycle  12  Pass 2  IDiag  1:
 RMSDP=5.06D-09 MaxDP=5.78D-08 DE=-1.71D-13 OVMax= 0.00D+00

 SCF Done:  E(RPM6) = -0.601448693978E-01 A.U. after   12 cycles
             Convg  =    0.5063D-08             -V/T =  0.9989
 KE=-5.647600468994D+01 PE=-2.643443443643D+02 EE= 1.489307967051D+02
 Leave Link  502 at Mon Sep 14 19:12:43 2015, MaxMem=  402653184 cpu:       2.7
 (Enter /share/apps/g09/l701.exe)
 Compute integral first derivatives.
 ... and contract with generalized density number  0.
 Leave Link  701 at Mon Sep 14 19:12:46 2015, MaxMem=  402653184 cpu:       0.2
 (Enter /share/apps/g09/l702.exe)
 L702 exits ... SP integral derivatives will be done elsewhere.
 Leave Link  702 at Mon Sep 14 19:12:47 2015, MaxMem=  402653184 cpu:       0.0
 (Enter /share/apps/g09/l703.exe)
 Compute integral first derivatives, UseDBF=F ICtDFT=           0.
 Integral derivatives from FoFDir, PRISM(SPDF).
 Calling FoFJK, ICntrl=      2127 FMM=F ISym2X=0 I1Cent= 0 IOpClX= 0 NMat=1 NMatS=1 NMatT=0.
 FoFCou: FMM=F IPFlag=           0 FMFlag=      100000 FMFlg1=         800
         NFxFlg=           0 DoJE=F BraDBF=F KetDBF=F FulRan=T
         Omega=  0.000000  0.000000  1.000000  0.000000  0.000000 ICntrl=    2127 IOpCl=  0
         NMat0=    1 NMatS0=    1 NMatT0=    0 NMatD0=    1 NMtDS0=    0 NMtDT0=    0
         I1Cent=           0 NGrid=           0.
 Symmetry not used in FoFCou.
 Leave Link  703 at Mon Sep 14 19:12:49 2015, MaxMem=  402653184 cpu:       0.0
 (Enter /share/apps/g09/l716.exe)
 Dipole        = 1.39301396D-03-1.12379091D-02-9.56584090D-05
 ***** Axes restored to original set *****
 -------------------------------------------------------------------
 Center     Atomic                   Forces (Hartrees/Bohr)
 Number     Number              X              Y              Z
 -------------------------------------------------------------------
      1        6           0.002198413   -0.000479958   -0.003481958
      2        1           0.000229519   -0.001324041   -0.000103679
      3        1           0.000756898    0.000638934   -0.000315980
      4        1          -0.001044175    0.000696165   -0.000360912
      5        6           0.004193442   -0.001942119   -0.000146162
      6        6          -0.005614261    0.004890088    0.001415684
      7        1          -0.000508086    0.000342323    0.001223785
      8        1          -0.000156036    0.001284644   -0.000463068
      9        6          -0.001790767    0.000975701    0.000127632
     10        1          -0.000441997    0.000358883   -0.000924161
     11        1           0.000763470   -0.001343588   -0.000567109
     12        1          -0.000778107   -0.000471108    0.000647476
     13        6           0.001068405   -0.003427918    0.002058204
     14        1           0.000395273   -0.000876745   -0.000943700
     15        1           0.000497107   -0.000005628    0.000899435
     16        1          -0.001207458    0.000291902    0.000424842
     17        6           0.001618256    0.001041823    0.000878982
     18        1          -0.000864798    0.000762975    0.000229701
     19        1           0.000123904   -0.001267369    0.000756491
     20        1           0.000560996   -0.000144965   -0.001355505
 -------------------------------------------------------------------
 Cartesian Forces:  Max     0.005614261 RMS     0.001557922
 Leave Link  716 at Mon Sep 14 19:12:51 2015, MaxMem=  402653184 cpu:       0.0
 (Enter /share/apps/g09/l103.exe)

 GradGradGradGradGradGradGradGradGradGradGradGradGradGradGradGradGradGrad
 Berny optimization.
 Using GEDIIS/GDIIS optimizer.
 Internal  Forces:  Max     0.010537994 RMS     0.001388904
 Search for a local minimum.
 Step number   2 out of a maximum of  110
 All quantities printed in internal units (Hartrees-Bohrs-Radians)
 RMS Force = .13889D-02 SwitMx=.10000D-02 MixMth= 1
 Mixed Optimization -- RFO/linear search
 Update second derivatives using D2CorX and points    1    2
 DE= -3.17D-03 DEPred=-3.34D-03 R= 9.50D-01
 SS=  1.41D+00  RLast= 1.78D-01 DXNew= 5.0454D-01 5.3285D-01
 Trust test= 9.50D-01 RLast= 1.78D-01 DXMaxT set to 5.05D-01
 Use linear search instead of GDIIS.
     Eigenvalues ---    0.00230   0.00230   0.00230   0.00230   0.00339
     Eigenvalues ---    0.03299   0.04605   0.04729   0.04872   0.04954
     Eigenvalues ---    0.05342   0.05377   0.05381   0.05382   0.05396
     Eigenvalues ---    0.05398   0.05428   0.05546   0.08696   0.12410
     Eigenvalues ---    0.14264   0.14492   0.15036   0.16000   0.16000
     Eigenvalues ---    0.16000   0.16000   0.16000   0.16000   0.16000
     Eigenvalues ---    0.16000   0.16000   0.16000   0.16026   0.21413
     Eigenvalues ---    0.25435   0.27791   0.27956   0.28078   0.29162
     Eigenvalues ---    0.32005   0.32016   0.32106   0.32112   0.32115
     Eigenvalues ---    0.32118   0.32132   0.32143   0.32194   0.32207
     Eigenvalues ---    0.32246   0.32320   0.32352   0.382061000.00000
     Eigenvalues --- 1000.000001000.000001000.000001000.000001000.00000
     Eigenvalues --- 1000.000001000.000001000.000001000.000001000.00000
     Eigenvalues --- 1000.000001000.000001000.000001000.000001000.00000
     Eigenvalues --- 1000.000001000.000001000.000001000.000001000.00000
     Eigenvalues --- 1000.000001000.000001000.000001000.000001000.00000
     Eigenvalues --- 1000.000001000.000001000.000001000.000001000.00000
     Eigenvalues --- 1000.000001000.000001000.000001000.000001000.00000
     Eigenvalues --- 1000.000001000.000001000.000001000.000001000.00000
     Eigenvalues --- 1000.000001000.000001000.000001000.000001000.00000
 RFO step:  Lambda=-7.83149027D-04 EMin= 2.29998031D-03
 Quartic linear search produced a step of -0.03032.
 Iteration  1 RMS(Cart)=  0.01594733 RMS(Int)=  0.00007356
 Iteration  2 RMS(Cart)=  0.00008496 RMS(Int)=  0.00001054
 Iteration  3 RMS(Cart)=  0.00000001 RMS(Int)=  0.00001054
 Variable       Old X    -DE/DX   Delta X   Delta X   Delta X     New X
                                 (Linear)    (Quad)   (Total)
    R1        2.07187  -0.00110   0.00103  -0.00848  -0.00745   2.06442
    R2        2.07180  -0.00075   0.00098  -0.00717  -0.00619   2.06561
    R3        2.07260  -0.00119   0.00102  -0.00872  -0.00770   2.06490
    R4        2.90171   0.00462   0.00054   0.01315   0.01370   2.91540
    R5        2.90891   0.01054   0.00104   0.03243   0.03347   2.94238
    R6        2.90183   0.00459   0.00054   0.01306   0.01360   2.91544
    R7        2.91638   0.00150   0.00019   0.00424   0.00443   2.92081
    R8        2.09555  -0.00027   0.00039  -0.00277  -0.00238   2.09318
    R9        2.09541  -0.00023   0.00039  -0.00264  -0.00225   2.09316
   R10        2.88276   0.00233   0.00039   0.00574   0.00613   2.88889
   R11        2.07265  -0.00062   0.00089  -0.00631  -0.00542   2.06723
   R12        2.07649  -0.00148   0.00085  -0.00875  -0.00790   2.06859
   R13        2.07278  -0.00065   0.00089  -0.00643  -0.00554   2.06724
   R14        2.07187  -0.00110   0.00103  -0.00849  -0.00746   2.06441
   R15        2.07178  -0.00075   0.00098  -0.00715  -0.00617   2.06561
   R16        2.07263  -0.00120   0.00102  -0.00875  -0.00773   2.06490
   R17        2.07189  -0.00115   0.00105  -0.00873  -0.00768   2.06420
[...]
 ! D13   D(13,5,6,7)           176.5289         -DE/DX =    0.0                 !
 ! D14   D(13,5,6,8)            61.7139         -DE/DX =    0.0                 !
 ! D15   D(13,5,6,9)           -60.8809         -DE/DX =    0.0                 !
 ! D16   D(17,5,6,7)            57.3501         -DE/DX =    0.0                 !
 ! D17   D(17,5,6,8)           -57.4649         -DE/DX =    0.0                 !
 ! D18   D(17,5,6,9)           179.9402         -DE/DX =    0.0                 !
 ! D19   D(1,5,13,14)         -178.6523         -DE/DX =    0.0                 !
 ! D20   D(1,5,13,15)          -58.633          -DE/DX =    0.0                 !
 ! D21   D(1,5,13,16)           61.2157         -DE/DX =    0.0                 !
 ! D22   D(6,5,13,14)          -56.4596         -DE/DX =    0.0                 !
 ! D23   D(6,5,13,15)           63.5596         -DE/DX =    0.0                 !
 ! D24   D(6,5,13,16)         -176.5916         -DE/DX =    0.0                 !
 ! D25   D(17,5,13,14)          62.191          -DE/DX =    0.0                 !
 ! D26   D(17,5,13,15)        -177.7898         -DE/DX =    0.0                 !
 ! D27   D(17,5,13,16)         -57.941          -DE/DX =    0.0                 !
 ! D28   D(1,5,17,18)          -59.823          -DE/DX =    0.0                 !
 ! D29   D(1,5,17,19)           59.9409         -DE/DX =    0.0                 !
 ! D30   D(1,5,17,20)         -179.5873         -DE/DX =    0.0                 !
 ! D31   D(6,5,17,18)          179.9694         -DE/DX =    0.0                 !
 ! D32   D(6,5,17,19)          -60.2667         -DE/DX =    0.0                 !
 ! D33   D(6,5,17,20)           60.2051         -DE/DX =    0.0                 !
 ! D34   D(13,5,17,18)          59.7645         -DE/DX =    0.0                 !
 ! D35   D(13,5,17,19)         179.5284         -DE/DX =    0.0                 !
 ! D36   D(13,5,17,20)         -59.9998         -DE/DX =    0.0                 !
 ! D37   D(5,6,9,10)            60.0476         -DE/DX =    0.0                 !
 ! D38   D(5,6,9,11)           179.8723         -DE/DX =    0.0                 !
 ! D39   D(5,6,9,12)           -60.3047         -DE/DX =    0.0                 !
 ! D40   D(7,6,9,10)          -177.5121         -DE/DX =    0.0                 !
 ! D41   D(7,6,9,11)           -57.6875         -DE/DX =    0.0                 !
 ! D42   D(7,6,9,12)            62.1355         -DE/DX =    0.0                 !
 ! D43   D(8,6,9,10)           -62.3947         -DE/DX =    0.0                 !
 ! D44   D(8,6,9,11)            57.4299         -DE/DX =    0.0                 !
 ! D45   D(8,6,9,12)           177.253          -DE/DX =    0.0                 !
 --------------------------------------------------------------------------------
 GradGradGradGradGradGradGradGradGradGradGradGradGradGradGradGradGradGrad

 Largest change from initial coordinates is atom   11       3.661 Angstoms.
 Leave Link  103 at Mon Sep 14 19:13:45 2015, MaxMem=  402653184 cpu:       0.0
 (Enter /share/apps/g09/l202.exe)
                          Input orientation:                          
 ---------------------------------------------------------------------
 Center     Atomic      Atomic             Coordinates (Angstroms)
 Number     Number       Type             X           Y           Z
 ---------------------------------------------------------------------
      1          6           0        0.724358   -0.248457   -1.424712
      2          1           0        0.807012    0.707103   -1.951200
      3          1           0       -0.062052   -0.828565   -1.918004
      4          1           0        1.666127   -0.786962   -1.567738
      5          6           0        0.416911   -0.042867    0.070064
      6          6           0       -0.875930    0.798579    0.250898
      7          1           0       -0.720814    1.797321   -0.201251
      8          1           0       -1.037772    0.981025    1.330955
      9          6           0       -2.130545    0.166778   -0.345311
     10          1           0       -2.347033   -0.807644    0.107202
     11          1           0       -3.005607    0.805973   -0.183171
     12          1           0       -2.031697    0.012973   -1.425902
     13          6           0        0.273516   -1.411018    0.762042
     14          1           0        0.030811   -1.299181    1.823034
     15          1           0       -0.521267   -2.008617    0.304305
     16          1           0        1.198850   -1.991123    0.694219
     17          6           0        1.585903    0.728516    0.721163
     18          1           0        2.527070    0.178545    0.623421
     19          1           0        1.731466    1.707268    0.254611
     20          1           0        1.414593    0.892254    1.789176
 ---------------------------------------------------------------------
                    Distance matrix (angstroms):
                    1          2          3          4          5
     1  C    0.000000
     2  H    1.094128   0.000000
     3  H    1.094670   1.764837   0.000000
     4  H    1.094245   1.765603   1.763808   0.000000
     5  C    1.539853   2.190923   2.190695   2.190118   0.000000
     6  C    2.542612   2.773066   2.830924   3.504773   1.553116
     7  H    2.787577   2.566154   3.205696   3.774029   2.180440
     8  H    3.494343   3.775023   3.844786   4.340423   2.180436
     9  C    3.080259   3.391175   2.782577   4.101056   2.589598
    10  H    3.477484   4.059493   3.053365   4.348714   2.868039
    11  H    4.070121   4.203780   3.787595   5.126360   3.535291
    12  H    2.768426   2.969178   2.197692   3.786016   2.869967
    13  C    2.517281   3.483208   2.763061   2.785083   1.539881
    14  H    3.483229   4.344250   3.771666   3.799206   2.190959
    15  H    2.763918   3.771838   2.557745   3.127568   2.190712
    16  H    2.784223   3.798974   3.124920   2.604766   2.190137
    17  C    2.510282   2.783640   3.479290   2.746303   1.544508
    18  H    2.761693   3.141122   3.765191   2.544524   2.192715
    19  H    2.767535   2.592402   3.790437   3.089726   2.196607
    20  H    3.479472   3.793923   4.345674   3.761903   2.196626
                    6          7          8          9         10
     6  C    0.000000
     7  H    1.107242   0.000000
     8  H    1.107250   1.764782   0.000000
     9  C    1.526006   2.160269   2.160328   0.000000
    10  H    2.182830   3.086353   2.532010   1.095963   0.000000
    11  H    2.173475   2.490658   2.489095   1.095716   1.766860
    12  H    2.182803   2.530233   3.086303   1.095948   1.767274
    13  C    2.542600   3.494290   2.786576   3.081425   2.767698
    14  H    2.773876   3.775049   2.565804   3.394438   2.973185
    15  H    2.830015   3.844550   3.202928   2.782825   2.194221
    16  H    3.504809   4.340424   3.773801   4.101467   3.783979
    17  C    2.507325   2.704465   2.705416   3.907032   4.266699
    18  H    3.479027   3.721461   3.721919   4.757305   4.999594
    19  H    2.761203   2.495916   3.058533   4.200969   4.793815
    20  H    2.760719   3.056290   2.496385   4.201232   4.457412
                   11         12         13         14         15
    11  H    0.000000
    12  H    1.766842   0.000000
    13  C    4.069536   3.482650   0.000000
    14  H    4.204327   4.065866   1.094128   0.000000
    15  H    3.785695   3.059712   1.094682   1.764830   0.000000
    16  H    5.125526   4.352901   1.094242   1.765594   1.763843
    17  C    4.680361   4.267190   2.510306   2.782802   3.479344
    18  H    5.626257   5.000949   2.761237   3.139117   3.765351
    19  H    4.841884   4.456024   3.479484   3.793536   4.345696
    20  H    4.841050   4.794452   2.768054   2.591985   3.790442
                   16         17         18         19         20
    16  H    0.000000
    17  C    2.747176   0.000000
    18  H    2.544925   1.094449   0.000000
    19  H    3.762317   1.093989   1.762385   0.000000
    20  H    3.091818   1.093988   1.762377   1.766224   0.000000
 Stoichiometry    C6H14
 Framework group  C1[X(C6H14)]
 Deg. of freedom    54
 Full point group                 C1      NOp   1
 Largest Abelian subgroup         C1      NOp   1
 Largest concise Abelian subgroup C1      NOp   1
                         Standard orientation:                         
 ---------------------------------------------------------------------
 Center     Atomic      Atomic             Coordinates (Angstroms)
 Number     Number       Type             X           Y           Z
 ---------------------------------------------------------------------
      1          6           0       -0.494136   -0.886527    1.258610
      2          1           0       -0.425022   -0.288260    2.172074
      3          1           0        0.325625   -1.611732    1.277871
      4          1           0       -1.430636   -1.450743    1.303325
      5          6           0       -0.431711   -0.001568    0.000000
      6          6           0        0.863073    0.856163   -0.000713
      7          1           0        0.851102    1.525618    0.881144
      8          1           0        0.851042    1.524220   -0.883638
      9          6           0        2.157415    0.047846   -0.000049
     10          1           0        2.231242   -0.598543   -0.882016
     11          1           0        3.031528    0.708536   -0.002879
     12          1           0        2.233325   -0.593703    0.885250
     13          6           0       -0.495557   -0.886387   -1.258670
     14          1           0       -0.429358   -0.287851   -2.172173
     15          1           0        0.325297   -1.610319   -1.279873
     16          1           0       -1.431295   -1.452012   -1.301440
     17          6           0       -1.642194    0.957722    0.000744
     18          1           0       -2.586505    0.404464    0.000722
     19          1           0       -1.643612    1.603000    0.884161
     20          1           0       -1.644073    1.603833   -0.882062
 ---------------------------------------------------------------------
 Rotational constants (GHZ):      4.2633794      2.5031066      2.4954766
 Leave Link  202 at Mon Sep 14 19:13:49 2015, MaxMem=  402653184 cpu:       0.0
 (Enter /share/apps/g09/l601.exe)
 Copying SCF densities to generalized density rwf, IOpCl= 0 IROHF=0.

 **********************************************************************

            Population analysis using the SCF density.

 **********************************************************************

 Orbital symmetries:
       Occupied  (A) (A) (A) (A) (A) (A) (A) (A) (A) (A) (A) (A)
                 (A) (A) (A) (A) (A) (A) (A)
       Virtual   (A) (A) (A) (A) (A) (A) (A) (A) (A) (A) (A) (A)
                 (A) (A) (A) (A) (A) (A) (A)
 The electronic state is 1-A.
 Alpha  occ. eigenvalues --   -1.07272  -0.95309  -0.88392  -0.88256  -0.79240
 Alpha  occ. eigenvalues --   -0.66627  -0.57057  -0.56580  -0.54151  -0.52536
 Alpha  occ. eigenvalues --   -0.49594  -0.47749  -0.47302  -0.46054  -0.45901
 Alpha  occ. eigenvalues --   -0.43563  -0.41346  -0.40924  -0.40164
 Alpha virt. eigenvalues --    0.15473   0.16172   0.16353   0.18155   0.18414
 Alpha virt. eigenvalues --    0.21404   0.22199   0.22400   0.22428   0.22681
 Alpha virt. eigenvalues --    0.22739   0.22827   0.22881   0.23364   0.24762
 Alpha virt. eigenvalues --    0.25549   0.26019   0.26563   0.26663
          Condensed to atoms (all electrons):
              1          2          3          4          5          6
     1  C    4.528059   0.000000   0.000000   0.000000   0.000000   0.000000
     2  H    0.000000   0.848405   0.000000   0.000000   0.000000   0.000000
     3  H    0.000000   0.000000   0.846319   0.000000   0.000000   0.000000
     4  H    0.000000   0.000000   0.000000   0.848859   0.000000   0.000000
     5  C    0.000000   0.000000   0.000000   0.000000   3.728347   0.000000
     6  C    0.000000   0.000000   0.000000   0.000000   0.000000   4.295114
     7  H    0.000000   0.000000   0.000000   0.000000   0.000000   0.000000
     8  H    0.000000   0.000000   0.000000   0.000000   0.000000   0.000000
     9  C    0.000000   0.000000   0.000000   0.000000   0.000000   0.000000
    10  H    0.000000   0.000000   0.000000   0.000000   0.000000   0.000000
    11  H    0.000000   0.000000   0.000000   0.000000   0.000000   0.000000
    12  H    0.000000   0.000000   0.000000   0.000000   0.000000   0.000000
    13  C    0.000000   0.000000   0.000000   0.000000   0.000000   0.000000
    14  H    0.000000   0.000000   0.000000   0.000000   0.000000   0.000000
    15  H    0.000000   0.000000   0.000000   0.000000   0.000000   0.000000
    16  H    0.000000   0.000000   0.000000   0.000000   0.000000   0.000000
    17  C    0.000000   0.000000   0.000000   0.000000   0.000000   0.000000
    18  H    0.000000   0.000000   0.000000   0.000000   0.000000   0.000000
    19  H    0.000000   0.000000   0.000000   0.000000   0.000000   0.000000
    20  H    0.000000   0.000000   0.000000   0.000000   0.000000   0.000000
              7          8          9         10         11         12
     1  C    0.000000   0.000000   0.000000   0.000000   0.000000   0.000000
     2  H    0.000000   0.000000   0.000000   0.000000   0.000000   0.000000
     3  H    0.000000   0.000000   0.000000   0.000000   0.000000   0.000000
     4  H    0.000000   0.000000   0.000000   0.000000   0.000000   0.000000
     5  C    0.000000   0.000000   0.000000   0.000000   0.000000   0.000000
     6  C    0.000000   0.000000   0.000000   0.000000   0.000000   0.000000
     7  H    0.867745   0.000000   0.000000   0.000000   0.000000   0.000000
     8  H    0.000000   0.867745   0.000000   0.000000   0.000000   0.000000
     9  C    0.000000   0.000000   4.446121   0.000000   0.000000   0.000000
    10  H    0.000000   0.000000   0.000000   0.855347   0.000000   0.000000
    11  H    0.000000   0.000000   0.000000   0.000000   0.860794   0.000000
    12  H    0.000000   0.000000   0.000000   0.000000   0.000000   0.855364
    13  C    0.000000   0.000000   0.000000   0.000000   0.000000   0.000000
    14  H    0.000000   0.000000   0.000000   0.000000   0.000000   0.000000
    15  H    0.000000   0.000000   0.000000   0.000000   0.000000   0.000000
    16  H    0.000000   0.000000   0.000000   0.000000   0.000000   0.000000
    17  C    0.000000   0.000000   0.000000   0.000000   0.000000   0.000000
    18  H    0.000000   0.000000   0.000000   0.000000   0.000000   0.000000
    19  H    0.000000   0.000000   0.000000   0.000000   0.000000   0.000000
    20  H    0.000000   0.000000   0.000000   0.000000   0.000000   0.000000
             13         14         15         16         17         18
     1  C    0.000000   0.000000   0.000000   0.000000   0.000000   0.000000
     2  H    0.000000   0.000000   0.000000   0.000000   0.000000   0.000000
     3  H    0.000000   0.000000   0.000000   0.000000   0.000000   0.000000
     4  H    0.000000   0.000000   0.000000   0.000000   0.000000   0.000000
     5  C    0.000000   0.000000   0.000000   0.000000   0.000000   0.000000
     6  C    0.000000   0.000000   0.000000   0.000000   0.000000   0.000000
     7  H    0.000000   0.000000   0.000000   0.000000   0.000000   0.000000
     8  H    0.000000   0.000000   0.000000   0.000000   0.000000   0.000000
     9  C    0.000000   0.000000   0.000000   0.000000   0.000000   0.000000
    10  H    0.000000   0.000000   0.000000   0.000000   0.000000   0.000000
    11  H    0.000000   0.000000   0.000000   0.000000   0.000000   0.000000
    12  H    0.000000   0.000000   0.000000   0.000000   0.000000   0.000000
    13  C    4.528075   0.000000   0.000000   0.000000   0.000000   0.000000
    14  H    0.000000   0.848408   0.000000   0.000000   0.000000   0.000000
    15  H    0.000000   0.000000   0.846332   0.000000   0.000000   0.000000
    16  H    0.000000   0.000000   0.000000   0.848849   0.000000   0.000000
    17  C    0.000000   0.000000   0.000000   0.000000   4.538640   0.000000
    18  H    0.000000   0.000000   0.000000   0.000000   0.000000   0.845761
    19  H    0.000000   0.000000   0.000000   0.000000   0.000000   0.000000
    20  H    0.000000   0.000000   0.000000   0.000000   0.000000   0.000000
             19         20
     1  C    0.000000   0.000000
     2  H    0.000000   0.000000
     3  H    0.000000   0.000000
     4  H    0.000000   0.000000
     5  C    0.000000   0.000000
     6  C    0.000000   0.000000
     7  H    0.000000   0.000000
     8  H    0.000000   0.000000
     9  C    0.000000   0.000000
    10  H    0.000000   0.000000
    11  H    0.000000   0.000000
    12  H    0.000000   0.000000
    13  C    0.000000   0.000000
    14  H    0.000000   0.000000
    15  H    0.000000   0.000000
    16  H    0.000000   0.000000
    17  C    0.000000   0.000000
    18  H    0.000000   0.000000
    19  H    0.847855   0.000000
    20  H    0.000000   0.847860
 Mulliken atomic charges:
              1
     1  C   -0.528059
     2  H    0.151595
     3  H    0.153681
     4  H    0.151141
     5  C    0.271653
     6  C   -0.295114
     7  H    0.132255
     8  H    0.132255
     9  C   -0.446121
    10  H    0.144653
    11  H    0.139206
    12  H    0.144636
    13  C   -0.528075
    14  H    0.151592
    15  H    0.153668
    16  H    0.151151
    17  C   -0.538640
    18  H    0.154239
    19  H    0.152145
    20  H    0.152140
 Sum of Mulliken atomic charges =   0.00000
 Mulliken charges with hydrogens summed into heavy atoms:
              1
     1  C   -0.071642
     5  C    0.271653
     6  C   -0.030605
     9  C   -0.017625
    13  C   -0.071663
    17  C   -0.080117
 Sum of Mulliken charges with hydrogens summed into heavy atoms =   0.00000
 Charge=              0.0000 electrons
 Dipole moment (field-independent basis, Debye):
    X=             -0.0116    Y=             -0.0380    Z=              0.0001  Tot=              0.0397
 N-N= 1.715310422802D+02 E-N=-2.637545094624D+02  KE=-5.646809809412D+01
 Leave Link  601 at Mon Sep 14 19:13:49 2015, MaxMem=  402653184 cpu:       0.0
 (Enter /share/apps/g09/l9999.exe)
 1\1\GINC-COMPUTE-0-2\FOpt\RPM6\ZDO\C6H14\HETANJIN\14-Sep-2015\0\\#p PM
 6 opt\\using PM6 to do opt and freq calc.\\0,1\C,0.7243579757,-0.24845
 72514,-1.4247124013\H,0.8070118376,0.7071029585,-1.9512001941\H,-0.062
 0520699,-0.8285652431,-1.9180041445\H,1.6661271368,-0.7869621022,-1.56
 7738324\C,0.4169107811,-0.0428669111,0.070064141\C,-0.8759301296,0.798
 5792423,0.250897808\H,-0.7208138745,1.7973207818,-0.2012509142\H,-1.03
 77717341,0.9810253617,1.3309547613\C,-2.1305445114,0.1667779628,-0.345
 3110623\H,-2.3470332378,-0.8076443912,0.1072022791\H,-3.0056069295,0.8
 05972658,-0.1831706158\H,-2.031696606,0.0129731262,-1.4259016317\C,0.2
 735160644,-1.4110177236,0.7620422597\H,0.0308108431,-1.2991811809,1.82
 30337364\H,-0.5212672009,-2.0086165419,0.3043049108\H,1.1988498681,-1.
 9911232782,0.6942192452\C,1.5859028495,0.7285164416,0.7211625954\H,2.5
 270702991,0.1785446151,0.6234205655\H,1.7314658496,1.7072675029,0.2546
 106257\H,1.4145927887,0.8922539727,1.7891763597\\Version=EM64L-G09RevA
 .01\State=1-A\HF=-0.0604314\RMSD=4.321e-09\RMSF=1.680e-05\Dipole=0.004
 8316,-0.0134995,-0.006217\PG=C01 [X(C6H14)]\\@


      TO SUSPECT YOUR OWN MORTALITY IS TO KNOW THE BEGINNING OF TERROR.
      TO LEARN IRREFUTABLY THAT YOU ARE MORTAL IS TO KNOW THE END
      OF TERROR.

                                                  -- JESSICA
                                                     CHILDREN OF DUNE
                                                     BY FRANK HERBERT
 Job cpu time:  0 days  0 hours  0 minutes 12.8 seconds.
 File lengths (MBytes):  RWF=      5 Int=      0 D2E=      0 Chk=      3 Scr=      1
 Normal termination of Gaussian 09 at Mon Sep 14 19:13:51 2015.
