 Entering Gaussian System, Link 0=/home/hetanjin/apps/g09D01/g09/g09
 Input=C6H14_5_r014_C17_2_opt_B3L.gjf
 Output=C6H14_5_r014_C17_2_opt_B3L.log
 Initial command:
 /home/hetanjin/apps/g09D01/g09/l1.exe "/state/partition1/Gau-9156.inp" -scrdir="/state/partition1/"
 Entering Link 1 = /home/hetanjin/apps/g09D01/g09/l1.exe PID=      9157.
  
 Copyright (c) 1988,1990,1992,1993,1995,1998,2003,2009,2013,
            Gaussian, Inc.  All Rights Reserved.
  
 This is part of the Gaussian(R) 09 program.  It is based on
 the Gaussian(R) 03 system (copyright 2003, Gaussian, Inc.),
 the Gaussian(R) 98 system (copyright 1998, Gaussian, Inc.),
 the Gaussian(R) 94 system (copyright 1995, Gaussian, Inc.),
 the Gaussian 92(TM) system (copyright 1992, Gaussian, Inc.),
 the Gaussian 90(TM) system (copyright 1990, Gaussian, Inc.),
 the Gaussian 88(TM) system (copyright 1988, Gaussian, Inc.),
 the Gaussian 86(TM) system (copyright 1986, Carnegie Mellon
 University), and the Gaussian 82(TM) system (copyright 1983,
 Carnegie Mellon University). Gaussian is a federally registered
 trademark of Gaussian, Inc.
  
 This software contains proprietary and confidential information,
 including trade secrets, belonging to Gaussian, Inc.
  
 This software is provided under written license and may be
 used, copied, transmitted, or stored only in accord with that
 written license.
  
 The following legend is applicable only to US Government
 contracts under FAR:
  
                    RESTRICTED RIGHTS LEGEND
  
 Use, reproduction and disclosure by the US Government is
 subject to restrictions as set forth in subparagraphs (a)
 and (c) of the Commercial Computer Software - Restricted
 Rights clause in FAR 52.227-19.
  
 Gaussian, Inc.
 340 Quinnipiac St., Bldg. 40, Wallingford CT 06492
  
  
 ---------------------------------------------------------------
 Warning -- This program may not be used in any manner that
 competes with the business of Gaussian, Inc. or will provide
 assistance to any competitor of Gaussian, Inc.  The licensee
 of this program is prohibited from giving any competitor of
 Gaussian, Inc. access to this program.  By using this program,
 the user acknowledges that Gaussian, Inc. is engaged in the
 business of creating and licensing software in the field of
 computational chemistry and represents and warrants to the
 licensee that it is not a competitor of Gaussian, Inc. and that
 it will not use this program in any manner prohibited above.
 ---------------------------------------------------------------
  

 Cite this work as:
 Gaussian 09, Revision D.01,
 M. J. Frisch, G. W. Trucks, H. B. Schlegel, G. E. Scuseria, 
 M. A. Robb, J. R. Cheeseman, G. Scalmani, V. Barone, B. Mennucci, 
 G. A. Petersson, H. Nakatsuji, M. Caricato, X. Li, H. P. Hratchian, 
 A. F. Izmaylov, J. Bloino, G. Zheng, J. L. Sonnenberg, M. Hada, 
 M. Ehara, K. Toyota, R. Fukuda, J. Hasegawa, M. Ishida, T. Nakajima, 
 Y. Honda, O. Kitao, H. Nakai, T. Vreven, J. A. Montgomery, Jr., 
 J. E. Peralta, F. Ogliaro, M. Bearpark, J. J. Heyd, E. Brothers, 
 K. N. Kudin, V. N. Staroverov, T. Keith, R. Kobayashi, J. Normand, 
 K. Raghavachari, A. Rendell, J. C. Burant, S. S. Iyengar, J. Tomasi, 
 M. Cossi, N. Rega, J. M. Millam, M. Klene, J. E. Knox, J. B. Cross, 
 V. Bakken, C. Adamo, J. Jaramillo, R. Gomperts, R. E. Stratmann, 
 O. Yazyev, A. J. Austin, R. Cammi, C. Pomelli, J. W. Ochterski, 
 R. L. Martin, K. Morokuma, V. G. Zakrzewski, G. A. Voth, 
 P. Salvador, J. J. Dannenberg, S. Dapprich, A. D. Daniels, 
 O. Farkas, J. B. Foresman, J. V. Ortiz, J. Cioslowski, 
 and D. J. Fox, Gaussian, Inc., Wallingford CT, 2013.
 
 ******************************************
 Gaussian 09:  ES64L-G09RevD.01 24-Apr-2013
                 7-Nov-2015 
 ******************************************
 %mem=6GB
 %nprocshared=4
 Will use up to    4 processors via shared memory.
 ----------------------------------------------
 #p B3LYP/6-31G(d) opt=tight int=ultrafine freq
 ----------------------------------------------
 1/7=10,14=-1,18=20,19=15,26=4,38=1/1,3;
 2/9=110,12=2,17=6,18=5,40=1/2;
 3/5=1,6=6,7=1,11=2,16=1,25=1,30=1,71=1,74=-5,75=-5/1,2,3;
 4//1;
 5/5=2,38=5/2;
 6/7=2,8=2,9=2,10=2,28=1/1;
 7//1,2,3,16;
 1/7=10,14=-1,18=20,19=15,26=4/3(2);
 2/9=110/2;
 99//99;
 2/9=110/2;
 3/5=1,6=6,7=1,11=2,16=1,25=1,30=1,71=1,74=-5,75=-5/1,2,3;
 4/5=5,16=3,69=1/1;
 5/5=2,38=5/2;
 7//1,2,3,16;
 1/7=10,14=-1,18=20,19=15,26=4/3(-5);
 2/9=110/2;
 6/7=2,8=2,9=2,10=2,19=2,28=1/1;
 99/9=1/99;
 Leave Link    1 at Sat Nov  7 02:15:32 2015, MaxMem=   805306368 cpu:         0.2
 (Enter /home/hetanjin/apps/g09D01/g09/l101.exe)
 ---------------------------------------------
 using B3LYP/6-31G(d) to do opt and freq calc.
 ---------------------------------------------
 Symbolic Z-matrix:
 Charge =  0 Multiplicity = 2
 C                     1.61803   0.98966  -0.00005 
 H                     1.59367   1.63643   0.88596 
 H                     1.59367   1.63635  -0.88611 
 H                     2.57832   0.45929  -0.00002 
 C                     0.43635  -0.0005    0. 
 C                    -0.87859   0.82391  -0.00003 
 H                    -0.86571   1.48649  -0.87756 
 H                    -0.86571   1.48655   0.87745 
 C                    -2.19348   0.03388  0. 
 H                    -2.28903  -0.60502   0.88496 
 H                    -3.04849   0.71981  -0.00001 
 H                    -2.28904  -0.60506  -0.88493 
 C                     0.5289   -0.88501  -1.25865 
 H                    -0.26244  -1.64248  -1.28525 
 H                     0.44851  -0.28292  -2.17262 
 H                     1.4897   -1.41334  -1.29204 
 C                     0.52891  -0.8849    1.25873 
 H                     1.4897   -1.41324   1.29215 
 H                     0.44854  -0.28273   2.17265 
 
 NAtoms=     19 NQM=       19 NQMF=       0 NMMI=      0 NMMIF=      0
                NMic=       0 NMicF=      0.
                    Isotopes and Nuclear Properties:
 (Nuclear quadrupole moments (NQMom) in fm**2, nuclear magnetic moments (NMagM)
  in nuclear magnetons)

  Atom         1           2           3           4           5           6           7           8           9          10
 IAtWgt=          12           1           1           1          12          12           1           1          12           1
 AtmWgt=  12.0000000   1.0078250   1.0078250   1.0078250  12.0000000  12.0000000   1.0078250   1.0078250  12.0000000   1.0078250
 NucSpn=           0           1           1           1           0           0           1           1           0           1
 AtZEff=   0.0000000   0.0000000   0.0000000   0.0000000   0.0000000   0.0000000   0.0000000   0.0000000   0.0000000   0.0000000
 NQMom=    0.0000000   0.0000000   0.0000000   0.0000000   0.0000000   0.0000000   0.0000000   0.0000000   0.0000000   0.0000000
 NMagM=    0.0000000   2.7928460   2.7928460   2.7928460   0.0000000   0.0000000   2.7928460   2.7928460   0.0000000   2.7928460
 AtZNuc=   6.0000000   1.0000000   1.0000000   1.0000000   6.0000000   6.0000000   1.0000000   1.0000000   6.0000000   1.0000000

  Atom        11          12          13          14          15          16          17          18          19
 IAtWgt=           1           1          12           1           1           1          12           1           1
 AtmWgt=   1.0078250   1.0078250  12.0000000   1.0078250   1.0078250   1.0078250  12.0000000   1.0078250   1.0078250
 NucSpn=           1           1           0           1           1           1           0           1           1
 AtZEff=   0.0000000   0.0000000   0.0000000   0.0000000   0.0000000   0.0000000   0.0000000   0.0000000   0.0000000
 NQMom=    0.0000000   0.0000000   0.0000000   0.0000000   0.0000000   0.0000000   0.0000000   0.0000000   0.0000000
 NMagM=    2.7928460   2.7928460   0.0000000   2.7928460   2.7928460   2.7928460   0.0000000   2.7928460   2.7928460
 AtZNuc=   1.0000000   1.0000000   6.0000000   1.0000000   1.0000000   1.0000000   6.0000000   1.0000000   1.0000000
 Leave Link  101 at Sat Nov  7 02:15:32 2015, MaxMem=   805306368 cpu:         0.6
 (Enter /home/hetanjin/apps/g09D01/g09/l103.exe)

 GradGradGradGradGradGradGradGradGradGradGradGradGradGradGradGradGradGrad
 Berny optimization.
 Initialization pass.
                           ----------------------------
                           !    Initial Parameters    !
                           ! (Angstroms and Degrees)  !
 --------------------------                            --------------------------
 ! Name  Definition              Value          Derivative Info.                !
 --------------------------------------------------------------------------------
 ! R1    R(1,2)                  1.0972         estimate D2E/DX2                !
 ! R2    R(1,3)                  1.0972         estimate D2E/DX2                !
 ! R3    R(1,4)                  1.097          estimate D2E/DX2                !
 ! R4    R(1,5)                  1.5417         estimate D2E/DX2                !
 ! R5    R(5,6)                  1.552          estimate D2E/DX2                !
 ! R6    R(5,13)                 1.5411         estimate D2E/DX2                !
 ! R7    R(5,17)                 1.5411         estimate D2E/DX2                !
 ! R8    R(6,7)                  1.0996         estimate D2E/DX2                !
 ! R9    R(6,8)                  1.0996         estimate D2E/DX2                !
 ! R10   R(6,9)                  1.534          estimate D2E/DX2                !
 ! R11   R(9,10)                 1.0957         estimate D2E/DX2                !
 ! R12   R(9,11)                 1.0961         estimate D2E/DX2                !
 ! R13   R(9,12)                 1.0957         estimate D2E/DX2                !
 ! R14   R(13,14)                1.0958         estimate D2E/DX2                !
 ! R15   R(13,15)                1.0974         estimate D2E/DX2                !
 ! R16   R(13,16)                1.097          estimate D2E/DX2                !
 ! R17   R(17,18)                1.097          estimate D2E/DX2                !
 ! R18   R(17,19)                1.0974         estimate D2E/DX2                !
 ! A1    A(2,1,3)              107.7092         estimate D2E/DX2                !
 ! A2    A(2,1,4)              107.7219         estimate D2E/DX2                !
 ! A3    A(2,1,5)              111.195          estimate D2E/DX2                !
 ! A4    A(3,1,4)              107.722          estimate D2E/DX2                !
 ! A5    A(3,1,5)              111.195          estimate D2E/DX2                !
 ! A6    A(4,1,5)              111.1274         estimate D2E/DX2                !
 ! A7    A(1,5,6)              107.9534         estimate D2E/DX2                !
 ! A8    A(1,5,13)             108.8179         estimate D2E/DX2                !
 ! A9    A(1,5,17)             108.8179         estimate D2E/DX2                !
 ! A10   A(6,5,13)             110.8381         estimate D2E/DX2                !
 ! A11   A(6,5,17)             110.8381         estimate D2E/DX2                !
 ! A12   A(13,5,17)            109.5162         estimate D2E/DX2                !
 ! A13   A(5,6,7)              108.0687         estimate D2E/DX2                !
 ! A14   A(5,6,8)              108.0687         estimate D2E/DX2                !
 ! A15   A(5,6,9)              116.915          estimate D2E/DX2                !
 ! A16   A(7,6,8)              105.8765         estimate D2E/DX2                !
 ! A17   A(7,6,9)              108.6851         estimate D2E/DX2                !
 ! A18   A(8,6,9)              108.6852         estimate D2E/DX2                !
 ! A19   A(6,9,10)             112.0296         estimate D2E/DX2                !
 ! A20   A(6,9,11)             110.2629         estimate D2E/DX2                !
 ! A21   A(6,9,12)             112.0296         estimate D2E/DX2                !
 ! A22   A(10,9,11)            107.27           estimate D2E/DX2                !
 ! A23   A(10,9,12)            107.7399         estimate D2E/DX2                !
 ! A24   A(11,9,12)            107.27           estimate D2E/DX2                !
 ! A25   A(5,13,14)            111.913          estimate D2E/DX2                !
 ! A26   A(5,13,15)            111.1551         estimate D2E/DX2                !
 ! A27   A(5,13,16)            110.724          estimate D2E/DX2                !
 ! A28   A(14,13,15)           107.8276         estimate D2E/DX2                !
 ! A29   A(14,13,16)           107.389          estimate D2E/DX2                !
 ! A30   A(15,13,16)           107.6407         estimate D2E/DX2                !
 ! A31   A(5,17,18)            110.7241         estimate D2E/DX2                !
 ! A32   A(5,17,19)            111.155          estimate D2E/DX2                !
 ! A33   A(18,17,19)           107.6408         estimate D2E/DX2                !
 ! D1    D(2,1,5,6)             60.0094         estimate D2E/DX2                !
 ! D2    D(2,1,5,13)          -179.6279         estimate D2E/DX2                !
 ! D3    D(2,1,5,17)           -60.3531         estimate D2E/DX2                !
 ! D4    D(3,1,5,6)            -60.01           estimate D2E/DX2                !
 ! D5    D(3,1,5,13)            60.3526         estimate D2E/DX2                !
 ! D6    D(3,1,5,17)           179.6274         estimate D2E/DX2                !
 ! D7    D(4,1,5,6)            179.9997         estimate D2E/DX2                !
 ! D8    D(4,1,5,13)           -59.6377         estimate D2E/DX2                !
 ! D9    D(4,1,5,17)            59.6371         estimate D2E/DX2                !
 ! D10   D(1,5,6,7)             57.0744         estimate D2E/DX2                !
 ! D11   D(1,5,6,8)            -57.0751         estimate D2E/DX2                !
 ! D12   D(1,5,6,9)            179.9996         estimate D2E/DX2                !
 ! D13   D(13,5,6,7)           -62.0124         estimate D2E/DX2                !
 ! D14   D(13,5,6,8)          -176.1619         estimate D2E/DX2                !
 ! D15   D(13,5,6,9)            60.9128         estimate D2E/DX2                !
 ! D16   D(17,5,6,7)           176.1612         estimate D2E/DX2                !
 ! D17   D(17,5,6,8)            62.0117         estimate D2E/DX2                !
 ! D18   D(17,5,6,9)           -60.9136         estimate D2E/DX2                !
 ! D19   D(1,5,13,14)          177.2395         estimate D2E/DX2                !
 ! D20   D(1,5,13,15)          -62.1296         estimate D2E/DX2                !
 ! D21   D(1,5,13,16)           57.4635         estimate D2E/DX2                !
 ! D22   D(6,5,13,14)          -64.1959         estimate D2E/DX2                !
 ! D23   D(6,5,13,15)           56.435          estimate D2E/DX2                !
 ! D24   D(6,5,13,16)          176.0282         estimate D2E/DX2                !
 ! D25   D(17,5,13,14)          58.4016         estimate D2E/DX2                !
 ! D26   D(17,5,13,15)         179.0325         estimate D2E/DX2                !
 ! D27   D(17,5,13,16)         -61.3744         estimate D2E/DX2                !
 ! D28   D(1,5,17,18)          -57.4641         estimate D2E/DX2                !
 ! D29   D(1,5,17,19)           62.129          estimate D2E/DX2                !
 ! D30   D(6,5,17,18)         -176.0287         estimate D2E/DX2                !
 ! D31   D(6,5,17,19)          -56.4356         estimate D2E/DX2                !
 ! D32   D(13,5,17,18)          61.3738         estimate D2E/DX2                !
 ! D33   D(13,5,17,19)        -179.0331         estimate D2E/DX2                !
 ! D34   D(5,6,9,10)            60.6085         estimate D2E/DX2                !
 ! D35   D(5,6,9,11)           179.9992         estimate D2E/DX2                !
 ! D36   D(5,6,9,12)           -60.6101         estimate D2E/DX2                !
 ! D37   D(7,6,9,10)          -176.7844         estimate D2E/DX2                !
 ! D38   D(7,6,9,11)           -57.3938         estimate D2E/DX2                !
 ! D39   D(7,6,9,12)            61.9969         estimate D2E/DX2                !
 ! D40   D(8,6,9,10)           -61.9986         estimate D2E/DX2                !
 ! D41   D(8,6,9,11)            57.3921         estimate D2E/DX2                !
 ! D42   D(8,6,9,12)           176.7828         estimate D2E/DX2                !
 --------------------------------------------------------------------------------
 Trust Radius=3.00D-01 FncErr=1.00D-07 GrdErr=1.00D-06
 Number of steps in this run=    103 maximum allowed number of steps=    114.
 GradGradGradGradGradGradGradGradGradGradGradGradGradGradGradGradGradGrad

 Leave Link  103 at Sat Nov  7 02:15:32 2015, MaxMem=   805306368 cpu:         0.0
 (Enter /home/hetanjin/apps/g09D01/g09/l202.exe)
                          Input orientation:                          
 ---------------------------------------------------------------------
 Center     Atomic      Atomic             Coordinates (Angstroms)
 Number     Number       Type             X           Y           Z
 ---------------------------------------------------------------------
      1          6           0        1.618032    0.989661   -0.000046
      2          1           0        1.593672    1.636429    0.885962
      3          1           0        1.593672    1.636347   -0.886113
      4          1           0        2.578316    0.459293   -0.000021
      5          6           0        0.436353   -0.000500    0.000000
      6          6           0       -0.878586    0.823914   -0.000030
      7          1           0       -0.865713    1.486486   -0.877558
      8          1           0       -0.865712    1.486551    0.877447
      9          6           0       -2.193477    0.033880   -0.000001
     10          1           0       -2.289029   -0.605019    0.884964
     11          1           0       -3.048488    0.719808   -0.000012
     12          1           0       -2.289041   -0.605062   -0.884933
     13          6           0        0.528897   -0.885012   -1.258652
     14          1           0       -0.262439   -1.642476   -1.285245
     15          1           0        0.448512   -0.282917   -2.172624
     16          1           0        1.489696   -1.413344   -1.292039
     17          6           0        0.528906   -0.884904    1.258727
     18          1           0        1.489700   -1.413241    1.292148
     19          1           0        0.448537   -0.282728    2.172647
 ---------------------------------------------------------------------
                    Distance matrix (angstroms):
                    1          2          3          4          5
     1  C    0.000000
     2  H    1.097229   0.000000
     3  H    1.097229   1.772075   0.000000
     4  H    1.097012   1.772044   1.772044   0.000000
     5  C    1.541682   2.191769   2.191769   2.190757   0.000000
     6  C    2.502114   2.749040   2.749045   3.476078   1.552006
     7  H    2.680644   3.030026   2.463961   3.699531   2.162547
     8  H    2.680649   2.463961   3.030042   3.699532   2.162546
     9  C    3.929519   4.206613   4.206613   4.790719   2.630055
    10  H    4.311771   4.483242   4.820353   5.060337   2.928534
    11  H    4.674316   4.814021   4.814028   5.632832   3.558505
    12  H    4.311773   4.820354   4.483233   5.060344   2.928545
    13  C    2.506931   3.477180   2.762206   2.755254   1.541146
    14  H    3.480812   4.348621   3.788817   3.760202   2.199148
    15  H    2.776207   3.788170   2.578774   3.131636   2.190936
    16  H    2.731327   3.749082   3.078344   2.522137   2.185183
    17  C    2.506930   2.762209   3.477179   2.755248   1.541146
    18  H    2.731332   3.078357   3.749082   2.522136   2.185183
    19  H    2.776200   2.578770   3.788165   3.131619   2.190935
                    6          7          8          9         10
     6  C    0.000000
     7  H    1.099647   0.000000
     8  H    1.099645   1.755005   0.000000
     9  C    1.533979   2.154792   2.154792   0.000000
    10  H    2.194177   3.083295   2.529931   1.095667   0.000000
    11  H    2.172398   2.474346   2.474336   1.096148   1.764972
    12  H    2.194176   2.529919   3.083293   1.095666   1.769897
    13  C    2.546677   2.777440   3.483126   3.136859   3.551646
    14  H    2.848595   3.212562   3.851232   2.861980   3.145344
    15  H    2.776046   2.556398   3.763128   3.435223   4.116640
    16  H    3.504764   3.758824   4.320186   4.162882   4.435256
    17  C    2.546677   3.483126   2.777433   3.136866   2.856360
    18  H    3.504763   4.320186   3.758821   4.162884   3.885591
    19  H    2.776047   3.763127   2.556392   3.435241   3.042411
                   11         12         13         14         15
    11  H    0.000000
    12  H    1.764972   0.000000
    13  C    4.117925   2.856364   0.000000
    14  H    3.872245   2.311621   1.095752   0.000000
    15  H    4.237300   3.042388   1.097417   1.772369   0.000000
    16  H    5.178299   3.885603   1.096989   1.767067   1.771259
    17  C    4.117921   3.551678   2.517379   2.769826   3.484684
    18  H    5.178294   4.435281   2.776463   3.124979   3.790297
    19  H    4.237300   4.116677   3.484683   3.783044   4.345271
                   16         17         18         19
    16  H    0.000000
    17  C    2.776468   0.000000
    18  H    2.584187   1.096988   0.000000
    19  H    3.790297   1.097417   1.771259   0.000000
 Stoichiometry    C6H13(2)
 Framework group  C1[X(C6H13)]
 Deg. of freedom    51
 Full point group                 C1      NOp   1
 Largest Abelian subgroup         C1      NOp   1
 Largest concise Abelian subgroup C1      NOp   1
                         Standard orientation:                         
 ---------------------------------------------------------------------
 Center     Atomic      Atomic             Coordinates (Angstroms)
 Number     Number       Type             X           Y           Z
 ---------------------------------------------------------------------
      1          6           0       -1.605235   -0.640303   -0.727223
      2          1           0       -1.581205   -1.734210   -0.645353
      3          1           0       -1.570372   -0.384577   -1.793666
      4          1           0       -2.569643   -0.297032   -0.332867
      5          6           0       -0.431404    0.001877    0.038616
      6          6           0        0.889955   -0.531795   -0.576142
      7          1           0        0.887660   -0.292884   -1.649519
      8          1           0        0.876930   -1.629506   -0.512255
      9          6           0        2.198566   -0.019240    0.038607
     10          1           0        2.283678   -0.279120    1.099599
     11          1           0        3.058931   -0.463381   -0.475253
     12          1           0        2.294509    1.068829   -0.047332
     13          6           0       -0.523207    1.533627   -0.104370
     14          1           0        0.262294    2.045118    0.463113
     15          1           0       -0.432502    1.839528   -1.154380
     16          1           0       -1.487910    1.901024    0.266778
     17          6           0       -0.538604   -0.383633    1.526910
     18          1           0       -1.503711   -0.067112    1.941356
     19          1           0       -0.459089   -1.469874    1.661385
 ---------------------------------------------------------------------
 Rotational constants (GHZ):      4.4281461      2.5202704      2.4668022
 Leave Link  202 at Sat Nov  7 02:15:33 2015, MaxMem=   805306368 cpu:         0.0
 (Enter /home/hetanjin/apps/g09D01/g09/l301.exe)
 Standard basis: 6-31G(d) (6D, 7F)
 Ernie: Thresh=  0.10000D-02 Tol=  0.10000D-05 Strict=F.
 There are   116 symmetry adapted cartesian basis functions of A   symmetry.
 There are   116 symmetry adapted basis functions of A   symmetry.
   116 basis functions,   220 primitive gaussians,   116 cartesian basis functions
    25 alpha electrons       24 beta electrons
       nuclear repulsion energy       253.8956657910 Hartrees.
 IExCor=  402 DFT=T Ex+Corr=B3LYP ExCW=0 ScaHFX=  0.200000
 ScaDFX=  0.800000  0.720000  1.000000  0.810000 ScalE2=  1.000000  1.000000
 IRadAn=      5 IRanWt=     -1 IRanGd=            0 ICorTp=0 IEmpDi=  4
 NAtoms=   19 NActive=   19 NUniq=   19 SFac= 1.00D+00 NAtFMM=   60 NAOKFM=F Big=F
 Integral buffers will be    131072 words long.
 Raffenetti 2 integral format.
 Two-electron integral symmetry is turned on.
 Leave Link  301 at Sat Nov  7 02:15:33 2015, MaxMem=   805306368 cpu:         0.2
 (Enter /home/hetanjin/apps/g09D01/g09/l302.exe)
 NPDir=0 NMtPBC=     1 NCelOv=     1 NCel=       1 NClECP=     1 NCelD=      1
         NCelK=      1 NCelE2=     1 NClLst=     1 CellRange=     0.0.
 One-electron integrals computed using PRISM.
 NBasis=   116 RedAO= T EigKep=  3.83D-03  NBF=   116
 NBsUse=   116 1.00D-06 EigRej= -1.00D+00 NBFU=   116
 Precomputing XC quadrature grid using
 IXCGrd= 4 IRadAn=           5 IRanWt=          -1 IRanGd=           0 AccXCQ= 0.00D+00.
 Generated NRdTot=       0 NPtTot=           0 NUsed=           0 NTot=          32
 NSgBfM=   116   116   116   116   116 MxSgAt=    19 MxSgA2=    19.
 Leave Link  302 at Sat Nov  7 02:15:33 2015, MaxMem=   805306368 cpu:         1.5
 (Enter /home/hetanjin/apps/g09D01/g09/l303.exe)
 DipDrv:  MaxL=1.
 Leave Link  303 at Sat Nov  7 02:15:33 2015, MaxMem=   805306368 cpu:         0.1
 (Enter /home/hetanjin/apps/g09D01/g09/l401.exe)
 ExpMin= 1.61D-01 ExpMax= 3.05D+03 ExpMxC= 4.57D+02 IAcc=3 IRadAn=         5 AccDes= 0.00D+00
 Harris functional with IExCor=  402 and IRadAn=       5 diagonalized for initial guess.
 HarFok:  IExCor=  402 AccDes= 0.00D+00 IRadAn=         5 IDoV= 1 UseB2=F ITyADJ=14
 ICtDFT=  3500011 ScaDFX=  1.000000  1.000000  1.000000  1.000000
 FoFCou: FMM=F IPFlag=           0 FMFlag=      100000 FMFlg1=           0
         NFxFlg=           0 DoJE=T BraDBF=F KetDBF=T FulRan=T
         wScrn=  0.000000 ICntrl=     500 IOpCl=  0 I1Cent=   200000004 NGrid=           0
         NMat0=    1 NMatS0=      1 NMatT0=    0 NMatD0=    1 NMtDS0=    0 NMtDT0=    0
 Petite list used in FoFCou.
 Harris En= -236.440916810675    
 JPrj=0 DoOrth=F DoCkMO=F.
 Initial guess <Sx>= 0.0000 <Sy>= 0.0000 <Sz>= 0.5000 <S**2>= 0.7500 S= 0.5000
 Leave Link  401 at Sat Nov  7 02:15:35 2015, MaxMem=   805306368 cpu:         9.0
 (Enter /home/hetanjin/apps/g09D01/g09/l502.exe)
 UHF open shell SCF:
 Using DIIS extrapolation, IDIIS=  1040.
 Integral symmetry usage will be decided dynamically.
 Keep R1 and R2 ints in memory in canonical form, NReq=47059932.
 IVT=       60514 IEndB=       60514 NGot=   805306368 MDV=   759189273
 LenX=   759189273 LenY=   759175376
 Requested convergence on RMS density matrix=1.00D-08 within 128 cycles.
 Requested convergence on MAX density matrix=1.00D-06.
 Requested convergence on             energy=1.00D-06.
 No special actions if energy rises.
 FoFCou: FMM=F IPFlag=           0 FMFlag=           0 FMFlg1=           0
         NFxFlg=           0 DoJE=F BraDBF=F KetDBF=F FulRan=T
         wScrn=  0.000000 ICntrl=     600 IOpCl=  0 I1Cent=           0 NGrid=           0
         NMat0=    1 NMatS0=   6786 NMatT0=    0 NMatD0=    1 NMtDS0=    0 NMtDT0=    0
 Symmetry not used in FoFCou.
 Integral accuracy reduced to 1.0D-05 until final iterations.

 Cycle   1  Pass 0  IDiag  1:
 E= -236.145362258624    
 DIIS: error= 4.43D-02 at cycle   1 NSaved=   1.
 NSaved= 1 IEnMin= 1 EnMin= -236.145362258624     IErMin= 1 ErrMin= 4.43D-02
 ErrMax= 4.43D-02  0.00D+00 EMaxC= 1.00D-01 BMatC= 9.14D-01 BMatP= 9.14D-01
 IDIUse=3 WtCom= 5.57D-01 WtEn= 4.43D-01
 Coeff-Com:  0.100D+01
 Coeff-En:   0.100D+01
 Coeff:      0.100D+01
 Gap=     0.270 Goal=   None    Shift=    0.000
 Gap=     0.223 Goal=   None    Shift=    0.000
 GapD=    0.223 DampG=1.000 DampE=0.500 DampFc=0.5000 IDamp=-1.
 Damping current iteration by 5.00D-01
 RMSDP=9.73D-03 MaxDP=1.43D-01              OVMax= 1.77D-01

 Cycle   2  Pass 0  IDiag  1:
 E= -236.258283276104     Delta-E=       -0.112921017480 Rises=F Damp=T
 DIIS: error= 9.19D-03 at cycle   2 NSaved=   2.
 NSaved= 2 IEnMin= 2 EnMin= -236.258283276104     IErMin= 2 ErrMin= 9.19D-03
 ErrMax= 9.19D-03  0.00D+00 EMaxC= 1.00D-01 BMatC= 4.02D-02 BMatP= 9.14D-01
 IDIUse=3 WtCom= 9.08D-01 WtEn= 9.19D-02
 Coeff-Com:  0.764D-01 0.924D+00
 Coeff-En:   0.129D+00 0.871D+00
 Coeff:      0.812D-01 0.919D+00
 Gap=     0.310 Goal=   None    Shift=    0.000
 Gap=     0.263 Goal=   None    Shift=    0.000
 RMSDP=1.72D-03 MaxDP=2.49D-02 DE=-1.13D-01 OVMax= 1.03D-01

 Cycle   3  Pass 0  IDiag  1:
 E= -236.399376474921     Delta-E=       -0.141093198818 Rises=F Damp=F
 DIIS: error= 2.63D-03 at cycle   3 NSaved=   3.
 NSaved= 3 IEnMin= 3 EnMin= -236.399376474921     IErMin= 3 ErrMin= 2.63D-03
 ErrMax= 2.63D-03  0.00D+00 EMaxC= 1.00D-01 BMatC= 6.81D-03 BMatP= 4.02D-02
 IDIUse=3 WtCom= 9.74D-01 WtEn= 2.63D-02
 Coeff-Com:  0.166D-02 0.232D+00 0.767D+00
 Coeff-En:   0.000D+00 0.000D+00 0.100D+01
 Coeff:      0.162D-02 0.226D+00 0.773D+00
 Gap=     0.307 Goal=   None    Shift=    0.000
 Gap=     0.237 Goal=   None    Shift=    0.000
 RMSDP=6.34D-04 MaxDP=1.41D-02 DE=-1.41D-01 OVMax= 1.28D-02

 Cycle   4  Pass 0  IDiag  1:
 E= -236.400369498247     Delta-E=       -0.000993023326 Rises=F Damp=F
 DIIS: error= 1.64D-03 at cycle   4 NSaved=   4.
 NSaved= 4 IEnMin= 4 EnMin= -236.400369498247     IErMin= 4 ErrMin= 1.64D-03
 ErrMax= 1.64D-03  0.00D+00 EMaxC= 1.00D-01 BMatC= 3.09D-03 BMatP= 6.81D-03
 IDIUse=3 WtCom= 9.84D-01 WtEn= 1.64D-02
 Coeff-Com: -0.516D-02 0.331D-01 0.409D+00 0.563D+00
 Coeff-En:   0.000D+00 0.000D+00 0.294D+00 0.706D+00
 Coeff:     -0.507D-02 0.325D-01 0.407D+00 0.566D+00
 Gap=     0.305 Goal=   None    Shift=    0.000
 Gap=     0.244 Goal=   None    Shift=    0.000
 RMSDP=2.41D-04 MaxDP=6.49D-03 DE=-9.93D-04 OVMax= 7.32D-03

 Cycle   5  Pass 0  IDiag  1:
 E= -236.401103396435     Delta-E=       -0.000733898188 Rises=F Damp=F
 DIIS: error= 2.64D-04 at cycle   5 NSaved=   5.
 NSaved= 5 IEnMin= 5 EnMin= -236.401103396435     IErMin= 5 ErrMin= 2.64D-04
 ErrMax= 2.64D-04  0.00D+00 EMaxC= 1.00D-01 BMatC= 5.87D-05 BMatP= 3.09D-03
 IDIUse=3 WtCom= 9.97D-01 WtEn= 2.64D-03
 Coeff-Com: -0.133D-02-0.300D-02 0.875D-01 0.184D+00 0.733D+00
 Coeff-En:   0.000D+00 0.000D+00 0.000D+00 0.000D+00 0.100D+01
 Coeff:     -0.133D-02-0.299D-02 0.873D-01 0.184D+00 0.733D+00
 Gap=     0.305 Goal=   None    Shift=    0.000
 Gap=     0.244 Goal=   None    Shift=    0.000
 RMSDP=4.27D-05 MaxDP=9.26D-04 DE=-7.34D-04 OVMax= 9.45D-04

 Cycle   6  Pass 0  IDiag  1:
 E= -236.401118344422     Delta-E=       -0.000014947987 Rises=F Damp=F
 DIIS: error= 1.14D-04 at cycle   6 NSaved=   6.
 NSaved= 6 IEnMin= 6 EnMin= -236.401118344422     IErMin= 6 ErrMin= 1.14D-04
 ErrMax= 1.14D-04  0.00D+00 EMaxC= 1.00D-01 BMatC= 4.30D-06 BMatP= 5.87D-05
 IDIUse=3 WtCom= 9.99D-01 WtEn= 1.14D-03
 Coeff-Com: -0.115D-03-0.247D-02 0.883D-03 0.178D-01 0.194D+00 0.790D+00
 Coeff-En:   0.000D+00 0.000D+00 0.000D+00 0.000D+00 0.000D+00 0.100D+01
 Coeff:     -0.115D-03-0.247D-02 0.882D-03 0.178D-01 0.194D+00 0.790D+00
 Gap=     0.306 Goal=   None    Shift=    0.000
 Gap=     0.244 Goal=   None    Shift=    0.000
 RMSDP=1.56D-05 MaxDP=4.15D-04 DE=-1.49D-05 OVMax= 4.66D-04

 Cycle   7  Pass 0  IDiag  1:
 E= -236.401119724001     Delta-E=       -0.000001379579 Rises=F Damp=F
 DIIS: error= 4.38D-05 at cycle   7 NSaved=   7.
 NSaved= 7 IEnMin= 7 EnMin= -236.401119724001     IErMin= 7 ErrMin= 4.38D-05
 ErrMax= 4.38D-05  0.00D+00 EMaxC= 1.00D-01 BMatC= 1.47D-06 BMatP= 4.30D-06
 IDIUse=1 WtCom= 1.00D+00 WtEn= 0.00D+00
 Coeff-Com:  0.215D-03-0.359D-03-0.199D-01-0.347D-01-0.881D-01 0.361D+00
 Coeff-Com:  0.782D+00
 Coeff:      0.215D-03-0.359D-03-0.199D-01-0.347D-01-0.881D-01 0.361D+00
 Coeff:      0.782D+00
 Gap=     0.306 Goal=   None    Shift=    0.000
 Gap=     0.244 Goal=   None    Shift=    0.000
 RMSDP=7.27D-06 MaxDP=1.77D-04 DE=-1.38D-06 OVMax= 2.16D-04

 Initial convergence to 1.0D-05 achieved.  Increase integral accuracy.
 Cycle   8  Pass 1  IDiag  1:
 E= -236.401108539378     Delta-E=        0.000011184623 Rises=F Damp=F
 DIIS: error= 9.82D-06 at cycle   1 NSaved=   1.
 NSaved= 1 IEnMin= 1 EnMin= -236.401108539378     IErMin= 1 ErrMin= 9.82D-06
 ErrMax= 9.82D-06  0.00D+00 EMaxC= 1.00D-01 BMatC= 1.03D-07 BMatP= 1.03D-07
 IDIUse=1 WtCom= 1.00D+00 WtEn= 0.00D+00
 Coeff-Com:  0.100D+01
 Coeff:      0.100D+01
 Gap=     0.306 Goal=   None    Shift=    0.000
 Gap=     0.244 Goal=   None    Shift=    0.000
 RMSDP=7.27D-06 MaxDP=1.77D-04 DE= 1.12D-05 OVMax= 6.44D-05

 Cycle   9  Pass 1  IDiag  1:
 E= -236.401108554961     Delta-E=       -0.000000015583 Rises=F Damp=F
 DIIS: error= 8.75D-06 at cycle   2 NSaved=   2.
 NSaved= 2 IEnMin= 2 EnMin= -236.401108554961     IErMin= 2 ErrMin= 8.75D-06
 ErrMax= 8.75D-06  0.00D+00 EMaxC= 1.00D-01 BMatC= 8.72D-08 BMatP= 1.03D-07
 IDIUse=1 WtCom= 1.00D+00 WtEn= 0.00D+00
 Coeff-Com:  0.476D+00 0.524D+00
 Coeff:      0.476D+00 0.524D+00
 Gap=     0.306 Goal=   None    Shift=    0.000
 Gap=     0.244 Goal=   None    Shift=    0.000
 RMSDP=1.34D-06 MaxDP=3.18D-05 DE=-1.56D-08 OVMax= 3.43D-05

 Cycle  10  Pass 1  IDiag  1:
 E= -236.401108576647     Delta-E=       -0.000000021686 Rises=F Damp=F
 DIIS: error= 3.07D-06 at cycle   3 NSaved=   3.
 NSaved= 3 IEnMin= 3 EnMin= -236.401108576647     IErMin= 3 ErrMin= 3.07D-06
 ErrMax= 3.07D-06  0.00D+00 EMaxC= 1.00D-01 BMatC= 5.14D-09 BMatP= 8.72D-08
 IDIUse=1 WtCom= 1.00D+00 WtEn= 0.00D+00
 Coeff-Com:  0.945D-03 0.145D+00 0.854D+00
 Coeff:      0.945D-03 0.145D+00 0.854D+00
 Gap=     0.306 Goal=   None    Shift=    0.000
 Gap=     0.244 Goal=   None    Shift=    0.000
 RMSDP=5.07D-07 MaxDP=1.01D-05 DE=-2.17D-08 OVMax= 1.34D-05

 Cycle  11  Pass 1  IDiag  1:
 E= -236.401108578559     Delta-E=       -0.000000001912 Rises=F Damp=F
 DIIS: error= 1.30D-06 at cycle   4 NSaved=   4.
 NSaved= 4 IEnMin= 4 EnMin= -236.401108578559     IErMin= 4 ErrMin= 1.30D-06
 ErrMax= 1.30D-06  0.00D+00 EMaxC= 1.00D-01 BMatC= 9.00D-10 BMatP= 5.14D-09
 IDIUse=1 WtCom= 1.00D+00 WtEn= 0.00D+00
 Coeff-Com: -0.109D+00-0.775D-01 0.257D+00 0.930D+00
 Coeff:     -0.109D+00-0.775D-01 0.257D+00 0.930D+00
 Gap=     0.306 Goal=   None    Shift=    0.000
 Gap=     0.244 Goal=   None    Shift=    0.000
 RMSDP=2.67D-07 MaxDP=7.69D-06 DE=-1.91D-09 OVMax= 7.09D-06

 Cycle  12  Pass 1  IDiag  1:
 E= -236.401108578969     Delta-E=       -0.000000000410 Rises=F Damp=F
 DIIS: error= 2.71D-07 at cycle   5 NSaved=   5.
 NSaved= 5 IEnMin= 5 EnMin= -236.401108578969     IErMin= 5 ErrMin= 2.71D-07
 ErrMax= 2.71D-07  0.00D+00 EMaxC= 1.00D-01 BMatC= 5.17D-11 BMatP= 9.00D-10
 IDIUse=1 WtCom= 1.00D+00 WtEn= 0.00D+00
 Coeff-Com: -0.311D-01-0.313D-01 0.209D-01 0.257D+00 0.785D+00
 Coeff:     -0.311D-01-0.313D-01 0.209D-01 0.257D+00 0.785D+00
 Gap=     0.306 Goal=   None    Shift=    0.000
 Gap=     0.244 Goal=   None    Shift=    0.000
 RMSDP=5.12D-08 MaxDP=1.64D-06 DE=-4.10D-10 OVMax= 1.69D-06

 Cycle  13  Pass 1  IDiag  1:
 E= -236.401108578983     Delta-E=       -0.000000000014 Rises=F Damp=F
 DIIS: error= 1.23D-07 at cycle   6 NSaved=   6.
 NSaved= 6 IEnMin= 6 EnMin= -236.401108578983     IErMin= 6 ErrMin= 1.23D-07
 ErrMax= 1.23D-07  0.00D+00 EMaxC= 1.00D-01 BMatC= 1.68D-11 BMatP= 5.17D-11
 IDIUse=1 WtCom= 1.00D+00 WtEn= 0.00D+00
 Coeff-Com:  0.470D-03-0.429D-02-0.267D-01-0.659D-02 0.395D+00 0.642D+00
 Coeff:      0.470D-03-0.429D-02-0.267D-01-0.659D-02 0.395D+00 0.642D+00
 Gap=     0.306 Goal=   None    Shift=    0.000
 Gap=     0.244 Goal=   None    Shift=    0.000
 RMSDP=2.11D-08 MaxDP=6.54D-07 DE=-1.41D-11 OVMax= 5.92D-07

 Cycle  14  Pass 1  IDiag  1:
 E= -236.401108578988     Delta-E=       -0.000000000005 Rises=F Damp=F
 DIIS: error= 2.41D-08 at cycle   7 NSaved=   7.
 NSaved= 7 IEnMin= 7 EnMin= -236.401108578988     IErMin= 7 ErrMin= 2.41D-08
 ErrMax= 2.41D-08  0.00D+00 EMaxC= 1.00D-01 BMatC= 4.68D-13 BMatP= 1.68D-11
 IDIUse=1 WtCom= 1.00D+00 WtEn= 0.00D+00
 Coeff-Com:  0.161D-02 0.198D-03-0.913D-02-0.146D-01 0.812D-01 0.206D+00
 Coeff-Com:  0.734D+00
 Coeff:      0.161D-02 0.198D-03-0.913D-02-0.146D-01 0.812D-01 0.206D+00
 Coeff:      0.734D+00
 Gap=     0.306 Goal=   None    Shift=    0.000
 Gap=     0.244 Goal=   None    Shift=    0.000
 RMSDP=5.29D-09 MaxDP=1.18D-07 DE=-4.77D-12 OVMax= 9.89D-08

 SCF Done:  E(UB3LYP) =  -236.401108579     A.U. after   14 cycles
            NFock= 14  Conv=0.53D-08     -V/T= 2.0104
 <Sx>= 0.0000 <Sy>= 0.0000 <Sz>= 0.5000 <S**2>= 0.7527 S= 0.5013
 <L.S>= 0.000000000000E+00
 KE= 2.339733275658D+02 PE=-1.053346365209D+03 EE= 3.290762632731D+02
 Annihilation of the first spin contaminant:
 S**2 before annihilation     0.7527,   after     0.7500
 Leave Link  502 at Sat Nov  7 02:16:22 2015, MaxMem=   805306368 cpu:       173.1
 (Enter /home/hetanjin/apps/g09D01/g09/l601.exe)
 Copying SCF densities to generalized density rwf, IOpCl= 1 IROHF=0.

 **********************************************************************

            Population analysis using the SCF density.

 **********************************************************************

 Orbital symmetries:
 Alpha Orbitals:
       Occupied  (A) (A) (A) (A) (A) (A) (A) (A) (A) (A) (A) (A)
                 (A) (A) (A) (A) (A) (A) (A) (A) (A) (A) (A) (A)
                 (A)
       Virtual   (A) (A) (A) (A) (A) (A) (A) (A) (A) (A) (A) (A)
                 (A) (A) (A) (A) (A) (A) (A) (A) (A) (A) (A) (A)
                 (A) (A) (A) (A) (A) (A) (A) (A) (A) (A) (A) (A)
                 (A) (A) (A) (A) (A) (A) (A) (A) (A) (A) (A) (A)
                 (A) (A) (A) (A) (A) (A) (A) (A) (A) (A) (A) (A)
                 (A) (A) (A) (A) (A) (A) (A) (A) (A) (A) (A) (A)
                 (A) (A) (A) (A) (A) (A) (A) (A) (A) (A) (A) (A)
                 (A) (A) (A) (A) (A) (A) (A)
 Beta  Orbitals:
       Occupied  (A) (A) (A) (A) (A) (A) (A) (A) (A) (A) (A) (A)
                 (A) (A) (A) (A) (A) (A) (A) (A) (A) (A) (A) (A)
       Virtual   (A) (A) (A) (A) (A) (A) (A) (A) (A) (A) (A) (A)
                 (A) (A) (A) (A) (A) (A) (A) (A) (A) (A) (A) (A)
                 (A) (A) (A) (A) (A) (A) (A) (A) (A) (A) (A) (A)
                 (A) (A) (A) (A) (A) (A) (A) (A) (A) (A) (A) (A)
                 (A) (A) (A) (A) (A) (A) (A) (A) (A) (A) (A) (A)
                 (A) (A) (A) (A) (A) (A) (A) (A) (A) (A) (A) (A)
                 (A) (A) (A) (A) (A) (A) (A) (A) (A) (A) (A) (A)
                 (A) (A) (A) (A) (A) (A) (A) (A)
 The electronic state is 2-A.
 Alpha  occ. eigenvalues --  -10.19714 -10.19239 -10.17618 -10.17614 -10.16887
 Alpha  occ. eigenvalues --  -10.16850  -0.81994  -0.73185  -0.68161  -0.67084
 Alpha  occ. eigenvalues --   -0.61841  -0.52234  -0.45455  -0.44791  -0.43200
 Alpha  occ. eigenvalues --   -0.41128  -0.39389  -0.37816  -0.37479  -0.35664
 Alpha  occ. eigenvalues --   -0.34174  -0.32829  -0.31558  -0.30673  -0.22759
 Alpha virt. eigenvalues --    0.07821   0.12638   0.13304   0.13410   0.14384
 Alpha virt. eigenvalues --    0.15928   0.16720   0.17707   0.18762   0.19328
 Alpha virt. eigenvalues --    0.20406   0.21655   0.22522   0.23199   0.24912
 Alpha virt. eigenvalues --    0.25464   0.26027   0.27344   0.49154   0.50546
 Alpha virt. eigenvalues --    0.51805   0.52331   0.52662   0.57699   0.59442
 Alpha virt. eigenvalues --    0.61832   0.61998   0.63723   0.70515   0.71456
 Alpha virt. eigenvalues --    0.74325   0.76116   0.80113   0.84057   0.87420
 Alpha virt. eigenvalues --    0.88841   0.89346   0.90541   0.90758   0.91287
 Alpha virt. eigenvalues --    0.92491   0.92935   0.93659   0.95872   0.96539
 Alpha virt. eigenvalues --    0.97014   0.98268   0.99353   1.02003   1.03694
 Alpha virt. eigenvalues --    1.24455   1.34100   1.39630   1.40428   1.50387
 Alpha virt. eigenvalues --    1.59939   1.62524   1.67745   1.72024   1.72708
 Alpha virt. eigenvalues --    1.80159   1.83913   1.87172   1.92417   1.93489
 Alpha virt. eigenvalues --    1.95550   1.99434   2.09160   2.10214   2.11444
 Alpha virt. eigenvalues --    2.12416   2.16663   2.24247   2.24468   2.24917
 Alpha virt. eigenvalues --    2.26929   2.30361   2.35353   2.36555   2.48050
 Alpha virt. eigenvalues --    2.56420   2.68938   2.71317   2.73765   2.75940
 Alpha virt. eigenvalues --    4.11417   4.21199   4.27472   4.30837   4.44435
 Alpha virt. eigenvalues --    4.66739
  Beta  occ. eigenvalues --  -10.19738 -10.17801 -10.17607 -10.17503 -10.16868
  Beta  occ. eigenvalues --  -10.16842  -0.81506  -0.73010  -0.68022  -0.64782
  Beta  occ. eigenvalues --   -0.61610  -0.51732  -0.45203  -0.44502  -0.42882
  Beta  occ. eigenvalues --   -0.40783  -0.38973  -0.37633  -0.37025  -0.35589
  Beta  occ. eigenvalues --   -0.33979  -0.32120  -0.31206  -0.30495
  Beta virt. eigenvalues --   -0.06105   0.08005   0.12835   0.13506   0.13714
  Beta virt. eigenvalues --    0.14552   0.16262   0.16839   0.18046   0.18802
  Beta virt. eigenvalues --    0.19631   0.20899   0.21820   0.22890   0.23459
  Beta virt. eigenvalues --    0.25142   0.25666   0.26888   0.27606   0.49424
  Beta virt. eigenvalues --    0.50722   0.52126   0.52729   0.54638   0.59022
  Beta virt. eigenvalues --    0.60553   0.62354   0.63867   0.64312   0.70993
  Beta virt. eigenvalues --    0.71637   0.74611   0.76195   0.80752   0.84574
  Beta virt. eigenvalues --    0.87723   0.89144   0.89495   0.90690   0.91109
  Beta virt. eigenvalues --    0.91904   0.92774   0.93524   0.94004   0.96280
  Beta virt. eigenvalues --    0.97085   0.97657   0.98312   0.99648   1.02210
  Beta virt. eigenvalues --    1.03843   1.25644   1.34785   1.40333   1.41095
  Beta virt. eigenvalues --    1.50609   1.60187   1.62823   1.68872   1.72569
  Beta virt. eigenvalues --    1.74132   1.80523   1.86594   1.87381   1.92848
  Beta virt. eigenvalues --    1.93928   1.96713   2.02168   2.09795   2.10870
  Beta virt. eigenvalues --    2.12968   2.13251   2.18634   2.24709   2.25198
  Beta virt. eigenvalues --    2.25706   2.27805   2.30815   2.35538   2.36681
  Beta virt. eigenvalues --    2.48697   2.57101   2.69191   2.72105   2.74227
  Beta virt. eigenvalues --    2.76092   4.12432   4.22921   4.28220   4.31111
  Beta virt. eigenvalues --    4.44517   4.66908
          Condensed to atoms (all electrons):
               1          2          3          4          5          6
     1  C    5.169595   0.364981   0.362551   0.363109   0.377690  -0.057070
     2  H    0.364981   0.579545  -0.030192  -0.030498  -0.029704  -0.005345
     3  H    0.362551  -0.030192   0.575076  -0.030039  -0.027604  -0.005065
     4  H    0.363109  -0.030498  -0.030039   0.580976  -0.028643   0.005435
     5  C    0.377690  -0.029704  -0.027604  -0.028643   4.752635   0.392285
     6  C   -0.057070  -0.005345  -0.005065   0.005435   0.392285   5.020887
     7  H   -0.005166  -0.000257   0.004974  -0.000047  -0.035264   0.366100
     8  H   -0.005383   0.005340  -0.000230  -0.000044  -0.036064   0.367250
     9  C    0.004636  -0.000007  -0.000010  -0.000161  -0.037773   0.372188
    10  H    0.000120  -0.000005  -0.000002   0.000001  -0.005672  -0.033606
    11  H   -0.000128  -0.000003  -0.000006   0.000002   0.004197  -0.027672
    12  H    0.000051   0.000003  -0.000002   0.000001  -0.005873  -0.033743
    13  C   -0.061029   0.005953  -0.004858  -0.004866   0.380700  -0.058067
    14  H    0.005572  -0.000190  -0.000056  -0.000058  -0.028132  -0.005595
    15  H   -0.004415  -0.000068   0.003714  -0.000143  -0.029880  -0.004858
    16  H   -0.005622  -0.000029  -0.000163   0.004476  -0.029458   0.005431
    17  C   -0.061122  -0.004342   0.006030  -0.004317   0.384708  -0.056659
    18  H   -0.002640  -0.000213  -0.000131   0.004586  -0.037891   0.005659
    19  H   -0.001631   0.004156  -0.000171  -0.000181  -0.038541  -0.006388
               7          8          9         10         11         12
     1  C   -0.005166  -0.005383   0.004636   0.000120  -0.000128   0.000051
     2  H   -0.000257   0.005340  -0.000007  -0.000005  -0.000003   0.000003
     3  H    0.004974  -0.000230  -0.000010  -0.000002  -0.000006  -0.000002
     4  H   -0.000047  -0.000044  -0.000161   0.000001   0.000002   0.000001
     5  C   -0.035264  -0.036064  -0.037773  -0.005672   0.004197  -0.005873
     6  C    0.366100   0.367250   0.372188  -0.033606  -0.027672  -0.033743
     7  H    0.622829  -0.038170  -0.040240   0.005170  -0.003194  -0.004096
     8  H   -0.038170   0.620917  -0.039471  -0.004086  -0.003377   0.005216
     9  C   -0.040240  -0.039471   5.073405   0.377337   0.370358   0.377457
    10  H    0.005170  -0.004086   0.377337   0.564771  -0.031398  -0.031721
    11  H   -0.003194  -0.003377   0.370358  -0.031398   0.582916  -0.031696
    12  H   -0.004096   0.005216   0.377457  -0.031721  -0.031696   0.573510
    13  C   -0.006929   0.006236  -0.005188  -0.000476   0.000067   0.003424
    14  H   -0.000057  -0.000044   0.001931   0.000410  -0.000060   0.002693
    15  H    0.004826  -0.000040  -0.000243   0.000057  -0.000027   0.000280
    16  H   -0.000078  -0.000184   0.000094  -0.000022   0.000000  -0.000112
    17  C    0.005934  -0.006846  -0.003828   0.008355   0.000081  -0.000356
    18  H   -0.000216  -0.000065   0.000081  -0.000162   0.000001  -0.000017
    19  H   -0.000069   0.004736  -0.000179   0.000063  -0.000032   0.000050
              13         14         15         16         17         18
     1  C   -0.061029   0.005572  -0.004415  -0.005622  -0.061122  -0.002640
     2  H    0.005953  -0.000190  -0.000068  -0.000029  -0.004342  -0.000213
     3  H   -0.004858  -0.000056   0.003714  -0.000163   0.006030  -0.000131
     4  H   -0.004866  -0.000058  -0.000143   0.004476  -0.004317   0.004586
     5  C    0.380700  -0.028132  -0.029880  -0.029458   0.384708  -0.037891
     6  C   -0.058067  -0.005595  -0.004858   0.005431  -0.056659   0.005659
     7  H   -0.006929  -0.000057   0.004826  -0.000078   0.005934  -0.000216
     8  H    0.006236  -0.000044  -0.000040  -0.000184  -0.006846  -0.000065
     9  C   -0.005188   0.001931  -0.000243   0.000094  -0.003828   0.000081
    10  H   -0.000476   0.000410   0.000057  -0.000022   0.008355  -0.000162
    11  H    0.000067  -0.000060  -0.000027   0.000000   0.000081   0.000001
    12  H    0.003424   0.002693   0.000280  -0.000112  -0.000356  -0.000017
    13  C    5.150619   0.369596   0.364104   0.366597  -0.062102  -0.006113
    14  H    0.369596   0.567866  -0.031124  -0.030192  -0.001726  -0.000119
    15  H    0.364104  -0.031124   0.589037  -0.031286   0.005529  -0.000087
    16  H    0.366597  -0.030192  -0.031286   0.584952  -0.004602   0.003949
    17  C   -0.062102  -0.001726   0.005529  -0.004602   5.385638   0.347969
    18  H   -0.006113  -0.000119  -0.000087   0.003949   0.347969   0.602721
    19  H    0.005883   0.000005  -0.000212  -0.000067   0.347131  -0.044831
              19
     1  C   -0.001631
     2  H    0.004156
     3  H   -0.000171
     4  H   -0.000181
     5  C   -0.038541
     6  C   -0.006388
     7  H   -0.000069
     8  H    0.004736
     9  C   -0.000179
    10  H    0.000063
    11  H   -0.000032
    12  H    0.000050
    13  C    0.005883
    14  H    0.000005
    15  H   -0.000212
    16  H   -0.000067
    17  C    0.347131
    18  H   -0.044831
    19  H    0.603326
          Atomic-Atomic Spin Densities.
               1          2          3          4          5          6
     1  C    0.079021  -0.001296  -0.015321  -0.001334   0.015106  -0.005839
     2  H   -0.001296  -0.002108   0.000643   0.000352   0.000171   0.000132
     3  H   -0.015321   0.000643   0.031789   0.000648  -0.003162   0.001244
     4  H   -0.001334   0.000352   0.000648  -0.002040   0.000230   0.000052
     5  C    0.015106   0.000171  -0.003162   0.000230  -0.032574   0.002775
     6  C   -0.005839   0.000132   0.001244   0.000052   0.002775   0.010870
     7  H    0.000229   0.000006  -0.000203   0.000003   0.000283   0.000817
     8  H   -0.000388  -0.000002   0.000100   0.000003   0.000372  -0.000013
     9  C    0.000377  -0.000009  -0.000095  -0.000002   0.000229  -0.002133
    10  H    0.000071  -0.000002  -0.000005   0.000000  -0.000499  -0.000160
    11  H    0.000015  -0.000001  -0.000003   0.000000  -0.000027  -0.000146
    12  H    0.000006   0.000000  -0.000002   0.000000   0.000029  -0.000174
    13  C   -0.004641   0.000026   0.000912   0.000089   0.004915   0.003121
    14  H    0.000468  -0.000003  -0.000089  -0.000012  -0.000486  -0.000692
    15  H    0.001147  -0.000004  -0.000756  -0.000024   0.000288  -0.000358
    16  H   -0.000239   0.000001   0.000061  -0.000005   0.000426   0.000007
    17  C   -0.029535   0.000870   0.002647   0.000845  -0.030257  -0.006805
    18  H   -0.002499   0.000066   0.000156   0.000116   0.001807   0.000178
    19  H   -0.002424   0.000089   0.000146   0.000064   0.001552   0.001121
               7          8          9         10         11         12
     1  C    0.000229  -0.000388   0.000377   0.000071   0.000015   0.000006
     2  H    0.000006  -0.000002  -0.000009  -0.000002  -0.000001   0.000000
     3  H   -0.000203   0.000100  -0.000095  -0.000005  -0.000003  -0.000002
     4  H    0.000003   0.000003  -0.000002   0.000000   0.000000   0.000000
     5  C    0.000283   0.000372   0.000229  -0.000499  -0.000027   0.000029
     6  C    0.000817  -0.000013  -0.002133  -0.000160  -0.000146  -0.000174
     7  H   -0.003110   0.000245   0.000332  -0.000065  -0.000011   0.000021
     8  H    0.000245  -0.000639  -0.000067   0.000015  -0.000038  -0.000009
     9  C    0.000332  -0.000067   0.008876  -0.000385  -0.000682  -0.000161
    10  H   -0.000065   0.000015  -0.000385  -0.002552   0.000169   0.000240
    11  H   -0.000011  -0.000038  -0.000682   0.000169   0.000830   0.000046
    12  H    0.000021  -0.000009  -0.000161   0.000240   0.000046  -0.000015
    13  C    0.000099   0.000014  -0.000684  -0.000117  -0.000025  -0.000064
    14  H    0.000026  -0.000007   0.000155   0.000089   0.000016   0.000052
    15  H   -0.000217   0.000002   0.000131   0.000004   0.000003   0.000011
    16  H    0.000006   0.000000  -0.000004   0.000000   0.000000   0.000000
    17  C    0.000092  -0.000006  -0.000622   0.002863   0.000109   0.000091
    18  H    0.000008   0.000010  -0.000025  -0.000022  -0.000001  -0.000002
    19  H   -0.000018   0.000066   0.000047  -0.000223  -0.000008  -0.000001
              13         14         15         16         17         18
     1  C   -0.004641   0.000468   0.001147  -0.000239  -0.029535  -0.002499
     2  H    0.000026  -0.000003  -0.000004   0.000001   0.000870   0.000066
     3  H    0.000912  -0.000089  -0.000756   0.000061   0.002647   0.000156
     4  H    0.000089  -0.000012  -0.000024  -0.000005   0.000845   0.000116
     5  C    0.004915  -0.000486   0.000288   0.000426  -0.030257   0.001807
     6  C    0.003121  -0.000692  -0.000358   0.000007  -0.006805   0.000178
     7  H    0.000099   0.000026  -0.000217   0.000006   0.000092   0.000008
     8  H    0.000014  -0.000007   0.000002   0.000000  -0.000006   0.000010
     9  C   -0.000684   0.000155   0.000131  -0.000004  -0.000622  -0.000025
    10  H   -0.000117   0.000089   0.000004   0.000000   0.002863  -0.000022
    11  H   -0.000025   0.000016   0.000003   0.000000   0.000109  -0.000001
    12  H   -0.000064   0.000052   0.000011   0.000000   0.000091  -0.000002
    13  C    0.012890  -0.003219  -0.000817  -0.000043  -0.007888   0.001056
    14  H   -0.003219   0.000810   0.000911  -0.000002   0.003238  -0.000214
    15  H   -0.000817   0.000911  -0.000795   0.000055   0.000129  -0.000046
    16  H   -0.000043  -0.000002   0.000055  -0.000657  -0.000061   0.000009
    17  C   -0.007888   0.003238   0.000129  -0.000061   1.123992  -0.011658
    18  H    0.001056  -0.000214  -0.000046   0.000009  -0.011658  -0.025834
    19  H    0.000135  -0.000063  -0.000002   0.000008  -0.011362   0.006186
              19
     1  C   -0.002424
     2  H    0.000089
     3  H    0.000146
     4  H    0.000064
     5  C    0.001552
     6  C    0.001121
     7  H   -0.000018
     8  H    0.000066
     9  C    0.000047
    10  H   -0.000223
    11  H   -0.000008
    12  H   -0.000001
    13  C    0.000135
    14  H   -0.000063
    15  H   -0.000002
    16  H    0.000008
    17  C   -0.011362
    18  H    0.006186
    19  H   -0.025198
 Mulliken charges and spin densities:
               1          2
     1  C   -0.444100   0.032927
     2  H    0.140876  -0.001066
     3  H    0.146184   0.018711
     4  H    0.140410  -0.001017
     5  C    0.078286  -0.038825
     6  C   -0.241167   0.003998
     7  H    0.123952  -0.001457
     8  H    0.124310  -0.000342
     9  C   -0.450388   0.005279
    10  H    0.150866  -0.000578
    11  H    0.139969   0.000247
    12  H    0.144928   0.000068
    13  C   -0.443552   0.005759
    14  H    0.149280   0.000977
    15  H    0.134837  -0.000336
    16  H    0.136315  -0.000437
    17  C   -0.285476   1.036683
    18  H    0.127519  -0.030707
    19  H    0.126952  -0.029882
 Sum of Mulliken charges =   0.00000   1.00000
 Mulliken charges and spin densities with hydrogens summed into heavy atoms:
               1          2
     1  C   -0.016631   0.049554
     5  C    0.078286  -0.038825
     6  C    0.007094   0.002199
     9  C   -0.014624   0.005016
    13  C   -0.023120   0.005962
    17  C   -0.031005   0.976094
 Electronic spatial extent (au):  <R**2>=            688.1750
 Charge=              0.0000 electrons
 Dipole moment (field-independent basis, Debye):
    X=             -0.3692    Y=             -0.2057    Z=             -0.4836  Tot=              0.6422
 Quadrupole moment (field-independent basis, Debye-Ang):
   XX=            -40.5363   YY=            -40.5750   ZZ=            -41.9506
   XY=              0.0098   XZ=             -0.6281   YZ=             -0.3314
 Traceless Quadrupole moment (field-independent basis, Debye-Ang):
   XX=              0.4844   YY=              0.4456   ZZ=             -0.9300
   XY=              0.0098   XZ=             -0.6281   YZ=             -0.3314
 Octapole moment (field-independent basis, Debye-Ang**2):
  XXX=             -1.5068  YYY=             -2.0481  ZZZ=             -5.7465  XYY=              0.6066
  XXY=              0.5061  XXZ=              0.7796  XZZ=             -0.7036  YZZ=              0.2186
  YYZ=              0.5039  XYZ=              0.1567
 Hexadecapole moment (field-independent basis, Debye-Ang**3):
 XXXX=           -495.9882 YYYY=           -237.5763 ZZZZ=           -227.2725 XXXY=             -5.2171
 XXXZ=             -6.1077 YYYX=              2.8983 YYYZ=             -0.2622 ZZZX=              0.2956
 ZZZY=             -1.7997 XXYY=           -122.4183 XXZZ=           -118.2647 YYZZ=            -76.8280
 XXYZ=              1.0437 YYXZ=             -0.4224 ZZXY=             -0.4391
 N-N= 2.538956657910D+02 E-N=-1.053346371335D+03  KE= 2.339733275658D+02
                          Isotropic Fermi Contact Couplings
        Atom                 a.u.       MegaHertz       Gauss      10(-4) cm-1
     1  C(13)              0.05070      56.99655      20.33779      19.01200
     2  H(1)              -0.00023      -1.04452      -0.37271      -0.34841
     3  H(1)               0.00702      31.39546      11.20268      10.47240
     4  H(1)              -0.00023      -1.01166      -0.36099      -0.33745
     5  C(13)             -0.01061     -11.92417      -4.25484      -3.97747
     6  C(13)              0.00396       4.45260       1.58880       1.48523
     7  H(1)              -0.00043      -1.93973      -0.69214      -0.64702
     8  H(1)              -0.00019      -0.84974      -0.30321      -0.28344
     9  C(13)              0.00065       0.73205       0.26121       0.24418
    10  H(1)               0.00069       3.10631       1.10841       1.03615
    11  H(1)               0.00006       0.25861       0.09228       0.08626
    12  H(1)               0.00001       0.05544       0.01978       0.01849
    13  C(13)              0.00808       9.08719       3.24254       3.03116
    14  H(1)              -0.00022      -1.00071      -0.35708      -0.33380
    15  H(1)              -0.00008      -0.37953      -0.13543      -0.12660
    16  H(1)              -0.00021      -0.93095      -0.33219      -0.31053
    17  C(13)              0.30089     338.25356     120.69728     112.82924
    18  H(1)              -0.00435     -19.42306      -6.93063      -6.47883
    19  H(1)              -0.00396     -17.70126      -6.31625      -5.90450
 --------------------------------------------------------
       Center         ----  Spin Dipole Couplings  ----
                      3XX-RR        3YY-RR        3ZZ-RR
 --------------------------------------------------------
     1   Atom        0.004925     -0.024243      0.019318
     2   Atom       -0.006025      0.003769      0.002256
     3   Atom       -0.003582     -0.004574      0.008157
     4   Atom        0.008986     -0.008613     -0.000374
     5   Atom       -0.017187     -0.021782      0.038969
     6   Atom       -0.000856     -0.007658      0.008514
     7   Atom       -0.001192     -0.003667      0.004859
     8   Atom       -0.001579     -0.001772      0.003351
     9   Atom        0.001717     -0.008104      0.006387
    10   Atom        0.012530     -0.008438     -0.004092
    11   Atom        0.002580     -0.002425     -0.000155
    12   Atom        0.002265     -0.001657     -0.000608
    13   Atom       -0.009554      0.007450      0.002104
    14   Atom       -0.006374      0.008425     -0.002051
    15   Atom       -0.003415      0.000565      0.002849
    16   Atom       -0.002745      0.004678     -0.001933
    17   Atom        0.288946     -0.201422     -0.087524
    18   Atom        0.056179     -0.034053     -0.022126
    19   Atom       -0.028624      0.071069     -0.042444
 --------------------------------------------------------
                        XY            XZ            YZ
 --------------------------------------------------------
     1   Atom        0.014858      0.042675      0.018182
     2   Atom        0.005179      0.005072      0.006974
     3   Atom        0.001111      0.001791     -0.001742
     4   Atom       -0.001459      0.006881     -0.000415
     5   Atom        0.003218      0.016405      0.001046
     6   Atom       -0.003879     -0.010960      0.004334
     7   Atom        0.000091     -0.003242      0.000142
     8   Atom       -0.003579     -0.005167      0.005903
     9   Atom        0.000416     -0.005637     -0.001887
    10   Atom       -0.000637     -0.005981     -0.000402
    11   Atom       -0.000627     -0.003020      0.000355
    12   Atom        0.003066     -0.004076     -0.002168
    13   Atom       -0.004921      0.004218     -0.015411
    14   Atom        0.004290     -0.001186     -0.007864
    15   Atom        0.000312      0.000126     -0.004662
    16   Atom       -0.005370      0.003364     -0.005705
    17   Atom        0.461779      0.550147      0.331641
    18   Atom       -0.019827     -0.026383      0.031182
    19   Atom       -0.002318      0.022977     -0.009479
 --------------------------------------------------------


 ---------------------------------------------------------------------------------
              Anisotropic Spin Dipole Couplings in Principal Axis System
 ---------------------------------------------------------------------------------

       Atom             a.u.   MegaHertz   Gauss  10(-4) cm-1        Axes

              Baa    -0.0314    -4.208    -1.502    -1.404 -0.5943 -0.4545  0.6635
     1 C(13)  Bbb    -0.0304    -4.086    -1.458    -1.363 -0.5098  0.8510  0.1263
              Bcc     0.0618     8.294     2.959     2.766  0.6220  0.2632  0.7374
 
              Baa    -0.0088    -4.710    -1.681    -1.571  0.9318 -0.2256 -0.2844
     2 H(1)   Bbb    -0.0040    -2.126    -0.759    -0.709  0.0545 -0.6876  0.7240
              Bcc     0.0128     6.836     2.439     2.280  0.3589  0.6901  0.6284
 
              Baa    -0.0057    -3.055    -1.090    -1.019 -0.5638  0.8074  0.1740
     3 H(1)   Bbb    -0.0029    -1.539    -0.549    -0.513  0.8150  0.5780 -0.0410
              Bcc     0.0086     4.594     1.639     1.532  0.1337 -0.1187  0.9839
 
              Baa    -0.0087    -4.661    -1.663    -1.555  0.0922  0.9954 -0.0266
     4 H(1)   Bbb    -0.0040    -2.131    -0.760    -0.711 -0.4615  0.0664  0.8847
              Bcc     0.0127     6.793     2.424     2.266  0.8823 -0.0693  0.4655
 
              Baa    -0.0246    -3.296    -1.176    -1.100 -0.6751  0.7196  0.1625
     5 C(13)  Bbb    -0.0189    -2.536    -0.905    -0.846  0.6895  0.6938 -0.2080
              Bcc     0.0435     5.832     2.081     1.945  0.2624  0.0284  0.9645
 
              Baa    -0.0095    -1.273    -0.454    -0.425  0.5310  0.8386  0.1214
     6 C(13)  Bbb    -0.0076    -1.020    -0.364    -0.340  0.6506 -0.4952  0.5757
              Bcc     0.0171     2.293     0.818     0.765 -0.5429  0.2267  0.8086
 
              Baa    -0.0037    -1.967    -0.702    -0.656 -0.1136  0.9917 -0.0596
     7 H(1)   Bbb    -0.0026    -1.378    -0.492    -0.460  0.9101  0.1279  0.3941
              Bcc     0.0063     3.345     1.194     1.116 -0.3984  0.0094  0.9172
 
              Baa    -0.0057    -3.025    -1.079    -1.009  0.1515  0.8646 -0.4790
     8 H(1)   Bbb    -0.0048    -2.575    -0.919    -0.859  0.8740  0.1092  0.4735
              Bcc     0.0105     5.599     1.998     1.868 -0.4617  0.4904  0.7391
 
              Baa    -0.0084    -1.121    -0.400    -0.374  0.0382  0.9892  0.1413
     9 C(13)  Bbb    -0.0020    -0.265    -0.094    -0.088  0.8354 -0.1092  0.5387
              Bcc     0.0103     1.386     0.495     0.462 -0.5483 -0.0974  0.8306
 
              Baa    -0.0086    -4.577    -1.633    -1.527  0.0871  0.9752  0.2036
    10 H(1)   Bbb    -0.0059    -3.142    -1.121    -1.048  0.2943 -0.2205  0.9299
              Bcc     0.0145     7.720     2.755     2.575  0.9517 -0.0211 -0.3062
 
              Baa    -0.0025    -1.335    -0.476    -0.445  0.1412  0.9894  0.0323
    11 H(1)   Bbb    -0.0021    -1.120    -0.400    -0.373  0.5297 -0.1031  0.8419
              Bcc     0.0046     2.455     0.876     0.819  0.8364 -0.1018 -0.5386
 
              Baa    -0.0035    -1.864    -0.665    -0.622  0.5811 -0.0097  0.8138
    12 H(1)   Bbb    -0.0033    -1.772    -0.632    -0.591 -0.3246  0.9142  0.2427
              Bcc     0.0068     3.636     1.297     1.213  0.7463  0.4052 -0.5281
 
              Baa    -0.0109    -1.468    -0.524    -0.490  0.7787 -0.2673 -0.5676
    13 C(13)  Bbb    -0.0108    -1.452    -0.518    -0.484  0.5938  0.6062  0.5291
              Bcc     0.0218     2.920     1.042     0.974 -0.2027  0.7490 -0.6308
 
              Baa    -0.0079    -4.207    -1.501    -1.403  0.8424 -0.3972 -0.3642
    14 H(1)   Bbb    -0.0057    -3.040    -1.085    -1.014  0.4950  0.3030  0.8143
              Bcc     0.0136     7.247     2.586     2.417  0.2131  0.8663 -0.4519
 
              Baa    -0.0036    -1.929    -0.688    -0.643  0.8505 -0.4187 -0.3184
    15 H(1)   Bbb    -0.0029    -1.543    -0.551    -0.515  0.5259  0.6659  0.5291
              Bcc     0.0065     3.472     1.239     1.158 -0.0095 -0.6175  0.7865
 
              Baa    -0.0058    -3.076    -1.098    -1.026  0.8463  0.1570 -0.5091
    16 H(1)   Bbb    -0.0051    -2.742    -0.978    -0.915  0.3266  0.6020  0.7286
              Bcc     0.0109     5.818     2.076     1.941 -0.4209  0.7829 -0.4582
 
              Baa    -0.4815   -64.609   -23.054   -21.551 -0.3029 -0.4773  0.8249
    17 C(13)  Bbb    -0.4789   -64.265   -22.931   -21.436 -0.6120  0.7609  0.2155
              Bcc     0.9604   128.874    45.985    42.988  0.7305  0.4395  0.5226
 
              Baa    -0.0599   -31.939   -11.397   -10.654 -0.0155  0.7654 -0.6433
    18 H(1)   Bbb    -0.0122    -6.520    -2.327    -2.175  0.4339  0.5848  0.6854
              Bcc     0.0721    38.459    13.723    12.828  0.9008 -0.2685 -0.3412
 
              Baa    -0.0598   -31.921   -11.390   -10.648 -0.5900  0.0479  0.8060
    19 H(1)   Bbb    -0.0122    -6.516    -2.325    -2.173  0.8062  0.0890  0.5849
              Bcc     0.0720    38.437    13.715    12.821 -0.0437  0.9949 -0.0911
 

 ---------------------------------------------------------------------------------

 No NMR shielding tensors so no spin-rotation constants.
 Leave Link  601 at Sat Nov  7 02:16:22 2015, MaxMem=   805306368 cpu:         0.9
 (Enter /home/hetanjin/apps/g09D01/g09/l701.exe)
 Compute integral first derivatives.
 ... and contract with generalized density number  0.
 Leave Link  701 at Sat Nov  7 02:16:23 2015, MaxMem=   805306368 cpu:         1.5
 (Enter /home/hetanjin/apps/g09D01/g09/l702.exe)
 L702 exits ... SP integral derivatives will be done elsewhere.
 Leave Link  702 at Sat Nov  7 02:16:23 2015, MaxMem=   805306368 cpu:         0.1
 (Enter /home/hetanjin/apps/g09D01/g09/l703.exe)
 Compute integral first derivatives, UseDBF=F ICtDFT=           0.
 Integral derivatives from FoFJK, PRISM(SPDF).
 Calling FoFJK, ICntrl=      2127 FMM=F ISym2X=0 I1Cent= 0 IOpClX= 1 NMat=1 NMatS=1 NMatT=0.
 FoFJK:  IHMeth= 1 ICntrl=    2127 DoSepK=F KAlg= 0 I1Cent=   0 FoldK=F
 IRaf=         0 NMat=   1 IRICut=       1 DoRegI=T DoRafI=F ISym2E= 0.
 FoFCou: FMM=F IPFlag=           0 FMFlag=      100000 FMFlg1=         800
         NFxFlg=           0 DoJE=F BraDBF=F KetDBF=F FulRan=T
         wScrn=  0.000000 ICntrl=    2127 IOpCl=  1 I1Cent=           0 NGrid=           0
         NMat0=    1 NMatS0=      1 NMatT0=    0 NMatD0=    1 NMtDS0=    0 NMtDT0=    0
 Symmetry not used in FoFCou.
 Leave Link  703 at Sat Nov  7 02:16:32 2015, MaxMem=   805306368 cpu:        33.0
 (Enter /home/hetanjin/apps/g09D01/g09/l716.exe)
 Dipole        =-1.45256613D-01-8.09137608D-02-1.90243869D-01
 ***** Axes restored to original set *****
 -------------------------------------------------------------------
 Center     Atomic                   Forces (Hartrees/Bohr)
 Number     Number              X              Y              Z
 -------------------------------------------------------------------
      1        6           0.004248738   -0.000487108    0.005008908
      2        1           0.000155914    0.000164250   -0.000360783
      3        1          -0.001234734   -0.000664695   -0.000635676
      4        1           0.000031229    0.000378681   -0.000191103
      5        6          -0.014612306   -0.013217672    0.001895679
      6        6          -0.000572805    0.000873032   -0.000338565
      7        1           0.000082525    0.000180234    0.000090515
      8        1           0.000074359   -0.000005386    0.000084465
      9        6           0.000272392   -0.000357552    0.000111489
     10        1           0.001375035   -0.000593705    0.000235690
     11        1           0.000033517    0.000237284   -0.000180838
     12        1           0.000093631    0.000030361    0.000095683
     13        6          -0.000145882   -0.000881073   -0.001710675
     14        1           0.000471666    0.000516048    0.000386018
     15        1           0.000160549    0.000211302   -0.000014495
     16        1           0.000000677   -0.000012756    0.000062192
     17        6           0.029205599    0.033863536   -0.007218953
     18        1          -0.007542771   -0.012914822   -0.000658541
     19        1          -0.012097332   -0.007319958    0.003338991
 -------------------------------------------------------------------
 Cartesian Forces:  Max     0.033863536 RMS     0.007173624
 Leave Link  716 at Sat Nov  7 02:16:32 2015, MaxMem=   805306368 cpu:         0.1
 (Enter /home/hetanjin/apps/g09D01/g09/l103.exe)

 GradGradGradGradGradGradGradGradGradGradGradGradGradGradGradGradGradGrad
 Berny optimization.
 FormGI is forming the generalized inverse of G from B-inverse, IUseBI=4.
 Internal  Forces:  Max     0.014126192 RMS     0.003317033
 Search for a local minimum.
 Step number   1 out of a maximum of  103
 All quantities printed in internal units (Hartrees-Bohrs-Radians)
 RMS Force = .33170D-02 SwitMx=.10000D-02 MixMth= 1
 Mixed Optimization -- RFO/linear search
 Second derivative matrix not updated -- first step.
 ITU=  0
     Eigenvalues ---    0.00230   0.00230   0.00230   0.00230   0.00316
     Eigenvalues ---    0.03068   0.03611   0.04674   0.04701   0.05073
     Eigenvalues ---    0.05293   0.05319   0.05397   0.05404   0.05446
     Eigenvalues ---    0.05447   0.05522   0.09014   0.12691   0.14837
     Eigenvalues ---    0.15122   0.16000   0.16000   0.16000   0.16000
     Eigenvalues ---    0.16000   0.16000   0.16000   0.16000   0.16000
     Eigenvalues ---    0.16000   0.16000   0.21977   0.27481   0.28370
     Eigenvalues ---    0.28418   0.28418   0.29059   0.33721   0.33721
     Eigenvalues ---    0.33969   0.33969   0.33990   0.33990   0.34015
     Eigenvalues ---    0.34017   0.34017   0.34112   0.34156   0.34166
     Eigenvalues ---    0.34166
 RFO step:  Lambda=-1.38090280D-02 EMin= 2.30000000D-03
 Linear search not attempted -- first point.
 Iteration  1 RMS(Cart)=  0.05280499 RMS(Int)=  0.00879452
 Iteration  2 RMS(Cart)=  0.00730521 RMS(Int)=  0.00567964
 Iteration  3 RMS(Cart)=  0.00010387 RMS(Int)=  0.00567910
 Iteration  4 RMS(Cart)=  0.00000223 RMS(Int)=  0.00567910
 Iteration  5 RMS(Cart)=  0.00000007 RMS(Int)=  0.00567910
 ITry= 1 IFail=0 DXMaxC= 2.35D-01 DCOld= 1.00D+10 DXMaxT= 3.00D-01 DXLimC= 3.00D+00 Rises=F
 Variable       Old X    -DE/DX   Delta X   Delta X   Delta X     New X
                                 (Linear)    (Quad)   (Total)
    R1        2.07346  -0.00020   0.00000  -0.00056  -0.00056   2.07290
    R2        2.07346   0.00015   0.00000   0.00042   0.00042   2.07388
    R3        2.07305  -0.00016   0.00000  -0.00044  -0.00044   2.07261
    R4        2.91336   0.00206   0.00000   0.00693   0.00693   2.92029
    R5        2.93287  -0.00096   0.00000  -0.00332  -0.00332   2.92955
    R6        2.91234   0.00117   0.00000   0.00392   0.00392   2.91626
    R7        2.91234  -0.01095   0.00000  -0.03676  -0.03676   2.87559
    R8        2.07803   0.00004   0.00000   0.00011   0.00011   2.07814
    R9        2.07803   0.00007   0.00000   0.00019   0.00019   2.07821
   R10        2.89880  -0.00117   0.00000  -0.00384  -0.00384   2.89496
   R11        2.07051   0.00042   0.00000   0.00117   0.00117   2.07168
   R12        2.07142   0.00012   0.00000   0.00035   0.00035   2.07177
   R13        2.07051  -0.00010   0.00000  -0.00029  -0.00029   2.07022
   R14        2.07067  -0.00071   0.00000  -0.00199  -0.00199   2.06868
   R15        2.07382   0.00012   0.00000   0.00033   0.00033   2.07415
   R16        2.07301   0.00000   0.00000   0.00001   0.00001   2.07302
   R17        2.07301  -0.00041   0.00000  -0.00115  -0.00115   2.07186
   R18        2.07382  -0.00035   0.00000  -0.00099  -0.00099   2.07283
    A1        1.87988   0.00063   0.00000   0.00171   0.00172   1.88160
    A2        1.88010  -0.00031   0.00000   0.00229   0.00224   1.88234
    A3        1.94072   0.00083   0.00000   0.00592   0.00590   1.94661
    A4        1.88010   0.00058   0.00000   0.00116   0.00116   1.88127
    A5        1.94072  -0.00253   0.00000  -0.01674  -0.01674   1.92398
    A6        1.93954   0.00086   0.00000   0.00596   0.00593   1.94547
    A7        1.88414   0.00155   0.00000   0.00932   0.00923   1.89337
    A8        1.89923   0.00015   0.00000   0.00339   0.00337   1.90260
    A9        1.89923  -0.00229   0.00000  -0.02295  -0.02293   1.87630
   A10        1.93449  -0.00065   0.00000   0.00418   0.00413   1.93862
   A11        1.93449  -0.00031   0.00000  -0.00404  -0.00406   1.93043
   A12        1.91142   0.00151   0.00000   0.00959   0.00959   1.92101
   A13        1.88615   0.00139   0.00000   0.00866   0.00871   1.89487
   A14        1.88616   0.00094   0.00000  -0.00047  -0.00055   1.88560
   A15        2.04055  -0.00395   0.00000  -0.01801  -0.01803   2.02253
   A16        1.84789  -0.00060   0.00000   0.00142   0.00140   1.84929
   A17        1.89691   0.00141   0.00000   0.00923   0.00928   1.90619
   A18        1.89691   0.00107   0.00000   0.00082   0.00072   1.89764
   A19        1.95529  -0.00158   0.00000  -0.00985  -0.00986   1.94542
   A20        1.92445   0.00014   0.00000   0.00248   0.00249   1.92694
   A21        1.95528   0.00012   0.00000  -0.00028  -0.00030   1.95498
   A22        1.87221   0.00099   0.00000   0.00746   0.00747   1.87969
   A23        1.88042   0.00038   0.00000  -0.00087  -0.00090   1.87951
   A24        1.87221   0.00007   0.00000   0.00180   0.00180   1.87401
   A25        1.95325  -0.00044   0.00000  -0.00258  -0.00258   1.95067
   A26        1.94002  -0.00009   0.00000  -0.00027  -0.00027   1.93975
   A27        1.93250   0.00001   0.00000  -0.00018  -0.00018   1.93232
   A28        1.88195   0.00035   0.00000   0.00247   0.00247   1.88442
   A29        1.87429   0.00015   0.00000   0.00037   0.00037   1.87466
   A30        1.87869   0.00005   0.00000   0.00037   0.00037   1.87906
   A31        1.93250   0.01413   0.00000   0.14781   0.12014   2.05264
   A32        1.94002   0.01365   0.00000   0.14456   0.11694   2.05696
   A33        1.87869  -0.00081   0.00000   0.12204   0.08699   1.96567
    D1        1.04736  -0.00071   0.00000  -0.01479  -0.01483   1.03253
    D2       -3.13510  -0.00050   0.00000  -0.00236  -0.00238  -3.13748
    D3       -1.05336   0.00007   0.00000  -0.00218  -0.00217  -1.05553
    D4       -1.04737  -0.00037   0.00000  -0.00968  -0.00971  -1.05708
    D5        1.05335  -0.00015   0.00000   0.00275   0.00275   1.05610
    D6        3.13509   0.00042   0.00000   0.00293   0.00295   3.13804
    D7        3.14159   0.00002   0.00000  -0.00392  -0.00394   3.13765
    D8       -1.04087   0.00024   0.00000   0.00850   0.00852  -1.03235
    D9        1.04086   0.00081   0.00000   0.00869   0.00873   1.04959
   D10        0.99614   0.00113   0.00000   0.01824   0.01828   1.01441
   D11       -0.99615   0.00066   0.00000   0.01246   0.01250  -0.98365
   D12        3.14159   0.00130   0.00000   0.02467   0.02468  -3.11692
   D13       -1.08232   0.00036   0.00000   0.00594   0.00592  -1.07640
   D14       -3.07460  -0.00011   0.00000   0.00016   0.00015  -3.07446
   D15        1.06313   0.00053   0.00000   0.01237   0.01232   1.07545
   D16        3.07459  -0.00089   0.00000  -0.00634  -0.00633   3.06826
   D17        1.08231  -0.00136   0.00000  -0.01212  -0.01211   1.07020
   D18       -1.06314  -0.00072   0.00000   0.00009   0.00007  -1.06308
   D19        3.09341  -0.00117   0.00000  -0.01177  -0.01176   3.08165
   D20       -1.08437  -0.00109   0.00000  -0.01058  -0.01057  -1.09493
   D21        1.00293  -0.00108   0.00000  -0.01040  -0.01040   0.99253
   D22       -1.12043   0.00043   0.00000   0.00422   0.00420  -1.11623
   D23        0.98498   0.00051   0.00000   0.00542   0.00539   0.99037
   D24        3.07227   0.00052   0.00000   0.00559   0.00556   3.07783
   D25        1.01930   0.00063   0.00000   0.00842   0.00844   1.02774
   D26        3.12471   0.00071   0.00000   0.00961   0.00963   3.13434
   D27       -1.07118   0.00072   0.00000   0.00979   0.00980  -1.06138
   D28       -1.00294  -0.00856   0.00000  -0.18137  -0.18766  -1.19059
   D29        1.08436   0.00869   0.00000   0.16416   0.17060   1.25496
   D30       -3.07228  -0.00886   0.00000  -0.17617  -0.18259   3.02831
   D31       -0.98499   0.00839   0.00000   0.16936   0.17566  -0.80932
   D32        1.07117  -0.00885   0.00000  -0.18526  -0.19164   0.87954
   D33       -3.12472   0.00840   0.00000   0.16028   0.16662  -2.95810
   D34        1.05782  -0.00073   0.00000  -0.01945  -0.01942   1.03840
   D35        3.14158  -0.00042   0.00000  -0.01480  -0.01478   3.12680
   D36       -1.05785  -0.00017   0.00000  -0.01104  -0.01103  -1.06887
   D37       -3.08547  -0.00059   0.00000  -0.01340  -0.01340  -3.09887
   D38       -1.00171  -0.00028   0.00000  -0.00875  -0.00876  -1.01047
   D39        1.08205  -0.00003   0.00000  -0.00499  -0.00501   1.07704
   D40       -1.08208   0.00000   0.00000  -0.00641  -0.00641  -1.08849
   D41        1.00168   0.00032   0.00000  -0.00176  -0.00177   0.99991
   D42        3.08544   0.00056   0.00000   0.00200   0.00198   3.08742
         Item               Value     Threshold  Converged?
 Maximum Force            0.014126     0.000015     NO 
 RMS     Force            0.003317     0.000010     NO 
 Maximum Displacement     0.234741     0.000060     NO 
 RMS     Displacement     0.051342     0.000040     NO 
 Predicted change in Energy=-9.921480D-03
 Lowest energy point so far.  Saving SCF results.
 GradGradGradGradGradGradGradGradGradGradGradGradGradGradGradGradGradGrad

 Leave Link  103 at Sat Nov  7 02:16:32 2015, MaxMem=   805306368 cpu:         0.9
 (Enter /home/hetanjin/apps/g09D01/g09/l202.exe)
                          Input orientation:                          
 ---------------------------------------------------------------------
 Center     Atomic      Atomic             Coordinates (Angstroms)
 Number     Number       Type             X           Y           Z
 ---------------------------------------------------------------------
      1          6           0        1.632519    1.009770   -0.014200
      2          1           0        1.609171    1.668194    0.862837
      3          1           0        1.601043    1.642852   -0.910089
      4          1           0        2.593034    0.480309   -0.011633
      5          6           0        0.442973    0.023318   -0.014706
      6          6           0       -0.873857    0.841384   -0.012580
      7          1           0       -0.881441    1.495064   -0.896883
      8          1           0       -0.856757    1.511931    0.858917
      9          6           0       -2.168969    0.023825    0.021228
     10          1           0       -2.219492   -0.610929    0.913629
     11          1           0       -3.040508    0.688776    0.035423
     12          1           0       -2.267431   -0.625840   -0.855349
     13          6           0        0.535833   -0.875547   -1.265684
     14          1           0       -0.253704   -1.633692   -1.280287
     15          1           0        0.453341   -0.282987   -2.185888
     16          1           0        1.497520   -1.402559   -1.294272
     17          6           0        0.549692   -0.823025    1.245400
     18          1           0        1.384525   -1.530501    1.313081
     19          1           0        0.324317   -0.343176    2.205675
 ---------------------------------------------------------------------
                    Distance matrix (angstroms):
                    1          2          3          4          5
     1  C    0.000000
     2  H    1.096933   0.000000
     3  H    1.097452   1.773126   0.000000
     4  H    1.096779   1.773064   1.772788   0.000000
     5  C    1.545351   2.199027   2.183055   2.198094   0.000000
     6  C    2.512027   2.759602   2.751910   3.485644   1.550251
     7  H    2.708253   3.054462   2.486915   3.726309   2.167567
     8  H    2.685330   2.470878   3.031057   3.704479   2.160668
     9  C    3.927423   4.205544   4.207326   4.783945   2.612189
    10  H    4.280832   4.455967   4.796037   5.020689   2.890120
    11  H    4.684301   4.823214   4.832003   5.637595   3.546828
    12  H    4.311886   4.821079   4.484981   5.055645   2.911078
    13  C    2.514627   3.486155   2.757436   2.764610   1.543220
    14  H    3.485499   4.354967   3.783236   3.765953   2.198348
    15  H    2.788891   3.799707   2.579485   3.144566   2.192706
    16  H    2.734253   3.754346   3.071293   2.527946   2.186889
    17  C    2.473509   2.734049   3.439771   2.730213   1.521694
    18  H    2.876830   3.238029   3.880662   2.694201   2.250309
    19  H    2.910275   2.738553   3.909261   3.277447   2.253550
[...]
 4595,-0.13005783,0.24652739,-0.24966421,0.11235498,-0.00189747,0.00027
 756,0.00012743,0.00036068,-0.00057823,0.00037929,-0.00024141,0.2725348
 9,0.11294877,-0.11089357,0.00073703,0.01716404,-0.00964749,0.00158227,
 0.01498315,-0.00868402,-0.00118565,-0.12109023,0.11898926,-0.00195791,
 0.00092307,-0.04947917,0.02410726,-0.01229711,0.00095720,-0.02523513,0
 .01311954,0.00085118,0.00167842,-0.00109940,0.04835831,-0.11569070,-0.
 04221437,0.00965407,0.00036465,0.00144929,-0.00033633,-0.00088210,0.00
 050158,-0.00089530,-0.02118604,-0.01925720,0.00130527,0.42375236,-0.03
 167982,-0.10265155,0.00448151,-0.01437659,-0.01386761,0.00142266,-0.01
 461466,-0.01305988,-0.00031199,0.01159931,0.01001205,-0.00050622,-0.02
 803832,0.46268019,-0.00575063,-0.00747262,-0.07114602,-0.01977279,-0.0
 1599321,0.00055960,0.02100790,0.01798045,-0.00160191,0.00039846,-0.000
 15353,-0.00180066,0.00042393,-0.00265709,0.49972342,-0.03551812,0.0095
 7624,0.00022967,0.00135514,0.00155488,0.00049055,0.00128293,0.00160662
 ,-0.00062660,-0.00332327,-0.00252575,0.00015078,-0.12740459,0.03168097
 ,0.00098130,0.44429744,-0.01773454,0.01033699,-0.00048302,-0.00102325,
 0.00026708,0.00005398,-0.00072709,0.00024333,0.00006162,-0.00522694,-0
 .00312093,0.00027425,0.03993144,-0.09703197,-0.00329700,0.01982266,0.5
 2506658,0.00081169,-0.00116706,0.00173380,-0.00126518,-0.00009501,-0.0
 0012503,0.00111440,-0.00016392,-0.00025006,0.00023865,0.00008488,-0.00
 034820,-0.00334117,-0.00116346,-0.07947139,0.00176446,-0.00130379,0.59
 711182,0.00114781,0.00105366,-0.00110576,-0.00008801,-0.00009311,-0.00
 001978,-0.00062440,-0.00043295,0.00055721,0.00037890,-0.00013342,0.000
 24994,-0.00344441,0.01563758,-0.02328602,-0.04789638,0.00106453,-0.001
 02274,0.05795238,-0.00163769,0.00034406,-0.00019478,0.00009215,0.00006
 655,-0.00013574,0.00030737,0.00081809,-0.00034133,-0.00010990,0.000000
 05,-0.00038621,0.00185872,-0.01173588,0.01589069,0.00130876,-0.1351705
 9,0.11784512,-0.00031376,0.14645492,0.00052033,-0.00000735,-0.00007796
 ,-0.00002854,0.00010662,-0.00008705,-0.00052673,-0.00035645,0.00054501
 ,-0.00007758,-0.00033094,0.00031620,0.00075819,-0.00042300,-0.00137626
 ,-0.00188531,0.11804556,-0.21600858,0.00139546,-0.13148241,0.23288605,
 0.00115045,0.00120113,0.00123639,-0.00050982,-0.00039719,-0.00046990,-
 0.00011313,-0.00005463,0.00001803,0.00033391,-0.00012819,-0.00025940,-
 0.00223830,0.01705520,0.02291569,-0.04704969,-0.00135504,-0.00240171,-
 0.00037853,-0.00022964,-0.00037831,0.05868909,-0.00144024,0.00039950,0
 .00024298,0.00031741,0.00078217,0.00024601,0.00007275,0.00004455,0.000
 12425,-0.00008204,0.00000568,0.00036922,0.00131267,-0.01304520,-0.0156
 9265,-0.00137540,-0.13972711,-0.11889918,0.00003415,0.01271779,0.01552
 124,0.00206969,0.15129071,-0.00046707,0.00001942,-0.00020134,0.0005826
 9,0.00038319,0.00048589,-0.00000395,-0.00011612,-0.00002541,0.00008512
 ,0.00031612,0.00029576,-0.00025670,0.00013963,-0.00146473,-0.00156154,
 -0.11904369,-0.21125902,-0.00003410,-0.01624948,-0.02195780,0.00233491
 ,0.13255843,0.22736829,-0.00320200,0.00354595,-0.00007266,0.00014195,-
 0.00007618,-0.00024390,0.00009506,-0.00006313,0.00025034,-0.00070743,-
 0.00117745,0.00006320,-0.02550830,-0.01248494,0.00070204,-0.15629815,-
 0.05330107,0.00124826,-0.00096513,-0.00092950,-0.00011585,-0.00271872,
 -0.00149758,-0.00016013,0.50418135,0.00371695,-0.00276635,0.00015774,0
 .00012135,0.00006709,0.00025184,0.00005411,0.00002449,-0.00029881,0.00
 158908,0.00120034,-0.00008333,0.01149093,0.01445029,-0.00007541,-0.050
 65860,-0.11930089,0.00158010,-0.01796809,-0.01174270,-0.00077007,-0.01
 833188,-0.01173096,0.00109194,-0.04631860,0.55032835,0.00012169,-0.000
 05362,-0.00039456,0.00026521,0.00029472,0.00024842,-0.00020711,-0.0002
 6029,0.00034296,0.00003667,0.00004127,0.00073704,0.00007479,-0.0000794
 7,-0.00043925,0.00194910,0.00090483,-0.08256849,0.02424157,0.01552604,
 0.00074975,-0.02431697,-0.01554200,0.00144400,0.00409029,0.00192153,0.
 57549135,-0.00013141,-0.00018805,-0.00024994,0.00002185,-0.00001401,0.
 00004140,0.00020219,0.00025279,-0.00021233,-0.00003213,0.00012125,-0.0
 0010165,0.00178494,0.00009090,0.00073425,0.00013884,-0.01825552,0.0245
 4749,-0.00497560,-0.00361389,-0.00011635,0.00102160,0.00070236,-0.0004
 9163,-0.04845747,0.00030330,0.00033968,0.05123414,-0.00008743,-0.00004
 453,-0.00003778,0.00000582,-0.00004106,0.00001604,0.00013201,0.0001026
 8,-0.00010707,-0.00007919,0.00004990,-0.00006381,0.00088101,0.00039944
 ,-0.00020161,-0.00026816,-0.01181073,0.01488944,-0.00353597,-0.0012318
 5,-0.00051584,0.00056165,0.00011990,-0.00018787,-0.00007399,-0.1487609
 9,0.12606993,0.00298458,0.15981970,0.00023779,-0.00008533,0.00007614,-
 0.00003190,-0.00001491,-0.00002238,-0.00006612,-0.00007013,0.00003292,
 0.00008830,0.00002071,-0.00000729,-0.00021402,0.00071882,-0.00009196,0
 .00116306,-0.00034895,0.00039911,-0.00022427,-0.00005113,0.00153884,0.
 00052090,0.00005760,0.00066639,0.00066257,0.12596893,-0.21328204,-0.00
 025892,-0.14044350,0.22890623,-0.00129762,0.00139318,-0.00005027,0.000
 01136,-0.00003025,-0.00007842,0.00003188,-0.00002239,0.00008549,-0.000
 57359,-0.00046150,0.00002596,-0.00215057,-0.00519502,0.00006776,-0.022
 43587,0.01805508,0.00138539,0.00087326,-0.00000921,0.00058035,0.001088
 75,0.00016772,-0.00069521,-0.21375373,0.12652975,0.01394199,0.00080797
 ,-0.00063667,-0.00080793,0.23373507,-0.00090783,0.00062170,-0.00004093
 ,0.00002690,0.00001680,-0.00002206,0.00005517,0.00002652,0.00003066,-0
 .00034476,-0.00022683,0.00000558,-0.00257775,-0.00255286,0.00004540,-0
 .01769300,0.01273946,0.00109254,0.00083530,0.00071273,0.00003351,0.000
 72607,0.00103543,0.00002487,0.12730775,-0.14482472,-0.01043495,0.01528
 876,-0.01226363,-0.00283975,-0.13693223,0.15578032,0.00011048,0.000133
 19,0.00024986,0.00000983,0.00003717,-0.00000453,-0.00003953,-0.0000582
 4,-0.00000103,-0.00002662,0.00000967,0.00001135,-0.00018665,-0.0002058
 3,0.00014092,0.00012604,-0.00035731,-0.00113052,0.00013714,-0.00032441
 ,-0.00004523,-0.00031035,0.00037305,0.00023473,0.01414603,-0.01045113,
 -0.05079025,-0.02221194,0.01580497,0.00295296,-0.01511492,0.01199411,0
 .04930132,-0.00000659,0.00002881,0.00018270,0.00018496,0.00020465,0.00
 014381,0.00001306,-0.00003673,-0.00001048,-0.00009147,0.00011600,0.000
 11386,0.00115355,-0.00036160,-0.00085583,-0.00165602,-0.01591565,-0.02
 535204,0.00128086,0.00077384,0.00045005,-0.00488201,-0.00343996,0.0002
 4650,-0.05134287,-0.01282712,-0.02002327,-0.00092871,0.00012339,-0.000
 53079,0.00327548,0.01367941,0.02339407,0.05471554,-0.00003091,0.000068
 74,-0.00014757,0.00006595,0.00008486,0.00011168,0.00002062,-0.00002347
 ,0.00000720,-0.00010768,0.00003880,0.00007720,0.00069016,-0.00005454,0
 .00014395,-0.00149772,-0.01105150,-0.01559027,0.00061570,0.00028700,0.
 00015277,-0.00378428,-0.00125150,0.00057443,-0.01318868,-0.12788996,-0
 .11859066,0.00194254,0.01324770,0.01767296,-0.00228561,-0.01116253,-0.
 01705939,0.01630073,0.13751760,-0.00017863,0.00015410,0.00011750,0.000
 02754,0.00008003,0.00004349,-0.00000135,-0.00002015,-0.00000864,-0.000
 10776,-0.00003899,-0.00001153,0.00018366,-0.00075552,-0.00028962,-0.00
 063375,0.00157312,0.00217684,-0.00056386,-0.00011727,0.00093297,0.0006
 4834,0.00047130,0.00161354,-0.02086613,-0.11887652,-0.23215241,-0.0015
 4057,-0.01508242,-0.02097572,0.00056040,-0.00007640,-0.00120555,0.0213
 1761,0.13259023,0.24952177,-0.00114608,-0.01849146,-0.02072961,-0.0040
 8360,-0.00421715,-0.00062960,0.00077209,0.00079103,-0.00023517,0.00051
 006,-0.00051094,-0.00089526,-0.07812784,0.00584287,0.00335226,-0.00282
 940,0.01887097,0.02411825,0.00083966,-0.00080861,0.00020182,-0.0053162
 7,0.00361964,0.00072054,0.00034795,0.00067381,0.00037547,-0.00016429,-
 0.00013970,0.00032928,0.00023356,-0.00013382,0.00008306,-0.00074239,0.
 00045967,0.00018649,0.58097495,-0.00400089,-0.01997216,-0.02198471,-0.
 00288601,-0.00294581,-0.00008012,0.00094035,0.00063820,-0.00076797,0.0
 0158048,0.00126861,0.00047001,0.00416080,-0.10975223,-0.04269047,0.005
 93604,-0.01334293,-0.01468736,-0.00069970,0.00021152,-0.00061014,0.002
 35793,-0.00096060,0.00013547,0.00057835,0.00061804,0.00128995,0.000118
 88,0.00011269,0.00001611,-0.00046230,-0.00058087,-0.00040849,-0.000093
 32,-0.00007893,-0.00112620,0.00907634,0.54225203,-0.00282018,-0.005628
 52,-0.00154303,0.00089366,0.00135145,0.00078475,0.00061648,0.00123362,
 0.00055652,0.00064198,0.00057907,0.00005446,-0.00029162,-0.04653888,-0
 .13672265,0.00544184,-0.00386811,-0.00157662,-0.00093286,0.00145505,0.
 00066090,-0.00111495,0.00163314,0.00096131,-0.00009632,0.00059761,0.00
 007627,0.00003715,-0.00007874,-0.00001268,-0.00044353,-0.00017193,0.00
 014502,0.00014203,-0.00024888,0.00005937,0.00881493,-0.05797017,0.5017
 8667,0.00031140,0.00001508,-0.00053222,0.00027887,-0.00012357,0.000178
 23,-0.00005384,0.00009206,0.00014237,0.00048561,0.00013654,0.00019396,
 0.00228712,0.00268180,-0.00069825,0.00000132,0.00010007,-0.00052720,-0
 .00004597,0.00007190,0.00002659,0.00012288,-0.00019639,-0.00002796,-0.
 00092858,0.00050466,0.00015792,0.00002677,-0.00006499,-0.00004549,0.00
 010339,0.00014575,0.00009031,-0.00115240,0.00095385,0.00077660,-0.1862
 9094,-0.13282729,0.00257864,0.20186271,0.00118767,-0.00212686,-0.00419
 174,-0.00126332,-0.00067378,-0.00023621,0.00039177,0.00047686,0.000022
 31,-0.00014908,0.00017665,0.00001444,-0.01312503,-0.01258787,0.0014518
 1,-0.00118355,-0.00013582,0.00044177,0.00005297,-0.00001565,-0.0001112
 6,0.00015600,0.00018547,-0.00002070,-0.00035540,-0.00022079,-0.0008416
 7,0.00006665,0.00001626,0.00000476,0.00009288,0.00042816,0.00043692,0.
 00110627,0.00024086,0.00059417,-0.13190780,-0.17726132,0.00302810,0.14
 561717,0.19039922,0.00116555,-0.00268286,-0.00488100,-0.00127532,-0.00
 154514,0.00023785,0.00014112,-0.00025856,0.00022208,0.00015085,0.00023
 790,-0.00009156,-0.02068384,-0.01753871,0.00061577,-0.00040811,0.00072
 282,0.00073947,0.00009525,-0.00002998,-0.00001014,-0.00012243,0.000140
 05,-0.00001413,0.00045622,-0.00010097,0.00033072,0.00013583,-0.0000025
 5,-0.00023747,0.00001125,0.00013886,-0.00006093,0.00036099,-0.00020322
 ,0.00008145,0.00313695,0.00393130,-0.04965759,-0.00378347,-0.00119232,
 0.05121964,-0.00016010,0.00040268,-0.00083859,-0.00010081,-0.00002740,
 0.00020821,0.00019170,-0.00034809,-0.00009375,-0.00000939,0.00005994,-
 0.00011484,-0.00096568,-0.00088497,0.00243289,0.00031523,-0.00061396,0
 .00096081,0.00012194,0.00023940,-0.00004425,-0.00001819,-0.00003809,-0
 .00016361,-0.00000017,0.00006972,0.00007941,0.00009563,0.00000614,-0.0
 0017197,-0.00001873,0.00002805,-0.00006890,-0.00010341,-0.00019074,0.0
 0000267,-0.05195117,0.01172804,-0.01942919,0.00316628,-0.01255641,0.02
 133848,0.05022150,0.00027211,0.00112494,-0.00032275,0.00020532,0.00023
 569,0.00015510,-0.00003469,-0.00009255,0.00010341,-0.00009899,-0.00009
 422,0.00003884,-0.00252578,0.01033373,-0.01694768,-0.00020980,0.001161
 81,-0.00027849,-0.00004019,-0.00005366,0.00024282,-0.00028740,0.000171
 25,0.00013820,-0.00001320,0.00007487,0.00012982,-0.00003707,-0.0000793
 3,-0.00011647,-0.00000008,0.00005377,0.00000270,-0.00002186,-0.0001258
 7,0.00005748,0.01210435,-0.12557996,0.11815339,0.00384543,-0.01196207,
 0.01851854,-0.01382640,0.13438522,0.00064353,0.00166062,0.00075656,0.0
 0020260,-0.00018912,0.00044071,-0.00054915,-0.00104167,0.00050783,-0.0
 0002409,-0.00010881,-0.00000727,-0.00280812,0.01507983,-0.02243406,-0.
 00088512,0.00164377,0.00042546,0.00059421,-0.00099300,0.00047325,-0.00
 017479,-0.00016979,0.00046745,0.00029932,-0.00019191,-0.00003592,-0.00
 021544,-0.00006008,0.00015886,0.00008102,0.00001139,0.00003502,0.00016
 340,0.00015820,-0.00009441,-0.01967928,0.11718452,-0.23027724,0.000541
 25,-0.00025282,0.00065947,0.02118646,-0.12796286,0.25249537,0.00066801
 ,-0.00083062,-0.00056145,0.00026057,-0.00007277,0.00013386,-0.00002827
 ,-0.00001773,0.00007174,0.00061570,0.00021442,-0.00005557,-0.00235003,
 0.00037491,-0.00012655,0.00098518,-0.00046377,0.00072120,0.00004097,-0
 .00007366,-0.00012076,-0.00006822,0.00020999,0.00009747,0.00002167,0.0
 0007200,-0.00036392,-0.00000630,-0.00002165,0.00006884,-0.00001711,0.0
 0013917,0.00015453,0.00031163,0.00013513,0.00028857,-0.25404964,0.1070
 8455,0.00323800,-0.02040437,0.01146309,-0.00026711,-0.00149995,0.00015
 568,-0.00035995,0.27502104,0.00156243,0.00036542,0.00072576,-0.0002850
 8,0.00037400,0.00014857,0.00000569,-0.00013753,-0.00001411,-0.00091450
 ,-0.00013108,-0.00039125,0.01767598,-0.01066881,0.00021012,-0.00132236
 ,-0.00198957,-0.00412944,-0.00032102,0.00035335,0.00002027,0.00141433,
 -0.00065044,-0.00039762,-0.00067954,-0.00011098,-0.00025865,0.00008966
 ,0.00003564,-0.00006265,0.00010359,0.00018585,0.00018243,0.00017002,0.
 00017165,0.00040040,0.10634061,-0.10420416,-0.00071042,-0.02104195,0.0
 1243811,0.00012340,0.01587625,-0.00845471,-0.00085336,-0.11799263,0.11
 165974,0.00096454,0.00086177,0.00084403,0.00004947,0.00037486,-0.00003
 641,-0.00019354,-0.00001306,-0.00002371,-0.00058617,-0.00011236,0.0001
 2683,0.02461393,-0.01270032,-0.00112931,-0.00103929,-0.00242598,-0.004
 67479,-0.00002005,-0.00029463,0.00020267,0.00146620,-0.00114490,0.0001
 3202,-0.00049681,-0.00027207,-0.00002886,0.00001983,0.00006581,0.00002
 344,0.00005532,0.00006985,0.00006129,0.00011162,0.00023910,0.00009044,
 0.00250968,-0.00027587,-0.04868956,0.00102031,-0.00017907,-0.00085486,
 -0.02576641,0.01196067,0.00133427,-0.00302957,0.00399949,0.05126826,0.
 00070851,-0.01228321,0.01716934,0.00034440,0.00086961,-0.00009732,-0.0
 0215807,-0.00388487,0.00149889,0.00123619,-0.00046036,0.00050434,-0.05
 364052,0.02317181,-0.00267633,-0.00436727,0.01687643,-0.02168669,-0.00
 396869,0.00300532,-0.00058173,0.00059709,-0.00026388,-0.00025755,-0.00
 108972,0.00071619,-0.00038670,-0.00024937,0.00021668,-0.00075892,0.000
 11507,0.00049813,-0.00038236,0.00000630,-0.00009286,-0.00006188,0.0002
 6248,-0.00262484,0.00288732,0.00061166,0.00048037,-0.00011788,0.000410
 44,0.00086653,0.00131593,0.00021494,-0.00051336,0.00069869,0.20318506,
 -0.00624719,-0.01976755,0.02022706,0.00096161,0.00091788,0.00105661,-0
 .00270400,-0.00262502,0.00165057,0.00135082,0.00129457,-0.00069637,0.0
 2251918,-0.11252497,0.05948128,0.00728960,-0.01773607,0.01848092,0.003
 60419,-0.00169066,0.00051843,-0.00075724,0.00062707,0.00103063,-0.0012
 1143,0.00065289,0.00016592,0.00036374,0.00033859,-0.00039451,-0.000424
 24,-0.00000723,-0.00017307,0.00019102,-0.00000296,0.00007314,-0.001807
 41,0.01087532,-0.01335147,-0.00014276,0.00046745,-0.00053861,0.0004482
 2,-0.00205274,-0.00462102,0.00040172,0.00027993,-0.00099236,-0.2247749
 0,0.48868151,0.00907812,0.01350651,-0.00703820,-0.00102022,-0.00141854
 ,0.00086261,-0.00016881,0.00016633,0.00053519,-0.00110367,-0.00061188,
 -0.00012427,-0.00023324,0.05686904,-0.17244535,-0.00748647,0.00717646,
 -0.00142487,0.00127945,-0.00131289,0.00075576,0.00091313,-0.00158587,0
 .00063353,0.00019968,-0.00102103,0.00033978,0.00010195,0.00046641,-0.0
 0016022,0.00059207,0.00032848,-0.00003212,-0.00000212,0.00017600,-0.00
 010651,-0.00024478,0.01193052,-0.03532377,0.00023944,0.00134604,0.0017
 0008,0.00022291,-0.00267158,-0.00379253,-0.00063414,0.00118552,0.00141
 942,-0.07819761,0.00890569,0.54594705,-0.00055488,0.00048389,-0.000839
 14,0.00001428,-0.00013686,0.00011278,0.00005208,0.00028790,0.00003433,
 -0.00014600,0.00002685,0.00008366,0.00238810,-0.00110798,0.00142597,-0
 .00030187,0.00085635,-0.00050286,-0.00015319,0.00017446,-0.00025009,0.
 00006638,-0.00021332,0.00000693,0.00011986,0.00017897,-0.00019550,0.00
 001483,0.00007187,0.00017047,-0.00001323,-0.00005661,-0.00000561,-0.00
 007138,0.,-0.00011291,0.00036840,0.00037503,0.00065927,-0.00035410,-0.
 00013766,-0.00027804,-0.00001429,-0.00033773,-0.00002023,0.00013759,-0
 .00003720,-0.00020478,-0.10066867,0.15290386,0.00563463,0.09984048,0.0
 0039245,0.00034745,-0.00038887,0.00002806,0.00002753,0.00007778,-0.000
 21758,0.00010146,0.00015837,-0.00063102,-0.00012549,0.00015530,0.00991
 238,-0.00761253,-0.00406039,-0.00187033,-0.00066747,0.00278333,0.00089
 030,-0.00033138,0.00013440,-0.00019117,0.00021836,-0.00011622,-0.00025
 667,-0.00015774,-0.00005763,-0.00001016,0.00006507,-0.00008058,0.00009
 258,0.00006148,-0.00001470,0.00005803,0.00004794,0.00005845,-0.0002192
 5,0.00068736,-0.00128126,0.00004531,0.00009773,0.00025210,-0.00022662,
 0.00008991,-0.00003777,-0.00045073,0.00045909,0.00062341,0.14613040,-0
 .25459978,0.00479639,-0.15858355,0.26630995,-0.00086148,-0.00005130,-0
 .00071099,0.00008990,0.00010327,0.00001515,0.00039738,0.00020034,-0.00
 007513,0.00037777,-0.00001698,0.00015290,-0.01321254,0.01810985,0.0037
 3262,0.00094310,0.00212210,-0.00409775,-0.00135435,0.00103893,0.000098
 86,0.00000353,0.00031716,0.00022746,0.00015267,0.00021337,0.00008349,-
 0.00020928,-0.00021350,0.00001248,-0.00009449,-0.00008554,0.00001023,-
 0.00003344,-0.00005571,0.00000887,-0.00100142,0.00102773,0.00182912,-0
 .00023955,-0.00024133,-0.00016428,0.00015037,-0.00025187,0.00031525,0.
 00059334,-0.00015016,-0.00031119,0.00497468,0.00452375,-0.05576626,-0.
 00388363,-0.00531087,0.05094766,0.00002233,0.00066593,-0.00092082,-0.0
 0000079,-0.00036394,-0.00000683,0.00017684,0.00015440,-0.00018941,-0.0
 0006105,-0.00002590,0.00014311,0.00185836,0.00060855,-0.00127604,0.000
 70454,-0.00096070,-0.00081102,-0.00009548,-0.00010604,0.00019273,0.000
 22272,0.00004054,0.00004527,0.00006444,0.00008348,-0.00018033,-0.00040
 349,-0.00007539,-0.00013087,-0.00001534,-0.00008445,0.00009540,0.00003
 588,-0.00000584,0.00007495,0.00039247,-0.00034243,-0.00082263,-0.00002
 781,0.00006340,-0.00005629,0.00031918,-0.00001622,-0.00031155,0.000146
 60,-0.00013092,-0.00017296,-0.04154984,0.04803522,0.07082967,-0.000724
 38,0.00510759,0.01320742,0.03893483,0.00046035,0.00079535,-0.00029051,
 -0.00010586,-0.00020974,-0.00023607,0.00008477,-0.00004931,-0.00019873
 ,-0.00014705,-0.00011228,0.00007624,-0.00464568,0.00927021,0.01403796,
 -0.00017111,0.00127035,0.00027989,-0.00025015,0.00000631,-0.00016816,-
 0.00002534,-0.00023207,-0.00028064,0.00019532,0.00008972,-0.00022506,-
 0.00020669,-0.00007546,0.00004803,0.00002473,-0.00004355,0.00007838,-0
 .00005593,-0.00006389,0.00004104,0.00045684,-0.00198480,0.00181693,0.0
 0018734,0.00005739,0.00002795,-0.00014573,0.00086393,0.00074387,-0.000
 32709,0.00002450,0.00021566,0.05206680,-0.09312823,-0.09823159,0.00525
 174,-0.00501894,-0.02127925,-0.05264727,0.08854051,-0.00054543,-0.0007
 2809,-0.00008304,0.00034341,0.00060901,0.00027825,0.00007981,0.0003235
 6,0.00009764,0.00000787,0.00004964,0.00000870,0.00544571,-0.01394083,-
 0.01435914,0.00128630,-0.00145065,0.00034881,0.00001355,0.00015742,0.0
 0040277,-0.00050831,0.00097997,0.00039205,-0.00021884,0.00035818,-0.00
 015200,-0.00034953,-0.00031783,0.00002239,-0.00010222,-0.00010372,0.00
 012745,0.00018132,-0.00000801,0.00019816,-0.00041361,0.00461589,-0.003
 11126,-0.00009149,-0.00007320,0.00016543,0.00010928,-0.00094926,-0.001
 42809,0.00015146,-0.00002830,0.00024601,0.07615577,-0.09534660,-0.2759
 7932,-0.00183524,0.00230874,0.00369153,-0.07970980,0.10354406,0.289133
 67\\0.00000059,0.00000041,-0.00000069,0.00000007,0.00000008,-0.0000003
 5,-0.00000012,-0.00000056,-0.00000016,0.00000014,-0.00000023,-0.000000
 15,-0.00000096,0.00000054,-0.00000066,0.00000076,-0.00000031,-0.000000
 42,-0.00000013,-0.00000009,-0.00000021,-0.00000015,0.00000035,-0.00000
 016,-0.00000016,0.00000021,0.00000012,-0.00000007,0.00000024,0.0000004
 3,0.00000016,0.00000027,0.00000010,-0.00000003,-0.00000004,0.00000023,
 -0.00000006,0.00000010,0.00000023,-0.00000025,-0.00000033,0.00000030,-
 0.00000019,-0.00000053,0.00000006,-0.00000003,-0.00000044,0.00000014,0
 .00000054,-0.00000076,0.00000167,-0.00000004,0.00000030,-0.00000020,-0
 .00000007,0.00000079,-0.00000027\\\@


 IT'S WHAT YOU LEARN AFTER YOU KNOW IT ALL
 THAT COUNTS.
 Job cpu time:       0 days  0 hours 30 minutes 32.7 seconds.
 File lengths (MBytes):  RWF=     64 Int=      0 D2E=      0 Chk=      3 Scr=      1
 Normal termination of Gaussian 09 at Sat Nov  7 02:33:17 2015.
