 Entering Gaussian System, Link 0=/share/apps/g09/g09
 Input=C6H14_2_01_1_opt_PM6.gjf
 Output=C6H14_2_01_1_opt_PM6.log
 Initial command:
 /share/apps/g09/l1.exe /state/partition1/Gau-6005.inp -scrdir=/state/partition1/
 Entering Link 1 = /share/apps/g09/l1.exe PID=      6007.
  
 Copyright (c) 1988,1990,1992,1993,1995,1998,2003,2009, Gaussian, Inc.
                  All Rights Reserved.
  
 This is part of the Gaussian(R) 09 program.  It is based on
 the Gaussian(R) 03 system (copyright 2003, Gaussian, Inc.),
 the Gaussian(R) 98 system (copyright 1998, Gaussian, Inc.),
 the Gaussian(R) 94 system (copyright 1995, Gaussian, Inc.),
 the Gaussian 92(TM) system (copyright 1992, Gaussian, Inc.),
 the Gaussian 90(TM) system (copyright 1990, Gaussian, Inc.),
 the Gaussian 88(TM) system (copyright 1988, Gaussian, Inc.),
 the Gaussian 86(TM) system (copyright 1986, Carnegie Mellon
 University), and the Gaussian 82(TM) system (copyright 1983,
 Carnegie Mellon University). Gaussian is a federally registered
 trademark of Gaussian, Inc.
  
 This software contains proprietary and confidential information,
 including trade secrets, belonging to Gaussian, Inc.
  
 This software is provided under written license and may be
 used, copied, transmitted, or stored only in accord with that
 written license.
  
 The following legend is applicable only to US Government
 contracts under FAR:
  
                    RESTRICTED RIGHTS LEGEND
  
 Use, reproduction and disclosure by the US Government is
 subject to restrictions as set forth in subparagraphs (a)
 and (c) of the Commercial Computer Software - Restricted
 Rights clause in FAR 52.227-19.
  
 Gaussian, Inc.
 340 Quinnipiac St., Bldg. 40, Wallingford CT 06492
  
  
 ---------------------------------------------------------------
 Warning -- This program may not be used in any manner that
 competes with the business of Gaussian, Inc. or will provide
 assistance to any competitor of Gaussian, Inc.  The licensee
 of this program is prohibited from giving any competitor of
 Gaussian, Inc. access to this program.  By using this program,
 the user acknowledges that Gaussian, Inc. is engaged in the
 business of creating and licensing software in the field of
 computational chemistry and represents and warrants to the
 licensee that it is not a competitor of Gaussian, Inc. and that
 it will not use this program in any manner prohibited above.
 ---------------------------------------------------------------
  

 Cite this work as:
 Gaussian 09, Revision A.01,
 M. J. Frisch, G. W. Trucks, H. B. Schlegel, G. E. Scuseria, 
 M. A. Robb, J. R. Cheeseman, G. Scalmani, V. Barone, B. Mennucci, 
 G. A. Petersson, H. Nakatsuji, M. Caricato, X. Li, H. P. Hratchian, 
 A. F. Izmaylov, J. Bloino, G. Zheng, J. L. Sonnenberg, M. Hada, 
 M. Ehara, K. Toyota, R. Fukuda, J. Hasegawa, M. Ishida, T. Nakajima, 
 Y. Honda, O. Kitao, H. Nakai, T. Vreven, J. A. Montgomery, Jr., 
 J. E. Peralta, F. Ogliaro, M. Bearpark, J. J. Heyd, E. Brothers, 
 K. N. Kudin, V. N. Staroverov, R. Kobayashi, J. Normand, 
 K. Raghavachari, A. Rendell, J. C. Burant, S. S. Iyengar, J. Tomasi, 
 M. Cossi, N. Rega, J. M. Millam, M. Klene, J. E. Knox, J. B. Cross, 
 V. Bakken, C. Adamo, J. Jaramillo, R. Gomperts, R. E. Stratmann, 
 O. Yazyev, A. J. Austin, R. Cammi, C. Pomelli, J. W. Ochterski, 
 R. L. Martin, K. Morokuma, V. G. Zakrzewski, G. A. Voth, 
 P. Salvador, J. J. Dannenberg, S. Dapprich, A. D. Daniels, 
 O. Farkas, J. B. Foresman, J. V. Ortiz, J. Cioslowski, 
 and D. J. Fox, Gaussian, Inc., Wallingford CT, 2009.
 
 ******************************************
 Gaussian 09:  EM64L-G09RevA.01  8-May-2009
                14-Sep-2015 
 ******************************************
 %mem=3GB
 %nprocshared=2
 Will use up to    2 processors via shared memory.
 %chk=C6H14_2_01_1_opt_PM6.chk
 ----------
 #p PM6 opt
 ----------
 1/14=-1,18=20,19=15,26=1,38=1/1,3;
 2/9=110,12=2,17=6,18=5,40=1/2;
 3/5=2,16=1,25=1,41=3900000,71=1/1,2,3;
 4/35=1/1;
 5/5=2,35=1,38=5/2;
 6/7=2,8=2,9=2,10=2,28=1/1;
 7//1,2,3,16;
 1/14=-1,18=20,19=15/3(2);
 2/9=110/2;
 99//99;
 2/9=110/2;
 3/5=2,16=1,25=1,41=3900000,71=1,135=20/1,2,3;
 4/5=5,16=3,35=1/1;
 5/5=2,35=1,38=5/2;
 7//1,2,3,16;
 1/14=-1,18=20,19=15/3(-5);
 2/9=110/2;
 6/7=2,8=2,9=2,10=2,19=2,28=1/1;
 99/9=1/99;
 Leave Link    1 at Mon Sep 14 19:12:02 2015, MaxMem=  402653184 cpu:       0.0
 (Enter /share/apps/g09/l101.exe)
 ----------------------------------
 using PM6 to do opt and freq calc.
 ----------------------------------
 Symbolic Z-matrix:
 Charge =  0 Multiplicity = 1
 C                     1.5249    1.1353    0.6082 
 H                     1.4564    0.7889    1.6646 
 H                     0.9091    2.0552    0.4903 
 H                     2.5873    1.3957    0.3973 
 C                     1.0559    0.0288   -0.3475 
 H                     1.778    -0.8141   -0.2309 
 C                    -0.3322   -0.5423    0.0223 
 H                    -0.2892   -0.911     1.0742 
 H                    -0.5292   -1.4279   -0.6266 
 C                    -1.5154    0.4312   -0.1118 
 H                    -1.6208    0.7543   -1.1724 
 H                    -1.343     1.3328    0.5183 
 C                    -2.8333   -0.2052    0.3226 
 H                    -2.7847   -0.5023    1.395 
 H                    -3.6616    0.5277    0.1934 
 H                    -3.0533   -1.1047   -0.2966 
 C                     1.1514    0.4835   -1.8109 
 H                     0.8045   -0.3273   -2.4912 
 H                     0.5327    1.3922   -1.9882 
 H                     2.2084    0.7241   -2.0674 
 
 NAtoms=     20 NQM=     20 NQMF=      0 NMic=      0 NMicF=      0 NTot=     20.
                    Isotopes and Nuclear Properties:
 (Nuclear quadrupole moments (NQMom) in fm**2, nuclear magnetic moments (NMagM)
  in nuclear magnetons)

  Atom         1           2           3           4           5           6           7           8           9          10
 IAtWgt=          12           1           1           1          12           1          12           1           1          12
 AtmWgt=  12.0000000   1.0078250   1.0078250   1.0078250  12.0000000   1.0078250  12.0000000   1.0078250   1.0078250  12.0000000
 NucSpn=           0           1           1           1           0           1           0           1           1           0
 AtZEff=   0.0000000   0.0000000   0.0000000   0.0000000   0.0000000   0.0000000   0.0000000   0.0000000   0.0000000   0.0000000
 NQMom=    0.0000000   0.0000000   0.0000000   0.0000000   0.0000000   0.0000000   0.0000000   0.0000000   0.0000000   0.0000000
 NMagM=    0.0000000   2.7928460   2.7928460   2.7928460   0.0000000   2.7928460   0.0000000   2.7928460   2.7928460   0.0000000

  Atom        11          12          13          14          15          16          17          18          19          20
 IAtWgt=           1           1          12           1           1           1          12           1           1           1
 AtmWgt=   1.0078250   1.0078250  12.0000000   1.0078250   1.0078250   1.0078250  12.0000000   1.0078250   1.0078250   1.0078250
 NucSpn=           1           1           0           1           1           1           0           1           1           1
 AtZEff=   0.0000000   0.0000000   0.0000000   0.0000000   0.0000000   0.0000000   0.0000000   0.0000000   0.0000000   0.0000000
 NQMom=    0.0000000   0.0000000   0.0000000   0.0000000   0.0000000   0.0000000   0.0000000   0.0000000   0.0000000   0.0000000
 NMagM=    2.7928460   2.7928460   0.0000000   2.7928460   2.7928460   2.7928460   0.0000000   2.7928460   2.7928460   2.7928460
 Leave Link  101 at Mon Sep 14 19:12:04 2015, MaxMem=  402653184 cpu:       0.1
 (Enter /share/apps/g09/l103.exe)

 GradGradGradGradGradGradGradGradGradGradGradGradGradGradGradGradGradGrad
 Berny optimization.
 Initialization pass.
                           ----------------------------
                           !    Initial Parameters    !
                           ! (Angstroms and Degrees)  !
 --------------------------                            --------------------------
 ! Name  Definition              Value          Derivative Info.                !
 --------------------------------------------------------------------------------
 ! R1    R(1,2)                  1.1139         estimate D2E/DX2                !
 ! R2    R(1,3)                  1.1133         estimate D2E/DX2                !
 ! R3    R(1,4)                  1.114          estimate D2E/DX2                !
 ! R4    R(1,5)                  1.5355         estimate D2E/DX2                !
 ! R5    R(5,6)                  1.116          estimate D2E/DX2                !
 ! R6    R(5,7)                  1.5459         estimate D2E/DX2                !
 ! R7    R(5,17)                 1.5354         estimate D2E/DX2                !
 ! R8    R(7,8)                  1.1155         estimate D2E/DX2                !
 ! R9    R(7,9)                  1.1154         estimate D2E/DX2                !
 ! R10   R(7,10)                 1.5381         estimate D2E/DX2                !
 ! R11   R(10,11)                1.1137         estimate D2E/DX2                !
 ! R12   R(10,12)                1.1134         estimate D2E/DX2                !
 ! R13   R(10,13)                1.5266         estimate D2E/DX2                !
 ! R14   R(13,14)                1.1139         estimate D2E/DX2                !
 ! R15   R(13,15)                1.1135         estimate D2E/DX2                !
 ! R16   R(13,16)                1.114          estimate D2E/DX2                !
 ! R17   R(17,18)                1.1138         estimate D2E/DX2                !
 ! R18   R(17,19)                1.1135         estimate D2E/DX2                !
 ! R19   R(17,20)                1.114          estimate D2E/DX2                !
 ! A1    A(2,1,3)              108.869          estimate D2E/DX2                !
 ! A2    A(2,1,4)              108.1135         estimate D2E/DX2                !
 ! A3    A(2,1,5)              110.3294         estimate D2E/DX2                !
 ! A4    A(3,1,4)              108.3204         estimate D2E/DX2                !
 ! A5    A(3,1,5)              111.1366         estimate D2E/DX2                !
 ! A6    A(4,1,5)              109.9934         estimate D2E/DX2                !
 ! A7    A(1,5,6)              106.3562         estimate D2E/DX2                !
 ! A8    A(1,5,7)              113.0542         estimate D2E/DX2                !
 ! A9    A(1,5,17)             111.1508         estimate D2E/DX2                !
 ! A10   A(6,5,7)              106.0798         estimate D2E/DX2                !
 ! A11   A(6,5,17)             106.4397         estimate D2E/DX2                !
 ! A12   A(7,5,17)             113.1575         estimate D2E/DX2                !
 ! A13   A(5,7,8)              108.2449         estimate D2E/DX2                !
 ! A14   A(5,7,9)              108.2244         estimate D2E/DX2                !
 ! A15   A(5,7,10)             115.8539         estimate D2E/DX2                !
 ! A16   A(8,7,9)              107.0362         estimate D2E/DX2                !
 ! A17   A(8,7,10)             108.7282         estimate D2E/DX2                !
 ! A18   A(9,7,10)             108.4175         estimate D2E/DX2                !
 ! A19   A(7,10,11)            109.8435         estimate D2E/DX2                !
 ! A20   A(7,10,12)            110.1258         estimate D2E/DX2                !
 ! A21   A(7,10,13)            112.0516         estimate D2E/DX2                !
 ! A22   A(11,10,12)           108.5823         estimate D2E/DX2                !
 ! A23   A(11,10,13)           108.0723         estimate D2E/DX2                !
 ! A24   A(12,10,13)           108.0719         estimate D2E/DX2                !
 ! A25   A(10,13,14)           110.3336         estimate D2E/DX2                !
 ! A26   A(10,13,15)           109.5583         estimate D2E/DX2                !
 ! A27   A(10,13,16)           110.4223         estimate D2E/DX2                !
 ! A28   A(14,13,15)           108.6463         estimate D2E/DX2                !
 ! A29   A(14,13,16)           109.1719         estimate D2E/DX2                !
 ! A30   A(15,13,16)           108.6671         estimate D2E/DX2                !
 ! A31   A(5,17,18)            110.3162         estimate D2E/DX2                !
 ! A32   A(5,17,19)            111.0308         estimate D2E/DX2                !
 ! A33   A(5,17,20)            110.0258         estimate D2E/DX2                !
 ! A34   A(18,17,19)           108.8898         estimate D2E/DX2                !
 ! A35   A(18,17,20)           108.1868         estimate D2E/DX2                !
 ! A36   A(19,17,20)           108.3178         estimate D2E/DX2                !
 ! D1    D(2,1,5,6)            -64.1707         estimate D2E/DX2                !
 ! D2    D(2,1,5,7)             51.8451         estimate D2E/DX2                !
 ! D3    D(2,1,5,17)          -179.6251         estimate D2E/DX2                !
 ! D4    D(3,1,5,6)            174.9656         estimate D2E/DX2                !
 ! D5    D(3,1,5,7)            -69.0186         estimate D2E/DX2                !
 ! D6    D(3,1,5,17)            59.5111         estimate D2E/DX2                !
 ! D7    D(4,1,5,6)             55.0133         estimate D2E/DX2                !
 ! D8    D(4,1,5,7)            171.0291         estimate D2E/DX2                !
 ! D9    D(4,1,5,17)           -60.4411         estimate D2E/DX2                !
 ! D10   D(1,5,7,8)            -56.4367         estimate D2E/DX2                !
 ! D11   D(1,5,7,9)           -172.1149         estimate D2E/DX2                !
 ! D12   D(1,5,7,10)            65.9357         estimate D2E/DX2                !
 ! D13   D(6,5,7,8)             59.7432         estimate D2E/DX2                !
 ! D14   D(6,5,7,9)            -55.935          estimate D2E/DX2                !
 ! D15   D(6,5,7,10)          -177.8844         estimate D2E/DX2                !
 ! D16   D(17,5,7,8)           176.0791         estimate D2E/DX2                !
 ! D17   D(17,5,7,9)            60.4009         estimate D2E/DX2                !
 ! D18   D(17,5,7,10)          -61.5485         estimate D2E/DX2                !
 ! D19   D(1,5,17,18)         -179.7806         estimate D2E/DX2                !
 ! D20   D(1,5,17,19)          -58.9695         estimate D2E/DX2                !
 ! D21   D(1,5,17,20)           60.9326         estimate D2E/DX2                !
 ! D22   D(6,5,17,18)           64.8167         estimate D2E/DX2                !
 ! D23   D(6,5,17,19)         -174.3723         estimate D2E/DX2                !
 ! D24   D(6,5,17,20)          -54.4701         estimate D2E/DX2                !
 ! D25   D(7,5,17,18)          -51.3062         estimate D2E/DX2                !
 ! D26   D(7,5,17,19)           69.5049         estimate D2E/DX2                !
 ! D27   D(7,5,17,20)         -170.593          estimate D2E/DX2                !
 ! D28   D(5,7,10,11)           61.9512         estimate D2E/DX2                !
 ! D29   D(5,7,10,12)          -57.5908         estimate D2E/DX2                !
 ! D30   D(5,7,10,13)         -177.9156         estimate D2E/DX2                !
 ! D31   D(8,7,10,11)         -175.9325         estimate D2E/DX2                !
 ! D32   D(8,7,10,12)           64.5255         estimate D2E/DX2                !
 ! D33   D(8,7,10,13)          -55.7994         estimate D2E/DX2                !
 ! D34   D(9,7,10,11)          -59.8955         estimate D2E/DX2                !
 ! D35   D(9,7,10,12)         -179.4375         estimate D2E/DX2                !
 ! D36   D(9,7,10,13)           60.2377         estimate D2E/DX2                !
 ! D37   D(7,10,13,14)          61.3425         estimate D2E/DX2                !
 ! D38   D(7,10,13,15)        -179.0863         estimate D2E/DX2                !
 ! D39   D(7,10,13,16)         -59.4345         estimate D2E/DX2                !
 ! D40   D(11,10,13,14)       -177.4974         estimate D2E/DX2                !
 ! D41   D(11,10,13,15)        -57.9262         estimate D2E/DX2                !
 ! D42   D(11,10,13,16)         61.7256         estimate D2E/DX2                !
 ! D43   D(12,10,13,14)        -60.1698         estimate D2E/DX2                !
 ! D44   D(12,10,13,15)         59.4014         estimate D2E/DX2                !
 ! D45   D(12,10,13,16)        179.0531         estimate D2E/DX2                !
 --------------------------------------------------------------------------------
 Trust Radius=3.00D-01 FncErr=1.00D-07 GrdErr=1.00D-07
 Number of steps in this run= 110 maximum allowed number of steps= 120.
 GradGradGradGradGradGradGradGradGradGradGradGradGradGradGradGradGradGrad

 Leave Link  103 at Mon Sep 14 19:12:04 2015, MaxMem=  402653184 cpu:       0.0
 (Enter /share/apps/g09/l202.exe)
                          Input orientation:                          
 ---------------------------------------------------------------------
 Center     Atomic      Atomic             Coordinates (Angstroms)
 Number     Number       Type             X           Y           Z
 ---------------------------------------------------------------------
      1          6           0        1.524900    1.135300    0.608200
      2          1           0        1.456400    0.788900    1.664600
      3          1           0        0.909100    2.055200    0.490300
      4          1           0        2.587300    1.395700    0.397300
      5          6           0        1.055900    0.028800   -0.347500
      6          1           0        1.778000   -0.814100   -0.230900
      7          6           0       -0.332200   -0.542300    0.022300
      8          1           0       -0.289200   -0.911000    1.074200
      9          1           0       -0.529200   -1.427900   -0.626600
     10          6           0       -1.515400    0.431200   -0.111800
     11          1           0       -1.620800    0.754300   -1.172400
     12          1           0       -1.343000    1.332800    0.518300
     13          6           0       -2.833300   -0.205200    0.322600
     14          1           0       -2.784700   -0.502300    1.395000
     15          1           0       -3.661600    0.527700    0.193400
     16          1           0       -3.053300   -1.104700   -0.296600
     17          6           0        1.151400    0.483500   -1.810900
     18          1           0        0.804500   -0.327300   -2.491200
     19          1           0        0.532700    1.392200   -1.988200
     20          1           0        2.208400    0.724100   -2.067400
 ---------------------------------------------------------------------
                    Distance matrix (angstroms):
                    1          2          3          4          5
     1  C    0.000000
     2  H    1.113852   0.000000
     3  H    1.113250   1.811638   0.000000
     4  H    1.113993   1.803660   1.805532   0.000000
     5  C    1.535469   2.187853   2.197671   2.183650   0.000000
     6  H    2.137360   2.503189   3.083504   2.435738   1.116022
     7  C    2.570300   2.769175   2.916651   3.524195   1.545875
     8  H    2.774069   2.507060   3.251954   3.748775   2.171117
     9  H    3.509138   3.755850   3.930414   4.328240   2.170809
    10  C    3.202746   3.480681   2.979614   4.245184   2.613248
    11  H    3.634711   4.185562   3.295043   4.536900   2.893360
    12  H    2.876098   3.073511   2.365291   3.932665   2.864393
    13  C    4.568634   4.603338   4.375282   5.652554   3.953437
    14  H    4.676905   4.441487   4.582952   5.784133   4.250715
    15  H    5.238418   5.331658   4.828323   6.312191   4.774545
    16  H    5.176503   5.269670   5.128820   6.208854   4.262973
    17  C    2.533059   3.502199   2.797226   2.787484   1.535387
    18  H    3.502064   4.352189   3.817930   3.806644   2.187569
    19  H    2.791371   3.815775   2.593108   3.148333   2.196473
    20  H    2.791969   3.807562   3.162568   2.582510   2.183977
                    6          7          8          9         10
     6  H    0.000000
     7  C    2.142645   0.000000
     8  H    2.446629   1.115474   0.000000
     9  H    2.420021   1.115423   1.793741   0.000000
    10  C    3.522987   1.538066   2.170637   2.166532   0.000000
    11  H    3.859811   2.183797   3.097353   2.500297   1.113721
    12  H    3.861492   2.187175   2.540503   3.097504   1.113387
    13  C    4.684144   2.541519   2.745087   2.775762   1.526620
    14  H    4.853762   2.810812   2.549013   3.167157   2.180136
    15  H    5.618693   3.501297   3.770776   3.782684   2.169939
    16  H    4.840478   2.796851   3.091417   2.566016   2.181347
    17  C    2.138409   2.571761   3.513369   2.807211   3.162515
    18  H    2.508711   2.766947   3.774780   2.542992   3.408636
    19  H    3.083283   2.921036   3.918998   3.306743   2.939237
    20  H    2.433934   3.524949   4.333729   3.768483   4.216260
                   11         12         13         14         15
    11  H    0.000000
    12  H    1.808398   0.000000
    13  C    2.150772   2.150520   0.000000
    14  H    3.086300   2.492929   1.113855   0.000000
    15  H    2.466094   2.475813   1.113515   1.809336   0.000000
    16  H    2.504988   3.087166   1.113961   1.815638   1.809657
    17  C    2.857640   3.516890   4.572085   5.171313   5.213841
    18  H    2.964991   4.052750   4.600649   5.292970   5.280545
    19  H    2.389562   3.131185   4.384226   5.102971   4.806131
    20  H    3.932520   4.434952   5.656363   6.198655   6.293385
                   16         17         18         19         20
    16  H    0.000000
    17  C    4.742888   0.000000
    18  H    4.505912   1.113797   0.000000
    19  H    4.685661   1.113535   1.812061   0.000000
    20  H    5.845146   1.113970   1.804434   1.805713   0.000000
 Stoichiometry    C6H14
 Framework group  C1[X(C6H14)]
 Deg. of freedom    54
 Full point group                 C1      NOp   1
 Largest Abelian subgroup         C1      NOp   1
 Largest concise Abelian subgroup C1      NOp   1
                         Standard orientation:                         
 ---------------------------------------------------------------------
 Center     Atomic      Atomic             Coordinates (Angstroms)
 Number     Number       Type             X           Y           Z
 ---------------------------------------------------------------------
      1          6           0        1.641564    1.264625   -0.292573
      2          1           0        1.303278    2.181830    0.241247
      3          1           0        1.245480    1.286706   -1.332744
      4          1           0        2.754350    1.282728   -0.341159
      5          6           0        1.169001    0.008420    0.453283
      6          1           0        1.682148    0.019621    1.444271
      7          6           0       -0.346923    0.018439    0.755942
      8          1           0       -0.581232    0.942266    1.335531
      9          1           0       -0.576235   -0.849577    1.417857
     10          6           0       -1.275744   -0.045337   -0.468342
     11          1           0       -1.108373   -0.997868   -1.020652
     12          1           0       -1.063404    0.804970   -1.155015
     13          6           0       -2.749086    0.020893   -0.074073
     14          1           0       -2.968528    0.982752    0.442980
     15          1           0       -3.382695   -0.044991   -0.987372
     16          1           0       -3.008973   -0.825458    0.601987
     17          6           0        1.633463   -1.268239   -0.262140
     18          1           0        1.280154   -2.170049    0.287821
     19          1           0        1.244120   -1.306249   -1.304698
     20          1           0        2.746259   -1.299482   -0.302632
 ---------------------------------------------------------------------
 Rotational constants (GHZ):      5.7858622      1.8232682      1.6336439
 Leave Link  202 at Mon Sep 14 19:12:04 2015, MaxMem=  402653184 cpu:       0.0
 (Enter /share/apps/g09/l301.exe)
 Standard basis: VSTO-6G (5D, 7F)
 Ernie: Thresh=  0.10000D-02 Tol=  0.10000D-05 Strict=F.
  NNHCO=     0 NNPyr=     0 NCTC=     0               EPep=         0.000000000
    EC=       128.748613651  ECS=         3.138284106   EG=         0.306200929
   EHC=         0.000408258  EAt=       -31.187935768  AtH=         2.796400831
 EPDDG=         0.000000000  ECC=       132.193506945 EAtT=        33.984336599
 There are    38 symmetry adapted basis functions of A   symmetry.
 Integral buffers will be    131072 words long.
 Regular integral format.
 Two-electron integral symmetry is turned off.
    38 basis functions,   228 primitive gaussians,    38 cartesian basis functions
    19 alpha electrons       19 beta electrons
       nuclear repulsion energy       166.1778435435 Hartrees.
 IExCor=    0 DFT=F Ex=HF Corr=None ExCW=0 ScaHFX=  1.000000
 ScaDFX=  1.000000  1.000000  1.000000  1.000000 ScalE2=  1.000000  1.000000
 IRadAn=      0 IRanWt=     -1 IRanGd=            0 ICorTp=0
 Leave Link  301 at Mon Sep 14 19:12:06 2015, MaxMem=  402653184 cpu:       0.1
 (Enter /share/apps/g09/l302.exe)
 Do NDO integrals.
 NPDir=0 NMtPBC=     1 NCelOv=     1 NCel=       1 NClECP=     1 NCelD=      1
         NCelK=      1 NCelE2=     1 NClLst=     1 CellRange=     0.0.
 One-electron integrals computed using PRISM.
 NBasis=    38 RedAO= F  NBF=    38
 NBsUse=    38 1.00D-04 NBFU=    38
 Leave Link  302 at Mon Sep 14 19:12:07 2015, MaxMem=  402653184 cpu:       0.2
 (Enter /share/apps/g09/l303.exe)
 DipDrv:  MaxL=1.
 Leave Link  303 at Mon Sep 14 19:12:08 2015, MaxMem=  402653184 cpu:       0.0
 (Enter /share/apps/g09/l401.exe)
 Simple Huckel Guess.
 Initial guess orbital symmetries:
       Occupied  (A) (A) (A) (A) (A) (A) (A) (A) (A) (A) (A) (A)
                 (A) (A) (A) (A) (A) (A) (A)
       Virtual   (A) (A) (A) (A) (A) (A) (A) (A) (A) (A) (A) (A)
                 (A) (A) (A) (A) (A) (A) (A)
 The electronic state of the initial guess is 1-A.
 Leave Link  401 at Mon Sep 14 19:12:09 2015, MaxMem=  402653184 cpu:       0.1
 (Enter /share/apps/g09/l502.exe)
 Closed shell SCF:
 Requested convergence on RMS density matrix=1.00D-08 within 128 cycles.
 Requested convergence on MAX density matrix=1.00D-06.
 Requested convergence on             energy=1.00D-06.
 No special actions if energy rises.
 Using DIIS extrapolation, IDIIS=  1040.
 Overlap will be assumed to be unity.
 Two-electron integral symmetry not used.
 Keep J ints in memory in canonical form, NReq=884654.
 IEnd=       81865 IEndB=       81865 NGot=   402653184 MDV=   402586639
 LenX=   402586639 LenY=   402584754
 Symmetry not used in FoFDir.
 MinBra= 0 MaxBra= 1 Meth=40.
 IRaf=       0 NMat=   1 IRICut=       1 DoRegI=T DoRafI=F ISym2E= 0 JSym2E=0.

 Cycle   1  Pass 1  IDiag  1:
 E= 0.731835771535145E-01
 DIIS: error= 2.20D-02 at cycle   1 NSaved=   1.
 NSaved= 1 IEnMin= 1 EnMin= 0.731835771535145E-01 IErMin= 1 ErrMin= 2.20D-02
 ErrMax= 2.20D-02 EMaxC= 1.00D-01 BMatC= 4.38D-02 BMatP= 4.38D-02
 IDIUse=3 WtCom= 7.80D-01 WtEn= 2.20D-01
 Coeff-Com:  0.100D+01
 Coeff-En:   0.100D+01
 Coeff:      0.100D+01
 GapD=    2.000 DampG=2.000 DampE=0.500 DampFc=1.0000 IDamp=-1.
 RMSDP=8.40D-03 MaxDP=6.95D-02              OVMax= 0.00D+00

 Cycle   2  Pass 1  IDiag  1:
 E=-0.429905683573395E-01 Delta-E=       -0.116174145511 Rises=F Damp=F
 DIIS: error= 5.45D-03 at cycle   2 NSaved=   2.
 NSaved= 2 IEnMin= 2 EnMin=-0.429905683573395E-01 IErMin= 2 ErrMin= 5.45D-03
 ErrMax= 5.45D-03 EMaxC= 1.00D-01 BMatC= 2.98D-03 BMatP= 4.38D-02
 IDIUse=3 WtCom= 9.45D-01 WtEn= 5.45D-02
 Coeff-Com: -0.316D+00 0.132D+01
 Coeff-En:   0.000D+00 0.100D+01
 Coeff:     -0.299D+00 0.130D+01
 RMSDP=3.07D-03 MaxDP=2.14D-02 DE=-1.16D-01 OVMax= 0.00D+00

 Cycle   3  Pass 1  IDiag  3:
 E=-0.529952940585190E-01 Delta-E=       -0.010004725701 Rises=F Damp=F
 DIIS: error= 1.53D-03 at cycle   3 NSaved=   3.
 NSaved= 3 IEnMin= 3 EnMin=-0.529952940585190E-01 IErMin= 3 ErrMin= 1.53D-03
 ErrMax= 1.53D-03 EMaxC= 1.00D-01 BMatC= 1.41D-04 BMatP= 2.98D-03
 IDIUse=3 WtCom= 9.85D-01 WtEn= 1.53D-02
 Coeff-Com:  0.248D+00-0.109D+01 0.185D+01
 Coeff-En:   0.000D+00 0.000D+00 0.100D+01
 Coeff:      0.244D+00-0.108D+01 0.183D+01
 Gap=     0.553 Goal=   None    Shift=    0.000
 RMSDP=1.21D-03 MaxDP=1.10D-02 DE=-1.00D-02 OVMax= 0.00D+00

 Cycle   4  Pass 1  IDiag  3:
 E=-0.539653884511040E-01 Delta-E=       -0.000970094393 Rises=F Damp=F
 DIIS: error= 4.96D-04 at cycle   4 NSaved=   4.
 NSaved= 4 IEnMin= 4 EnMin=-0.539653884511040E-01 IErMin= 4 ErrMin= 4.96D-04
 ErrMax= 4.96D-04 EMaxC= 1.00D-01 BMatC= 1.48D-05 BMatP= 1.41D-04
 IDIUse=3 WtCom= 9.95D-01 WtEn= 4.96D-03
 Coeff-Com: -0.147D+00 0.659D+00-0.138D+01 0.186D+01
 Coeff-En:   0.000D+00 0.000D+00 0.000D+00 0.100D+01
 Coeff:     -0.146D+00 0.656D+00-0.137D+01 0.186D+01
 Gap=     0.554 Goal=   None    Shift=    0.000
 RMSDP=5.24D-04 MaxDP=5.40D-03 DE=-9.70D-04 OVMax= 0.00D+00

 Cycle   5  Pass 1  IDiag  3:
 E=-0.540899993679034E-01 Delta-E=       -0.000124610917 Rises=F Damp=F
 DIIS: error= 1.88D-04 at cycle   5 NSaved=   5.
 NSaved= 5 IEnMin= 5 EnMin=-0.540899993679034E-01 IErMin= 5 ErrMin= 1.88D-04
 ErrMax= 1.88D-04 EMaxC= 1.00D-01 BMatC= 1.17D-06 BMatP= 1.48D-05
 IDIUse=3 WtCom= 9.98D-01 WtEn= 1.88D-03
 Coeff-Com:  0.929D-01-0.420D+00 0.923D+00-0.146D+01 0.186D+01
 Coeff-En:   0.000D+00 0.000D+00 0.000D+00 0.000D+00 0.100D+01
 Coeff:      0.927D-01-0.419D+00 0.922D+00-0.146D+01 0.186D+01
 Gap=     0.553 Goal=   None    Shift=    0.000
 RMSDP=1.43D-04 MaxDP=1.68D-03 DE=-1.25D-04 OVMax= 0.00D+00

 Cycle   6  Pass 1  IDiag  3:
 E=-0.540995226836003E-01 Delta-E=       -0.000009523316 Rises=F Damp=F
 DIIS: error= 5.40D-05 at cycle   6 NSaved=   6.
 NSaved= 6 IEnMin= 6 EnMin=-0.540995226836003E-01 IErMin= 6 ErrMin= 5.40D-05
 ErrMax= 5.40D-05 EMaxC= 1.00D-01 BMatC= 8.27D-08 BMatP= 1.17D-06
 IDIUse=1 WtCom= 1.00D+00 WtEn= 0.00D+00
 Coeff-Com: -0.871D-02 0.402D-01-0.100D+00 0.193D+00-0.476D+00 0.135D+01
 Coeff:     -0.871D-02 0.402D-01-0.100D+00 0.193D+00-0.476D+00 0.135D+01
 Gap=     0.554 Goal=   None    Shift=    0.000
 RMSDP=3.37D-05 MaxDP=4.07D-04 DE=-9.52D-06 OVMax= 0.00D+00

 Cycle   7  Pass 1  IDiag  3:
 E=-0.541001190138388E-01 Delta-E=       -0.000000596330 Rises=F Damp=F
 DIIS: error= 1.51D-05 at cycle   7 NSaved=   7.
 NSaved= 7 IEnMin= 7 EnMin=-0.541001190138388E-01 IErMin= 7 ErrMin= 1.51D-05
 ErrMax= 1.51D-05 EMaxC= 1.00D-01 BMatC= 8.54D-09 BMatP= 8.27D-08
 IDIUse=1 WtCom= 1.00D+00 WtEn= 0.00D+00
 Coeff-Com:  0.303D-02-0.141D-01 0.364D-01-0.706D-01 0.190D+00-0.774D+00
 Coeff-Com:  0.163D+01
 Coeff:      0.303D-02-0.141D-01 0.364D-01-0.706D-01 0.190D+00-0.774D+00
 Coeff:      0.163D+01
 Gap=     0.554 Goal=   None    Shift=    0.000
 RMSDP=1.07D-05 MaxDP=1.38D-04 DE=-5.96D-07 OVMax= 0.00D+00

 Cycle   8  Pass 1  IDiag  3:
 E=-0.541001783913373E-01 Delta-E=       -0.000000059377 Rises=F Damp=F
 DIIS: error= 4.32D-06 at cycle   8 NSaved=   8.
 NSaved= 8 IEnMin= 8 EnMin=-0.541001783913373E-01 IErMin= 8 ErrMin= 4.32D-06
 ErrMax= 4.32D-06 EMaxC= 1.00D-01 BMatC= 5.86D-10 BMatP= 8.54D-09
 IDIUse=1 WtCom= 1.00D+00 WtEn= 0.00D+00
 Coeff-Com: -0.699D-03 0.345D-02-0.111D-01 0.258D-01-0.867D-01 0.428D+00
 Coeff-Com: -0.110D+01 0.175D+01
 Coeff:     -0.699D-03 0.345D-02-0.111D-01 0.258D-01-0.867D-01 0.428D+00
 Coeff:     -0.110D+01 0.175D+01
 Gap=     0.554 Goal=   None    Shift=    0.000
 RMSDP=2.80D-06 MaxDP=3.81D-05 DE=-5.94D-08 OVMax= 0.00D+00

 Cycle   9  Pass 1  IDiag  3:
 E=-0.541001823002318E-01 Delta-E=       -0.000000003909 Rises=F Damp=F
 DIIS: error= 6.00D-07 at cycle   9 NSaved=   9.
 NSaved= 9 IEnMin= 9 EnMin=-0.541001823002318E-01 IErMin= 9 ErrMin= 6.00D-07
 ErrMax= 6.00D-07 EMaxC= 1.00D-01 BMatC= 2.04D-11 BMatP= 5.86D-10
 IDIUse=1 WtCom= 1.00D+00 WtEn= 0.00D+00
 Coeff-Com: -0.591D-04 0.168D-03 0.837D-03-0.415D-02 0.217D-01-0.129D+00
 Coeff-Com:  0.364D+00-0.704D+00 0.145D+01
 Coeff:     -0.591D-04 0.168D-03 0.837D-03-0.415D-02 0.217D-01-0.129D+00
 Coeff:      0.364D+00-0.704D+00 0.145D+01
 Gap=     0.554 Goal=   None    Shift=    0.000
 RMSDP=4.40D-07 MaxDP=4.67D-06 DE=-3.91D-09 OVMax= 0.00D+00

 Cycle  10  Pass 1  IDiag  3:
 E=-0.541001824236673E-01 Delta-E=       -0.000000000123 Rises=F Damp=F
 DIIS: error= 2.61D-07 at cycle  10 NSaved=  10.
 NSaved=10 IEnMin=10 EnMin=-0.541001824236673E-01 IErMin=10 ErrMin= 2.61D-07
 ErrMax= 2.61D-07 EMaxC= 1.00D-01 BMatC= 2.07D-12 BMatP= 2.04D-11
 IDIUse=1 WtCom= 1.00D+00 WtEn= 0.00D+00
 Coeff-Com:  0.211D-04-0.288D-04-0.749D-03 0.308D-02-0.150D-01 0.877D-01
 Coeff-Com: -0.246D+00 0.488D+00-0.118D+01 0.186D+01
 Coeff:      0.211D-04-0.288D-04-0.749D-03 0.308D-02-0.150D-01 0.877D-01
 Coeff:     -0.246D+00 0.488D+00-0.118D+01 0.186D+01
 Gap=     0.554 Goal=   None    Shift=    0.000
 RMSDP=1.65D-07 MaxDP=1.99D-06 DE=-1.23D-10 OVMax= 0.00D+00

 Cycle  11  Pass 1  IDiag  3:
 E=-0.541001824389298E-01 Delta-E=       -0.000000000015 Rises=F Damp=F
 DIIS: error= 8.11D-08 at cycle  11 NSaved=  11.
 NSaved=11 IEnMin=11 EnMin=-0.541001824389298E-01 IErMin=11 ErrMin= 8.11D-08
 ErrMax= 8.11D-08 EMaxC= 1.00D-01 BMatC= 1.60D-13 BMatP= 2.07D-12
 IDIUse=1 WtCom= 1.00D+00 WtEn= 0.00D+00
 Coeff-Com:  0.128D-04-0.893D-04 0.579D-03-0.181D-02 0.760D-02-0.422D-01
 Coeff-Com:  0.117D+00-0.229D+00 0.570D+00-0.114D+01 0.172D+01
 Coeff:      0.128D-04-0.893D-04 0.579D-03-0.181D-02 0.760D-02-0.422D-01
 Coeff:      0.117D+00-0.229D+00 0.570D+00-0.114D+01 0.172D+01
 Gap=     0.554 Goal=   None    Shift=    0.000
 RMSDP=5.30D-08 MaxDP=6.47D-07 DE=-1.53D-11 OVMax= 0.00D+00

 Cycle  12  Pass 1  IDiag  3:
 E=-0.541001824400098E-01 Delta-E=       -0.000000000001 Rises=F Damp=F
 DIIS: error= 8.90D-09 at cycle  12 NSaved=  12.
 NSaved=12 IEnMin=12 EnMin=-0.541001824400098E-01 IErMin=12 ErrMin= 8.90D-09
 ErrMax= 8.90D-09 EMaxC= 1.00D-01 BMatC= 3.80D-15 BMatP= 1.60D-13
 IDIUse=1 WtCom= 1.00D+00 WtEn= 0.00D+00
 Coeff-Com: -0.137D-05 0.166D-04-0.163D-03 0.552D-03-0.243D-02 0.137D-01
 Coeff-Com: -0.382D-01 0.755D-01-0.191D+00 0.402D+00-0.705D+00 0.144D+01
 Coeff:     -0.137D-05 0.166D-04-0.163D-03 0.552D-03-0.243D-02 0.137D-01
 Coeff:     -0.382D-01 0.755D-01-0.191D+00 0.402D+00-0.705D+00 0.144D+01
 Gap=     0.554 Goal=   None    Shift=    0.000
 RMSDP=5.88D-09 MaxDP=6.70D-08 DE=-1.08D-12 OVMax= 0.00D+00

 Cycle  13  Pass 2  IDiag  1:
 RMSDP=5.88D-09 MaxDP=6.70D-08 DE=-1.08D-12 OVMax= 0.00D+00

 SCF Done:  E(RPM6) = -0.541001824400E-01 A.U. after   13 cycles
             Convg  =    0.5877D-08             -V/T =  0.9990
 KE=-5.615340338142D+01 PE=-2.534819422478D+02 EE= 1.434034019033D+02
 Leave Link  502 at Mon Sep 14 19:12:12 2015, MaxMem=  402653184 cpu:       0.1
 (Enter /share/apps/g09/l601.exe)
 Copying SCF densities to generalized density rwf, IOpCl= 0 IROHF=0.

 **********************************************************************

            Population analysis using the SCF density.

 **********************************************************************

 Orbital symmetries:
       Occupied  (A) (A) (A) (A) (A) (A) (A) (A) (A) (A) (A) (A)
                 (A) (A) (A) (A) (A) (A) (A)
       Virtual   (A) (A) (A) (A) (A) (A) (A) (A) (A) (A) (A) (A)
                 (A) (A) (A) (A) (A) (A) (A)
 The electronic state is 1-A.
 Alpha  occ. eigenvalues --   -1.05420  -0.98118  -0.87058  -0.85640  -0.76119
 Alpha  occ. eigenvalues --   -0.67880  -0.57862  -0.57099  -0.54505  -0.51472
 Alpha  occ. eigenvalues --   -0.50497  -0.47890  -0.46833  -0.45956  -0.44422
 Alpha  occ. eigenvalues --   -0.43114  -0.41083  -0.40626  -0.39834
 Alpha virt. eigenvalues --    0.15508   0.16247   0.16396   0.17729   0.18249
 Alpha virt. eigenvalues --    0.20886   0.21713   0.21935   0.22010   0.22053
 Alpha virt. eigenvalues --    0.22267   0.22368   0.23512   0.23575   0.24330
 Alpha virt. eigenvalues --    0.24412   0.25068   0.25497   0.25593
          Condensed to atoms (all electrons):
              1          2          3          4          5          6
     1  C    4.494325   0.000000   0.000000   0.000000   0.000000   0.000000
     2  H    0.000000   0.851713   0.000000   0.000000   0.000000   0.000000
     3  H    0.000000   0.000000   0.847317   0.000000   0.000000   0.000000
     4  H    0.000000   0.000000   0.000000   0.853104   0.000000   0.000000
     5  C    0.000000   0.000000   0.000000   0.000000   3.983643   0.000000
     6  H    0.000000   0.000000   0.000000   0.000000   0.000000   0.897285
     7  C    0.000000   0.000000   0.000000   0.000000   0.000000   0.000000
     8  H    0.000000   0.000000   0.000000   0.000000   0.000000   0.000000
     9  H    0.000000   0.000000   0.000000   0.000000   0.000000   0.000000
    10  C    0.000000   0.000000   0.000000   0.000000   0.000000   0.000000
    11  H    0.000000   0.000000   0.000000   0.000000   0.000000   0.000000
    12  H    0.000000   0.000000   0.000000   0.000000   0.000000   0.000000
    13  C    0.000000   0.000000   0.000000   0.000000   0.000000   0.000000
    14  H    0.000000   0.000000   0.000000   0.000000   0.000000   0.000000
    15  H    0.000000   0.000000   0.000000   0.000000   0.000000   0.000000
    16  H    0.000000   0.000000   0.000000   0.000000   0.000000   0.000000
    17  C    0.000000   0.000000   0.000000   0.000000   0.000000   0.000000
    18  H    0.000000   0.000000   0.000000   0.000000   0.000000   0.000000
    19  H    0.000000   0.000000   0.000000   0.000000   0.000000   0.000000
    20  H    0.000000   0.000000   0.000000   0.000000   0.000000   0.000000
              7          8          9         10         11         12
     1  C    0.000000   0.000000   0.000000   0.000000   0.000000   0.000000
     2  H    0.000000   0.000000   0.000000   0.000000   0.000000   0.000000
     3  H    0.000000   0.000000   0.000000   0.000000   0.000000   0.000000
     4  H    0.000000   0.000000   0.000000   0.000000   0.000000   0.000000
     5  C    0.000000   0.000000   0.000000   0.000000   0.000000   0.000000
     6  H    0.000000   0.000000   0.000000   0.000000   0.000000   0.000000
     7  C    4.304055   0.000000   0.000000   0.000000   0.000000   0.000000
     8  H    0.000000   0.866334   0.000000   0.000000   0.000000   0.000000
     9  H    0.000000   0.000000   0.867260   0.000000   0.000000   0.000000
    10  C    0.000000   0.000000   0.000000   4.210674   0.000000   0.000000
    11  H    0.000000   0.000000   0.000000   0.000000   0.873842   0.000000
    12  H    0.000000   0.000000   0.000000   0.000000   0.000000   0.873392
    13  C    0.000000   0.000000   0.000000   0.000000   0.000000   0.000000
    14  H    0.000000   0.000000   0.000000   0.000000   0.000000   0.000000
    15  H    0.000000   0.000000   0.000000   0.000000   0.000000   0.000000
    16  H    0.000000   0.000000   0.000000   0.000000   0.000000   0.000000
    17  C    0.000000   0.000000   0.000000   0.000000   0.000000   0.000000
    18  H    0.000000   0.000000   0.000000   0.000000   0.000000   0.000000
    19  H    0.000000   0.000000   0.000000   0.000000   0.000000   0.000000
    20  H    0.000000   0.000000   0.000000   0.000000   0.000000   0.000000
             13         14         15         16         17         18
     1  C    0.000000   0.000000   0.000000   0.000000   0.000000   0.000000
     2  H    0.000000   0.000000   0.000000   0.000000   0.000000   0.000000
     3  H    0.000000   0.000000   0.000000   0.000000   0.000000   0.000000
     4  H    0.000000   0.000000   0.000000   0.000000   0.000000   0.000000
     5  C    0.000000   0.000000   0.000000   0.000000   0.000000   0.000000
     6  H    0.000000   0.000000   0.000000   0.000000   0.000000   0.000000
     7  C    0.000000   0.000000   0.000000   0.000000   0.000000   0.000000
     8  H    0.000000   0.000000   0.000000   0.000000   0.000000   0.000000
     9  H    0.000000   0.000000   0.000000   0.000000   0.000000   0.000000
    10  C    0.000000   0.000000   0.000000   0.000000   0.000000   0.000000
    11  H    0.000000   0.000000   0.000000   0.000000   0.000000   0.000000
    12  H    0.000000   0.000000   0.000000   0.000000   0.000000   0.000000
    13  C    4.469642   0.000000   0.000000   0.000000   0.000000   0.000000
    14  H    0.000000   0.852961   0.000000   0.000000   0.000000   0.000000
    15  H    0.000000   0.000000   0.855586   0.000000   0.000000   0.000000
    16  H    0.000000   0.000000   0.000000   0.852929   0.000000   0.000000
    17  C    0.000000   0.000000   0.000000   0.000000   4.494075   0.000000
    18  H    0.000000   0.000000   0.000000   0.000000   0.000000   0.851525
    19  H    0.000000   0.000000   0.000000   0.000000   0.000000   0.000000
    20  H    0.000000   0.000000   0.000000   0.000000   0.000000   0.000000
             19         20
     1  C    0.000000   0.000000
     2  H    0.000000   0.000000
     3  H    0.000000   0.000000
     4  H    0.000000   0.000000
     5  C    0.000000   0.000000
     6  H    0.000000   0.000000
     7  C    0.000000   0.000000
     8  H    0.000000   0.000000
     9  H    0.000000   0.000000
    10  C    0.000000   0.000000
    11  H    0.000000   0.000000
    12  H    0.000000   0.000000
    13  C    0.000000   0.000000
    14  H    0.000000   0.000000
    15  H    0.000000   0.000000
    16  H    0.000000   0.000000
    17  C    0.000000   0.000000
    18  H    0.000000   0.000000
    19  H    0.847170   0.000000
    20  H    0.000000   0.853170
 Mulliken atomic charges:
              1
     1  C   -0.494325
     2  H    0.148287
     3  H    0.152683
     4  H    0.146896
     5  C    0.016357
     6  H    0.102715
     7  C   -0.304055
     8  H    0.133666
     9  H    0.132740
    10  C   -0.210674
    11  H    0.126158
    12  H    0.126608
    13  C   -0.469642
    14  H    0.147039
    15  H    0.144414
    16  H    0.147071
    17  C   -0.494075
    18  H    0.148475
    19  H    0.152830
    20  H    0.146830
 Sum of Mulliken atomic charges =   0.00000
 Mulliken charges with hydrogens summed into heavy atoms:
              1
     1  C   -0.046459
     5  C    0.119073
     7  C   -0.037648
    10  C    0.042092
    13  C   -0.031118
    17  C   -0.045940
 Sum of Mulliken charges with hydrogens summed into heavy atoms =   0.00000
 Charge=              0.0000 electrons
 Dipole moment (field-independent basis, Debye):
    X=              0.0127    Y=              0.0010    Z=              0.0204  Tot=              0.0240
 N-N= 1.661778435435D+02 E-N=-2.534819422008D+02  KE=-5.615340338142D+01
 Leave Link  601 at Mon Sep 14 19:12:14 2015, MaxMem=  402653184 cpu:       0.0
 (Enter /share/apps/g09/l701.exe)
 Compute integral first derivatives.
 ... and contract with generalized density number  0.
 Leave Link  701 at Mon Sep 14 19:12:14 2015, MaxMem=  402653184 cpu:       0.1
 (Enter /share/apps/g09/l702.exe)
 L702 exits ... SP integral derivatives will be done elsewhere.
 Leave Link  702 at Mon Sep 14 19:12:16 2015, MaxMem=  402653184 cpu:       0.0
 (Enter /share/apps/g09/l703.exe)
 Compute integral first derivatives, UseDBF=F ICtDFT=           0.
 Integral derivatives from FoFDir, PRISM(SPDF).
 Calling FoFJK, ICntrl=      2127 FMM=F ISym2X=0 I1Cent= 0 IOpClX= 0 NMat=1 NMatS=1 NMatT=0.
 FoFCou: FMM=F IPFlag=           0 FMFlag=      100000 FMFlg1=         800
         NFxFlg=           0 DoJE=F BraDBF=F KetDBF=F FulRan=T
         Omega=  0.000000  0.000000  1.000000  0.000000  0.000000 ICntrl=    2127 IOpCl=  0
         NMat0=    1 NMatS0=    1 NMatT0=    0 NMatD0=    1 NMtDS0=    0 NMtDT0=    0
         I1Cent=           0 NGrid=           0.
 Symmetry not used in FoFCou.
 Leave Link  703 at Mon Sep 14 19:12:16 2015, MaxMem=  402653184 cpu:       0.1
 (Enter /share/apps/g09/l716.exe)
 Dipole        = 5.01115256D-03 3.84316749D-04 8.01638242D-03
 ***** Axes restored to original set *****
 -------------------------------------------------------------------
 Center     Atomic                   Forces (Hartrees/Bohr)
 Number     Number              X              Y              Z
 -------------------------------------------------------------------
      1        6          -0.000461015    0.003107175    0.002160136
      2        1           0.000638007    0.005454979   -0.009074493
      3        1           0.006280027   -0.007912177    0.002669336
      4        1          -0.009879805   -0.000515794    0.003195695
      5        6          -0.000052527    0.001082108   -0.000266480
      6        1           0.001914768   -0.004103113    0.000758466
      7        6          -0.001625702    0.000767557   -0.000077665
      8        1          -0.000408997    0.000068590   -0.004522026
      9        1           0.000880475    0.002296138    0.003734960
     10        6           0.002807850    0.001368009   -0.000923230
     11        1           0.003297303    0.001797667    0.003833089
     12        1           0.002106458   -0.001308988   -0.004728263
     13        6          -0.003737096   -0.002889983    0.001628782
     14        1          -0.003310687    0.001086046   -0.009873859
     15        1           0.005033024   -0.008478901    0.002205646
     16        1          -0.000490069    0.007400806    0.007488927
     17        6          -0.001437917    0.001680293   -0.003020112
     18        1           0.002903224    0.009098346    0.004598358
     19        1           0.005889489   -0.008747443   -0.000226782
     20        1          -0.010346812   -0.001251315    0.000439517
 -------------------------------------------------------------------
 Cartesian Forces:  Max     0.010346812 RMS     0.004420809
 Leave Link  716 at Mon Sep 14 19:12:16 2015, MaxMem=  402653184 cpu:       0.0
 (Enter /share/apps/g09/l103.exe)

 GradGradGradGradGradGradGradGradGradGradGradGradGradGradGradGradGradGrad
 Berny optimization.
 Internal  Forces:  Max     0.010374544 RMS     0.003674045
 Search for a local minimum.
 Step number   1 out of a maximum of  110
 All quantities printed in internal units (Hartrees-Bohrs-Radians)
 RMS Force = .36740D-02 SwitMx=.10000D-02 MixMth= 1
 Mixed Optimization -- RFO/linear search
 Second derivative matrix not updated -- first step.
     Eigenvalues ---    0.00230   0.00262   0.00297   0.00298   0.00414
     Eigenvalues ---    0.03015   0.03177   0.03644   0.04703   0.04761
     Eigenvalues ---    0.04866   0.04977   0.05497   0.05512   0.05642
     Eigenvalues ---    0.05643   0.05660   0.05777   0.08162   0.08781
     Eigenvalues ---    0.12067   0.12535   0.16000   0.16000   0.16000
     Eigenvalues ---    0.16000   0.16000   0.16000   0.16000   0.16000
     Eigenvalues ---    0.16000   0.17376   0.17724   0.21974   0.22000
     Eigenvalues ---    0.28005   0.28691   0.28924   0.28932   0.29738
     Eigenvalues ---    0.31971   0.32027   0.32033   0.32181   0.32183
     Eigenvalues ---    0.32184   0.32195   0.32196   0.32201   0.32209
     Eigenvalues ---    0.32229   0.32231   0.32244   0.322581000.00000
     Eigenvalues --- 1000.000001000.000001000.000001000.000001000.00000
     Eigenvalues --- 1000.000001000.000001000.000001000.000001000.00000
     Eigenvalues --- 1000.000001000.000001000.000001000.000001000.00000
     Eigenvalues --- 1000.000001000.000001000.000001000.000001000.00000
     Eigenvalues --- 1000.000001000.000001000.000001000.000001000.00000
     Eigenvalues --- 1000.000001000.000001000.000001000.000001000.00000
     Eigenvalues --- 1000.000001000.000001000.000001000.000001000.00000
     Eigenvalues --- 1000.000001000.000001000.000001000.000001000.00000
     Eigenvalues --- 1000.000001000.000001000.000001000.000001000.00000
 RFO step:  Lambda=-5.67199681D-03 EMin= 2.30000000D-03
 Linear search not attempted -- first point.
 Iteration  1 RMS(Cart)=  0.05194274 RMS(Int)=  0.00096375
 Iteration  2 RMS(Cart)=  0.00133254 RMS(Int)=  0.00021052
 Iteration  3 RMS(Cart)=  0.00000056 RMS(Int)=  0.00021052
 Variable       Old X    -DE/DX   Delta X   Delta X   Delta X     New X
                                 (Linear)    (Quad)   (Total)
    R1        2.10488  -0.01034   0.00000  -0.03157  -0.03157   2.07331
    R2        2.10374  -0.01029   0.00000  -0.03136  -0.03136   2.07238
    R3        2.10514  -0.01015   0.00000  -0.03099  -0.03099   2.07415
    R4        2.90162  -0.00160   0.00000  -0.00543  -0.00543   2.89618
    R5        2.10898   0.00442   0.00000   0.01358   0.01358   2.12255
    R6        2.92128  -0.00516   0.00000  -0.01806  -0.01806   2.90322
    R7        2.90146  -0.00166   0.00000  -0.00563  -0.00563   2.89583
    R8        2.10794  -0.00430   0.00000  -0.01320  -0.01320   2.09474
    R9        2.10784  -0.00415   0.00000  -0.01273  -0.01273   2.09511
   R10        2.90652  -0.00501   0.00000  -0.01711  -0.01711   2.88941
   R11        2.10463  -0.00344   0.00000  -0.01050  -0.01050   2.09413
   R12        2.10400  -0.00341   0.00000  -0.01039  -0.01039   2.09360
   R13        2.88489   0.00378   0.00000   0.01246   0.01246   2.89735
   R14        2.10488  -0.00994   0.00000  -0.03034  -0.03034   2.07454
   R15        2.10424  -0.00958   0.00000  -0.02921  -0.02921   2.07503
   R16        2.10508  -0.01004   0.00000  -0.03066  -0.03066   2.07442
   R17        2.10477  -0.01034   0.00000  -0.03154  -0.03154   2.07323
   R18        2.10428  -0.01037   0.00000  -0.03163  -0.03163   2.07264
   R19        2.10510  -0.01019   0.00000  -0.03111  -0.03111   2.07399
    A1        1.90012  -0.00245   0.00000  -0.01899  -0.01898   1.88114
    A2        1.88694  -0.00192   0.00000  -0.00689  -0.00711   1.87982
    A3        1.92561   0.00237   0.00000   0.01446   0.01435   1.93996
    A4        1.89055  -0.00205   0.00000  -0.01269  -0.01274   1.87781
    A5        1.93970   0.00125   0.00000   0.00514   0.00512   1.94482
    A6        1.91975   0.00258   0.00000   0.01782   0.01768   1.93743
    A7        1.85627   0.00091   0.00000   0.02783   0.02800   1.88427
    A8        1.97317  -0.00155   0.00000  -0.02533  -0.02610   1.94707
    A9        1.93995   0.00089   0.00000  -0.00949  -0.01072   1.92923
   A10        1.85144   0.00079   0.00000   0.01508   0.01559   1.86703
   A11        1.85772   0.00080   0.00000   0.02620   0.02637   1.88409
   A12        1.97497  -0.00152   0.00000  -0.02540  -0.02617   1.94880
   A13        1.88923   0.00237   0.00000   0.00943   0.00943   1.89866
   A14        1.88887   0.00223   0.00000   0.01060   0.01068   1.89956
   A15        2.02203  -0.00724   0.00000  -0.03160  -0.03152   1.99051
   A16        1.86813  -0.00189   0.00000  -0.01008  -0.01018   1.85795
   A17        1.89767   0.00223   0.00000   0.00891   0.00890   1.90657
   A18        1.89224   0.00256   0.00000   0.01369   0.01374   1.90598
   A19        1.91713  -0.00039   0.00000  -0.00857  -0.00871   1.90842
   A20        1.92206  -0.00074   0.00000  -0.01251  -0.01262   1.90943
   A21        1.95567  -0.00204   0.00000  -0.00259  -0.00252   1.95315
   A22        1.89512  -0.00197   0.00000  -0.02889  -0.02941   1.86571
   A23        1.88622   0.00252   0.00000   0.02632   0.02629   1.91250
   A24        1.88621   0.00270   0.00000   0.02636   0.02634   1.91255
   A25        1.92568   0.00330   0.00000   0.01936   0.01918   1.94486
   A26        1.91215   0.00346   0.00000   0.02220   0.02196   1.93411
   A27        1.92723   0.00314   0.00000   0.01821   0.01803   1.94526
   A28        1.89624  -0.00323   0.00000  -0.01806  -0.01830   1.87793
   A29        1.90541  -0.00368   0.00000  -0.02467  -0.02478   1.88063
   A30        1.89660  -0.00322   0.00000  -0.01834  -0.01856   1.87803
   A31        1.92538   0.00235   0.00000   0.01428   0.01418   1.93956
   A32        1.93785   0.00147   0.00000   0.00679   0.00676   1.94461
   A33        1.92031   0.00251   0.00000   0.01718   0.01704   1.93736
   A34        1.90048  -0.00250   0.00000  -0.01891  -0.01892   1.88157
   A35        1.88822  -0.00195   0.00000  -0.00763  -0.00783   1.88038
   A36        1.89050  -0.00210   0.00000  -0.01290  -0.01295   1.87755
    D1       -1.11999   0.00000   0.00000   0.00486   0.00486  -1.11513
    D2        0.90487   0.00069   0.00000   0.02676   0.02658   0.93145
    D3       -3.13505  -0.00193   0.00000  -0.03722  -0.03723   3.11091
    D4        3.05373   0.00066   0.00000   0.01567   0.01575   3.06947
    D5       -1.20460   0.00135   0.00000   0.03757   0.03747  -1.16713
    D6        1.03867  -0.00127   0.00000  -0.02641  -0.02634   1.01232
    D7        0.96016   0.00072   0.00000   0.01655   0.01666   0.97682
    D8        2.98502   0.00141   0.00000   0.03845   0.03838   3.02340
    D9       -1.05490  -0.00120   0.00000  -0.02553  -0.02543  -1.08032
   D10       -0.98501  -0.00062   0.00000  -0.03384  -0.03356  -1.01856
   D11       -3.00397  -0.00080   0.00000  -0.03248  -0.03223  -3.03621
   D12        1.15079  -0.00089   0.00000  -0.03681  -0.03654   1.11425
   D13        1.04272   0.00014   0.00000  -0.00432  -0.00430   1.03841
   D14       -0.97625  -0.00004   0.00000  -0.00296  -0.00298  -0.97923
   D15       -3.10467  -0.00013   0.00000  -0.00729  -0.00728  -3.11195
   D16        3.07316   0.00080   0.00000   0.02322   0.02297   3.09613
   D17        1.05419   0.00062   0.00000   0.02458   0.02429   1.07849
   D18       -1.07422   0.00053   0.00000   0.02025   0.01999  -1.05424
   D19       -3.13776   0.00191   0.00000   0.03780   0.03779  -3.09997
   D20       -1.02921   0.00132   0.00000   0.02802   0.02795  -1.00126
   D21        1.06348   0.00128   0.00000   0.02749   0.02740   1.09087
   D22        1.13126  -0.00008   0.00000  -0.00530  -0.00531   1.12596
   D23       -3.04337  -0.00067   0.00000  -0.01508  -0.01515  -3.05852
   D24       -0.95068  -0.00072   0.00000  -0.01561  -0.01570  -0.96639
   D25       -0.89546  -0.00072   0.00000  -0.02620  -0.02604  -0.92150
   D26        1.21309  -0.00132   0.00000  -0.03598  -0.03588   1.17721
   D27       -2.97741  -0.00136   0.00000  -0.03651  -0.03643  -3.01384
   D28        1.08125  -0.00155   0.00000  -0.02564  -0.02555   1.05570
   D29       -1.00515   0.00158   0.00000   0.02315   0.02302  -0.98213
   D30       -3.10521   0.00003   0.00000   0.00004   0.00002  -3.10519
   D31       -3.07060  -0.00178   0.00000  -0.02850  -0.02841  -3.09901
   D32        1.12618   0.00135   0.00000   0.02029   0.02016   1.14634
   D33       -0.97388  -0.00020   0.00000  -0.00282  -0.00284  -0.97672
   D34       -1.04537  -0.00144   0.00000  -0.02827  -0.02812  -1.07349
   D35       -3.13178   0.00169   0.00000   0.02052   0.02045  -3.11132
   D36        1.05135   0.00013   0.00000  -0.00258  -0.00254   1.04880
   D37        1.07063  -0.00032   0.00000  -0.00591  -0.00595   1.06467
   D38       -3.12565  -0.00009   0.00000  -0.00226  -0.00226  -3.12791
   D39       -1.03733   0.00007   0.00000   0.00040   0.00042  -1.03691
   D40       -3.09791  -0.00040   0.00000  -0.00057  -0.00065  -3.09857
   D41       -1.01100  -0.00017   0.00000   0.00308   0.00304  -1.00796
   D42        1.07731  -0.00001   0.00000   0.00574   0.00572   1.08304
   D43       -1.05016   0.00007   0.00000  -0.00644  -0.00643  -1.05659
   D44        1.03675   0.00030   0.00000  -0.00279  -0.00273   1.03402
   D45        3.12507   0.00046   0.00000  -0.00014  -0.00005   3.12501
         Item               Value     Threshold  Converged?
 Maximum Force            0.010375     0.000450     NO 
 RMS     Force            0.003674     0.000300     NO 
 Maximum Displacement     0.193153     0.001800     NO 
 RMS     Displacement     0.052504     0.001200     NO 
 Predicted change in Energy=-2.944996D-03
 GradGradGradGradGradGradGradGradGradGradGradGradGradGradGradGradGradGrad

 Leave Link  103 at Mon Sep 14 19:12:17 2015, MaxMem=  402653184 cpu:       0.3
 (Enter /share/apps/g09/l202.exe)
                          Input orientation:                          
 ---------------------------------------------------------------------
 Center     Atomic      Atomic             Coordinates (Angstroms)
 Number     Number       Type             X           Y           Z
 ---------------------------------------------------------------------
      1          6           0        1.479988    1.128208    0.607827
      2          1           0        1.420476    0.807139    1.655255
      3          1           0        0.833929    2.006424    0.489517
      4          1           0        2.512241    1.447344    0.414642
      5          6           0        1.067666   -0.002216   -0.341372
      6          1           0        1.809065   -0.838192   -0.227081
      7          6           0       -0.311100   -0.572333    0.025010
      8          1           0       -0.277636   -0.944502    1.068618
      9          1           0       -0.516050   -1.453314   -0.616120
     10          6           0       -1.457233    0.429853   -0.115968
     11          1           0       -1.520144    0.769843   -1.168813
     12          1           0       -1.240788    1.325445    0.499241
     13          6           0       -2.800646   -0.173824    0.310131
     14          1           0       -2.785928   -0.481676    1.363779
     15          1           0       -3.612317    0.555684    0.188727
     16          1           0       -3.053868   -1.055590   -0.292687
     17          6           0        1.113966    0.474376   -1.797044
     18          1           0        0.779976   -0.314624   -2.482297
     19          1           0        0.470244    1.348610   -1.952918
     20          1           0        2.134059    0.758247   -2.085746
 ---------------------------------------------------------------------
                    Distance matrix (angstroms):
                    1          2          3          4          5
     1  C    0.000000
     2  H    1.097148   0.000000
     3  H    1.096655   1.772362   0.000000
     4  H    1.097595   1.772268   1.770567   0.000000
     5  C    1.532595   2.183129   2.186240   2.181646   0.000000
     6  H    2.161502   2.530080   3.091317   2.475872   1.123205
     7  C    2.537619   2.749363   2.859518   3.493160   1.536315
     8  H    2.756392   2.509178   3.206072   3.732563   2.164674
     9  H    3.485178   3.744185   3.874876   4.318198   2.165485
    10  C    3.104649   3.400116   2.846333   4.132017   2.571499
    11  H    3.505091   4.077253   3.133823   4.384799   2.824445
    12  H    2.730075   2.947429   2.183639   3.755961   2.792539
    13  C    4.484165   4.537568   4.242146   5.555707   3.926544
    14  H    4.621821   4.409063   4.478654   5.717742   4.241180
    15  H    5.141497   5.248137   4.686601   6.193247   4.742837
    16  H    5.112314   5.223409   5.010264   6.143824   4.254293
    17  C    2.518903   3.481817   2.766578   2.791666   1.532405
    18  H    3.481471   4.334504   3.771187   3.807562   2.182641
    19  H    2.761444   3.770284   2.555480   3.128073   2.186029
    20  H    2.796429   3.808763   3.143289   2.621033   2.181361
                    6          7          8          9         10
     6  H    0.000000
     7  C    2.151588   0.000000
     8  H    2.458548   1.108488   0.000000
     9  H    2.436367   1.108684   1.775971   0.000000
    10  C    3.505565   1.529010   2.164150   2.163861   0.000000
    11  H    3.815267   2.165279   3.080405   2.501219   1.108166
    12  H    3.809261   2.165819   2.530713   3.080710   1.107888
    13  C    4.688221   2.537310   2.744964   2.777484   1.533214
    14  H    4.875643   2.815190   2.567656   3.164874   2.187685
    15  H    5.613125   3.492457   3.760966   3.777661   2.180151
    16  H    4.868232   2.803078   3.094020   2.589076   2.187925
    17  C    2.161199   2.538956   3.487376   2.787027   3.072306
    18  H    2.533603   2.746534   3.758229   2.541439   3.340488
    19  H    3.090802   2.865784   3.866182   3.257388   2.816676
    20  H    2.471613   3.493499   4.320375   3.751517   4.109166
                   11         12         13         14         15
    11  H    0.000000
    12  H    1.780207   0.000000
    13  C    2.171974   2.171803   0.000000
    14  H    3.095566   2.529935   1.097799   0.000000
    15  H    2.503191   2.512589   1.098058   1.771943   0.000000
    16  H    2.540101   3.095762   1.097736   1.773429   1.771956
    17  C    2.724061   3.397368   4.492721   5.110187   5.127148
    18  H    2.862142   3.957635   4.542943   5.247463   5.213831
    19  H    2.216176   2.990192   4.258863   4.995305   4.677892
    20  H    3.767506   4.288760   5.564198   6.135381   6.183454
                   16         17         18         19         20
    16  H    0.000000
    17  C    4.687721   0.000000
    18  H    4.476805   1.097106   0.000000
    19  H    4.577763   1.096795   1.772716   0.000000
    20  H    5.780974   1.097507   1.772525   1.770439   0.000000
 Stoichiometry    C6H14
 Framework group  C1[X(C6H14)]
 Deg. of freedom    54
 Full point group                 C1      NOp   1
 Largest Abelian subgroup         C1      NOp   1
 Largest concise Abelian subgroup C1      NOp   1
                         Standard orientation:                         
 ---------------------------------------------------------------------
 Center     Atomic      Atomic             Coordinates (Angstroms)
 Number     Number       Type             X           Y           Z
 ---------------------------------------------------------------------
      1          6           0        1.590783    1.260170   -0.301561
      2          1           0        1.268119    2.173164    0.214252
      3          1           0        1.153865    1.271544   -1.307357
      4          1           0        2.681651    1.307638   -0.413224
      5          6           0        1.172152    0.007989    0.476666
      6          1           0        1.709457    0.017423    1.462975
      7          6           0       -0.332752    0.012228    0.785712
      8          1           0       -0.574555    0.922494    1.370259
      9          1           0       -0.566342   -0.852104    1.439581
     10          6           0       -1.223898   -0.040861   -0.455624
     11          1           0       -1.014565   -0.972370   -1.018209
     12          1           0       -0.971443    0.804027   -1.126330
     13          6           0       -2.712701    0.017330   -0.093927
     14          1           0       -2.962672    0.950542    0.427409
     15          1           0       -3.335902   -0.035948   -0.996430
     16          1           0       -3.000459   -0.817669    0.557990
     17          6           0        1.591122   -1.258616   -0.277283
     18          1           0        1.258916   -2.161178    0.250601
     19          1           0        1.163113   -1.283836   -1.286804
     20          1           0        2.682578   -1.313167   -0.378610
 ---------------------------------------------------------------------
 Rotational constants (GHZ):      5.7691658      1.8822085      1.6897561
 Leave Link  202 at Mon Sep 14 19:12:17 2015, MaxMem=  402653184 cpu:       0.0
 (Enter /share/apps/g09/l301.exe)
 Standard basis: VSTO-6G (5D, 7F)
 Ernie: Thresh=  0.10000D-02 Tol=  0.10000D-05 Strict=F.
  NNHCO=     0 NNPyr=     0 NCTC=     0               EPep=         0.000000000
    EC=       129.765459712  ECS=         3.229835565   EG=         0.307933263
   EHC=         0.000459019  EAt=       -31.187935768  AtH=         2.796400831
 EPDDG=         0.000000000  ECC=       133.303687560 EAtT=        33.984336599
 There are    38 symmetry adapted basis functions of A   symmetry.
 Integral buffers will be    131072 words long.
 Regular integral format.
 Two-electron integral symmetry is turned off.
    38 basis functions,   228 primitive gaussians,    38 cartesian basis functions
    19 alpha electrons       19 beta electrons
       nuclear repulsion energy       167.2880241587 Hartrees.
 IExCor=    0 DFT=F Ex=HF Corr=None ExCW=0 ScaHFX=  1.000000
 ScaDFX=  1.000000  1.000000  1.000000  1.000000 ScalE2=  1.000000  1.000000
 IRadAn=      0 IRanWt=     -1 IRanGd=            0 ICorTp=0
 Leave Link  301 at Mon Sep 14 19:12:17 2015, MaxMem=  402653184 cpu:       0.1
 (Enter /share/apps/g09/l302.exe)
 Do NDO integrals.
 NPDir=0 NMtPBC=     1 NCelOv=     1 NCel=       1 NClECP=     1 NCelD=      1
         NCelK=      1 NCelE2=     1 NClLst=     1 CellRange=     0.0.
 One-electron integrals computed using PRISM.
 NBasis=    38 RedAO= F  NBF=    38
 NBsUse=    38 1.00D-04 NBFU=    38
 Leave Link  302 at Mon Sep 14 19:12:17 2015, MaxMem=  402653184 cpu:       0.2
 (Enter /share/apps/g09/l303.exe)
 DipDrv:  MaxL=1.
 Leave Link  303 at Mon Sep 14 19:12:18 2015, MaxMem=  402653184 cpu:       0.0
 (Enter /share/apps/g09/l401.exe)
 Initial guess read from the read-write file.
 B after Tr=     0.000000    0.000000    0.000000
         Rot=    1.000000    0.000000    0.000000    0.000000 Ang=   0.00 deg.
 Guess basis will be translated and rotated to current coordinates.
 Initial guess orbital symmetries:
       Occupied  (A) (A) (A) (A) (A) (A) (A) (A) (A) (A) (A) (A)
                 (A) (A) (A) (A) (A) (A) (A)
       Virtual   (A) (A) (A) (A) (A) (A) (A) (A) (A) (A) (A) (A)
                 (A) (A) (A) (A) (A) (A) (A)
 The electronic state of the initial guess is 1-A.
 Leave Link  401 at Mon Sep 14 19:12:18 2015, MaxMem=  402653184 cpu:       0.2
 (Enter /share/apps/g09/l502.exe)
 Closed shell SCF:
 Requested convergence on RMS density matrix=1.00D-08 within 128 cycles.
 Requested convergence on MAX density matrix=1.00D-06.
 Requested convergence on             energy=1.00D-06.
 No special actions if energy rises.
 Using DIIS extrapolation, IDIIS=  1040.
 Overlap will be assumed to be unity.
 Two-electron integral symmetry not used.
 Keep J ints in memory in canonical form, NReq=884654.
 IEnd=       81865 IEndB=       81865 NGot=   402653184 MDV=   402586639
 LenX=   402586639 LenY=   402584754
 Symmetry not used in FoFDir.
 MinBra= 0 MaxBra= 1 Meth=40.
 IRaf=       0 NMat=   1 IRICut=       1 DoRegI=T DoRafI=F ISym2E= 0 JSym2E=0.

 Cycle   1  Pass 1  IDiag  1:
 E=-0.527923947124975E-01
 DIIS: error= 4.89D-03 at cycle   1 NSaved=   1.
 NSaved= 1 IEnMin= 1 EnMin=-0.527923947124975E-01 IErMin= 1 ErrMin= 4.89D-03
 ErrMax= 4.89D-03 EMaxC= 1.00D-01 BMatC= 9.34D-04 BMatP= 9.34D-04
 IDIUse=3 WtCom= 9.51D-01 WtEn= 4.89D-02
 Coeff-Com:  0.100D+01
 Coeff-En:   0.100D+01
 Coeff:      0.100D+01
 GapD=    2.000 DampG=2.000 DampE=1.000 DampFc=2.0000 IDamp=-1.
 RMSDP=1.49D-03 MaxDP=1.19D-02              OVMax= 0.00D+00

 Cycle   2  Pass 1  IDiag  3:
 E=-0.561885398806510E-01 Delta-E=       -0.003396145168 Rises=F Damp=F
 DIIS: error= 2.19D-03 at cycle   2 NSaved=   2.
 NSaved= 2 IEnMin= 2 EnMin=-0.561885398806510E-01 IErMin= 2 ErrMin= 2.19D-03
 ErrMax= 2.19D-03 EMaxC= 1.00D-01 BMatC= 1.56D-04 BMatP= 9.34D-04
 IDIUse=3 WtCom= 9.78D-01 WtEn= 2.19D-02
 Coeff-Com: -0.624D+00 0.162D+01
 Coeff-En:   0.000D+00 0.100D+01
 Coeff:     -0.610D+00 0.161D+01
 Gap=     0.555 Goal=   None    Shift=    0.000
 RMSDP=1.04D-03 MaxDP=8.70D-03 DE=-3.40D-03 OVMax= 0.00D+00

 Cycle   3  Pass 1  IDiag  3:
 E=-0.569459074322367E-01 Delta-E=       -0.000757367552 Rises=F Damp=F
 DIIS: error= 2.60D-04 at cycle   3 NSaved=   3.
 NSaved= 3 IEnMin= 3 EnMin=-0.569459074322367E-01 IErMin= 3 ErrMin= 2.60D-04
 ErrMax= 2.60D-04 EMaxC= 1.00D-01 BMatC= 2.53D-06 BMatP= 1.56D-04
 IDIUse=3 WtCom= 9.97D-01 WtEn= 2.60D-03
 Coeff-Com:  0.215D+00-0.636D+00 0.142D+01
 Coeff-En:   0.000D+00 0.000D+00 0.100D+01
 Coeff:      0.214D+00-0.634D+00 0.142D+01
 Gap=     0.555 Goal=   None    Shift=    0.000
 RMSDP=1.45D-04 MaxDP=1.17D-03 DE=-7.57D-04 OVMax= 0.00D+00

 Cycle   4  Pass 1  IDiag  3:
 E=-0.569587391279072E-01 Delta-E=       -0.000012831696 Rises=F Damp=F
 DIIS: error= 2.80D-05 at cycle   4 NSaved=   4.
 NSaved= 4 IEnMin= 4 EnMin=-0.569587391279072E-01 IErMin= 4 ErrMin= 2.80D-05
 ErrMax= 2.80D-05 EMaxC= 1.00D-01 BMatC= 5.78D-08 BMatP= 2.53D-06
 IDIUse=1 WtCom= 1.00D+00 WtEn= 0.00D+00
 Coeff-Com: -0.858D-01 0.256D+00-0.613D+00 0.144D+01
 Coeff:     -0.858D-01 0.256D+00-0.613D+00 0.144D+01
 Gap=     0.555 Goal=   None    Shift=    0.000
 RMSDP=2.04D-05 MaxDP=1.96D-04 DE=-1.28D-05 OVMax= 0.00D+00

 Cycle   5  Pass 1  IDiag  3:
 E=-0.569590963494591E-01 Delta-E=       -0.000000357222 Rises=F Damp=F
 DIIS: error= 1.63D-05 at cycle   5 NSaved=   5.
 NSaved= 5 IEnMin= 5 EnMin=-0.569590963494591E-01 IErMin= 5 ErrMin= 1.63D-05
 ErrMax= 1.63D-05 EMaxC= 1.00D-01 BMatC= 1.13D-08 BMatP= 5.78D-08
 IDIUse=1 WtCom= 1.00D+00 WtEn= 0.00D+00
 Coeff-Com:  0.640D-01-0.191D+00 0.466D+00-0.140D+01 0.206D+01
 Coeff:      0.640D-01-0.191D+00 0.466D+00-0.140D+01 0.206D+01
 Gap=     0.555 Goal=   None    Shift=    0.000
 RMSDP=1.43D-05 MaxDP=1.54D-04 DE=-3.57D-07 OVMax= 0.00D+00

 Cycle   6  Pass 1  IDiag  3:
 E=-0.569591962052698E-01 Delta-E=       -0.000000099856 Rises=F Damp=F
 DIIS: error= 5.63D-06 at cycle   6 NSaved=   6.
 NSaved= 6 IEnMin= 6 EnMin=-0.569591962052698E-01 IErMin= 6 ErrMin= 5.63D-06
 ErrMax= 5.63D-06 EMaxC= 1.00D-01 BMatC= 1.01D-09 BMatP= 1.13D-08
 IDIUse=1 WtCom= 1.00D+00 WtEn= 0.00D+00
 Coeff-Com: -0.291D-01 0.871D-01-0.213D+00 0.686D+00-0.128D+01 0.175D+01
 Coeff:     -0.291D-01 0.871D-01-0.213D+00 0.686D+00-0.128D+01 0.175D+01
 Gap=     0.555 Goal=   None    Shift=    0.000
 RMSDP=4.80D-06 MaxDP=5.16D-05 DE=-9.99D-08 OVMax= 0.00D+00

 Cycle   7  Pass 1  IDiag  3:
 E=-0.569592050190408E-01 Delta-E=       -0.000000008814 Rises=F Damp=F
 DIIS: error= 1.08D-06 at cycle   7 NSaved=   7.
 NSaved= 7 IEnMin= 7 EnMin=-0.569592050190408E-01 IErMin= 7 ErrMin= 1.08D-06
 ErrMax= 1.08D-06 EMaxC= 1.00D-01 BMatC= 4.21D-11 BMatP= 1.01D-09
 IDIUse=1 WtCom= 1.00D+00 WtEn= 0.00D+00
 Coeff-Com:  0.984D-02-0.294D-01 0.722D-01-0.235D+00 0.466D+00-0.792D+00
 Coeff-Com:  0.151D+01
 Coeff:      0.984D-02-0.294D-01 0.722D-01-0.235D+00 0.466D+00-0.792D+00
 Coeff:      0.151D+01
 Gap=     0.555 Goal=   None    Shift=    0.000
 RMSDP=7.58D-07 MaxDP=8.75D-06 DE=-8.81D-09 OVMax= 0.00D+00

 Cycle   8  Pass 1  IDiag  3:
 E=-0.569592053019505E-01 Delta-E=       -0.000000000283 Rises=F Damp=F
 DIIS: error= 1.97D-07 at cycle   8 NSaved=   8.
 NSaved= 8 IEnMin= 8 EnMin=-0.569592053019505E-01 IErMin= 8 ErrMin= 1.97D-07
 ErrMax= 1.97D-07 EMaxC= 1.00D-01 BMatC= 1.90D-12 BMatP= 4.21D-11
 IDIUse=1 WtCom= 1.00D+00 WtEn= 0.00D+00
 Coeff-Com: -0.237D-02 0.708D-02-0.173D-01 0.567D-01-0.114D+00 0.209D+00
 Coeff-Com: -0.559D+00 0.142D+01
 Coeff:     -0.237D-02 0.708D-02-0.173D-01 0.567D-01-0.114D+00 0.209D+00
 Coeff:     -0.559D+00 0.142D+01
 Gap=     0.555 Goal=   None    Shift=    0.000
 RMSDP=1.40D-07 MaxDP=1.49D-06 DE=-2.83D-10 OVMax= 0.00D+00

 Cycle   9  Pass 1  IDiag  3:
 E=-0.569592053132908E-01 Delta-E=       -0.000000000011 Rises=F Damp=F
 DIIS: error= 4.57D-08 at cycle   9 NSaved=   9.
 NSaved= 9 IEnMin= 9 EnMin=-0.569592053132908E-01 IErMin= 9 ErrMin= 4.57D-08
 ErrMax= 4.57D-08 EMaxC= 1.00D-01 BMatC= 1.22D-13 BMatP= 1.90D-12
 IDIUse=1 WtCom= 1.00D+00 WtEn= 0.00D+00
 Coeff-Com:  0.500D-03-0.149D-02 0.367D-02-0.122D-01 0.253D-01-0.498D-01
 Coeff-Com:  0.165D+00-0.595D+00 0.146D+01
 Coeff:      0.500D-03-0.149D-02 0.367D-02-0.122D-01 0.253D-01-0.498D-01
 Coeff:      0.165D+00-0.595D+00 0.146D+01
 Gap=     0.555 Goal=   None    Shift=    0.000
 RMSDP=3.25D-08 MaxDP=3.46D-07 DE=-1.13D-11 OVMax= 0.00D+00

 Cycle  10  Pass 1  IDiag  3:
 E=-0.569592053138308E-01 Delta-E=       -0.000000000001 Rises=F Damp=F
 DIIS: error= 1.81D-08 at cycle  10 NSaved=  10.
 NSaved=10 IEnMin=10 EnMin=-0.569592053138308E-01 IErMin=10 ErrMin= 1.81D-08
 ErrMax= 1.81D-08 EMaxC= 1.00D-01 BMatC= 1.53D-14 BMatP= 1.22D-13
 IDIUse=1 WtCom= 1.00D+00 WtEn= 0.00D+00
 Coeff-Com: -0.113D-03 0.336D-03-0.827D-03 0.280D-02-0.605D-02 0.133D-01
 Coeff-Com: -0.542D-01 0.238D+00-0.888D+00 0.169D+01
 Coeff:     -0.113D-03 0.336D-03-0.827D-03 0.280D-02-0.605D-02 0.133D-01
 Coeff:     -0.542D-01 0.238D+00-0.888D+00 0.169D+01
 Gap=     0.555 Goal=   None    Shift=    0.000
 RMSDP=1.43D-08 MaxDP=1.51D-07 DE=-5.40D-13 OVMax= 0.00D+00

 Cycle  11  Pass 1  IDiag  3:
 E=-0.569592053140013E-01 Delta-E=        0.000000000000 Rises=F Damp=F
 DIIS: error= 4.84D-09 at cycle  11 NSaved=  11.
 NSaved=11 IEnMin=11 EnMin=-0.569592053140013E-01 IErMin=11 ErrMin= 4.84D-09
 ErrMax= 4.84D-09 EMaxC= 1.00D-01 BMatC= 1.24D-15 BMatP= 1.53D-14
 IDIUse=1 WtCom= 1.00D+00 WtEn= 0.00D+00
 Coeff-Com:  0.197D-04-0.581D-04 0.144D-03-0.510D-03 0.122D-02-0.332D-02
 Coeff-Com:  0.181D-01-0.919D-01 0.405D+00-0.103D+01 0.170D+01
 Coeff:      0.197D-04-0.581D-04 0.144D-03-0.510D-03 0.122D-02-0.332D-02
 Coeff:      0.181D-01-0.919D-01 0.405D+00-0.103D+01 0.170D+01
 Gap=     0.555 Goal=   None    Shift=    0.000
 RMSDP=4.47D-09 MaxDP=4.80D-08 DE=-1.71D-13 OVMax= 0.00D+00

 Cycle  12  Pass 2  IDiag  1:
 RMSDP=4.47D-09 MaxDP=4.80D-08 DE=-1.71D-13 OVMax= 0.00D+00

 SCF Done:  E(RPM6) = -0.569592053140E-01 A.U. after   12 cycles
             Convg  =    0.4465D-08             -V/T =  0.9990
 KE=-5.624726140536D+01 PE=-2.554659204599D+02 EE= 1.443681985012D+02
 Leave Link  502 at Mon Sep 14 19:12:21 2015, MaxMem=  402653184 cpu:       1.6
 (Enter /share/apps/g09/l701.exe)
 Compute integral first derivatives.
 ... and contract with generalized density number  0.
 Leave Link  701 at Mon Sep 14 19:12:21 2015, MaxMem=  402653184 cpu:       0.1
 (Enter /share/apps/g09/l702.exe)
 L702 exits ... SP integral derivatives will be done elsewhere.
 Leave Link  702 at Mon Sep 14 19:12:28 2015, MaxMem=  402653184 cpu:       0.0
 (Enter /share/apps/g09/l703.exe)
 Compute integral first derivatives, UseDBF=F ICtDFT=           0.
 Integral derivatives from FoFDir, PRISM(SPDF).
 Calling FoFJK, ICntrl=      2127 FMM=F ISym2X=0 I1Cent= 0 IOpClX= 0 NMat=1 NMatS=1 NMatT=0.
 FoFCou: FMM=F IPFlag=           0 FMFlag=      100000 FMFlg1=         800
         NFxFlg=           0 DoJE=F BraDBF=F KetDBF=F FulRan=T
         Omega=  0.000000  0.000000  1.000000  0.000000  0.000000 ICntrl=    2127 IOpCl=  0
         NMat0=    1 NMatS0=    1 NMatT0=    0 NMatD0=    1 NMtDS0=    0 NMtDT0=    0
         I1Cent=           0 NGrid=           0.
 Symmetry not used in FoFCou.
 Leave Link  703 at Mon Sep 14 19:12:29 2015, MaxMem=  402653184 cpu:       0.0
 (Enter /share/apps/g09/l716.exe)
 Dipole        =-2.86174683D-03 1.20325803D-03-1.37630937D-02
 ***** Axes restored to original set *****
 -------------------------------------------------------------------
 Center     Atomic                   Forces (Hartrees/Bohr)
 Number     Number              X              Y              Z
 -------------------------------------------------------------------
      1        6           0.002050552    0.000385062    0.001117162
      2        1           0.000124843    0.000986582   -0.000947963
      3        1           0.000717662   -0.000319984    0.000696269
      4        1          -0.001400583    0.000082322    0.000515874
      5        6           0.003484532    0.000374172   -0.000639337
      6        1          -0.000284930    0.000881747   -0.000153564
      7        6          -0.001786864   -0.004197333    0.001455055
      8        1          -0.000350203   -0.001097713   -0.000612955
      9        1          -0.000085570   -0.000391548    0.001233322
     10        6          -0.004768219    0.000065345    0.000671302
     11        1          -0.000680438    0.001116312    0.000800767
     12        1          -0.000884116    0.000608268   -0.000947345
     13        6           0.001863094    0.001404410   -0.000786254
     14        1          -0.000211034    0.000155528   -0.001498341
     15        1           0.000917830   -0.001260907    0.000294375
     16        1           0.000204224    0.001052196    0.001042508
     17        6           0.001561336   -0.000351778   -0.001685007
     18        1           0.000335104    0.001291956    0.000218731
     19        1           0.000645615   -0.000708749   -0.000673684
     20        1          -0.001452835   -0.000075887   -0.000100913
 -------------------------------------------------------------------
 Cartesian Forces:  Max     0.004768219 RMS     0.001304870
 Leave Link  716 at Mon Sep 14 19:12:31 2015, MaxMem=  402653184 cpu:       0.1
 (Enter /share/apps/g09/l103.exe)

 GradGradGradGradGradGradGradGradGradGradGradGradGradGradGradGradGradGrad
 Berny optimization.
 Using GEDIIS/GDIIS optimizer.
 Internal  Forces:  Max     0.006527095 RMS     0.001090510
 Search for a local minimum.
 Step number   2 out of a maximum of  110
 All quantities printed in internal units (Hartrees-Bohrs-Radians)
 RMS Force = .10905D-02 SwitMx=.10000D-02 MixMth= 1
 Mixed Optimization -- RFO/linear search
 Update second derivatives using D2CorX and points    1    2
 DE= -2.86D-03 DEPred=-2.94D-03 R= 9.71D-01
 SS=  1.41D+00  RLast= 2.11D-01 DXNew= 5.0454D-01 6.3378D-01
 Trust test= 9.71D-01 RLast= 2.11D-01 DXMaxT set to 5.05D-01
 Use linear search instead of GDIIS.
     Eigenvalues ---    0.00230   0.00262   0.00297   0.00298   0.00414
     Eigenvalues ---    0.03310   0.03588   0.03623   0.04643   0.04742
     Eigenvalues ---    0.04791   0.04872   0.05417   0.05423   0.05460
     Eigenvalues ---    0.05465   0.05471   0.05552   0.08420   0.08515
     Eigenvalues ---    0.12099   0.12343   0.14878   0.16000   0.16000
     Eigenvalues ---    0.16000   0.16000   0.16000   0.16000   0.16000
     Eigenvalues ---    0.16060   0.16813   0.17036   0.21571   0.22154
     Eigenvalues ---    0.26478   0.28427   0.28870   0.28928   0.29576
     Eigenvalues ---    0.31874   0.32027   0.32036   0.32181   0.32182
     Eigenvalues ---    0.32186   0.32192   0.32198   0.32208   0.32213
     Eigenvalues ---    0.32223   0.32241   0.32249   0.357061000.00000
     Eigenvalues --- 1000.000001000.000001000.000001000.000001000.00000
     Eigenvalues --- 1000.000001000.000001000.000001000.000001000.00000
     Eigenvalues --- 1000.000001000.000001000.000001000.000001000.00000
     Eigenvalues --- 1000.000001000.000001000.000001000.000001000.00000
     Eigenvalues --- 1000.000001000.000001000.000001000.000001000.00000
     Eigenvalues --- 1000.000001000.000001000.000001000.000001000.00000
     Eigenvalues --- 1000.000001000.000001000.000001000.000001000.00000
     Eigenvalues --- 1000.000001000.000001000.000001000.000001000.00000
     Eigenvalues --- 1000.000001000.000001000.000001000.000001000.00000
 RFO step:  Lambda=-5.77023617D-04 EMin= 2.29927003D-03
 Quartic linear search produced a step of -0.00657.
 Iteration  1 RMS(Cart)=  0.01941804 RMS(Int)=  0.00011671
 Iteration  2 RMS(Cart)=  0.00014703 RMS(Int)=  0.00001052
 Iteration  3 RMS(Cart)=  0.00000001 RMS(Int)=  0.00001052
 Variable       Old X    -DE/DX   Delta X   Delta X   Delta X     New X
                                 (Linear)    (Quad)   (Total)
    R1        2.07331  -0.00120   0.00021  -0.00714  -0.00693   2.06638
    R2        2.07238  -0.00075   0.00021  -0.00573  -0.00553   2.06685
    R3        2.07415  -0.00138   0.00020  -0.00764  -0.00744   2.06672
    R4        2.89618   0.00209   0.00004   0.00659   0.00662   2.90281
    R5        2.12255  -0.00086  -0.00009  -0.00119  -0.00128   2.12127
    R6        2.90322   0.00653   0.00012   0.02115   0.02127   2.92449
    R7        2.89583   0.00221   0.00004   0.00696   0.00700   2.90283
    R8        2.09474  -0.00022   0.00009  -0.00212  -0.00203   2.09271
    R9        2.09511  -0.00039   0.00008  -0.00258  -0.00250   2.09261
   R10        2.88941   0.00477   0.00011   0.01461   0.01473   2.90414
   R11        2.09413  -0.00038   0.00007  -0.00231  -0.00224   2.09189
   R12        2.09360  -0.00021   0.00007  -0.00177  -0.00170   2.09190
   R13        2.89735  -0.00323  -0.00008  -0.00941  -0.00949   2.88787
   R14        2.07454  -0.00148   0.00020  -0.00788  -0.00768   2.06686
   R15        2.07503  -0.00155   0.00019  -0.00795  -0.00776   2.06727
   R16        2.07442  -0.00146   0.00020  -0.00785  -0.00765   2.06677
   R17        2.07323  -0.00117   0.00021  -0.00703  -0.00683   2.06640
[...]
 ! D11   D(1,5,7,9)           -174.9766         -DE/DX =    0.0                 !
 ! D12   D(1,5,7,10)            62.4126         -DE/DX =    0.0                 !
 ! D13   D(6,5,7,8)             57.3921         -DE/DX =    0.0                 !
 ! D14   D(6,5,7,9)            -57.3869         -DE/DX =    0.0                 !
 ! D15   D(6,5,7,10)          -179.9977         -DE/DX =    0.0                 !
 ! D16   D(17,5,7,8)           174.9824         -DE/DX =    0.0                 !
 ! D17   D(17,5,7,9)            60.2034         -DE/DX =    0.0                 !
 ! D18   D(17,5,7,10)          -62.4074         -DE/DX =    0.0                 !
 ! D19   D(1,5,17,18)         -179.5425         -DE/DX =    0.0                 !
 ! D20   D(1,5,17,19)          -59.5058         -DE/DX =    0.0                 !
 ! D21   D(1,5,17,20)           60.351          -DE/DX =    0.0                 !
 ! D22   D(6,5,17,18)           62.9396         -DE/DX =    0.0                 !
 ! D23   D(6,5,17,19)         -177.0237         -DE/DX =    0.0                 !
 ! D24   D(6,5,17,20)          -57.1669         -DE/DX =    0.0                 !
 ! D25   D(7,5,17,18)          -54.1326         -DE/DX =    0.0                 !
 ! D26   D(7,5,17,19)           65.904          -DE/DX =    0.0                 !
 ! D27   D(7,5,17,20)         -174.2392         -DE/DX =    0.0                 !
 ! D28   D(5,7,10,11)           58.0288         -DE/DX =    0.0                 !
 ! D29   D(5,7,10,12)          -58.0336         -DE/DX =    0.0                 !
 ! D30   D(5,7,10,13)         -180.0025         -DE/DX =    0.0                 !
 ! D31   D(8,7,10,11)         -179.5857         -DE/DX =    0.0                 !
 ! D32   D(8,7,10,12)           64.3518         -DE/DX =    0.0                 !
 ! D33   D(8,7,10,13)          -57.6171         -DE/DX =    0.0                 !
 ! D34   D(9,7,10,11)          -64.3572         -DE/DX =    0.0                 !
 ! D35   D(9,7,10,12)          179.5803         -DE/DX =    0.0                 !
 ! D36   D(9,7,10,13)           57.6114         -DE/DX =    0.0                 !
 ! D37   D(7,10,13,14)          60.0603         -DE/DX =    0.0                 !
 ! D38   D(7,10,13,15)         179.9857         -DE/DX =    0.0                 !
 ! D39   D(7,10,13,16)         -60.0888         -DE/DX =    0.0                 !
 ! D40   D(11,10,13,14)       -177.9014         -DE/DX =    0.0                 !
 ! D41   D(11,10,13,15)        -57.976          -DE/DX =    0.0                 !
 ! D42   D(11,10,13,16)         61.9496         -DE/DX =    0.0                 !
 ! D43   D(12,10,13,14)        -61.9779         -DE/DX =    0.0                 !
 ! D44   D(12,10,13,15)         57.9475         -DE/DX =    0.0                 !
 ! D45   D(12,10,13,16)        177.8731         -DE/DX =    0.0                 !
 --------------------------------------------------------------------------------
 GradGradGradGradGradGradGradGradGradGradGradGradGradGradGradGradGradGrad

 Largest change from initial coordinates is atom   15       6.025 Angstoms.
 Leave Link  103 at Mon Sep 14 19:14:03 2015, MaxMem=  402653184 cpu:       0.0
 (Enter /share/apps/g09/l202.exe)
                          Input orientation:                          
 ---------------------------------------------------------------------
 Center     Atomic      Atomic             Coordinates (Angstroms)
 Number     Number       Type             X           Y           Z
 ---------------------------------------------------------------------
      1          6           0        1.488140    1.140767    0.596373
      2          1           0        1.444586    0.831846    1.645812
      3          1           0        0.837484    2.015005    0.485413
      4          1           0        2.511986    1.468223    0.388581
      5          6           0        1.069018    0.000213   -0.339796
      6          1           0        1.806982   -0.834313   -0.211953
      7          6           0       -0.317371   -0.567810    0.033112
      8          1           0       -0.278479   -0.960832    1.067466
      9          1           0       -0.532463   -1.442590   -0.610593
     10          6           0       -1.464687    0.443905   -0.083687
     11          1           0       -1.515459    0.836736   -1.117938
     12          1           0       -1.261033    1.319357    0.563369
     13          6           0       -2.807085   -0.177812    0.297912
     14          1           0       -2.803134   -0.544191    1.330543
     15          1           0       -3.619579    0.551873    0.211673
     16          1           0       -3.057478   -1.025919   -0.349076
     17          6           0        1.124702    0.451548   -1.804767
     18          1           0        0.819535   -0.352865   -2.481854
     19          1           0        0.462902    1.304417   -1.990755
     20          1           0        2.137333    0.757344   -2.087135
 ---------------------------------------------------------------------
                    Distance matrix (angstroms):
                    1          2          3          4          5
     1  C    0.000000
     2  H    1.094829   0.000000
     3  H    1.095425   1.764925   0.000000
     4  H    1.094836   1.767752   1.764172   0.000000
     5  C    1.533929   2.185246   2.189511   2.183516   0.000000
     6  H    2.157774   2.521648   3.089475   2.481802   1.121325
     7  C    2.548797   2.768453   2.865170   3.503862   1.543951
     8  H    2.785604   2.552868   3.231063   3.761368   2.172497
     9  H    3.494758   3.764724   3.877234   4.328955   2.172500
    10  C    3.109226   3.406690   2.844683   4.133545   2.584979
    11  H    3.471730   4.049717   3.081460   4.346112   2.825739
    12  H    2.755165   2.954611   2.212189   3.779998   2.825771
    13  C    4.502965   4.573068   4.257522   5.568678   3.932244
    14  H    4.668310   4.476159   4.529661   5.760868   4.252054
    15  H    5.155928   5.270760   4.699054   6.202184   4.753040
    16  H    5.123577   5.263026   5.011419   6.146853   4.252176
    17  C    2.524397   3.486179   2.787797   2.787285   1.533931
    18  H    3.486180   4.339569   3.796288   3.797387   2.185251
    19  H    2.787674   3.796267   2.603200   3.144331   2.189518
    20  H    2.787414   3.797412   3.144729   2.602861   2.183515
                    6          7          8          9         10
     6  H    0.000000
     7  C    2.154984   0.000000
     8  H    2.449912   1.107188   0.000000
     9  H    2.449881   1.107186   1.764221   0.000000
    10  C    3.514842   1.534127   2.169223   2.169225   0.000000
    11  H    3.827771   2.175566   3.088262   2.533577   1.107507
    12  H    3.827811   2.175562   2.533533   3.088260   1.107507
    13  C    4.688345   2.533949   2.756661   2.756620   1.527803
    14  H    4.869973   2.804087   2.572291   3.119467   2.183533
    15  H    5.616809   3.491441   3.766113   3.766204   2.177718
    16  H    4.870163   2.804303   3.119881   2.572490   2.183528
    17  C    2.157777   2.548816   3.494775   2.785679   3.109198
    18  H    2.521765   2.768359   3.764695   2.552845   3.406423
    19  H    3.089475   2.865327   3.877333   3.231354   2.844818
    20  H    2.481695   3.503863   4.328947   3.761343   4.133594
                   11         12         13         14         15
    11  H    0.000000
    12  H    1.767611   0.000000
    13  C    2.168465   2.168470   0.000000
    14  H    3.091945   2.537606   1.095708   0.000000
    15  H    2.505261   2.505087   1.095456   1.766299   0.000000
    16  H    2.537411   3.091939   1.095708   1.765750   1.766303
    17  C    2.755096   3.471727   4.502922   5.123432   5.155996
    18  H    2.954254   4.049502   4.572758   5.262576   5.270614
    19  H    2.212340   3.081513   4.257677   5.011523   4.699326
    20  H    3.780018   4.346254   5.568684   6.146766   6.202320
                   16         17         18         19         20
    16  H    0.000000
    17  C    4.668251   0.000000
    18  H    4.475820   1.094831   0.000000
    19  H    4.529751   1.095426   1.764922   0.000000
    20  H    5.760810   1.094836   1.767756   1.764171   0.000000
 Stoichiometry    C6H14
 Framework group  C1[X(C6H14)]
 Deg. of freedom    54
 Full point group                 C1      NOp   1
 Largest Abelian subgroup         C1      NOp   1
 Largest concise Abelian subgroup C1      NOp   1
                         Standard orientation:                         
 ---------------------------------------------------------------------
 Center     Atomic      Atomic             Coordinates (Angstroms)
 Number     Number       Type             X           Y           Z
 ---------------------------------------------------------------------
      1          6           0       -1.600812   -1.262176   -0.285792
      2          1           0       -1.294303   -2.169778    0.244266
      3          1           0       -1.156234   -1.301634   -1.286167
      4          1           0       -2.687804   -1.301311   -0.410613
      5          6           0       -1.174137   -0.000002    0.474342
      6          1           0       -1.706705   -0.000012    1.461125
      7          6           0        0.338707   -0.000057    0.782709
      8          1           0        0.578223   -0.882219    1.407439
      9          1           0        0.578268    0.882002    1.407562
     10          6           0        1.235219    0.000003   -0.462205
     11          1           0        1.007198    0.883830   -1.089441
     12          1           0        1.007213   -0.883781   -1.089510
     13          6           0        2.717250    0.000007   -0.091034
     14          1           0        2.985195   -0.882760    0.500153
     15          1           0        3.349015   -0.000205   -0.985963
     16          1           0        2.985272    0.882989    0.499797
     17          6           0       -1.600760    1.262221   -0.285741
     18          1           0       -1.293955    2.169791    0.244206
     19          1           0       -1.156415    1.301566   -1.286225
     20          1           0       -2.687775    1.301549   -0.410305
 ---------------------------------------------------------------------
 Rotational constants (GHZ):      5.7596939      1.8692583      1.6781354
 Leave Link  202 at Mon Sep 14 19:14:03 2015, MaxMem=  402653184 cpu:       0.0
 (Enter /share/apps/g09/l601.exe)
 Copying SCF densities to generalized density rwf, IOpCl= 0 IROHF=0.

 **********************************************************************

            Population analysis using the SCF density.

 **********************************************************************

 Orbital symmetries:
       Occupied  (A) (A) (A) (A) (A) (A) (A) (A) (A) (A) (A) (A)
                 (A) (A) (A) (A) (A) (A) (A)
       Virtual   (A) (A) (A) (A) (A) (A) (A) (A) (A) (A) (A) (A)
                 (A) (A) (A) (A) (A) (A) (A)
 The electronic state is 1-A.
 Alpha  occ. eigenvalues --   -1.06324  -0.98509  -0.88347  -0.86407  -0.77239
 Alpha  occ. eigenvalues --   -0.68500  -0.57715  -0.57417  -0.54812  -0.51713
 Alpha  occ. eigenvalues --   -0.50828  -0.48174  -0.47055  -0.46125  -0.44889
 Alpha  occ. eigenvalues --   -0.43232  -0.41358  -0.40567  -0.40050
 Alpha virt. eigenvalues --    0.15474   0.16218   0.16439   0.17789   0.18410
 Alpha virt. eigenvalues --    0.20901   0.21792   0.22204   0.22240   0.22349
 Alpha virt. eigenvalues --    0.22506   0.22552   0.23470   0.23588   0.24640
 Alpha virt. eigenvalues --    0.24740   0.25735   0.26074   0.26209
          Condensed to atoms (all electrons):
              1          2          3          4          5          6
     1  C    4.498393   0.000000   0.000000   0.000000   0.000000   0.000000
     2  H    0.000000   0.851896   0.000000   0.000000   0.000000   0.000000
     3  H    0.000000   0.000000   0.847989   0.000000   0.000000   0.000000
     4  H    0.000000   0.000000   0.000000   0.853040   0.000000   0.000000
     5  C    0.000000   0.000000   0.000000   0.000000   3.972869   0.000000
     6  H    0.000000   0.000000   0.000000   0.000000   0.000000   0.895563
     7  C    0.000000   0.000000   0.000000   0.000000   0.000000   0.000000
     8  H    0.000000   0.000000   0.000000   0.000000   0.000000   0.000000
     9  H    0.000000   0.000000   0.000000   0.000000   0.000000   0.000000
    10  C    0.000000   0.000000   0.000000   0.000000   0.000000   0.000000
    11  H    0.000000   0.000000   0.000000   0.000000   0.000000   0.000000
    12  H    0.000000   0.000000   0.000000   0.000000   0.000000   0.000000
    13  C    0.000000   0.000000   0.000000   0.000000   0.000000   0.000000
    14  H    0.000000   0.000000   0.000000   0.000000   0.000000   0.000000
    15  H    0.000000   0.000000   0.000000   0.000000   0.000000   0.000000
    16  H    0.000000   0.000000   0.000000   0.000000   0.000000   0.000000
    17  C    0.000000   0.000000   0.000000   0.000000   0.000000   0.000000
    18  H    0.000000   0.000000   0.000000   0.000000   0.000000   0.000000
    19  H    0.000000   0.000000   0.000000   0.000000   0.000000   0.000000
    20  H    0.000000   0.000000   0.000000   0.000000   0.000000   0.000000
              7          8          9         10         11         12
     1  C    0.000000   0.000000   0.000000   0.000000   0.000000   0.000000
     2  H    0.000000   0.000000   0.000000   0.000000   0.000000   0.000000
     3  H    0.000000   0.000000   0.000000   0.000000   0.000000   0.000000
     4  H    0.000000   0.000000   0.000000   0.000000   0.000000   0.000000
     5  C    0.000000   0.000000   0.000000   0.000000   0.000000   0.000000
     6  H    0.000000   0.000000   0.000000   0.000000   0.000000   0.000000
     7  C    4.307342   0.000000   0.000000   0.000000   0.000000   0.000000
     8  H    0.000000   0.866707   0.000000   0.000000   0.000000   0.000000
     9  H    0.000000   0.000000   0.866707   0.000000   0.000000   0.000000
    10  C    0.000000   0.000000   0.000000   4.205066   0.000000   0.000000
    11  H    0.000000   0.000000   0.000000   0.000000   0.874521   0.000000
    12  H    0.000000   0.000000   0.000000   0.000000   0.000000   0.874523
    13  C    0.000000   0.000000   0.000000   0.000000   0.000000   0.000000
    14  H    0.000000   0.000000   0.000000   0.000000   0.000000   0.000000
    15  H    0.000000   0.000000   0.000000   0.000000   0.000000   0.000000
    16  H    0.000000   0.000000   0.000000   0.000000   0.000000   0.000000
    17  C    0.000000   0.000000   0.000000   0.000000   0.000000   0.000000
    18  H    0.000000   0.000000   0.000000   0.000000   0.000000   0.000000
    19  H    0.000000   0.000000   0.000000   0.000000   0.000000   0.000000
    20  H    0.000000   0.000000   0.000000   0.000000   0.000000   0.000000
             13         14         15         16         17         18
     1  C    0.000000   0.000000   0.000000   0.000000   0.000000   0.000000
     2  H    0.000000   0.000000   0.000000   0.000000   0.000000   0.000000
     3  H    0.000000   0.000000   0.000000   0.000000   0.000000   0.000000
     4  H    0.000000   0.000000   0.000000   0.000000   0.000000   0.000000
     5  C    0.000000   0.000000   0.000000   0.000000   0.000000   0.000000
     6  H    0.000000   0.000000   0.000000   0.000000   0.000000   0.000000
     7  C    0.000000   0.000000   0.000000   0.000000   0.000000   0.000000
     8  H    0.000000   0.000000   0.000000   0.000000   0.000000   0.000000
     9  H    0.000000   0.000000   0.000000   0.000000   0.000000   0.000000
    10  C    0.000000   0.000000   0.000000   0.000000   0.000000   0.000000
    11  H    0.000000   0.000000   0.000000   0.000000   0.000000   0.000000
    12  H    0.000000   0.000000   0.000000   0.000000   0.000000   0.000000
    13  C    4.469333   0.000000   0.000000   0.000000   0.000000   0.000000
    14  H    0.000000   0.854066   0.000000   0.000000   0.000000   0.000000
    15  H    0.000000   0.000000   0.856600   0.000000   0.000000   0.000000
    16  H    0.000000   0.000000   0.000000   0.854068   0.000000   0.000000
    17  C    0.000000   0.000000   0.000000   0.000000   4.498392   0.000000
    18  H    0.000000   0.000000   0.000000   0.000000   0.000000   0.851894
    19  H    0.000000   0.000000   0.000000   0.000000   0.000000   0.000000
    20  H    0.000000   0.000000   0.000000   0.000000   0.000000   0.000000
             19         20
     1  C    0.000000   0.000000
     2  H    0.000000   0.000000
     3  H    0.000000   0.000000
     4  H    0.000000   0.000000
     5  C    0.000000   0.000000
     6  H    0.000000   0.000000
     7  C    0.000000   0.000000
     8  H    0.000000   0.000000
     9  H    0.000000   0.000000
    10  C    0.000000   0.000000
    11  H    0.000000   0.000000
    12  H    0.000000   0.000000
    13  C    0.000000   0.000000
    14  H    0.000000   0.000000
    15  H    0.000000   0.000000
    16  H    0.000000   0.000000
    17  C    0.000000   0.000000
    18  H    0.000000   0.000000
    19  H    0.847990   0.000000
    20  H    0.000000   0.853042
 Mulliken atomic charges:
              1
     1  C   -0.498393
     2  H    0.148104
     3  H    0.152011
     4  H    0.146960
     5  C    0.027131
     6  H    0.104437
     7  C   -0.307342
     8  H    0.133293
     9  H    0.133293
    10  C   -0.205066
    11  H    0.125479
    12  H    0.125477
    13  C   -0.469333
    14  H    0.145934
    15  H    0.143400
    16  H    0.145932
    17  C   -0.498392
    18  H    0.148106
    19  H    0.152010
    20  H    0.146958
 Sum of Mulliken atomic charges =   0.00000
 Mulliken charges with hydrogens summed into heavy atoms:
              1
     1  C   -0.051318
     5  C    0.131568
     7  C   -0.040756
    10  C    0.045890
    13  C   -0.034066
    17  C   -0.051317
 Sum of Mulliken charges with hydrogens summed into heavy atoms =   0.00000
 Charge=              0.0000 electrons
 Dipole moment (field-independent basis, Debye):
    X=              0.0200    Y=              0.0000    Z=             -0.0373  Tot=              0.0423
 N-N= 1.670781144585D+02 E-N=-2.550411437624D+02  KE=-5.624420118043D+01
 Leave Link  601 at Mon Sep 14 19:14:05 2015, MaxMem=  402653184 cpu:       0.0
 (Enter /share/apps/g09/l9999.exe)
 1\1\GINC-COMPUTE-0-4\FOpt\RPM6\ZDO\C6H14\HETANJIN\14-Sep-2015\0\\#p PM
 6 opt\\using PM6 to do opt and freq calc.\\0,1\C,1.4881401209,1.140766
 6896,0.5963728593\H,1.444586092,0.8318464564,1.6458117001\H,0.83748449
 75,2.0150046678,0.4854125612\H,2.5119860908,1.4682226324,0.3885810922\
 C,1.0690178878,0.0002132717,-0.3397955693\H,1.806982281,-0.8343130663,
 -0.2119527488\C,-0.3173707265,-0.5678104917,0.0331124046\H,-0.27847922
 3,-0.9608324416,1.0674655407\H,-0.532463026,-1.4425904042,-0.610592531
 1\C,-1.4646871994,0.4439048813,-0.0836867357\H,-1.5154593483,0.8367363
 934,-1.1179383221\H,-1.2610329546,1.3193570802,0.563368624\C,-2.807085
 4318,-0.1778121269,0.2979122678\H,-2.803133836,-0.5441909312,1.3305429
 768\H,-3.6195793676,0.5518730155,0.211672529\H,-3.0574775487,-1.025918
 9827,-0.3490759773\C,1.1247020613,0.4515476261,-1.8047666327\H,0.81953
 46057,-0.3528649898,-2.481854139\H,0.4629019318,1.3044169446,-1.990754
 8742\H,2.1373330931,0.7573437753,-2.0871350256\\Version=EM64L-G09RevA.
 01\State=1-A\HF=-0.0571849\RMSD=5.079e-09\RMSF=2.369e-06\Dipole=-0.010
 911,0.0124068,-0.0019101\PG=C01 [X(C6H14)]\\@


 ... A MOLECULAR SYSTEM ... (PASSES) ... FROM ONE STATE OF EQUILIBRIUM 
 TO ANOTHER ... BY MEANS OF ALL POSSIBLE INTERMEDIATE PATHS, 
 BUT THE PATH MOST ECONOMICAL OF ENERGY WILL BE THE MORE OFTEN TRAVELED.

                      -- HENRY EYRING, 1945
 Job cpu time:  0 days  0 hours  0 minutes 25.6 seconds.
 File lengths (MBytes):  RWF=      5 Int=      0 D2E=      0 Chk=      3 Scr=      1
 Normal termination of Gaussian 09 at Mon Sep 14 19:14:08 2015.
