 Entering Gaussian System, Link 0=/share/apps/g09/g09
 Input=C6H14_1_1_opt_PM6.gjf
 Output=C6H14_1_1_opt_PM6.log
 Initial command:
 /share/apps/g09/l1.exe /state/partition1/Gau-18853.inp -scrdir=/state/partition1/
 Entering Link 1 = /share/apps/g09/l1.exe PID=     18856.
  
 Copyright (c) 1988,1990,1992,1993,1995,1998,2003,2009, Gaussian, Inc.
                  All Rights Reserved.
  
 This is part of the Gaussian(R) 09 program.  It is based on
 the Gaussian(R) 03 system (copyright 2003, Gaussian, Inc.),
 the Gaussian(R) 98 system (copyright 1998, Gaussian, Inc.),
 the Gaussian(R) 94 system (copyright 1995, Gaussian, Inc.),
 the Gaussian 92(TM) system (copyright 1992, Gaussian, Inc.),
 the Gaussian 90(TM) system (copyright 1990, Gaussian, Inc.),
 the Gaussian 88(TM) system (copyright 1988, Gaussian, Inc.),
 the Gaussian 86(TM) system (copyright 1986, Carnegie Mellon
 University), and the Gaussian 82(TM) system (copyright 1983,
 Carnegie Mellon University). Gaussian is a federally registered
 trademark of Gaussian, Inc.
  
 This software contains proprietary and confidential information,
 including trade secrets, belonging to Gaussian, Inc.
  
 This software is provided under written license and may be
 used, copied, transmitted, or stored only in accord with that
 written license.
  
 The following legend is applicable only to US Government
 contracts under FAR:
  
                    RESTRICTED RIGHTS LEGEND
  
 Use, reproduction and disclosure by the US Government is
 subject to restrictions as set forth in subparagraphs (a)
 and (c) of the Commercial Computer Software - Restricted
 Rights clause in FAR 52.227-19.
  
 Gaussian, Inc.
 340 Quinnipiac St., Bldg. 40, Wallingford CT 06492
  
  
 ---------------------------------------------------------------
 Warning -- This program may not be used in any manner that
 competes with the business of Gaussian, Inc. or will provide
 assistance to any competitor of Gaussian, Inc.  The licensee
 of this program is prohibited from giving any competitor of
 Gaussian, Inc. access to this program.  By using this program,
 the user acknowledges that Gaussian, Inc. is engaged in the
 business of creating and licensing software in the field of
 computational chemistry and represents and warrants to the
 licensee that it is not a competitor of Gaussian, Inc. and that
 it will not use this program in any manner prohibited above.
 ---------------------------------------------------------------
  

 Cite this work as:
 Gaussian 09, Revision A.01,
 M. J. Frisch, G. W. Trucks, H. B. Schlegel, G. E. Scuseria, 
 M. A. Robb, J. R. Cheeseman, G. Scalmani, V. Barone, B. Mennucci, 
 G. A. Petersson, H. Nakatsuji, M. Caricato, X. Li, H. P. Hratchian, 
 A. F. Izmaylov, J. Bloino, G. Zheng, J. L. Sonnenberg, M. Hada, 
 M. Ehara, K. Toyota, R. Fukuda, J. Hasegawa, M. Ishida, T. Nakajima, 
 Y. Honda, O. Kitao, H. Nakai, T. Vreven, J. A. Montgomery, Jr., 
 J. E. Peralta, F. Ogliaro, M. Bearpark, J. J. Heyd, E. Brothers, 
 K. N. Kudin, V. N. Staroverov, R. Kobayashi, J. Normand, 
 K. Raghavachari, A. Rendell, J. C. Burant, S. S. Iyengar, J. Tomasi, 
 M. Cossi, N. Rega, J. M. Millam, M. Klene, J. E. Knox, J. B. Cross, 
 V. Bakken, C. Adamo, J. Jaramillo, R. Gomperts, R. E. Stratmann, 
 O. Yazyev, A. J. Austin, R. Cammi, C. Pomelli, J. W. Ochterski, 
 R. L. Martin, K. Morokuma, V. G. Zakrzewski, G. A. Voth, 
 P. Salvador, J. J. Dannenberg, S. Dapprich, A. D. Daniels, 
 O. Farkas, J. B. Foresman, J. V. Ortiz, J. Cioslowski, 
 and D. J. Fox, Gaussian, Inc., Wallingford CT, 2009.
 
 ******************************************
 Gaussian 09:  EM64L-G09RevA.01  8-May-2009
                13-Sep-2015 
 ******************************************
 %mem=5GB
 %nprocshared=2
 Will use up to    2 processors via shared memory.
 %chk=C6H14_1_1_opt_PM6.chk
 ----------
 #p PM6 opt
 ----------
 1/14=-1,18=20,19=15,26=1,38=1/1,3;
 2/9=110,12=2,17=6,18=5,40=1/2;
 3/5=2,16=1,25=1,41=3900000,71=1/1,2,3;
 4/35=1/1;
 5/5=2,35=1,38=5/2;
 6/7=2,8=2,9=2,10=2,28=1/1;
 7//1,2,3,16;
 1/14=-1,18=20,19=15/3(2);
 2/9=110/2;
 99//99;
 2/9=110/2;
 3/5=2,16=1,25=1,41=3900000,71=1,135=20/1,2,3;
 4/5=5,16=3,35=1/1;
 5/5=2,35=1,38=5/2;
 7//1,2,3,16;
 1/14=-1,18=20,19=15/3(-5);
 2/9=110/2;
 6/7=2,8=2,9=2,10=2,19=2,28=1/1;
 99/9=1/99;
 Leave Link    1 at Sun Sep 13 11:18:50 2015, MaxMem=  671088640 cpu:       0.1
 (Enter /share/apps/g09/l101.exe)
 ----------------------------------
 using PM6 to do opt and freq calc.
 ----------------------------------
 Symbolic Z-matrix:
 Charge =  0 Multiplicity = 1
 C                    -3.16083  -1.1464   -0.01501 
 H                    -2.80417  -2.15521  -0.01501 
 H                    -2.80416  -0.642    -0.88866 
 H                    -4.23083  -1.14639  -0.01501 
 C                    -2.64749  -0.42044   1.2424 
 H                    -3.00412   0.58837   1.24239 
 H                    -3.00417  -0.92483   2.11605 
 C                    -1.10749  -0.42049   1.24241 
 H                    -0.7508    0.0839    0.36876 
 H                    -0.75085  -1.4293    1.24242 
 C                    -0.59414   0.30547   2.49982 
 H                    -0.95083  -0.19891   3.37347 
 H                    -0.95078   1.31429   2.4998 
 C                     0.94586   0.30543   2.49983 
 H                     1.30254   0.80982   1.62618 
 H                     1.30249  -0.70338   2.49984 
 C                     1.4592    1.03139   3.75723 
 H                     1.10251   0.527     4.63089 
 H                     2.5292    1.03136   3.75724 
 H                     1.10256   2.0402    3.75722 
 
 NAtoms=     20 NQM=     20 NQMF=      0 NMic=      0 NMicF=      0 NTot=     20.
                    Isotopes and Nuclear Properties:
 (Nuclear quadrupole moments (NQMom) in fm**2, nuclear magnetic moments (NMagM)
  in nuclear magnetons)

  Atom         1           2           3           4           5           6           7           8           9          10
 IAtWgt=          12           1           1           1          12           1           1          12           1           1
 AtmWgt=  12.0000000   1.0078250   1.0078250   1.0078250  12.0000000   1.0078250   1.0078250  12.0000000   1.0078250   1.0078250
 NucSpn=           0           1           1           1           0           1           1           0           1           1
 AtZEff=   0.0000000   0.0000000   0.0000000   0.0000000   0.0000000   0.0000000   0.0000000   0.0000000   0.0000000   0.0000000
 NQMom=    0.0000000   0.0000000   0.0000000   0.0000000   0.0000000   0.0000000   0.0000000   0.0000000   0.0000000   0.0000000
 NMagM=    0.0000000   2.7928460   2.7928460   2.7928460   0.0000000   2.7928460   2.7928460   0.0000000   2.7928460   2.7928460

  Atom        11          12          13          14          15          16          17          18          19          20
 IAtWgt=          12           1           1          12           1           1          12           1           1           1
 AtmWgt=  12.0000000   1.0078250   1.0078250  12.0000000   1.0078250   1.0078250  12.0000000   1.0078250   1.0078250   1.0078250
 NucSpn=           0           1           1           0           1           1           0           1           1           1
 AtZEff=   0.0000000   0.0000000   0.0000000   0.0000000   0.0000000   0.0000000   0.0000000   0.0000000   0.0000000   0.0000000
 NQMom=    0.0000000   0.0000000   0.0000000   0.0000000   0.0000000   0.0000000   0.0000000   0.0000000   0.0000000   0.0000000
 NMagM=    0.0000000   2.7928460   2.7928460   0.0000000   2.7928460   2.7928460   0.0000000   2.7928460   2.7928460   2.7928460
 Leave Link  101 at Sun Sep 13 11:18:50 2015, MaxMem=  671088640 cpu:       0.1
 (Enter /share/apps/g09/l103.exe)

 GradGradGradGradGradGradGradGradGradGradGradGradGradGradGradGradGradGrad
 Berny optimization.
 Initialization pass.
                           ----------------------------
                           !    Initial Parameters    !
                           ! (Angstroms and Degrees)  !
 --------------------------                            --------------------------
 ! Name  Definition              Value          Derivative Info.                !
 --------------------------------------------------------------------------------
 ! R1    R(1,2)                  1.07           estimate D2E/DX2                !
 ! R2    R(1,3)                  1.07           estimate D2E/DX2                !
 ! R3    R(1,4)                  1.07           estimate D2E/DX2                !
 ! R4    R(1,5)                  1.54           estimate D2E/DX2                !
 ! R5    R(5,6)                  1.07           estimate D2E/DX2                !
 ! R6    R(5,7)                  1.07           estimate D2E/DX2                !
 ! R7    R(5,8)                  1.54           estimate D2E/DX2                !
 ! R8    R(8,9)                  1.07           estimate D2E/DX2                !
 ! R9    R(8,10)                 1.07           estimate D2E/DX2                !
 ! R10   R(8,11)                 1.54           estimate D2E/DX2                !
 ! R11   R(11,12)                1.07           estimate D2E/DX2                !
 ! R12   R(11,13)                1.07           estimate D2E/DX2                !
 ! R13   R(11,14)                1.54           estimate D2E/DX2                !
 ! R14   R(14,15)                1.07           estimate D2E/DX2                !
 ! R15   R(14,16)                1.07           estimate D2E/DX2                !
 ! R16   R(14,17)                1.54           estimate D2E/DX2                !
 ! R17   R(17,18)                1.07           estimate D2E/DX2                !
 ! R18   R(17,19)                1.07           estimate D2E/DX2                !
 ! R19   R(17,20)                1.07           estimate D2E/DX2                !
 ! A1    A(2,1,3)              109.4712         estimate D2E/DX2                !
 ! A2    A(2,1,4)              109.4712         estimate D2E/DX2                !
 ! A3    A(2,1,5)              109.4712         estimate D2E/DX2                !
 ! A4    A(3,1,4)              109.4712         estimate D2E/DX2                !
 ! A5    A(3,1,5)              109.4713         estimate D2E/DX2                !
 ! A6    A(4,1,5)              109.4712         estimate D2E/DX2                !
 ! A7    A(1,5,6)              109.4712         estimate D2E/DX2                !
 ! A8    A(1,5,7)              109.4712         estimate D2E/DX2                !
 ! A9    A(1,5,8)              109.4712         estimate D2E/DX2                !
 ! A10   A(6,5,7)              109.4713         estimate D2E/DX2                !
 ! A11   A(6,5,8)              109.4712         estimate D2E/DX2                !
 ! A12   A(7,5,8)              109.4712         estimate D2E/DX2                !
 ! A13   A(5,8,9)              109.4712         estimate D2E/DX2                !
 ! A14   A(5,8,10)             109.4712         estimate D2E/DX2                !
 ! A15   A(5,8,11)             109.4712         estimate D2E/DX2                !
 ! A16   A(9,8,10)             109.4712         estimate D2E/DX2                !
 ! A17   A(9,8,11)             109.4713         estimate D2E/DX2                !
 ! A18   A(10,8,11)            109.4712         estimate D2E/DX2                !
 ! A19   A(8,11,12)            109.4712         estimate D2E/DX2                !
 ! A20   A(8,11,13)            109.4712         estimate D2E/DX2                !
 ! A21   A(8,11,14)            109.4712         estimate D2E/DX2                !
 ! A22   A(12,11,13)           109.4712         estimate D2E/DX2                !
 ! A23   A(12,11,14)           109.4713         estimate D2E/DX2                !
 ! A24   A(13,11,14)           109.4712         estimate D2E/DX2                !
 ! A25   A(11,14,15)           109.4712         estimate D2E/DX2                !
 ! A26   A(11,14,16)           109.4712         estimate D2E/DX2                !
 ! A27   A(11,14,17)           109.4712         estimate D2E/DX2                !
 ! A28   A(15,14,16)           109.4712         estimate D2E/DX2                !
 ! A29   A(15,14,17)           109.4713         estimate D2E/DX2                !
 ! A30   A(16,14,17)           109.4712         estimate D2E/DX2                !
 ! A31   A(14,17,18)           109.4712         estimate D2E/DX2                !
 ! A32   A(14,17,19)           109.4712         estimate D2E/DX2                !
 ! A33   A(14,17,20)           109.4712         estimate D2E/DX2                !
 ! A34   A(18,17,19)           109.4713         estimate D2E/DX2                !
 ! A35   A(18,17,20)           109.4712         estimate D2E/DX2                !
 ! A36   A(19,17,20)           109.4712         estimate D2E/DX2                !
 ! D1    D(2,1,5,6)            179.9989         estimate D2E/DX2                !
 ! D2    D(2,1,5,7)            -60.0011         estimate D2E/DX2                !
 ! D3    D(2,1,5,8)             59.9989         estimate D2E/DX2                !
 ! D4    D(3,1,5,6)             59.9989         estimate D2E/DX2                !
 ! D5    D(3,1,5,7)            179.9989         estimate D2E/DX2                !
 ! D6    D(3,1,5,8)            -60.0011         estimate D2E/DX2                !
 ! D7    D(4,1,5,6)            -60.0011         estimate D2E/DX2                !
 ! D8    D(4,1,5,7)             59.9989         estimate D2E/DX2                !
 ! D9    D(4,1,5,8)            179.9989         estimate D2E/DX2                !
 ! D10   D(1,5,8,9)             59.9999         estimate D2E/DX2                !
 ! D11   D(1,5,8,10)           -60.0001         estimate D2E/DX2                !
 ! D12   D(1,5,8,11)           179.9999         estimate D2E/DX2                !
 ! D13   D(6,5,8,9)            -60.0001         estimate D2E/DX2                !
 ! D14   D(6,5,8,10)           179.9999         estimate D2E/DX2                !
 ! D15   D(6,5,8,11)            59.9999         estimate D2E/DX2                !
 ! D16   D(7,5,8,9)            179.9999         estimate D2E/DX2                !
 ! D17   D(7,5,8,10)            59.9999         estimate D2E/DX2                !
 ! D18   D(7,5,8,11)           -60.0001         estimate D2E/DX2                !
 ! D19   D(5,8,11,12)           60.0            estimate D2E/DX2                !
 ! D20   D(5,8,11,13)          -60.0            estimate D2E/DX2                !
 ! D21   D(5,8,11,14)         -180.0            estimate D2E/DX2                !
 ! D22   D(9,8,11,12)          180.0            estimate D2E/DX2                !
 ! D23   D(9,8,11,13)           60.0            estimate D2E/DX2                !
 ! D24   D(9,8,11,14)          -60.0            estimate D2E/DX2                !
 ! D25   D(10,8,11,12)         -60.0            estimate D2E/DX2                !
 ! D26   D(10,8,11,13)        -180.0            estimate D2E/DX2                !
 ! D27   D(10,8,11,14)          60.0            estimate D2E/DX2                !
 ! D28   D(8,11,14,15)          60.0001         estimate D2E/DX2                !
 ! D29   D(8,11,14,16)         -59.9999         estimate D2E/DX2                !
 ! D30   D(8,11,14,17)        -179.9999         estimate D2E/DX2                !
 ! D31   D(12,11,14,15)       -180.0            estimate D2E/DX2                !
 ! D32   D(12,11,14,16)         60.0001         estimate D2E/DX2                !
 ! D33   D(12,11,14,17)        -59.9999         estimate D2E/DX2                !
 ! D34   D(13,11,14,15)        -59.9999         estimate D2E/DX2                !
 ! D35   D(13,11,14,16)       -179.9999         estimate D2E/DX2                !
 ! D36   D(13,11,14,17)         60.0001         estimate D2E/DX2                !
 ! D37   D(11,14,17,18)         60.0            estimate D2E/DX2                !
 ! D38   D(11,14,17,19)        180.0            estimate D2E/DX2                !
 ! D39   D(11,14,17,20)        -60.0            estimate D2E/DX2                !
 ! D40   D(15,14,17,18)        180.0            estimate D2E/DX2                !
 ! D41   D(15,14,17,19)        -60.0            estimate D2E/DX2                !
 ! D42   D(15,14,17,20)         60.0            estimate D2E/DX2                !
 ! D43   D(16,14,17,18)        -60.0            estimate D2E/DX2                !
 ! D44   D(16,14,17,19)         60.0            estimate D2E/DX2                !
 ! D45   D(16,14,17,20)        180.0            estimate D2E/DX2                !
 --------------------------------------------------------------------------------
 Trust Radius=3.00D-01 FncErr=1.00D-07 GrdErr=1.00D-07
 Number of steps in this run= 110 maximum allowed number of steps= 120.
 GradGradGradGradGradGradGradGradGradGradGradGradGradGradGradGradGradGrad

 Leave Link  103 at Sun Sep 13 11:18:55 2015, MaxMem=  671088640 cpu:       0.0
 (Enter /share/apps/g09/l202.exe)
                          Input orientation:                          
 ---------------------------------------------------------------------
 Center     Atomic      Atomic             Coordinates (Angstroms)
 Number     Number       Type             X           Y           Z
 ---------------------------------------------------------------------
      1          6           0       -3.160828   -1.146399   -0.015007
      2          1           0       -2.804174   -2.155209   -0.015007
      3          1           0       -2.804155   -0.642000   -0.888659
      4          1           0       -4.230828   -1.146385   -0.015007
      5          6           0       -2.647486   -0.420442    1.242398
      6          1           0       -3.004124    0.588373    1.242388
      7          1           0       -3.004174   -0.924830    2.116049
      8          6           0       -1.107486   -0.420485    1.242412
      9          1           0       -0.750797    0.083901    0.368760
     10          1           0       -0.750847   -1.429301    1.242423
     11          6           0       -0.594144    0.305474    2.499816
     12          1           0       -0.950833   -0.198913    3.373468
     13          1           0       -0.950783    1.314289    2.499805
     14          6           0        0.945856    0.305431    2.499830
     15          1           0        1.302544    0.809819    1.626178
     16          1           0        1.302495   -0.703384    2.499839
     17          6           0        1.459197    1.031388    3.757235
     18          1           0        1.102508    0.527001    4.630886
     19          1           0        2.529197    1.031359    3.757244
     20          1           0        1.102558    2.040204    3.757225
 ---------------------------------------------------------------------
                    Distance matrix (angstroms):
                    1          2          3          4          5
     1  C    0.000000
     2  H    1.070000   0.000000
     3  H    1.070000   1.747302   0.000000
     4  H    1.070000   1.747303   1.747303   0.000000
     5  C    1.540000   2.148263   2.148263   2.148263   0.000000
     6  H    2.148263   3.024610   2.468839   2.468852   1.070000
     7  H    2.148263   2.468852   3.024610   2.468839   1.070000
     8  C    2.514810   2.732969   2.732987   3.444314   1.540000
     9  H    2.732977   3.062228   2.514818   3.710996   2.148263
    10  H    2.732979   2.514801   3.062258   3.710989   2.148263
    11  C    3.875582   4.154939   4.154951   4.653783   2.514809
    12  H    4.154945   4.329402   4.668710   4.810180   2.732977
    13  H    4.154944   4.668699   4.329404   4.810186   2.732977
    14  C    5.029619   5.142166   5.142185   5.935506   3.875581
    15  H    5.142175   5.324472   5.029628   6.094130   4.154944
    16  H    5.142175   5.029610   5.324496   6.094126   4.154944
    17  C    6.349582   6.523844   6.523858   7.165814   5.029618
    18  H    6.523850   6.636319   6.862503   7.268357   5.142174
    19  H    7.165814   7.268352   7.268369   8.041790   5.935506
    20  H    6.523851   6.862490   6.636329   7.268363   5.142175
                    6          7          8          9         10
     6  H    0.000000
     7  H    1.747303   0.000000
     8  C    2.148263   2.148263   0.000000
     9  H    2.468846   3.024610   1.070000   0.000000
    10  H    3.024610   2.468845   1.070000   1.747303   0.000000
    11  C    2.732977   2.732978   1.540000   2.148263   2.148263
    12  H    3.062242   2.514810   2.148263   3.024610   2.468846
    13  H    2.514808   3.062244   2.148263   2.468847   3.024610
    14  C    4.154944   4.154945   2.514809   2.732978   2.732977
    15  H    4.329402   4.668704   2.732977   2.514810   3.062244
    16  H    4.668703   4.329403   2.732977   3.062242   2.514809
    17  C    5.142174   5.142175   3.875581   4.154945   4.154944
    18  H    5.324483   5.029618   4.154944   4.668704   4.329402
    19  H    6.094127   6.094128   4.653783   4.810184   4.810183
    20  H    5.029618   5.324485   4.154945   4.329405   4.668704
                   11         12         13         14         15
    11  C    0.000000
    12  H    1.070000   0.000000
    13  H    1.070000   1.747303   0.000000
    14  C    1.540000   2.148263   2.148263   0.000000
    15  H    2.148263   3.024610   2.468845   1.070000   0.000000
    16  H    2.148263   2.468847   3.024610   1.070000   1.747303
    17  C    2.514809   2.732977   2.732978   1.540000   2.148263
    18  H    2.732977   2.514809   3.062243   2.148263   3.024610
    19  H    3.444314   3.710992   3.710993   2.148263   2.468846
    20  H    2.732977   3.062243   2.514810   2.148263   2.468846
                   16         17         18         19         20
    16  H    0.000000
    17  C    2.148263   0.000000
    18  H    2.468846   1.070000   0.000000
    19  H    2.468846   1.070000   1.747303   0.000000
    20  H    3.024610   1.070000   1.747303   1.747303   0.000000
 Stoichiometry    C6H14
 Framework group  C1[X(C6H14)]
 Deg. of freedom    54
 Full point group                 C1      NOp   1
 Largest Abelian subgroup         C1      NOp   1
 Largest concise Abelian subgroup C1      NOp   1
                         Standard orientation:                         
 ---------------------------------------------------------------------
 Center     Atomic      Atomic             Coordinates (Angstroms)
 Number     Number       Type             X           Y           Z
 ---------------------------------------------------------------------
      1          6           0       -3.167163    0.219952    0.000000
      2          1           0       -3.211074    0.836168   -0.873641
      3          1           0       -3.211090    0.836140    0.873661
      4          1           0       -3.994684   -0.458360   -0.000018
      5          6           0       -1.849729   -0.577524    0.000000
      6          1           0       -1.805810   -1.193726    0.873651
      7          1           0       -1.805811   -1.193725   -0.873652
      8          6           0       -0.658717    0.398739   -0.000001
      9          1           0       -0.702636    1.014941    0.873649
     10          1           0       -0.702635    1.014939   -0.873653
     11          6           0        0.658717   -0.398738    0.000000
     12          1           0        0.702636   -1.014941   -0.873650
     13          1           0        0.702635   -1.014939    0.873652
     14          6           0        1.849729    0.577524    0.000000
     15          1           0        1.805810    1.193726    0.873652
     16          1           0        1.805811    1.193726   -0.873651
     17          6           0        3.167163   -0.219953    0.000000
     18          1           0        3.211081   -0.836154   -0.873651
     19          1           0        3.994684    0.458360    0.000000
     20          1           0        3.211082   -0.836154    0.873651
 ---------------------------------------------------------------------
 Rotational constants (GHZ):     14.2974412      1.1715545      1.1274226
 Leave Link  202 at Sun Sep 13 11:18:56 2015, MaxMem=  671088640 cpu:       0.0
 (Enter /share/apps/g09/l301.exe)
 Standard basis: VSTO-6G (5D, 7F)
 Ernie: Thresh=  0.10000D-02 Tol=  0.10000D-05 Strict=F.
  NNHCO=     0 NNPyr=     0 NCTC=     0               EPep=         0.000000000
    EC=       124.700064808  ECS=         3.446583157   EG=         0.310421912
   EHC=         0.000625918  EAt=       -31.187935768  AtH=         2.796400831
 EPDDG=         0.000000000  ECC=       128.457695794 EAtT=        33.984336599
 There are    38 symmetry adapted basis functions of A   symmetry.
 Integral buffers will be    131072 words long.
 Regular integral format.
 Two-electron integral symmetry is turned off.
    38 basis functions,   228 primitive gaussians,    38 cartesian basis functions
    19 alpha electrons       19 beta electrons
       nuclear repulsion energy       162.4420323928 Hartrees.
 IExCor=    0 DFT=F Ex=HF Corr=None ExCW=0 ScaHFX=  1.000000
 ScaDFX=  1.000000  1.000000  1.000000  1.000000 ScalE2=  1.000000  1.000000
 IRadAn=      0 IRanWt=     -1 IRanGd=            0 ICorTp=0
 Leave Link  301 at Sun Sep 13 11:18:59 2015, MaxMem=  671088640 cpu:       0.1
 (Enter /share/apps/g09/l302.exe)
 Do NDO integrals.
 NPDir=0 NMtPBC=     1 NCelOv=     1 NCel=       1 NClECP=     1 NCelD=      1
         NCelK=      1 NCelE2=     1 NClLst=     1 CellRange=     0.0.
 One-electron integrals computed using PRISM.
 NBasis=    38 RedAO= F  NBF=    38
 NBsUse=    38 1.00D-04 NBFU=    38
 Leave Link  302 at Sun Sep 13 11:19:00 2015, MaxMem=  671088640 cpu:       0.1
 (Enter /share/apps/g09/l303.exe)
 DipDrv:  MaxL=1.
 Leave Link  303 at Sun Sep 13 11:19:00 2015, MaxMem=  671088640 cpu:       0.0
 (Enter /share/apps/g09/l401.exe)
 Simple Huckel Guess.
 Initial guess orbital symmetries:
       Occupied  (A) (A) (A) (A) (A) (A) (A) (A) (A) (A) (A) (A)
                 (A) (A) (A) (A) (A) (A) (A)
       Virtual   (A) (A) (A) (A) (A) (A) (A) (A) (A) (A) (A) (A)
                 (A) (A) (A) (A) (A) (A) (A)
 The electronic state of the initial guess is 1-A.
 Leave Link  401 at Sun Sep 13 11:19:03 2015, MaxMem=  671088640 cpu:       0.1
 (Enter /share/apps/g09/l502.exe)
 Closed shell SCF:
 Requested convergence on RMS density matrix=1.00D-08 within 128 cycles.
 Requested convergence on MAX density matrix=1.00D-06.
 Requested convergence on             energy=1.00D-06.
 No special actions if energy rises.
 Using DIIS extrapolation, IDIIS=  1040.
 Overlap will be assumed to be unity.
 Two-electron integral symmetry not used.
 Keep J ints in memory in canonical form, NReq=884654.
 IEnd=       81865 IEndB=       81865 NGot=   671088640 MDV=   671022095
 LenX=   671022095 LenY=   671020210
 Symmetry not used in FoFDir.
 MinBra= 0 MaxBra= 1 Meth=40.
 IRaf=       0 NMat=   1 IRICut=       1 DoRegI=T DoRafI=F ISym2E= 0 JSym2E=0.

 Cycle   1  Pass 1  IDiag  1:
 E= 0.707435892371109E-01
 DIIS: error= 2.21D-02 at cycle   1 NSaved=   1.
 NSaved= 1 IEnMin= 1 EnMin= 0.707435892371109E-01 IErMin= 1 ErrMin= 2.21D-02
 ErrMax= 2.21D-02 EMaxC= 1.00D-01 BMatC= 4.24D-02 BMatP= 4.24D-02
 IDIUse=3 WtCom= 7.79D-01 WtEn= 2.21D-01
 Coeff-Com:  0.100D+01
 Coeff-En:   0.100D+01
 Coeff:      0.100D+01
 GapD=    2.000 DampG=2.000 DampE=0.500 DampFc=1.0000 IDamp=-1.
 RMSDP=7.88D-03 MaxDP=6.75D-02              OVMax= 0.00D+00

 Cycle   2  Pass 1  IDiag  1:
 E=-0.379271612012246E-01 Delta-E=       -0.108670750438 Rises=F Damp=F
 DIIS: error= 5.52D-03 at cycle   2 NSaved=   2.
 NSaved= 2 IEnMin= 2 EnMin=-0.379271612012246E-01 IErMin= 2 ErrMin= 5.52D-03
 ErrMax= 5.52D-03 EMaxC= 1.00D-01 BMatC= 3.07D-03 BMatP= 4.24D-02
 IDIUse=3 WtCom= 9.45D-01 WtEn= 5.52D-02
 Coeff-Com: -0.343D+00 0.134D+01
 Coeff-En:   0.000D+00 0.100D+01
 Coeff:     -0.324D+00 0.132D+01
 RMSDP=3.01D-03 MaxDP=2.15D-02 DE=-1.09D-01 OVMax= 0.00D+00

 Cycle   3  Pass 1  IDiag  3:
 E=-0.475647872815443E-01 Delta-E=       -0.009637626080 Rises=F Damp=F
 DIIS: error= 1.22D-03 at cycle   3 NSaved=   3.
 NSaved= 3 IEnMin= 3 EnMin=-0.475647872815443E-01 IErMin= 3 ErrMin= 1.22D-03
 ErrMax= 1.22D-03 EMaxC= 1.00D-01 BMatC= 8.82D-05 BMatP= 3.07D-03
 IDIUse=3 WtCom= 9.88D-01 WtEn= 1.22D-02
 Coeff-Com:  0.294D+00-0.120D+01 0.191D+01
 Coeff-En:   0.000D+00 0.000D+00 0.100D+01
 Coeff:      0.290D+00-0.119D+01 0.190D+01
 Gap=     0.551 Goal=   None    Shift=    0.000
 RMSDP=9.32D-04 MaxDP=9.22D-03 DE=-9.64D-03 OVMax= 0.00D+00

 Cycle   4  Pass 1  IDiag  3:
 E=-0.481013268591823E-01 Delta-E=       -0.000536539578 Rises=F Damp=F
 DIIS: error= 2.47D-04 at cycle   4 NSaved=   4.
 NSaved= 4 IEnMin= 4 EnMin=-0.481013268591823E-01 IErMin= 4 ErrMin= 2.47D-04
 ErrMax= 2.47D-04 EMaxC= 1.00D-01 BMatC= 3.89D-06 BMatP= 8.82D-05
 IDIUse=3 WtCom= 9.98D-01 WtEn= 2.47D-03
 Coeff-Com: -0.135D+00 0.556D+00-0.102D+01 0.160D+01
 Coeff-En:   0.000D+00 0.000D+00 0.000D+00 0.100D+01
 Coeff:     -0.135D+00 0.555D+00-0.102D+01 0.160D+01
 Gap=     0.551 Goal=   None    Shift=    0.000
 RMSDP=2.10D-04 MaxDP=2.15D-03 DE=-5.37D-04 OVMax= 0.00D+00

 Cycle   5  Pass 1  IDiag  3:
 E=-0.481276617884419E-01 Delta-E=       -0.000026334929 Rises=F Damp=F
 DIIS: error= 8.06D-05 at cycle   5 NSaved=   5.
 NSaved= 5 IEnMin= 5 EnMin=-0.481276617884419E-01 IErMin= 5 ErrMin= 8.06D-05
 ErrMax= 8.06D-05 EMaxC= 1.00D-01 BMatC= 4.02D-07 BMatP= 3.89D-06
 IDIUse=1 WtCom= 1.00D+00 WtEn= 0.00D+00
 Coeff-Com:  0.821D-01-0.340D+00 0.661D+00-0.130D+01 0.190D+01
 Coeff:      0.821D-01-0.340D+00 0.661D+00-0.130D+01 0.190D+01
 Gap=     0.551 Goal=   None    Shift=    0.000
 RMSDP=7.78D-05 MaxDP=7.32D-04 DE=-2.63D-05 OVMax= 0.00D+00

 Cycle   6  Pass 1  IDiag  3:
 E=-0.481307320013116E-01 Delta-E=       -0.000003070213 Rises=F Damp=F
 DIIS: error= 1.96D-05 at cycle   6 NSaved=   6.
 NSaved= 6 IEnMin= 6 EnMin=-0.481307320013116E-01 IErMin= 6 ErrMin= 1.96D-05
 ErrMax= 1.96D-05 EMaxC= 1.00D-01 BMatC= 2.30D-08 BMatP= 4.02D-07
 IDIUse=1 WtCom= 1.00D+00 WtEn= 0.00D+00
 Coeff-Com:  0.670D-03-0.212D-02-0.948D-02 0.850D-01-0.370D+00 0.130D+01
 Coeff:      0.670D-03-0.212D-02-0.948D-02 0.850D-01-0.370D+00 0.130D+01
 Gap=     0.551 Goal=   None    Shift=    0.000
 RMSDP=1.73D-05 MaxDP=1.86D-04 DE=-3.07D-06 OVMax= 0.00D+00

 Cycle   7  Pass 1  IDiag  3:
 E=-0.481308894057406E-01 Delta-E=       -0.000000157404 Rises=F Damp=F
 DIIS: error= 4.24D-06 at cycle   7 NSaved=   7.
 NSaved= 7 IEnMin= 7 EnMin=-0.481308894057406E-01 IErMin= 7 ErrMin= 4.24D-06
 ErrMax= 4.24D-06 EMaxC= 1.00D-01 BMatC= 1.93D-09 BMatP= 2.30D-08
 IDIUse=1 WtCom= 1.00D+00 WtEn= 0.00D+00
 Coeff-Com:  0.134D-03-0.865D-03 0.783D-02-0.441D-01 0.185D+00-0.789D+00
 Coeff-Com:  0.164D+01
 Coeff:      0.134D-03-0.865D-03 0.783D-02-0.441D-01 0.185D+00-0.789D+00
 Coeff:      0.164D+01
 Gap=     0.551 Goal=   None    Shift=    0.000
 RMSDP=4.64D-06 MaxDP=4.96D-05 DE=-1.57D-07 OVMax= 0.00D+00

 Cycle   8  Pass 1  IDiag  3:
 E=-0.481309014721205E-01 Delta-E=       -0.000000012066 Rises=F Damp=F
 DIIS: error= 1.45D-06 at cycle   8 NSaved=   8.
 NSaved= 8 IEnMin= 8 EnMin=-0.481309014721205E-01 IErMin= 8 ErrMin= 1.45D-06
 ErrMax= 1.45D-06 EMaxC= 1.00D-01 BMatC= 1.10D-10 BMatP= 1.93D-09
 IDIUse=1 WtCom= 1.00D+00 WtEn= 0.00D+00
 Coeff-Com: -0.353D-03 0.167D-02-0.717D-02 0.324D-01-0.125D+00 0.529D+00
 Coeff-Com: -0.122D+01 0.179D+01
 Coeff:     -0.353D-03 0.167D-02-0.717D-02 0.324D-01-0.125D+00 0.529D+00
 Coeff:     -0.122D+01 0.179D+01
 Gap=     0.551 Goal=   None    Shift=    0.000
 RMSDP=1.14D-06 MaxDP=1.13D-05 DE=-1.21D-08 OVMax= 0.00D+00

 Cycle   9  Pass 1  IDiag  3:
 E=-0.481309021394338E-01 Delta-E=       -0.000000000667 Rises=F Damp=F
 DIIS: error= 1.69D-07 at cycle   9 NSaved=   9.
 NSaved= 9 IEnMin= 9 EnMin=-0.481309021394338E-01 IErMin= 9 ErrMin= 1.69D-07
 ErrMax= 1.69D-07 EMaxC= 1.00D-01 BMatC= 1.91D-12 BMatP= 1.10D-10
 IDIUse=1 WtCom= 1.00D+00 WtEn= 0.00D+00
 Coeff-Com:  0.717D-05-0.895D-04 0.132D-02-0.785D-02 0.334D-01-0.148D+00
 Coeff-Com:  0.356D+00-0.609D+00 0.137D+01
 Coeff:      0.717D-05-0.895D-04 0.132D-02-0.785D-02 0.334D-01-0.148D+00
 Coeff:      0.356D+00-0.609D+00 0.137D+01
 Gap=     0.551 Goal=   None    Shift=    0.000
 RMSDP=1.22D-07 MaxDP=1.12D-06 DE=-6.67D-10 OVMax= 0.00D+00

 Cycle  10  Pass 1  IDiag  3:
 E=-0.481309021487277E-01 Delta-E=       -0.000000000009 Rises=F Damp=F
 DIIS: error= 2.32D-08 at cycle  10 NSaved=  10.
 NSaved=10 IEnMin=10 EnMin=-0.481309021487277E-01 IErMin=10 ErrMin= 2.32D-08
 ErrMax= 2.32D-08 EMaxC= 1.00D-01 BMatC= 4.23D-14 BMatP= 1.91D-12
 IDIUse=1 WtCom= 1.00D+00 WtEn= 0.00D+00
 Coeff-Com:  0.319D-05 0.289D-05-0.311D-03 0.200D-02-0.869D-02 0.390D-01
 Coeff-Com: -0.948D-01 0.168D+00-0.473D+00 0.137D+01
 Coeff:      0.319D-05 0.289D-05-0.311D-03 0.200D-02-0.869D-02 0.390D-01
 Coeff:     -0.948D-01 0.168D+00-0.473D+00 0.137D+01
 Gap=     0.551 Goal=   None    Shift=    0.000
 RMSDP=1.65D-08 MaxDP=1.51D-07 DE=-9.29D-12 OVMax= 0.00D+00

 Cycle  11  Pass 1  IDiag  3:
 E=-0.481309021489551E-01 Delta-E=        0.000000000000 Rises=F Damp=F
 DIIS: error= 3.60D-09 at cycle  11 NSaved=  11.
 NSaved=11 IEnMin=11 EnMin=-0.481309021489551E-01 IErMin=11 ErrMin= 3.60D-09
 ErrMax= 3.60D-09 EMaxC= 1.00D-01 BMatC= 1.09D-15 BMatP= 4.23D-14
 IDIUse=1 WtCom= 1.00D+00 WtEn= 0.00D+00
 Coeff-Com:  0.171D-05-0.119D-04 0.114D-03-0.634D-03 0.264D-02-0.117D-01
 Coeff-Com:  0.282D-01-0.502D-01 0.144D+00-0.491D+00 0.138D+01
 Coeff:      0.171D-05-0.119D-04 0.114D-03-0.634D-03 0.264D-02-0.117D-01
 Coeff:      0.282D-01-0.502D-01 0.144D+00-0.491D+00 0.138D+01
 Gap=     0.551 Goal=   None    Shift=    0.000
 RMSDP=2.69D-09 MaxDP=1.63D-08 DE=-2.27D-13 OVMax= 0.00D+00

 Cycle  12  Pass 2  IDiag  1:
 RMSDP=2.69D-09 MaxDP=1.63D-08 DE=-2.27D-13 OVMax= 0.00D+00

 SCF Done:  E(RPM6) = -0.481309021490E-01 A.U. after   12 cycles
             Convg  =    0.2686D-08             -V/T =  0.9991
 KE=-5.627546157056D+01 PE=-2.452767150464D+02 EE= 1.390620133220D+02
 Leave Link  502 at Sun Sep 13 11:19:05 2015, MaxMem=  671088640 cpu:       1.6
 (Enter /share/apps/g09/l601.exe)
 Copying SCF densities to generalized density rwf, IOpCl= 0 IROHF=0.

 **********************************************************************

            Population analysis using the SCF density.

 **********************************************************************

 Orbital symmetries:
       Occupied  (A) (A) (A) (A) (A) (A) (A) (A) (A) (A) (A) (A)
                 (A) (A) (A) (A) (A) (A) (A)
       Virtual   (A) (A) (A) (A) (A) (A) (A) (A) (A) (A) (A) (A)
                 (A) (A) (A) (A) (A) (A) (A)
 The electronic state is 1-A.
 Alpha  occ. eigenvalues --   -1.08028  -1.02299  -0.92955  -0.82041  -0.75697
 Alpha  occ. eigenvalues --   -0.74741  -0.62004  -0.57052  -0.54875  -0.53712
 Alpha  occ. eigenvalues --   -0.51046  -0.48803  -0.48190  -0.46062  -0.44867
 Alpha  occ. eigenvalues --   -0.43108  -0.43082  -0.41908  -0.40937
 Alpha virt. eigenvalues --    0.14155   0.15393   0.15639   0.17628   0.17672
 Alpha virt. eigenvalues --    0.21099   0.21693   0.22525   0.22569   0.22588
 Alpha virt. eigenvalues --    0.23228   0.23789   0.24249   0.24787   0.25146
 Alpha virt. eigenvalues --    0.25397   0.25504   0.26145   0.26207
          Condensed to atoms (all electrons):
              1          2          3          4          5          6
     1  C    4.465560   0.000000   0.000000   0.000000   0.000000   0.000000
     2  H    0.000000   0.852225   0.000000   0.000000   0.000000   0.000000
     3  H    0.000000   0.000000   0.852226   0.000000   0.000000   0.000000
     4  H    0.000000   0.000000   0.000000   0.855017   0.000000   0.000000
     5  C    0.000000   0.000000   0.000000   0.000000   4.224434   0.000000
     6  H    0.000000   0.000000   0.000000   0.000000   0.000000   0.873453
     7  H    0.000000   0.000000   0.000000   0.000000   0.000000   0.000000
     8  C    0.000000   0.000000   0.000000   0.000000   0.000000   0.000000
     9  H    0.000000   0.000000   0.000000   0.000000   0.000000   0.000000
    10  H    0.000000   0.000000   0.000000   0.000000   0.000000   0.000000
    11  C    0.000000   0.000000   0.000000   0.000000   0.000000   0.000000
    12  H    0.000000   0.000000   0.000000   0.000000   0.000000   0.000000
    13  H    0.000000   0.000000   0.000000   0.000000   0.000000   0.000000
    14  C    0.000000   0.000000   0.000000   0.000000   0.000000   0.000000
    15  H    0.000000   0.000000   0.000000   0.000000   0.000000   0.000000
    16  H    0.000000   0.000000   0.000000   0.000000   0.000000   0.000000
    17  C    0.000000   0.000000   0.000000   0.000000   0.000000   0.000000
    18  H    0.000000   0.000000   0.000000   0.000000   0.000000   0.000000
    19  H    0.000000   0.000000   0.000000   0.000000   0.000000   0.000000
    20  H    0.000000   0.000000   0.000000   0.000000   0.000000   0.000000
              7          8          9         10         11         12
     1  C    0.000000   0.000000   0.000000   0.000000   0.000000   0.000000
     2  H    0.000000   0.000000   0.000000   0.000000   0.000000   0.000000
     3  H    0.000000   0.000000   0.000000   0.000000   0.000000   0.000000
     4  H    0.000000   0.000000   0.000000   0.000000   0.000000   0.000000
     5  C    0.000000   0.000000   0.000000   0.000000   0.000000   0.000000
     6  H    0.000000   0.000000   0.000000   0.000000   0.000000   0.000000
     7  H    0.873453   0.000000   0.000000   0.000000   0.000000   0.000000
     8  C    0.000000   4.268218   0.000000   0.000000   0.000000   0.000000
     9  H    0.000000   0.000000   0.867707   0.000000   0.000000   0.000000
    10  H    0.000000   0.000000   0.000000   0.867707   0.000000   0.000000
    11  C    0.000000   0.000000   0.000000   0.000000   4.268218   0.000000
    12  H    0.000000   0.000000   0.000000   0.000000   0.000000   0.867707
    13  H    0.000000   0.000000   0.000000   0.000000   0.000000   0.000000
    14  C    0.000000   0.000000   0.000000   0.000000   0.000000   0.000000
    15  H    0.000000   0.000000   0.000000   0.000000   0.000000   0.000000
    16  H    0.000000   0.000000   0.000000   0.000000   0.000000   0.000000
    17  C    0.000000   0.000000   0.000000   0.000000   0.000000   0.000000
    18  H    0.000000   0.000000   0.000000   0.000000   0.000000   0.000000
    19  H    0.000000   0.000000   0.000000   0.000000   0.000000   0.000000
    20  H    0.000000   0.000000   0.000000   0.000000   0.000000   0.000000
             13         14         15         16         17         18
     1  C    0.000000   0.000000   0.000000   0.000000   0.000000   0.000000
     2  H    0.000000   0.000000   0.000000   0.000000   0.000000   0.000000
     3  H    0.000000   0.000000   0.000000   0.000000   0.000000   0.000000
     4  H    0.000000   0.000000   0.000000   0.000000   0.000000   0.000000
     5  C    0.000000   0.000000   0.000000   0.000000   0.000000   0.000000
     6  H    0.000000   0.000000   0.000000   0.000000   0.000000   0.000000
     7  H    0.000000   0.000000   0.000000   0.000000   0.000000   0.000000
     8  C    0.000000   0.000000   0.000000   0.000000   0.000000   0.000000
     9  H    0.000000   0.000000   0.000000   0.000000   0.000000   0.000000
    10  H    0.000000   0.000000   0.000000   0.000000   0.000000   0.000000
    11  C    0.000000   0.000000   0.000000   0.000000   0.000000   0.000000
    12  H    0.000000   0.000000   0.000000   0.000000   0.000000   0.000000
    13  H    0.867707   0.000000   0.000000   0.000000   0.000000   0.000000
    14  C    0.000000   4.224434   0.000000   0.000000   0.000000   0.000000
    15  H    0.000000   0.000000   0.873453   0.000000   0.000000   0.000000
    16  H    0.000000   0.000000   0.000000   0.873453   0.000000   0.000000
    17  C    0.000000   0.000000   0.000000   0.000000   4.465560   0.000000
    18  H    0.000000   0.000000   0.000000   0.000000   0.000000   0.852225
    19  H    0.000000   0.000000   0.000000   0.000000   0.000000   0.000000
    20  H    0.000000   0.000000   0.000000   0.000000   0.000000   0.000000
             19         20
     1  C    0.000000   0.000000
     2  H    0.000000   0.000000
     3  H    0.000000   0.000000
     4  H    0.000000   0.000000
     5  C    0.000000   0.000000
     6  H    0.000000   0.000000
     7  H    0.000000   0.000000
     8  C    0.000000   0.000000
     9  H    0.000000   0.000000
    10  H    0.000000   0.000000
    11  C    0.000000   0.000000
    12  H    0.000000   0.000000
    13  H    0.000000   0.000000
    14  C    0.000000   0.000000
    15  H    0.000000   0.000000
    16  H    0.000000   0.000000
    17  C    0.000000   0.000000
    18  H    0.000000   0.000000
    19  H    0.855017   0.000000
    20  H    0.000000   0.852225
 Mulliken atomic charges:
              1
     1  C   -0.465560
     2  H    0.147775
     3  H    0.147774
     4  H    0.144983
     5  C   -0.224434
     6  H    0.126547
     7  H    0.126547
     8  C   -0.268218
     9  H    0.132293
    10  H    0.132293
    11  C   -0.268218
    12  H    0.132293
    13  H    0.132293
    14  C   -0.224434
    15  H    0.126547
    16  H    0.126547
    17  C   -0.465560
    18  H    0.147775
    19  H    0.144983
    20  H    0.147775
 Sum of Mulliken atomic charges =   0.00000
 Mulliken charges with hydrogens summed into heavy atoms:
              1
     1  C   -0.025028
     5  C    0.028660
     8  C   -0.003632
    11  C   -0.003632
    14  C    0.028660
    17  C   -0.025028
 Sum of Mulliken charges with hydrogens summed into heavy atoms =   0.00000
 Charge=              0.0000 electrons
 Dipole moment (field-independent basis, Debye):
    X=              0.0000    Y=              0.0000    Z=              0.0000  Tot=              0.0000
 N-N= 1.624420323928D+02 E-N=-2.452767150559D+02  KE=-5.627546157056D+01
 Leave Link  601 at Sun Sep 13 11:19:08 2015, MaxMem=  671088640 cpu:       0.0
 (Enter /share/apps/g09/l701.exe)
 Compute integral first derivatives.
 ... and contract with generalized density number  0.
 Leave Link  701 at Sun Sep 13 11:19:08 2015, MaxMem=  671088640 cpu:       0.1
 (Enter /share/apps/g09/l702.exe)
 L702 exits ... SP integral derivatives will be done elsewhere.
 Leave Link  702 at Sun Sep 13 11:19:10 2015, MaxMem=  671088640 cpu:       0.0
 (Enter /share/apps/g09/l703.exe)
 Compute integral first derivatives, UseDBF=F ICtDFT=           0.
 Integral derivatives from FoFDir, PRISM(SPDF).
 Calling FoFJK, ICntrl=      2127 FMM=F ISym2X=0 I1Cent= 0 IOpClX= 0 NMat=1 NMatS=1 NMatT=0.
 FoFCou: FMM=F IPFlag=           0 FMFlag=      100000 FMFlg1=         800
         NFxFlg=           0 DoJE=F BraDBF=F KetDBF=F FulRan=T
         Omega=  0.000000  0.000000  1.000000  0.000000  0.000000 ICntrl=    2127 IOpCl=  0
         NMat0=    1 NMatS0=    1 NMatT0=    0 NMatD0=    1 NMtDS0=    0 NMtDT0=    0
         I1Cent=           0 NGrid=           0.
 Symmetry not used in FoFCou.
 Leave Link  703 at Sun Sep 13 11:19:12 2015, MaxMem=  671088640 cpu:       0.0
 (Enter /share/apps/g09/l716.exe)
 Dipole        =-3.46940278D-07 1.28906485D-07 8.66244687D-07
 ***** Axes restored to original set *****
 -------------------------------------------------------------------
 Center     Atomic                   Forces (Hartrees/Bohr)
 Number     Number              X              Y              Z
 -------------------------------------------------------------------
      1        6           0.004746954    0.009400331    0.016280732
      2        1           0.002562705   -0.013868910   -0.003506504
      3        1           0.002562874    0.003897404   -0.013763605
      4        1          -0.013653989   -0.001758505   -0.003046060
      5        6           0.011787589   -0.010504022   -0.018191768
      6        1          -0.008266032    0.017178660    0.002596602
      7        1          -0.008266682   -0.006339840    0.016175129
      8        6          -0.013332808    0.009921143    0.017182748
      9        1           0.007848749    0.005964298   -0.016524630
     10        1           0.007847908   -0.017293362   -0.003096632
     11        6           0.013332752   -0.009920854   -0.017183010
     12        1          -0.007848724   -0.005964359    0.016524797
     13        1          -0.007847877    0.017293198    0.003096632
     14        6          -0.011787670    0.010503898    0.018191806
     15        1           0.008266705    0.006339884   -0.016175062
     16        1           0.008266024   -0.017178674   -0.002596576
     17        6          -0.004746899   -0.009399894   -0.016281077
     18        1          -0.002563051   -0.003897385    0.013763860
     19        1           0.013653991    0.001758296    0.003046222
     20        1          -0.002562518    0.013868691    0.003506394
 -------------------------------------------------------------------
 Cartesian Forces:  Max     0.018191806 RMS     0.010999475
 Leave Link  716 at Sun Sep 13 11:19:14 2015, MaxMem=  671088640 cpu:       0.1
 (Enter /share/apps/g09/l103.exe)

 GradGradGradGradGradGradGradGradGradGradGradGradGradGradGradGradGradGrad
 Berny optimization.
 Internal  Forces:  Max     0.018951471 RMS     0.006790383
 Search for a local minimum.
 Step number   1 out of a maximum of  110
 All quantities printed in internal units (Hartrees-Bohrs-Radians)
 RMS Force = .67904D-02 SwitMx=.10000D-02 MixMth= 1
 Mixed Optimization -- RFO/linear search
 Second derivative matrix not updated -- first step.
     Eigenvalues ---    0.00237   0.00237   0.00237   0.00237   0.00237
     Eigenvalues ---    0.03840   0.03840   0.03840   0.03840   0.04896
     Eigenvalues ---    0.04896   0.04896   0.04896   0.05720   0.05720
     Eigenvalues ---    0.05720   0.05720   0.07655   0.07655   0.07655
     Eigenvalues ---    0.07655   0.11701   0.11701   0.11701   0.11701
     Eigenvalues ---    0.16000   0.16000   0.16000   0.16000   0.16000
     Eigenvalues ---    0.16000   0.21948   0.21948   0.21948   0.21948
     Eigenvalues ---    0.28519   0.28519   0.28519   0.28519   0.28519
     Eigenvalues ---    0.37230   0.37230   0.37230   0.37230   0.37230
     Eigenvalues ---    0.37230   0.37230   0.37230   0.37230   0.37230
     Eigenvalues ---    0.37230   0.37230   0.37230   0.372301000.00000
     Eigenvalues --- 1000.000001000.000001000.000001000.000001000.00000
     Eigenvalues --- 1000.000001000.000001000.000001000.000001000.00000
     Eigenvalues --- 1000.000001000.000001000.000001000.000001000.00000
     Eigenvalues --- 1000.000001000.000001000.000001000.000001000.00000
     Eigenvalues --- 1000.000001000.000001000.000001000.000001000.00000
     Eigenvalues --- 1000.000001000.000001000.000001000.000001000.00000
     Eigenvalues --- 1000.000001000.000001000.000001000.000001000.00000
     Eigenvalues --- 1000.000001000.000001000.000001000.000001000.00000
     Eigenvalues --- 1000.000001000.000001000.000001000.000001000.00000
 RFO step:  Lambda=-1.38037147D-02 EMin= 2.36824112D-03
 Linear search not attempted -- first point.
 Iteration  1 RMS(Cart)=  0.04582857 RMS(Int)=  0.00039596
 Iteration  2 RMS(Cart)=  0.00028663 RMS(Int)=  0.00011850
 Iteration  3 RMS(Cart)=  0.00000018 RMS(Int)=  0.00011850
 Variable       Old X    -DE/DX   Delta X   Delta X   Delta X     New X
                                 (Linear)    (Quad)   (Total)
    R1        2.02201   0.01393   0.00000   0.03608   0.03608   2.05808
    R2        2.02201   0.01393   0.00000   0.03608   0.03608   2.05809
    R3        2.02201   0.01365   0.00000   0.03536   0.03536   2.05737
    R4        2.91018   0.00565   0.00000   0.01891   0.01891   2.92909
    R5        2.02201   0.01895   0.00000   0.04908   0.04908   2.07109
    R6        2.02201   0.01895   0.00000   0.04908   0.04908   2.07109
    R7        2.91018   0.00853   0.00000   0.02852   0.02852   2.93870
    R8        2.02201   0.01892   0.00000   0.04900   0.04900   2.07101
    R9        2.02201   0.01892   0.00000   0.04900   0.04900   2.07101
   R10        2.91018   0.00847   0.00000   0.02833   0.02833   2.93851
   R11        2.02201   0.01892   0.00000   0.04900   0.04900   2.07101
   R12        2.02201   0.01892   0.00000   0.04900   0.04900   2.07101
   R13        2.91018   0.00853   0.00000   0.02852   0.02852   2.93870
   R14        2.02201   0.01895   0.00000   0.04908   0.04908   2.07109
   R15        2.02201   0.01895   0.00000   0.04908   0.04908   2.07109
   R16        2.91018   0.00565   0.00000   0.01891   0.01891   2.92909
   R17        2.02201   0.01393   0.00000   0.03608   0.03608   2.05808
   R18        2.02201   0.01365   0.00000   0.03536   0.03536   2.05737
   R19        2.02201   0.01393   0.00000   0.03608   0.03608   2.05808
    A1        1.91063  -0.00411   0.00000  -0.02196  -0.02234   1.88829
    A2        1.91063  -0.00391   0.00000  -0.02333  -0.02354   1.88710
    A3        1.91063   0.00436   0.00000   0.02552   0.02521   1.93585
    A4        1.91063  -0.00391   0.00000  -0.02333  -0.02353   1.88710
    A5        1.91063   0.00436   0.00000   0.02552   0.02521   1.93585
    A6        1.91063   0.00320   0.00000   0.01759   0.01738   1.92801
    A7        1.91063  -0.00097   0.00000  -0.00194  -0.00213   1.90850
    A8        1.91063  -0.00097   0.00000  -0.00194  -0.00213   1.90850
    A9        1.91063   0.00395   0.00000   0.02429   0.02411   1.93474
   A10        1.91063  -0.00114   0.00000  -0.02851  -0.02853   1.88210
   A11        1.91063  -0.00043   0.00000   0.00405   0.00397   1.91460
   A12        1.91063  -0.00043   0.00000   0.00405   0.00397   1.91460
   A13        1.91063  -0.00045   0.00000   0.00166   0.00152   1.91215
   A14        1.91063  -0.00045   0.00000   0.00165   0.00152   1.91215
   A15        1.91063   0.00292   0.00000   0.01986   0.01970   1.93033
   A16        1.91063  -0.00141   0.00000  -0.02970  -0.02969   1.88095
   A17        1.91063  -0.00030   0.00000   0.00326   0.00316   1.91379
   A18        1.91063  -0.00030   0.00000   0.00326   0.00316   1.91379
   A19        1.91063  -0.00030   0.00000   0.00326   0.00316   1.91379
   A20        1.91063  -0.00030   0.00000   0.00326   0.00316   1.91379
   A21        1.91063   0.00292   0.00000   0.01986   0.01970   1.93033
   A22        1.91063  -0.00141   0.00000  -0.02970  -0.02969   1.88095
   A23        1.91063  -0.00045   0.00000   0.00165   0.00152   1.91215
   A24        1.91063  -0.00045   0.00000   0.00165   0.00152   1.91215
   A25        1.91063  -0.00043   0.00000   0.00405   0.00397   1.91460
   A26        1.91063  -0.00043   0.00000   0.00405   0.00397   1.91460
   A27        1.91063   0.00395   0.00000   0.02429   0.02411   1.93474
   A28        1.91063  -0.00113   0.00000  -0.02851  -0.02853   1.88210
   A29        1.91063  -0.00097   0.00000  -0.00194  -0.00213   1.90850
   A30        1.91063  -0.00097   0.00000  -0.00194  -0.00213   1.90850
   A31        1.91063   0.00436   0.00000   0.02552   0.02521   1.93585
   A32        1.91063   0.00320   0.00000   0.01759   0.01738   1.92801
   A33        1.91063   0.00436   0.00000   0.02552   0.02521   1.93585
   A34        1.91063  -0.00391   0.00000  -0.02333  -0.02354   1.88710
   A35        1.91063  -0.00411   0.00000  -0.02196  -0.02234   1.88829
   A36        1.91063  -0.00391   0.00000  -0.02333  -0.02354   1.88710
    D1        3.14157   0.00145   0.00000   0.02083   0.02086  -3.12075
    D2       -1.04722  -0.00114   0.00000  -0.01647  -0.01641  -1.06362
    D3        1.04718   0.00015   0.00000   0.00218   0.00223   1.04941
    D4        1.04718   0.00114   0.00000   0.01647   0.01641   1.06359
    D5        3.14157  -0.00145   0.00000  -0.02082  -0.02086   3.12071
    D6       -1.04722  -0.00015   0.00000  -0.00218  -0.00222  -1.04944
    D7       -1.04722   0.00129   0.00000   0.01865   0.01864  -1.02858
    D8        1.04718  -0.00129   0.00000  -0.01865  -0.01863   1.02855
    D9        3.14157   0.00000   0.00000   0.00000   0.00000   3.14158
   D10        1.04720  -0.00114   0.00000  -0.01717  -0.01719   1.03001
   D11       -1.04720   0.00114   0.00000   0.01717   0.01719  -1.03001
   D12        3.14159   0.00000   0.00000   0.00000   0.00000   3.14159
   D13       -1.04720  -0.00210   0.00000  -0.03215  -0.03222  -1.07942
   D14        3.14159   0.00018   0.00000   0.00219   0.00216  -3.13944
   D15        1.04720  -0.00096   0.00000  -0.01498  -0.01503   1.03216
   D16        3.14159  -0.00018   0.00000  -0.00219  -0.00216   3.13943
   D17        1.04720   0.00210   0.00000   0.03216   0.03222   1.07942
   D18       -1.04720   0.00096   0.00000   0.01498   0.01503  -1.03217
   D19        1.04720  -0.00105   0.00000  -0.01619  -0.01622   1.03098
   D20       -1.04720   0.00105   0.00000   0.01619   0.01622  -1.03098
   D21       -3.14159   0.00000   0.00000   0.00000   0.00000  -3.14159
   D22        3.14159   0.00000   0.00000   0.00000   0.00000  -3.14159
   D23        1.04720   0.00210   0.00000   0.03238   0.03244   1.07964
   D24       -1.04720   0.00105   0.00000   0.01619   0.01622  -1.03098
   D25       -1.04720  -0.00210   0.00000  -0.03238  -0.03244  -1.07964
   D26       -3.14159   0.00000   0.00000   0.00000   0.00000  -3.14159
   D27        1.04720  -0.00105   0.00000  -0.01619  -0.01622   1.03098
   D28        1.04720  -0.00096   0.00000  -0.01498  -0.01503   1.03217
   D29       -1.04720   0.00096   0.00000   0.01498   0.01503  -1.03216
   D30       -3.14159   0.00000   0.00000   0.00000   0.00000  -3.14159
   D31       -3.14159   0.00018   0.00000   0.00219   0.00216  -3.13943
   D32        1.04720   0.00210   0.00000   0.03215   0.03222   1.07942
   D33       -1.04720   0.00114   0.00000   0.01717   0.01719  -1.03001
   D34       -1.04720  -0.00210   0.00000  -0.03216  -0.03222  -1.07942
   D35       -3.14159  -0.00018   0.00000  -0.00219  -0.00216   3.13944
   D36        1.04720  -0.00114   0.00000  -0.01717  -0.01719   1.03001
   D37        1.04720   0.00015   0.00000   0.00218   0.00223   1.04942
   D38        3.14159   0.00000   0.00000   0.00000   0.00000   3.14159
   D39       -1.04720  -0.00015   0.00000  -0.00218  -0.00223  -1.04942
   D40        3.14159   0.00145   0.00000   0.02083   0.02086  -3.12073
   D41       -1.04720   0.00129   0.00000   0.01865   0.01864  -1.02856
   D42        1.04720   0.00114   0.00000   0.01647   0.01641   1.06361
   D43       -1.04720  -0.00114   0.00000  -0.01647  -0.01641  -1.06361
   D44        1.04720  -0.00129   0.00000  -0.01865  -0.01864   1.02856
   D45        3.14159  -0.00145   0.00000  -0.02083  -0.02086   3.12073
         Item               Value     Threshold  Converged?
 Maximum Force            0.018951     0.000450     NO 
 RMS     Force            0.006790     0.000300     NO 
 Maximum Displacement     0.114712     0.001800     NO 
 RMS     Displacement     0.045798     0.001200     NO 
 Predicted change in Energy=-7.289355D-03
 GradGradGradGradGradGradGradGradGradGradGradGradGradGradGradGradGradGrad

 Leave Link  103 at Sun Sep 13 11:19:14 2015, MaxMem=  671088640 cpu:       0.1
 (Enter /share/apps/g09/l202.exe)
                          Input orientation:                          
 ---------------------------------------------------------------------
 Center     Atomic      Atomic             Coordinates (Angstroms)
 Number     Number       Type             X           Y           Z
 ---------------------------------------------------------------------
      1          6           0       -3.201467   -1.161637   -0.041402
      2          1           0       -2.859021   -2.195168   -0.067201
      3          1           0       -2.859000   -0.667220   -0.949361
      4          1           0       -4.290155   -1.165343   -0.047849
      5          6           0       -2.669417   -0.433727    1.219387
      6          1           0       -3.045957    0.595472    1.230504
      7          1           0       -3.046007   -0.938671    2.116254
      8          6           0       -1.114469   -0.423218    1.237678
      9          1           0       -0.740384    0.080178    0.338947
     10          1           0       -0.740434   -1.453259    1.224292
     11          6           0       -0.587162    0.308206    2.504550
     12          1           0       -0.961247   -0.195190    3.403281
     13          1           0       -0.961197    1.338247    2.517936
     14          6           0        0.967786    0.318716    2.522841
     15          1           0        1.344377    0.823659    1.625973
     16          1           0        1.344327   -0.710483    2.511724
     17          6           0        1.499836    1.046627    3.783630
     18          1           0        1.157355    0.552221    4.691589
     19          1           0        2.588524    1.050318    3.790084
     20          1           0        1.157405    2.080162    3.809418
 ---------------------------------------------------------------------
                    Distance matrix (angstroms):
                    1          2          3          4          5
     1  C    0.000000
     2  H    1.089091   0.000000
     3  H    1.089092   1.764322   0.000000
     4  H    1.088713   1.763252   1.763251   0.000000
     5  C    1.550006   2.189504   2.189504   2.183561   0.000000
     6  H    2.174710   3.083286   2.526095   2.506528   1.095974
     7  H    2.174710   2.526108   3.083286   2.506516   1.095974
     8  C    2.556730   2.808198   2.808214   3.505468   1.555091
     9  H    2.782750   3.135407   2.589764   3.781773   2.181844
    10  H    2.782752   2.589748   3.135435   3.781766   2.181844
    11  C    3.934070   4.247603   4.247612   4.732679   2.556931
    12  H    4.221191   4.432348   4.771769   4.892149   2.782829
    13  H    4.221190   4.771759   4.432347   4.892154   2.782829
    14  C    5.113654   5.260454   5.260470   6.037948   3.936294
    15  H    5.233186   5.445062   5.150091   6.205300   4.225739
    16  H    5.233186   5.150075   5.445084   6.205296   4.225739
    17  C    6.450546   6.658661   6.658673   7.286771   5.113654
    18  H    6.658667   6.806284   7.031249   7.422106   5.260462
    19  H    7.286771   7.422101   7.422116   8.182610   6.037948
    20  H    6.658667   7.031237   6.806291   7.422110   5.260463
                    6          7          8          9         10
     6  H    0.000000
     7  H    1.771482   0.000000
     8  C    2.183673   2.183673   0.000000
     9  H    2.525088   3.084279   1.095931   0.000000
    10  H    3.084279   2.525087   1.095931   1.770668   0.000000
    11  C    2.784132   2.784133   1.554992   2.182960   2.182960
    12  H    3.113218   2.560357   2.182960   3.084600   2.525765
    13  H    2.560355   3.113220   2.182960   2.525765   3.084600
    14  C    4.225738   4.225739   2.556931   2.782829   2.782829
    15  H    4.414011   4.756222   2.784133   2.560357   3.113220
    16  H    4.756221   4.414012   2.784132   3.113218   2.560356
    17  C    5.233185   5.233186   3.934070   4.221191   4.221190
    18  H    5.445072   5.150084   4.247607   4.771764   4.432346
    19  H    6.205297   6.205299   4.732679   4.892152   4.892152
    20  H    5.150083   5.445074   4.247608   4.432348   4.771764
                   11         12         13         14         15
    11  C    0.000000
    12  H    1.095931   0.000000
    13  H    1.095931   1.770668   0.000000
    14  C    1.555091   2.181844   2.181844   0.000000
    15  H    2.183673   3.084279   2.525087   1.095974   0.000000
    16  H    2.183673   2.525089   3.084279   1.095974   1.771482
    17  C    2.556730   2.782751   2.782751   1.550006   2.174710
    18  H    2.808206   2.589755   3.135421   2.189504   3.083286
    19  H    3.505468   3.781770   3.781770   2.183561   2.506522
    20  H    2.808206   3.135420   2.589756   2.189504   2.526102
                   16         17         18         19         20
    16  H    0.000000
    17  C    2.174710   0.000000
    18  H    2.526102   1.089091   0.000000
    19  H    2.506522   1.088713   1.763252   0.000000
    20  H    3.083286   1.089091   1.764322   1.763251   0.000000
 Stoichiometry    C6H14
 Framework group  C1[X(C6H14)]
 Deg. of freedom    54
 Full point group                 C1      NOp   1
 Largest Abelian subgroup         C1      NOp   1
 Largest concise Abelian subgroup C1      NOp   1
                         Standard orientation:                         
 ---------------------------------------------------------------------
 Center     Atomic      Atomic             Coordinates (Angstroms)
 Number     Number       Type             X           Y           Z
 ---------------------------------------------------------------------
      1          6           0       -3.218044    0.215820    0.000001
      2          1           0       -3.295325    0.849821   -0.882151
      3          1           0       -3.295339    0.849793    0.882171
      4          1           0       -4.064324   -0.469094   -0.000016
      5          6           0       -1.883189   -0.572013    0.000000
      6          1           0       -1.841704   -1.216141    0.885740
      7          1           0       -1.841705   -1.216141   -0.885742
      8          6           0       -0.667823    0.398137   -0.000001
      9          1           0       -0.712759    1.042521    0.885332
     10          1           0       -0.712758    1.042519   -0.885336
     11          6           0        0.667823   -0.398137    0.000000
     12          1           0        0.712759   -1.042521   -0.885333
     13          1           0        0.712758   -1.042519    0.885335
     14          6           0        1.883189    0.572013    0.000000
     15          1           0        1.841704    1.216141    0.885741
     16          1           0        1.841704    1.216141   -0.885740
     17          6           0        3.218044   -0.215821    0.000000
     18          1           0        3.295332   -0.849807   -0.882161
     19          1           0        4.064324    0.469094    0.000000
     20          1           0        3.295332   -0.849807    0.882161
 ---------------------------------------------------------------------
 Rotational constants (GHZ):     14.0662456      1.1315750      1.0900607
 Leave Link  202 at Sun Sep 13 11:19:15 2015, MaxMem=  671088640 cpu:       0.0
 (Enter /share/apps/g09/l301.exe)
 Standard basis: VSTO-6G (5D, 7F)
 Ernie: Thresh=  0.10000D-02 Tol=  0.10000D-05 Strict=F.
  NNHCO=     0 NNPyr=     0 NCTC=     0               EPep=         0.000000000
    EC=       123.086078414  ECS=         3.242386676   EG=         0.301344680
   EHC=         0.000492585  EAt=       -31.187935768  AtH=         2.796400831
 EPDDG=         0.000000000  ECC=       126.630302354 EAtT=        33.984336599
 There are    38 symmetry adapted basis functions of A   symmetry.
 Integral buffers will be    131072 words long.
 Regular integral format.
 Two-electron integral symmetry is turned off.
    38 basis functions,   228 primitive gaussians,    38 cartesian basis functions
    19 alpha electrons       19 beta electrons
       nuclear repulsion energy       160.6146389528 Hartrees.
 IExCor=    0 DFT=F Ex=HF Corr=None ExCW=0 ScaHFX=  1.000000
 ScaDFX=  1.000000  1.000000  1.000000  1.000000 ScalE2=  1.000000  1.000000
 IRadAn=      0 IRanWt=     -1 IRanGd=            0 ICorTp=0
 Leave Link  301 at Sun Sep 13 11:19:17 2015, MaxMem=  671088640 cpu:       0.1
 (Enter /share/apps/g09/l302.exe)
 Do NDO integrals.
 NPDir=0 NMtPBC=     1 NCelOv=     1 NCel=       1 NClECP=     1 NCelD=      1
         NCelK=      1 NCelE2=     1 NClLst=     1 CellRange=     0.0.
 One-electron integrals computed using PRISM.
 NBasis=    38 RedAO= F  NBF=    38
 NBsUse=    38 1.00D-04 NBFU=    38
 Leave Link  302 at Sun Sep 13 11:19:18 2015, MaxMem=  671088640 cpu:       0.1
 (Enter /share/apps/g09/l303.exe)
 DipDrv:  MaxL=1.
 Leave Link  303 at Sun Sep 13 11:19:18 2015, MaxMem=  671088640 cpu:       0.0
 (Enter /share/apps/g09/l401.exe)
 Initial guess read from the read-write file.
 B after Tr=     0.000000    0.000000    0.000000
         Rot=    1.000000    0.000000    0.000000    0.000000 Ang=   0.00 deg.
 Guess basis will be translated and rotated to current coordinates.
 Initial guess orbital symmetries:
       Occupied  (A) (A) (A) (A) (A) (A) (A) (A) (A) (A) (A) (A)
                 (A) (A) (A) (A) (A) (A) (A)
       Virtual   (A) (A) (A) (A) (A) (A) (A) (A) (A) (A) (A) (A)
                 (A) (A) (A) (A) (A) (A) (A)
 The electronic state of the initial guess is 1-A.
 Leave Link  401 at Sun Sep 13 11:19:18 2015, MaxMem=  671088640 cpu:       0.2
 (Enter /share/apps/g09/l502.exe)
 Closed shell SCF:
 Requested convergence on RMS density matrix=1.00D-08 within 128 cycles.
 Requested convergence on MAX density matrix=1.00D-06.
 Requested convergence on             energy=1.00D-06.
 No special actions if energy rises.
 Using DIIS extrapolation, IDIIS=  1040.
 Overlap will be assumed to be unity.
 Two-electron integral symmetry not used.
 Keep J ints in memory in canonical form, NReq=884654.
 IEnd=       81865 IEndB=       81865 NGot=   671088640 MDV=   671022095
 LenX=   671022095 LenY=   671020210
 Symmetry not used in FoFDir.
 MinBra= 0 MaxBra= 1 Meth=40.
 IRaf=       0 NMat=   1 IRICut=       1 DoRegI=T DoRafI=F ISym2E= 0 JSym2E=0.

 Cycle   1  Pass 1  IDiag  1:
 E=-0.545554812830744E-01
 DIIS: error= 1.61D-03 at cycle   1 NSaved=   1.
 NSaved= 1 IEnMin= 1 EnMin=-0.545554812830744E-01 IErMin= 1 ErrMin= 1.61D-03
 ErrMax= 1.61D-03 EMaxC= 1.00D-01 BMatC= 2.93D-04 BMatP= 2.93D-04
 IDIUse=3 WtCom= 9.84D-01 WtEn= 1.61D-02
 Coeff-Com:  0.100D+01
 Coeff-En:   0.100D+01
 Coeff:      0.100D+01
 GapD=    2.000 DampG=2.000 DampE=1.000 DampFc=2.0000 IDamp=-1.
 RMSDP=6.78D-04 MaxDP=3.81D-03              OVMax= 0.00D+00

 Cycle   2  Pass 1  IDiag  3:
 E=-0.553598207972357E-01 Delta-E=       -0.000804339514 Rises=F Damp=F
 DIIS: error= 6.83D-04 at cycle   2 NSaved=   2.
 NSaved= 2 IEnMin= 2 EnMin=-0.553598207972357E-01 IErMin= 2 ErrMin= 6.83D-04
 ErrMax= 6.83D-04 EMaxC= 1.00D-01 BMatC= 3.19D-05 BMatP= 2.93D-04
 IDIUse=3 WtCom= 9.93D-01 WtEn= 6.83D-03
 Coeff-Com: -0.415D+00 0.142D+01
 Coeff-En:   0.000D+00 0.100D+01
 Coeff:     -0.413D+00 0.141D+01
 Gap=     0.554 Goal=   None    Shift=    0.000
 RMSDP=3.71D-04 MaxDP=2.23D-03 DE=-8.04D-04 OVMax= 0.00D+00

 Cycle   3  Pass 1  IDiag  3:
 E=-0.554875392496115E-01 Delta-E=       -0.000127718452 Rises=F Damp=F
 DIIS: error= 1.58D-04 at cycle   3 NSaved=   3.
 NSaved= 3 IEnMin= 3 EnMin=-0.554875392496115E-01 IErMin= 3 ErrMin= 1.58D-04
 ErrMax= 1.58D-04 EMaxC= 1.00D-01 BMatC= 1.27D-06 BMatP= 3.19D-05
 IDIUse=3 WtCom= 9.98D-01 WtEn= 1.58D-03
 Coeff-Com:  0.210D+00-0.818D+00 0.161D+01
 Coeff-En:   0.000D+00 0.000D+00 0.100D+01
 Coeff:      0.210D+00-0.817D+00 0.161D+01
 Gap=     0.554 Goal=   None    Shift=    0.000
 RMSDP=1.05D-04 MaxDP=6.23D-04 DE=-1.28D-04 OVMax= 0.00D+00

 Cycle   4  Pass 1  IDiag  3:
 E=-0.554942837030126E-01 Delta-E=       -0.000006744453 Rises=F Damp=F
 DIIS: error= 1.32D-05 at cycle   4 NSaved=   4.
 NSaved= 4 IEnMin= 4 EnMin=-0.554942837030126E-01 IErMin= 4 ErrMin= 1.32D-05
 ErrMax= 1.32D-05 EMaxC= 1.00D-01 BMatC= 2.27D-08 BMatP= 1.27D-06
 IDIUse=1 WtCom= 1.00D+00 WtEn= 0.00D+00
 Coeff-Com: -0.925D-01 0.365D+00-0.775D+00 0.150D+01
 Coeff:     -0.925D-01 0.365D+00-0.775D+00 0.150D+01
 Gap=     0.554 Goal=   None    Shift=    0.000
 RMSDP=1.20D-05 MaxDP=8.35D-05 DE=-6.74D-06 OVMax= 0.00D+00

 Cycle   5  Pass 1  IDiag  3:
 E=-0.554943866703468E-01 Delta-E=       -0.000000102967 Rises=F Damp=F
 DIIS: error= 2.89D-06 at cycle   5 NSaved=   5.
 NSaved= 5 IEnMin= 5 EnMin=-0.554943866703468E-01 IErMin= 5 ErrMin= 2.89D-06
 ErrMax= 2.89D-06 EMaxC= 1.00D-01 BMatC= 6.13D-10 BMatP= 2.27D-08
 IDIUse=1 WtCom= 1.00D+00 WtEn= 0.00D+00
 Coeff-Com:  0.416D-01-0.165D+00 0.355D+00-0.758D+00 0.153D+01
 Coeff:      0.416D-01-0.165D+00 0.355D+00-0.758D+00 0.153D+01
 Gap=     0.554 Goal=   None    Shift=    0.000
 RMSDP=2.07D-06 MaxDP=1.91D-05 DE=-1.03D-07 OVMax= 0.00D+00

 Cycle   6  Pass 1  IDiag  3:
 E=-0.554943897929832E-01 Delta-E=       -0.000000003123 Rises=F Damp=F
 DIIS: error= 6.97D-07 at cycle   6 NSaved=   6.
 NSaved= 6 IEnMin= 6 EnMin=-0.554943897929832E-01 IErMin= 6 ErrMin= 6.97D-07
 ErrMax= 6.97D-07 EMaxC= 1.00D-01 BMatC= 3.22D-11 BMatP= 6.13D-10
 IDIUse=1 WtCom= 1.00D+00 WtEn= 0.00D+00
 Coeff-Com: -0.181D-01 0.718D-01-0.155D+00 0.336D+00-0.783D+00 0.155D+01
 Coeff:     -0.181D-01 0.718D-01-0.155D+00 0.336D+00-0.783D+00 0.155D+01
 Gap=     0.554 Goal=   None    Shift=    0.000
 RMSDP=5.46D-07 MaxDP=4.81D-06 DE=-3.12D-09 OVMax= 0.00D+00

 Cycle   7  Pass 1  IDiag  3:
 E=-0.554943899963689E-01 Delta-E=       -0.000000000203 Rises=F Damp=F
 DIIS: error= 2.06D-07 at cycle   7 NSaved=   7.
 NSaved= 7 IEnMin= 7 EnMin=-0.554943899963689E-01 IErMin= 7 ErrMin= 2.06D-07
 ErrMax= 2.06D-07 EMaxC= 1.00D-01 BMatC= 3.17D-12 BMatP= 3.22D-11
 IDIUse=1 WtCom= 1.00D+00 WtEn= 0.00D+00
 Coeff-Com:  0.592D-02-0.236D-01 0.514D-01-0.111D+00 0.268D+00-0.770D+00
 Coeff-Com:  0.158D+01
 Coeff:      0.592D-02-0.236D-01 0.514D-01-0.111D+00 0.268D+00-0.770D+00
 Coeff:      0.158D+01
 Gap=     0.554 Goal=   None    Shift=    0.000
 RMSDP=1.95D-07 MaxDP=1.78D-06 DE=-2.03D-10 OVMax= 0.00D+00

 Cycle   8  Pass 1  IDiag  3:
 E=-0.554943900182820E-01 Delta-E=       -0.000000000022 Rises=F Damp=F
 DIIS: error= 6.66D-08 at cycle   8 NSaved=   8.
 NSaved= 8 IEnMin= 8 EnMin=-0.554943900182820E-01 IErMin= 8 ErrMin= 6.66D-08
 ErrMax= 6.66D-08 EMaxC= 1.00D-01 BMatC= 2.93D-13 BMatP= 3.17D-12
 IDIUse=1 WtCom= 1.00D+00 WtEn= 0.00D+00
 Coeff-Com: -0.168D-02 0.675D-02-0.149D-01 0.316D-01-0.757D-01 0.269D+00
 Coeff-Com: -0.826D+00 0.161D+01
 Coeff:     -0.168D-02 0.675D-02-0.149D-01 0.316D-01-0.757D-01 0.269D+00
 Coeff:     -0.826D+00 0.161D+01
 Gap=     0.554 Goal=   None    Shift=    0.000
 RMSDP=6.17D-08 MaxDP=6.25D-07 DE=-2.19D-11 OVMax= 0.00D+00

 Cycle   9  Pass 1  IDiag  3:
 E=-0.554943900203853E-01 Delta-E=       -0.000000000002 Rises=F Damp=F
 DIIS: error= 2.01D-08 at cycle   9 NSaved=   9.
 NSaved= 9 IEnMin= 9 EnMin=-0.554943900203853E-01 IErMin= 9 ErrMin= 2.01D-08
 ErrMax= 2.01D-08 EMaxC= 1.00D-01 BMatC= 2.68D-14 BMatP= 2.93D-13
 IDIUse=1 WtCom= 1.00D+00 WtEn= 0.00D+00
 Coeff-Com:  0.482D-03-0.195D-02 0.436D-02-0.905D-02 0.207D-01-0.888D-01
 Coeff-Com:  0.350D+00-0.965D+00 0.169D+01
 Coeff:      0.482D-03-0.195D-02 0.436D-02-0.905D-02 0.207D-01-0.888D-01
 Coeff:      0.350D+00-0.965D+00 0.169D+01
 Gap=     0.554 Goal=   None    Shift=    0.000
 RMSDP=1.91D-08 MaxDP=1.88D-07 DE=-2.10D-12 OVMax= 0.00D+00

 Cycle  10  Pass 1  IDiag  3:
 E=-0.554943900207832E-01 Delta-E=        0.000000000000 Rises=F Damp=F
 DIIS: error= 4.35D-09 at cycle  10 NSaved=  10.
 NSaved=10 IEnMin=10 EnMin=-0.554943900207832E-01 IErMin=10 ErrMin= 4.35D-09
 ErrMax= 4.35D-09 EMaxC= 1.00D-01 BMatC= 1.54D-15 BMatP= 2.68D-14
 IDIUse=1 WtCom= 1.00D+00 WtEn= 0.00D+00
 Coeff-Com: -0.357D-04 0.155D-03-0.385D-03 0.679D-03-0.118D-02 0.150D-01
 Coeff-Com: -0.940D-01 0.331D+00-0.805D+00 0.155D+01
 Coeff:     -0.357D-04 0.155D-03-0.385D-03 0.679D-03-0.118D-02 0.150D-01
 Coeff:     -0.940D-01 0.331D+00-0.805D+00 0.155D+01
 Gap=     0.554 Goal=   None    Shift=    0.000
 RMSDP=4.40D-09 MaxDP=4.60D-08 DE=-3.98D-13 OVMax= 0.00D+00

 Cycle  11  Pass 2  IDiag  1:
 RMSDP=4.40D-09 MaxDP=4.60D-08 DE=-3.98D-13 OVMax= 0.00D+00

 SCF Done:  E(RPM6) = -0.554943900208E-01 A.U. after   11 cycles
             Convg  =    0.4397D-08             -V/T =  0.9990
 KE=-5.606723241565D+01 PE=-2.421968714129D+02 EE= 1.375939704857D+02
 Leave Link  502 at Sun Sep 13 11:19:24 2015, MaxMem=  671088640 cpu:       0.7
 (Enter /share/apps/g09/l701.exe)
 Compute integral first derivatives.
 ... and contract with generalized density number  0.
 Leave Link  701 at Sun Sep 13 11:19:25 2015, MaxMem=  671088640 cpu:       0.1
 (Enter /share/apps/g09/l702.exe)
 L702 exits ... SP integral derivatives will be done elsewhere.
 Leave Link  702 at Sun Sep 13 11:19:27 2015, MaxMem=  671088640 cpu:       0.1
 (Enter /share/apps/g09/l703.exe)
 Compute integral first derivatives, UseDBF=F ICtDFT=           0.
 Integral derivatives from FoFDir, PRISM(SPDF).
 Calling FoFJK, ICntrl=      2127 FMM=F ISym2X=0 I1Cent= 0 IOpClX= 0 NMat=1 NMatS=1 NMatT=0.
 FoFCou: FMM=F IPFlag=           0 FMFlag=      100000 FMFlg1=         800
         NFxFlg=           0 DoJE=F BraDBF=F KetDBF=F FulRan=T
         Omega=  0.000000  0.000000  1.000000  0.000000  0.000000 ICntrl=    2127 IOpCl=  0
         NMat0=    1 NMatS0=    1 NMatT0=    0 NMatD0=    1 NMtDS0=    0 NMtDT0=    0
         I1Cent=           0 NGrid=           0.
 Symmetry not used in FoFCou.
 Leave Link  703 at Sun Sep 13 11:19:33 2015, MaxMem=  671088640 cpu:       0.1
 (Enter /share/apps/g09/l716.exe)
 Dipole        =-6.72422980D-08 6.27096084D-08 6.44514704D-07
 ***** Axes restored to original set *****
 -------------------------------------------------------------------
 Center     Atomic                   Forces (Hartrees/Bohr)
 Number     Number              X              Y              Z
 -------------------------------------------------------------------
      1        6           0.005508957    0.007439315    0.012884890
      2        1           0.000663101   -0.002584334   -0.000586367
      3        1           0.000663160    0.000784203   -0.002531118
      4        1          -0.002837425   -0.000255216   -0.000442083
      5        6           0.010586972   -0.008044989   -0.013933164
      6        1          -0.001727526    0.003546232    0.001076482
      7        1          -0.001727573   -0.000840665    0.003609218
      8        6          -0.010695364    0.007770911    0.013458732
      9        1           0.001747433    0.000650290   -0.003356239
     10        1           0.001747285   -0.003231841   -0.001114865
     11        6           0.010695358   -0.007770783   -0.013458821
     12        1          -0.001747431   -0.000650319    0.003356300
     13        1          -0.001747275    0.003231775    0.001114867
     14        6          -0.010586981    0.008044920    0.013933189
     15        1           0.001727607    0.000840683   -0.003609222
     16        1           0.001727488   -0.003546229   -0.001076456
     17        6          -0.005508948   -0.007439123   -0.012885030
     18        1          -0.000663172   -0.000784237    0.002531198
     19        1           0.002837423    0.000255156    0.000442121
     20        1          -0.000663088    0.002584252    0.000586368
 -------------------------------------------------------------------
 Cartesian Forces:  Max     0.013933189 RMS     0.005957405
 Leave Link  716 at Sun Sep 13 11:19:35 2015, MaxMem=  671088640 cpu:       0.1
 (Enter /share/apps/g09/l103.exe)

 GradGradGradGradGradGradGradGradGradGradGradGradGradGradGradGradGradGrad
 Berny optimization.
 Using GEDIIS/GDIIS optimizer.
 Internal  Forces:  Max     0.011485982 RMS     0.002839983
 Search for a local minimum.
 Step number   2 out of a maximum of  110
 All quantities printed in internal units (Hartrees-Bohrs-Radians)
 RMS Force = .28400D-02 SwitMx=.10000D-02 MixMth= 1
 Mixed Optimization -- RFO/linear search
 Update second derivatives using D2CorX and points    1    2
 DE= -7.36D-03 DEPred=-7.29D-03 R= 1.01D+00
 SS=  1.41D+00  RLast= 2.36D-01 DXNew= 5.0454D-01 7.0710D-01
 Trust test= 1.01D+00 RLast= 2.36D-01 DXMaxT set to 5.05D-01
 Use linear search instead of GDIIS.
     Eigenvalues ---    0.00237   0.00237   0.00237   0.00237   0.00237
     Eigenvalues ---    0.03642   0.03642   0.03663   0.03663   0.04706
     Eigenvalues ---    0.04814   0.04816   0.04818   0.05452   0.05455
     Eigenvalues ---    0.05507   0.05507   0.07896   0.07897   0.07935
     Eigenvalues ---    0.07941   0.11891   0.11891   0.11920   0.11920
     Eigenvalues ---    0.15244   0.16000   0.16000   0.16000   0.16000
     Eigenvalues ---    0.16000   0.21752   0.21905   0.21910   0.21914
     Eigenvalues ---    0.24445   0.28519   0.28519   0.28519   0.28564
     Eigenvalues ---    0.37226   0.37230   0.37230   0.37230   0.37230
     Eigenvalues ---    0.37230   0.37230   0.37230   0.37230   0.37230
     Eigenvalues ---    0.37230   0.37230   0.37230   0.457301000.00000
     Eigenvalues --- 1000.000001000.000001000.000001000.000001000.00000
     Eigenvalues --- 1000.000001000.000001000.000001000.000001000.00000
     Eigenvalues --- 1000.000001000.000001000.000001000.000001000.00000
     Eigenvalues --- 1000.000001000.000001000.000001000.000001000.00000
     Eigenvalues --- 1000.000001000.000001000.000001000.000001000.00000
     Eigenvalues --- 1000.000001000.000001000.000001000.000001000.00000
     Eigenvalues --- 1000.000001000.000001000.000001000.000001000.00000
     Eigenvalues --- 1000.000001000.000001000.000001000.000001000.00000
     Eigenvalues --- 1000.000001000.000001000.000001000.000001000.00000
 RFO step:  Lambda=-3.16511708D-03 EMin= 2.36824112D-03
 Quartic linear search produced a step of  0.09077.
 Iteration  1 RMS(Cart)=  0.01818042 RMS(Int)=  0.00008491
 Iteration  2 RMS(Cart)=  0.00010862 RMS(Int)=  0.00002843
 Iteration  3 RMS(Cart)=  0.00000001 RMS(Int)=  0.00002843
 Variable       Old X    -DE/DX   Delta X   Delta X   Delta X     New X
                                 (Linear)    (Quad)   (Total)
    R1        2.05808   0.00267   0.00327   0.01253   0.01580   2.07389
    R2        2.05809   0.00267   0.00327   0.01253   0.01580   2.07389
    R3        2.05737   0.00284   0.00321   0.01291   0.01612   2.07349
    R4        2.92909  -0.01149   0.00172  -0.04080  -0.03909   2.89000
    R5        2.07109   0.00393   0.00446   0.01790   0.02235   2.09344
    R6        2.07109   0.00393   0.00446   0.01790   0.02235   2.09344
    R7        2.93870  -0.01113   0.00259  -0.03819  -0.03560   2.90309
    R8        2.07101   0.00365   0.00445   0.01706   0.02151   2.09252
    R9        2.07101   0.00365   0.00445   0.01706   0.02151   2.09252
   R10        2.93851  -0.01118   0.00257  -0.03841  -0.03583   2.90267
   R11        2.07101   0.00365   0.00445   0.01706   0.02151   2.09252
   R12        2.07101   0.00365   0.00445   0.01706   0.02151   2.09252
   R13        2.93870  -0.01113   0.00259  -0.03819  -0.03560   2.90309
   R14        2.07109   0.00393   0.00446   0.01790   0.02235   2.09344
   R15        2.07109   0.00393   0.00446   0.01790   0.02235   2.09344
   R16        2.92909  -0.01149   0.00172  -0.04080  -0.03909   2.89000
   R17        2.05808   0.00267   0.00327   0.01253   0.01580   2.07389
   R18        2.05737   0.00284   0.00321   0.01291   0.01612   2.07349
   R19        2.05808   0.00267   0.00327   0.01253   0.01580   2.07389
    A1        1.88829  -0.00062  -0.00203  -0.00768  -0.00978   1.87852
    A2        1.88710  -0.00050  -0.00214  -0.00613  -0.00831   1.87879
    A3        1.93585   0.00053   0.00229   0.00663   0.00885   1.94470
    A4        1.88710  -0.00050  -0.00214  -0.00613  -0.00831   1.87879
    A5        1.93585   0.00053   0.00229   0.00663   0.00886   1.94470
    A6        1.92801   0.00049   0.00158   0.00579   0.00732   1.93533
    A7        1.90850   0.00031  -0.00019   0.00344   0.00321   1.91171
    A8        1.90850   0.00031  -0.00019   0.00344   0.00321   1.91171
    A9        1.93474  -0.00024   0.00219   0.00450   0.00663   1.94137
   A10        1.88210  -0.00063  -0.00259  -0.01509  -0.01767   1.86443
   A11        1.91460   0.00012   0.00036   0.00159   0.00191   1.91651
   A12        1.91460   0.00012   0.00036   0.00159   0.00191   1.91651
   A13        1.91215   0.00022   0.00014   0.00239   0.00249   1.91465
   A14        1.91215   0.00022   0.00014   0.00239   0.00249   1.91465
   A15        1.93033  -0.00036   0.00179   0.00352   0.00526   1.93559
   A16        1.88095  -0.00071  -0.00269  -0.01618  -0.01886   1.86209
   A17        1.91379   0.00031   0.00029   0.00369   0.00394   1.91773
   A18        1.91379   0.00031   0.00029   0.00369   0.00394   1.91773
   A19        1.91379   0.00031   0.00029   0.00369   0.00394   1.91773
[...]
 ! D11   D(1,5,8,10)           -57.9067         -DE/DX =    0.0                 !
 ! D12   D(1,5,8,11)           179.9999         -DE/DX =    0.0                 !
 ! D13   D(6,5,8,9)            -64.0909         -DE/DX =    0.0                 !
 ! D14   D(6,5,8,10)          -179.9041         -DE/DX =    0.0                 !
 ! D15   D(6,5,8,11)            58.0025         -DE/DX =    0.0                 !
 ! D16   D(7,5,8,9)            179.904          -DE/DX =    0.0                 !
 ! D17   D(7,5,8,10)            64.0907         -DE/DX =    0.0                 !
 ! D18   D(7,5,8,11)           -58.0026         -DE/DX =    0.0                 !
 ! D19   D(5,8,11,12)           58.0114         -DE/DX =    0.0                 !
 ! D20   D(5,8,11,13)          -58.0114         -DE/DX =    0.0                 !
 ! D21   D(5,8,11,14)         -180.0            -DE/DX =    0.0                 !
 ! D22   D(9,8,11,12)         -180.0            -DE/DX =    0.0                 !
 ! D23   D(9,8,11,13)           63.9773         -DE/DX =    0.0                 !
 ! D24   D(9,8,11,14)          -58.0114         -DE/DX =    0.0                 !
 ! D25   D(10,8,11,12)         -63.9773         -DE/DX =    0.0                 !
 ! D26   D(10,8,11,13)        -180.0            -DE/DX =    0.0                 !
 ! D27   D(10,8,11,14)          58.0114         -DE/DX =    0.0                 !
 ! D28   D(8,11,14,15)          58.0026         -DE/DX =    0.0                 !
 ! D29   D(8,11,14,16)         -58.0025         -DE/DX =    0.0                 !
 ! D30   D(8,11,14,17)        -180.0            -DE/DX =    0.0                 !
 ! D31   D(12,11,14,15)       -179.9041         -DE/DX =    0.0                 !
 ! D32   D(12,11,14,16)         64.0908         -DE/DX =    0.0                 !
 ! D33   D(12,11,14,17)        -57.9066         -DE/DX =    0.0                 !
 ! D34   D(13,11,14,15)        -64.0908         -DE/DX =    0.0                 !
 ! D35   D(13,11,14,16)        179.9041         -DE/DX =    0.0                 !
 ! D36   D(13,11,14,17)         57.9066         -DE/DX =    0.0                 !
 ! D37   D(11,14,17,18)         60.0686         -DE/DX =    0.0                 !
 ! D38   D(11,14,17,19)       -180.0            -DE/DX =    0.0                 !
 ! D39   D(11,14,17,20)        -60.0686         -DE/DX =    0.0                 !
 ! D40   D(15,14,17,18)       -177.8727         -DE/DX =    0.0                 !
 ! D41   D(15,14,17,19)        -57.9413         -DE/DX =    0.0                 !
 ! D42   D(15,14,17,20)         61.9902         -DE/DX =    0.0                 !
 ! D43   D(16,14,17,18)        -61.9902         -DE/DX =    0.0                 !
 ! D44   D(16,14,17,19)         57.9413         -DE/DX =    0.0                 !
 ! D45   D(16,14,17,20)        177.8727         -DE/DX =    0.0                 !
 --------------------------------------------------------------------------------
 GradGradGradGradGradGradGradGradGradGradGradGradGradGradGradGradGradGrad

 Largest change from initial coordinates is atom    4       6.711 Angstoms.
 Leave Link  103 at Sun Sep 13 11:20:13 2015, MaxMem=  671088640 cpu:       0.0
 (Enter /share/apps/g09/l202.exe)
                          Input orientation:                          
 ---------------------------------------------------------------------
 Center     Atomic      Atomic             Coordinates (Angstroms)
 Number     Number       Type             X           Y           Z
 ---------------------------------------------------------------------
      1          6           0       -3.182800   -1.151093   -0.023138
      2          1           0       -2.847242   -2.193685   -0.062949
      3          1           0       -2.847201   -0.664293   -0.945950
      4          1           0       -4.278468   -1.158533   -0.036075
      5          6           0       -2.649988   -0.435463    1.216385
      6          1           0       -3.038330    0.601496    1.244949
      7          1           0       -3.038378   -0.929177    2.128694
      8          6           0       -1.115272   -0.417528    1.247532
      9          1           0       -0.728044    0.074452    0.334719
     10          1           0       -0.728092   -1.454055    1.217215
     11          6           0       -0.586358    0.302516    2.494695
     12          1           0       -0.973587   -0.189463    3.407509
     13          1           0       -0.973539    1.339044    2.525012
     14          6           0        0.948358    0.320451    2.525843
     15          1           0        1.336748    0.814164    1.613533
     16          1           0        1.336700   -0.716508    2.497280
     17          6           0        1.481170    1.036083    3.765365
     18          1           0        1.145567    0.549287    4.688178
     19          1           0        2.576837    1.043518    3.778304
     20          1           0        1.145615    2.078676    3.805172
 ---------------------------------------------------------------------
                    Distance matrix (angstroms):
                    1          2          3          4          5
     1  C    0.000000
     2  H    1.095985   0.000000
     3  H    1.095985   1.765993   0.000000
     4  H    1.095769   1.766542   1.766542   0.000000
     5  C    1.527230   2.183334   2.183334   2.177942   0.000000
     6  H    2.168060   3.091949   2.537478   2.505327   1.107659
     7  H    2.168060   2.537481   3.091949   2.505324   1.107659
     8  C    2.535230   2.805675   2.805679   3.493213   1.535137
     9  H    2.766921   3.129470   2.583928   3.776672   2.175137
    10  H    2.766922   2.583925   3.129478   3.776671   2.175137
    11  C    3.897945   4.228967   4.228968   4.708624   2.537176
    12  H    4.192218   4.423976   4.763245   4.870277   2.769813
    13  H    4.192217   4.763243   4.423974   4.870278   2.769813
    14  C    5.072398   5.237299   5.237303   6.005874   3.903099
    15  H    5.193000   5.418812   5.122716   6.176033   4.196827
    16  H    5.193000   5.122713   5.418817   6.176032   4.196827
    17  C    6.394459   6.619859   6.619861   7.241596   5.072398
    18  H    6.619860   6.785250   7.011303   7.392926   5.237301
    19  H    7.241596   7.392925   7.392928   8.148234   6.005874
    20  H    6.619860   7.011301   6.785250   7.392927   5.237301
                    6          7          8          9         10
     6  H    0.000000
     7  H    1.767474   0.000000
     8  C    2.176365   2.176365   0.000000
     9  H    2.538448   3.092452   1.106896   0.000000
    10  H    3.092452   2.538447   1.106896   1.764974   0.000000
    11  C    2.768289   2.768290   1.534154   2.176600   2.176600
    12  H    3.092805   2.538879   2.176600   3.093862   2.541032
    13  H    2.538878   3.092807   2.176600   2.541032   3.093862
    14  C    4.196827   4.196828   2.537176   2.769813   2.769813
    15  H    4.395724   4.737759   2.768289   2.538879   3.092806
    16  H    4.737758   4.395724   2.768289   3.092806   2.538878
    17  C    5.192999   5.193000   3.897945   4.192218   4.192218
    18  H    5.418814   5.122715   4.228968   4.763244   4.423975
    19  H    6.176032   6.176033   4.708624   4.870278   4.870278
    20  H    5.122714   5.418815   4.228968   4.423975   4.763244
                   11         12         13         14         15
    11  C    0.000000
    12  H    1.106896   0.000000
    13  H    1.106896   1.764974   0.000000
    14  C    1.535137   2.175137   2.175137   0.000000
    15  H    2.176365   3.092452   2.538448   1.107659   0.000000
    16  H    2.176365   2.538448   3.092452   1.107659   1.767474
    17  C    2.535230   2.766922   2.766922   1.527230   2.168060
    18  H    2.805677   2.583927   3.129475   2.183334   3.091949
    19  H    3.493213   3.776671   3.776671   2.177942   2.505326
    20  H    2.805677   3.129474   2.583927   2.183334   2.537480
                   16         17         18         19         20
    16  H    0.000000
    17  C    2.168060   0.000000
    18  H    2.537480   1.095985   0.000000
    19  H    2.505326   1.095769   1.766542   0.000000
    20  H    3.091949   1.095985   1.765993   1.766542   0.000000
 Stoichiometry    C6H14
 Framework group  C1[X(C6H14)]
 Deg. of freedom    54
 Full point group                 C1      NOp   1
 Largest Abelian subgroup         C1      NOp   1
 Largest concise Abelian subgroup C1      NOp   1
                         Standard orientation:                         
 ---------------------------------------------------------------------
 Center     Atomic      Atomic             Coordinates (Angstroms)
 Number     Number       Type             X           Y           Z
 ---------------------------------------------------------------------
      1          6           0        3.190340   -0.209781    0.000001
      2          1           0        3.283836   -0.852248   -0.882993
      3          1           0        3.283839   -0.852240    0.883000
      4          1           0        4.046426    0.474197   -0.000004
      5          6           0        1.870095    0.557934   -0.000001
      6          1           0        1.825355    1.224204    0.883736
      7          1           0        1.825356    1.224203   -0.883738
      8          6           0        0.661417   -0.388503   -0.000001
      9          1           0        0.707881   -1.055043    0.882486
     10          1           0        0.707881   -1.055043   -0.882488
     11          6           0       -0.661417    0.388503    0.000000
     12          1           0       -0.707881    1.055044   -0.882487
     13          1           0       -0.707881    1.055043    0.882487
     14          6           0       -1.870095   -0.557934    0.000000
     15          1           0       -1.825355   -1.224204    0.883737
     16          1           0       -1.825356   -1.224203   -0.883737
     17          6           0       -3.190340    0.209781    0.000000
     18          1           0       -3.283837    0.852244   -0.882996
     19          1           0       -4.046426   -0.474197    0.000000
     20          1           0       -3.283837    0.852243    0.882997
 ---------------------------------------------------------------------
 Rotational constants (GHZ):     14.2416479      1.1483925      1.1065909
 Leave Link  202 at Sun Sep 13 11:20:13 2015, MaxMem=  671088640 cpu:       0.0
 (Enter /share/apps/g09/l601.exe)
 Copying SCF densities to generalized density rwf, IOpCl= 0 IROHF=0.

 **********************************************************************

            Population analysis using the SCF density.

 **********************************************************************

 Orbital symmetries:
       Occupied  (A) (A) (A) (A) (A) (A) (A) (A) (A) (A) (A) (A)
                 (A) (A) (A) (A) (A) (A) (A)
       Virtual   (A) (A) (A) (A) (A) (A) (A) (A) (A) (A) (A) (A)
                 (A) (A) (A) (A) (A) (A) (A)
 The electronic state is 1-A.
 Alpha  occ. eigenvalues --   -1.05502  -1.00291  -0.91562  -0.81026  -0.74213
 Alpha  occ. eigenvalues --   -0.73553  -0.60289  -0.55691  -0.54557  -0.53161
 Alpha  occ. eigenvalues --   -0.49945  -0.48425  -0.48409  -0.44929  -0.44321
 Alpha  occ. eigenvalues --   -0.42724  -0.41775  -0.41118  -0.40444
 Alpha virt. eigenvalues --    0.14998   0.15762   0.16571   0.18166   0.18521
 Alpha virt. eigenvalues --    0.20200   0.20870   0.21792   0.22018   0.22086
 Alpha virt. eigenvalues --    0.22583   0.23167   0.23624   0.24001   0.24471
 Alpha virt. eigenvalues --    0.24783   0.24936   0.25540   0.25601
          Condensed to atoms (all electrons):
              1          2          3          4          5          6
     1  C    4.464363   0.000000   0.000000   0.000000   0.000000   0.000000
     2  H    0.000000   0.853530   0.000000   0.000000   0.000000   0.000000
     3  H    0.000000   0.000000   0.853530   0.000000   0.000000   0.000000
     4  H    0.000000   0.000000   0.000000   0.856063   0.000000   0.000000
     5  C    0.000000   0.000000   0.000000   0.000000   4.220785   0.000000
     6  H    0.000000   0.000000   0.000000   0.000000   0.000000   0.874148
     7  H    0.000000   0.000000   0.000000   0.000000   0.000000   0.000000
     8  C    0.000000   0.000000   0.000000   0.000000   0.000000   0.000000
     9  H    0.000000   0.000000   0.000000   0.000000   0.000000   0.000000
    10  H    0.000000   0.000000   0.000000   0.000000   0.000000   0.000000
    11  C    0.000000   0.000000   0.000000   0.000000   0.000000   0.000000
    12  H    0.000000   0.000000   0.000000   0.000000   0.000000   0.000000
    13  H    0.000000   0.000000   0.000000   0.000000   0.000000   0.000000
    14  C    0.000000   0.000000   0.000000   0.000000   0.000000   0.000000
    15  H    0.000000   0.000000   0.000000   0.000000   0.000000   0.000000
    16  H    0.000000   0.000000   0.000000   0.000000   0.000000   0.000000
    17  C    0.000000   0.000000   0.000000   0.000000   0.000000   0.000000
    18  H    0.000000   0.000000   0.000000   0.000000   0.000000   0.000000
    19  H    0.000000   0.000000   0.000000   0.000000   0.000000   0.000000
    20  H    0.000000   0.000000   0.000000   0.000000   0.000000   0.000000
              7          8          9         10         11         12
     1  C    0.000000   0.000000   0.000000   0.000000   0.000000   0.000000
     2  H    0.000000   0.000000   0.000000   0.000000   0.000000   0.000000
     3  H    0.000000   0.000000   0.000000   0.000000   0.000000   0.000000
     4  H    0.000000   0.000000   0.000000   0.000000   0.000000   0.000000
     5  C    0.000000   0.000000   0.000000   0.000000   0.000000   0.000000
     6  H    0.000000   0.000000   0.000000   0.000000   0.000000   0.000000
     7  H    0.874148   0.000000   0.000000   0.000000   0.000000   0.000000
     8  C    0.000000   4.267083   0.000000   0.000000   0.000000   0.000000
     9  H    0.000000   0.000000   0.868175   0.000000   0.000000   0.000000
    10  H    0.000000   0.000000   0.000000   0.868175   0.000000   0.000000
    11  C    0.000000   0.000000   0.000000   0.000000   4.267083   0.000000
    12  H    0.000000   0.000000   0.000000   0.000000   0.000000   0.868175
    13  H    0.000000   0.000000   0.000000   0.000000   0.000000   0.000000
    14  C    0.000000   0.000000   0.000000   0.000000   0.000000   0.000000
    15  H    0.000000   0.000000   0.000000   0.000000   0.000000   0.000000
    16  H    0.000000   0.000000   0.000000   0.000000   0.000000   0.000000
    17  C    0.000000   0.000000   0.000000   0.000000   0.000000   0.000000
    18  H    0.000000   0.000000   0.000000   0.000000   0.000000   0.000000
    19  H    0.000000   0.000000   0.000000   0.000000   0.000000   0.000000
    20  H    0.000000   0.000000   0.000000   0.000000   0.000000   0.000000
             13         14         15         16         17         18
     1  C    0.000000   0.000000   0.000000   0.000000   0.000000   0.000000
     2  H    0.000000   0.000000   0.000000   0.000000   0.000000   0.000000
     3  H    0.000000   0.000000   0.000000   0.000000   0.000000   0.000000
     4  H    0.000000   0.000000   0.000000   0.000000   0.000000   0.000000
     5  C    0.000000   0.000000   0.000000   0.000000   0.000000   0.000000
     6  H    0.000000   0.000000   0.000000   0.000000   0.000000   0.000000
     7  H    0.000000   0.000000   0.000000   0.000000   0.000000   0.000000
     8  C    0.000000   0.000000   0.000000   0.000000   0.000000   0.000000
     9  H    0.000000   0.000000   0.000000   0.000000   0.000000   0.000000
    10  H    0.000000   0.000000   0.000000   0.000000   0.000000   0.000000
    11  C    0.000000   0.000000   0.000000   0.000000   0.000000   0.000000
    12  H    0.000000   0.000000   0.000000   0.000000   0.000000   0.000000
    13  H    0.868175   0.000000   0.000000   0.000000   0.000000   0.000000
    14  C    0.000000   4.220785   0.000000   0.000000   0.000000   0.000000
    15  H    0.000000   0.000000   0.874148   0.000000   0.000000   0.000000
    16  H    0.000000   0.000000   0.000000   0.874148   0.000000   0.000000
    17  C    0.000000   0.000000   0.000000   0.000000   4.464363   0.000000
    18  H    0.000000   0.000000   0.000000   0.000000   0.000000   0.853530
    19  H    0.000000   0.000000   0.000000   0.000000   0.000000   0.000000
    20  H    0.000000   0.000000   0.000000   0.000000   0.000000   0.000000
             19         20
     1  C    0.000000   0.000000
     2  H    0.000000   0.000000
     3  H    0.000000   0.000000
     4  H    0.000000   0.000000
     5  C    0.000000   0.000000
     6  H    0.000000   0.000000
     7  H    0.000000   0.000000
     8  C    0.000000   0.000000
     9  H    0.000000   0.000000
    10  H    0.000000   0.000000
    11  C    0.000000   0.000000
    12  H    0.000000   0.000000
    13  H    0.000000   0.000000
    14  C    0.000000   0.000000
    15  H    0.000000   0.000000
    16  H    0.000000   0.000000
    17  C    0.000000   0.000000
    18  H    0.000000   0.000000
    19  H    0.856063   0.000000
    20  H    0.000000   0.853530
 Mulliken atomic charges:
              1
     1  C   -0.464363
     2  H    0.146470
     3  H    0.146470
     4  H    0.143937
     5  C   -0.220785
     6  H    0.125852
     7  H    0.125852
     8  C   -0.267083
     9  H    0.131825
    10  H    0.131825
    11  C   -0.267083
    12  H    0.131825
    13  H    0.131825
    14  C   -0.220785
    15  H    0.125852
    16  H    0.125852
    17  C   -0.464363
    18  H    0.146470
    19  H    0.143937
    20  H    0.146470
 Sum of Mulliken atomic charges =   0.00000
 Mulliken charges with hydrogens summed into heavy atoms:
              1
     1  C   -0.027486
     5  C    0.030918
     8  C   -0.003432
    11  C   -0.003432
    14  C    0.030918
    17  C   -0.027486
 Sum of Mulliken charges with hydrogens summed into heavy atoms =   0.00000
 Charge=              0.0000 electrons
 Dipole moment (field-independent basis, Debye):
    X=              0.0000    Y=              0.0000    Z=              0.0000  Tot=              0.0000
 N-N= 1.610756898582D+02 E-N=-2.431612131876D+02  KE=-5.606602331522D+01
 Leave Link  601 at Sun Sep 13 11:20:13 2015, MaxMem=  671088640 cpu:       0.0
 (Enter /share/apps/g09/l9999.exe)
 1\1\GINC-COMPUTE-0-14\FOpt\RPM6\ZDO\C6H14\HETANJIN\13-Sep-2015\0\\#p P
 M6 opt\\using PM6 to do opt and freq calc.\\0,1\C,-3.1828003744,-1.151
 0927038,-0.0231381258\H,-2.8472415819,-2.193685165,-0.0629488943\H,-2.
 8472009335,-0.6642927838,-0.9459503804\H,-4.2784678013,-1.1585326434,-
 0.0360746185\C,-2.6499884764,-0.4354627138,1.2163846794\H,-3.038330065
 6,0.6014959461,1.2449494343\H,-3.0383781342,-0.9291770657,2.128693818\
 C,-1.1152724895,-0.4175275606,1.2475323248\H,-0.7280436332,0.074451669
 6,0.3347190355\H,-0.7280916013,-1.4540552739,1.217215461\C,-0.58635791
 05,0.3025160194,2.4946954623\H,-0.9735868443,-0.1894631649,3.407508748
 5\H,-0.9735387116,1.3390437625,2.5250122914\C,0.948358076,0.3204510879
 ,2.5258431305\H,1.3367477638,0.8141643494,1.6135334036\H,1.336699614,-
 0.7165076173,2.4972796001\C,1.481170015,1.0360826118,3.7653650303\H,1.
 1455668687,0.5492866062,4.6881780115\H,2.5768374425,1.043518464,3.7783
 038361\H,1.1456149776,2.0786764161,3.8051720679\\Version=EM64L-G09RevA
 .01\State=1-A\HF=-0.0572845\RMSD=9.904e-09\RMSF=4.233e-05\Dipole=0.,0.
 ,0.\PG=C01 [X(C6H14)]\\@


 ... SUBJECTS WHICH DISCLOSE THEIR FULL POWER, MEANING AND BEAUTY AS SOON
 AS THEY ARE PRESENTED TO THE MIND HAVE VERY LITTLE OF THOSE QUALITIES
 TO DISCLOSE.
                           -- CHARLES DUTTON (1882)
 Job cpu time:  0 days  0 hours  0 minutes 10.5 seconds.
 File lengths (MBytes):  RWF=      5 Int=      0 D2E=      0 Chk=      3 Scr=      1
 Normal termination of Gaussian 09 at Sun Sep 13 11:20:15 2015.
