using PM6 to do opt and freq calc.                                      
FOpt      RPM6                                                        ZDO                 
Number of atoms                            I               20
Info1-9                                    I   N=           9
          33          29           0           0           0         110
           2           8         302
Charge                                     I                0
Multiplicity                               I                1
Number of electrons                        I               38
Number of alpha electrons                  I               19
Number of beta electrons                   I               19
Number of basis functions                  I               38
Number of independent functions            I               38
Number of point charges in /Mol/           I                0
Number of translation vectors              I                0
Atomic numbers                             I   N=          20
           6           1           1           1           6           1
           1           6           1           1           6           1
           1           6           1           1           6           1
           1           1
Nuclear charges                            R   N=          20
  4.00000000E+00  1.00000000E+00  1.00000000E+00  1.00000000E+00  4.00000000E+00
  1.00000000E+00  1.00000000E+00  4.00000000E+00  1.00000000E+00  1.00000000E+00
  4.00000000E+00  1.00000000E+00  1.00000000E+00  4.00000000E+00  1.00000000E+00
  1.00000000E+00  4.00000000E+00  1.00000000E+00  1.00000000E+00  1.00000000E+00
Current cartesian coordinates              R   N=          60
  6.02886908E+00 -3.96427908E-01  1.35509018E-06  6.20555015E+00 -1.61051467E+00
 -1.66861538E+00  6.20555544E+00 -1.61049956E+00  1.66862849E+00  7.64663789E+00
  8.96103213E-01 -7.25694540E-06  3.53396792E+00  1.05434177E+00 -1.01512045E-06
  3.44942104E+00  2.31341052E+00  1.67001909E+00  3.44942288E+00  2.31340870E+00
 -1.67002254E+00  1.24989738E+00 -7.34164294E-01 -1.22313959E-06  1.33770178E+00
 -1.99374314E+00  1.66765699E+00  1.33770083E+00 -1.99374166E+00 -1.66766061E+00
 -1.24989738E+00  7.34164346E-01  1.09791005E-07 -1.33770169E+00  1.99374332E+00
 -1.66765803E+00 -1.33770094E+00  1.99374159E+00  1.66765957E+00 -3.53396789E+00
 -1.05434175E+00 -2.58511695E-07 -3.44942163E+00 -2.31341026E+00  1.67002003E+00
 -3.44942219E+00 -2.31340892E+00 -1.67002160E+00 -6.02886910E+00  3.96427854E-01
  7.36963587E-07 -6.20555314E+00  1.61050772E+00 -1.66862068E+00 -7.64663786E+00
 -8.96103328E-01  4.74153692E-07 -6.20555258E+00  1.61050638E+00  1.66862320E+00
Force Field                                I                0
Int Atom Types                             I   N=          20
           0           0           0           0           0           0
           0           0           0           0           0           0
           0           0           0           0           0           0
           0           0
MM charges                                 R   N=          20
  0.00000000E+00  0.00000000E+00  0.00000000E+00  0.00000000E+00  0.00000000E+00
  0.00000000E+00  0.00000000E+00  0.00000000E+00  0.00000000E+00  0.00000000E+00
  0.00000000E+00  0.00000000E+00  0.00000000E+00  0.00000000E+00  0.00000000E+00
  0.00000000E+00  0.00000000E+00  0.00000000E+00  0.00000000E+00  0.00000000E+00
Integer atomic weights                     I   N=          20
          12           1           1           1          12           1
           1          12           1           1          12           1
           1          12           1           1          12           1
           1           1
Real atomic weights                        R   N=          20
  1.20000000E+01  1.00782504E+00  1.00782504E+00  1.00782504E+00  1.20000000E+01
  1.00782504E+00  1.00782504E+00  1.20000000E+01  1.00782504E+00  1.00782504E+00
  1.20000000E+01  1.00782504E+00  1.00782504E+00  1.20000000E+01  1.00782504E+00
  1.00782504E+00  1.20000000E+01  1.00782504E+00  1.00782504E+00  1.00782504E+00
Atom fragment info                         I   N=          20
           0           0           0           0           0           0
           0           0           0           0           0           0
           0           0           0           0           0           0
           0           0
Atom residue num                           I   N=          20
           0           0           0           0           0           0
           0           0           0           0           0           0
           0           0           0           0           0           0
           0           0
Nuclear spins                              I   N=          20
           0           1           1           1           0           1
           1           0           1           1           0           1
           1           0           1           1           0           1
           1           1
Nuclear ZEff                               R   N=          20
 -3.90000000E+00 -1.00000000E+00 -1.00000000E+00 -1.00000000E+00 -3.90000000E+00
 -1.00000000E+00 -1.00000000E+00 -3.90000000E+00 -1.00000000E+00 -1.00000000E+00
 -3.90000000E+00 -1.00000000E+00 -1.00000000E+00 -3.90000000E+00 -1.00000000E+00
 -1.00000000E+00 -3.90000000E+00 -1.00000000E+00 -1.00000000E+00 -1.00000000E+00
Nuclear QMom                               R   N=          20
  0.00000000E+00  0.00000000E+00  0.00000000E+00  0.00000000E+00  0.00000000E+00
  0.00000000E+00  0.00000000E+00  0.00000000E+00  0.00000000E+00  0.00000000E+00
  0.00000000E+00  0.00000000E+00  0.00000000E+00  0.00000000E+00  0.00000000E+00
  0.00000000E+00  0.00000000E+00  0.00000000E+00  0.00000000E+00  0.00000000E+00
Nuclear GFac                               R   N=          20
  0.00000000E+00  2.79284600E+00  2.79284600E+00  2.79284600E+00  0.00000000E+00
  2.79284600E+00  2.79284600E+00  0.00000000E+00  2.79284600E+00  2.79284600E+00
  0.00000000E+00  2.79284600E+00  2.79284600E+00  0.00000000E+00  2.79284600E+00
  2.79284600E+00  0.00000000E+00  2.79284600E+00  2.79284600E+00  2.79284600E+00
MicOpt                                     I   N=          20
          -1          -1          -1          -1          -1          -1
          -1          -1          -1          -1          -1          -1
          -1          -1          -1          -1          -1          -1
          -1          -1
Number of contracted shells                I               20
Number of primitive shells                 I              120
Pure/Cartesian d shells                    I                0
Pure/Cartesian f shells                    I                0
Highest angular momentum                   I                1
Largest degree of contraction              I                6
Shell types                                I   N=          20
          -1           0           0           0          -1           0
           0          -1           0           0          -1           0
           0          -1           0           0          -1           0
           0           0
Number of primitives per shell             I   N=          20
           6           6           6           6           6           6
           6           6           6           6           6           6
           6           6           6           6           6           6
           6           6
Shell to atom map                          I   N=          20
           1           2           3           4           5           6
           7           8           9          10          11          12
          13          14          15          16          17          18
          19          20
Primitive exponents                        R   N=         120
  1.14476344E+01  3.29633588E+00  1.29653143E+00  5.92558930E-01  2.94896438E-01
  1.51447622E-01  4.39461478E+00  1.26542531E+00  4.97723458E-01  2.27476537E-01
  1.13207340E-01  5.81389949E-02  4.39461478E+00  1.26542531E+00  4.97723458E-01
  2.27476537E-01  1.13207340E-01  5.81389949E-02  4.39461478E+00  1.26542531E+00
  4.97723458E-01  2.27476537E-01  1.13207340E-01  5.81389949E-02  1.14476344E+01
  3.29633588E+00  1.29653143E+00  5.92558930E-01  2.94896438E-01  1.51447622E-01
  4.39461478E+00  1.26542531E+00  4.97723458E-01  2.27476537E-01  1.13207340E-01
  5.81389949E-02  4.39461478E+00  1.26542531E+00  4.97723458E-01  2.27476537E-01
  1.13207340E-01  5.81389949E-02  1.14476344E+01  3.29633588E+00  1.29653143E+00
  5.92558930E-01  2.94896438E-01  1.51447622E-01  4.39461478E+00  1.26542531E+00
  4.97723458E-01  2.27476537E-01  1.13207340E-01  5.81389949E-02  4.39461478E+00
  1.26542531E+00  4.97723458E-01  2.27476537E-01  1.13207340E-01  5.81389949E-02
  1.14476344E+01  3.29633588E+00  1.29653143E+00  5.92558930E-01  2.94896438E-01
  1.51447622E-01  4.39461478E+00  1.26542531E+00  4.97723458E-01  2.27476537E-01
  1.13207340E-01  5.81389949E-02  4.39461478E+00  1.26542531E+00  4.97723458E-01
  2.27476537E-01  1.13207340E-01  5.81389949E-02  1.14476344E+01  3.29633588E+00
  1.29653143E+00  5.92558930E-01  2.94896438E-01  1.51447622E-01  4.39461478E+00
  1.26542531E+00  4.97723458E-01  2.27476537E-01  1.13207340E-01  5.81389949E-02
  4.39461478E+00  1.26542531E+00  4.97723458E-01  2.27476537E-01  1.13207340E-01
  5.81389949E-02  1.14476344E+01  3.29633588E+00  1.29653143E+00  5.92558930E-01
  2.94896438E-01  1.51447622E-01  4.39461478E+00  1.26542531E+00  4.97723458E-01
  2.27476537E-01  1.13207340E-01  5.81389949E-02  4.39461478E+00  1.26542531E+00
  4.97723458E-01  2.27476537E-01  1.13207340E-01  5.81389949E-02  4.39461478E+00
  1.26542531E+00  4.97723458E-01  2.27476537E-01  1.13207340E-01  5.81389949E-02
Contraction coefficients                   R   N=         120
 -9.73739553E-03 -7.26587678E-02 -1.71615520E-01  1.28977624E-01  7.28861451E-01
  3.01331742E-01 -9.73739553E-03 -7.26587678E-02 -1.71615520E-01  1.28977624E-01
  7.28861451E-01  3.01331742E-01 -9.73739553E-03 -7.26587678E-02 -1.71615520E-01
  1.28977624E-01  7.28861451E-01  3.01331742E-01 -9.73739553E-03 -7.26587678E-02
 -1.71615520E-01  1.28977624E-01  7.28861451E-01  3.01331742E-01 -9.73739553E-03
 -7.26587678E-02 -1.71615520E-01  1.28977624E-01  7.28861451E-01  3.01331742E-01
 -9.73739553E-03 -7.26587678E-02 -1.71615520E-01  1.28977624E-01  7.28861451E-01
  3.01331742E-01 -9.73739553E-03 -7.26587678E-02 -1.71615520E-01  1.28977624E-01
  7.28861451E-01  3.01331742E-01 -9.73739553E-03 -7.26587678E-02 -1.71615520E-01
  1.28977624E-01  7.28861451E-01  3.01331742E-01 -9.73739553E-03 -7.26587678E-02
 -1.71615520E-01  1.28977624E-01  7.28861451E-01  3.01331742E-01 -9.73739553E-03
 -7.26587678E-02 -1.71615520E-01  1.28977624E-01  7.28861451E-01  3.01331742E-01
 -9.73739553E-03 -7.26587678E-02 -1.71615520E-01  1.28977624E-01  7.28861451E-01
  3.01331742E-01 -9.73739553E-03 -7.26587678E-02 -1.71615520E-01  1.28977624E-01
  7.28861451E-01  3.01331742E-01 -9.73739553E-03 -7.26587678E-02 -1.71615520E-01
  1.28977624E-01  7.28861451E-01  3.01331742E-01 -9.73739553E-03 -7.26587678E-02
 -1.71615520E-01  1.28977624E-01  7.28861451E-01  3.01331742E-01 -9.73739553E-03
 -7.26587678E-02 -1.71615520E-01  1.28977624E-01  7.28861451E-01  3.01331742E-01
 -9.73739553E-03 -7.26587678E-02 -1.71615520E-01  1.28977624E-01  7.28861451E-01
  3.01331742E-01 -9.73739553E-03 -7.26587678E-02 -1.71615520E-01  1.28977624E-01
  7.28861451E-01  3.01331742E-01 -9.73739553E-03 -7.26587678E-02 -1.71615520E-01
  1.28977624E-01  7.28861451E-01  3.01331742E-01 -9.73739553E-03 -7.26587678E-02
 -1.71615520E-01  1.28977624E-01  7.28861451E-01  3.01331742E-01 -9.73739553E-03
 -7.26587678E-02 -1.71615520E-01  1.28977624E-01  7.28861451E-01  3.01331742E-01
P(S=P) Contraction coefficients            R   N=         120
 -8.10494336E-03 -1.71547892E-02  7.36978576E-02  3.96514999E-01  4.97808488E-01
  1.17482582E-01  0.00000000E+00  0.00000000E+00  0.00000000E+00  0.00000000E+00
  0.00000000E+00  0.00000000E+00  0.00000000E+00  0.00000000E+00  0.00000000E+00
  0.00000000E+00  0.00000000E+00  0.00000000E+00  0.00000000E+00  0.00000000E+00
  0.00000000E+00  0.00000000E+00  0.00000000E+00  0.00000000E+00 -8.10494336E-03
 -1.71547892E-02  7.36978576E-02  3.96514999E-01  4.97808488E-01  1.17482582E-01
  0.00000000E+00  0.00000000E+00  0.00000000E+00  0.00000000E+00  0.00000000E+00
  0.00000000E+00  0.00000000E+00  0.00000000E+00  0.00000000E+00  0.00000000E+00
  0.00000000E+00  0.00000000E+00 -8.10494336E-03 -1.71547892E-02  7.36978576E-02
  3.96514999E-01  4.97808488E-01  1.17482582E-01  0.00000000E+00  0.00000000E+00
  0.00000000E+00  0.00000000E+00  0.00000000E+00  0.00000000E+00  0.00000000E+00
  0.00000000E+00  0.00000000E+00  0.00000000E+00  0.00000000E+00  0.00000000E+00
 -8.10494336E-03 -1.71547892E-02  7.36978576E-02  3.96514999E-01  4.97808488E-01
  1.17482582E-01  0.00000000E+00  0.00000000E+00  0.00000000E+00  0.00000000E+00
  0.00000000E+00  0.00000000E+00  0.00000000E+00  0.00000000E+00  0.00000000E+00
  0.00000000E+00  0.00000000E+00  0.00000000E+00 -8.10494336E-03 -1.71547892E-02
  7.36978576E-02  3.96514999E-01  4.97808488E-01  1.17482582E-01  0.00000000E+00
  0.00000000E+00  0.00000000E+00  0.00000000E+00  0.00000000E+00  0.00000000E+00
  0.00000000E+00  0.00000000E+00  0.00000000E+00  0.00000000E+00  0.00000000E+00
  0.00000000E+00 -8.10494336E-03 -1.71547892E-02  7.36978576E-02  3.96514999E-01
  4.97808488E-01  1.17482582E-01  0.00000000E+00  0.00000000E+00  0.00000000E+00
  0.00000000E+00  0.00000000E+00  0.00000000E+00  0.00000000E+00  0.00000000E+00
  0.00000000E+00  0.00000000E+00  0.00000000E+00  0.00000000E+00  0.00000000E+00
  0.00000000E+00  0.00000000E+00  0.00000000E+00  0.00000000E+00  0.00000000E+00
Coordinates of each shell                  R   N=          60
  6.02886908E+00 -3.96427908E-01  1.35509018E-06  6.20555015E+00 -1.61051467E+00
 -1.66861538E+00  6.20555544E+00 -1.61049956E+00  1.66862849E+00  7.64663789E+00
  8.96103213E-01 -7.25694539E-06  3.53396792E+00  1.05434177E+00 -1.01512045E-06
  3.44942104E+00  2.31341052E+00  1.67001909E+00  3.44942288E+00  2.31340870E+00
 -1.67002254E+00  1.24989738E+00 -7.34164294E-01 -1.22313959E-06  1.33770178E+00
 -1.99374314E+00  1.66765699E+00  1.33770083E+00 -1.99374166E+00 -1.66766061E+00
 -1.24989738E+00  7.34164346E-01  1.09791008E-07 -1.33770169E+00  1.99374332E+00
 -1.66765803E+00 -1.33770094E+00  1.99374159E+00  1.66765957E+00 -3.53396789E+00
 -1.05434175E+00 -2.58511699E-07 -3.44942163E+00 -2.31341026E+00  1.67002003E+00
 -3.44942219E+00 -2.31340892E+00 -1.67002160E+00 -6.02886910E+00  3.96427854E-01
  7.36963589E-07 -6.20555314E+00  1.61050772E+00 -1.66862068E+00 -7.64663786E+00
 -8.96103328E-01  4.74153688E-07 -6.20555258E+00  1.61050638E+00  1.66862320E+00
Constraint Structure                       R   N=          60
 -5.98507039E+00  4.15649443E-01 -1.11022302E-15 -6.06804970E+00  1.58012875E+00
 -1.65094225E+00 -6.06808125E+00  1.58007528E+00  1.65098092E+00 -7.54885961E+00
 -8.66175600E-01 -3.41741786E-05 -3.49548155E+00 -1.09136242E+00  0.00000000E+00
 -3.41248582E+00 -2.25581463E+00  1.65096107E+00 -3.41248818E+00 -2.25581405E+00
 -1.65096309E+00 -1.24479384E+00  7.53506758E-01 -2.04143860E-06 -1.32779011E+00
  1.91796111E+00  1.65095822E+00 -1.32778750E+00  1.91795713E+00 -1.65096526E+00
  1.24479425E+00 -7.53506339E-01  2.22044605E-16  1.32778895E+00 -1.91796022E+00
 -1.65095990E+00  1.32778807E+00 -1.91795729E+00  1.65096361E+00  3.49548196E+00
  1.09136283E+00  0.00000000E+00  3.41248669E+00  2.25581491E+00  1.65096266E+00
  3.41248731E+00  2.25581549E+00 -1.65096085E+00  5.98507006E+00 -4.15650264E-01
  6.66133815E-16  6.06806338E+00 -1.58010246E+00 -1.65096198E+00  7.54885957E+00
  8.66174419E-01  6.66133815E-16  6.06806524E+00 -1.58010288E+00  1.65096152E+00
Num ILSW                                   I              100
ILSW                                       I   N=         100
           0           0           0           0           2           0
           0           0           0           0           0          -1
           0           0           0           0           0           0
           0           0           0           0           1           0
           1           0           0           0           0           0
           0           0      100000           0          -1           0
           0           0           0           0           0           0
           0           0           0          40           0           0
           0           0           1           0           0           0
           0           0           4          40           0           0
           0           0           0           0           0           0
           0           0           0           0           0           0
           0           0           0           0           0           0
           0           0           0           0           0           0
           0           0           0           0           0           0
           0           0           0           0           0           0
           0           0           0           0
Num RLSW                                   I               40
RLSW                                       R   N=          40
  1.00000000E+00  1.00000000E+00  1.00000000E+00  1.00000000E+00  1.00000000E+00
  0.00000000E+00  0.00000000E+00  1.00000000E+00  0.00000000E+00  0.00000000E+00
  0.00000000E+00  0.00000000E+00  1.00000000E+00  0.00000000E+00  0.00000000E+00
  0.00000000E+00  0.00000000E+00  1.00000000E+00  0.00000000E+00  0.00000000E+00
  0.00000000E+00  0.00000000E+00  1.00000000E+00  0.00000000E+00  0.00000000E+00
  0.00000000E+00  0.00000000E+00  1.00000000E+00  0.00000000E+00  0.00000000E+00
  0.00000000E+00  0.00000000E+00  0.00000000E+00  0.00000000E+00  0.00000000E+00
  0.00000000E+00  0.00000000E+00  0.00000000E+00  1.00000000E+00  1.00000000E+00
MxBond                                     I                4
NBond                                      I   N=          20
           4           1           1           1           4           1
           1           4           1           1           4           1
           1           4           1           1           4           1
           1           1
IBond                                      I   N=          80
           2           3           4           5           1           0
           0           0           1           0           0           0
           1           0           0           0           1           6
           7           8           5           0           0           0
           5           0           0           0           5           9
          10          11           8           0           0           0
           8           0           0           0           8          12
          13          14          11           0           0           0
          11           0           0           0          11          15
          16          17          14           0           0           0
          14           0           0           0          14          18
          19          20          17           0           0           0
          17           0           0           0          17           0
           0           0
RBond                                      R   N=          80
  1.00000000E+00  1.00000000E+00  1.00000000E+00  1.00000000E+00  1.00000000E+00
  0.00000000E+00  0.00000000E+00  0.00000000E+00  1.00000000E+00  0.00000000E+00
  0.00000000E+00  0.00000000E+00  1.00000000E+00  0.00000000E+00  0.00000000E+00
  0.00000000E+00  1.00000000E+00  1.00000000E+00  1.00000000E+00  1.00000000E+00
  1.00000000E+00  0.00000000E+00  0.00000000E+00  0.00000000E+00  1.00000000E+00
  0.00000000E+00  0.00000000E+00  0.00000000E+00  1.00000000E+00  1.00000000E+00
  1.00000000E+00  1.00000000E+00  1.00000000E+00  0.00000000E+00  0.00000000E+00
  0.00000000E+00  1.00000000E+00  0.00000000E+00  0.00000000E+00  0.00000000E+00
  1.00000000E+00  1.00000000E+00  1.00000000E+00  1.00000000E+00  1.00000000E+00
  0.00000000E+00  0.00000000E+00  0.00000000E+00  1.00000000E+00  0.00000000E+00
  0.00000000E+00  0.00000000E+00  1.00000000E+00  1.00000000E+00  1.00000000E+00
  1.00000000E+00  1.00000000E+00  0.00000000E+00  0.00000000E+00  0.00000000E+00
  1.00000000E+00  0.00000000E+00  0.00000000E+00  0.00000000E+00  1.00000000E+00
  1.00000000E+00  1.00000000E+00  1.00000000E+00  1.00000000E+00  0.00000000E+00
  0.00000000E+00  0.00000000E+00  1.00000000E+00  0.00000000E+00  0.00000000E+00
  0.00000000E+00  1.00000000E+00  0.00000000E+00  0.00000000E+00  0.00000000E+00
Virial Ratio                               R      9.989782675819241E-01
SCF Energy                                 R     -5.728447357375899E-02
Total Energy                               R     -5.728447357375899E-02
RMS Force                                  R      4.233124395202228E-05
RMS Density                                R      9.904332985962819E-09
External E-field                           R   N=          35
  0.00000000E+00  0.00000000E+00  0.00000000E+00  0.00000000E+00  0.00000000E+00
  0.00000000E+00  0.00000000E+00  0.00000000E+00  0.00000000E+00  0.00000000E+00
  0.00000000E+00  0.00000000E+00  0.00000000E+00  0.00000000E+00  0.00000000E+00
  0.00000000E+00  0.00000000E+00  0.00000000E+00  0.00000000E+00  0.00000000E+00
  0.00000000E+00  0.00000000E+00  0.00000000E+00  0.00000000E+00  0.00000000E+00
  0.00000000E+00  0.00000000E+00  0.00000000E+00  0.00000000E+00  0.00000000E+00
  0.00000000E+00  0.00000000E+00  0.00000000E+00  0.00000000E+00  0.00000000E+00
IOpCl                                      I                0
IROHF                                      I                0
Alpha Orbital Energies                     R   N=          38
 -1.05501592E+00 -1.00290526E+00 -9.15622392E-01 -8.10261294E-01 -7.42127117E-01
 -7.35534802E-01 -6.02894898E-01 -5.56909339E-01 -5.45569644E-01 -5.31605744E-01
 -4.99451016E-01 -4.84254313E-01 -4.84090919E-01 -4.49288567E-01 -4.43206713E-01
 -4.27244842E-01 -4.17754553E-01 -4.11181419E-01 -4.04437302E-01  1.49975703E-01
  1.57622802E-01  1.65710641E-01  1.81664510E-01  1.85210803E-01  2.01998431E-01
  2.08697703E-01  2.17922496E-01  2.20180379E-01  2.20861770E-01  2.25828009E-01
  2.31665593E-01  2.36237836E-01  2.40012742E-01  2.44714769E-01  2.47828721E-01
  2.49363601E-01  2.55399986E-01  2.56008071E-01
Alpha MO coefficients                      R   N=        1444
  2.25874403E-01 -7.18379369E-02  2.48641778E-02 -5.53910742E-08  9.71292705E-02
  9.71292025E-02  8.62765406E-02  3.51112922E-01 -4.55434000E-02 -5.83338520E-02
  3.61710666E-08  1.47695685E-01  1.47695655E-01  4.20807414E-01 -2.13305455E-02
  6.54685422E-02  4.26439839E-08  1.77037674E-01  1.77037669E-01  4.20807411E-01
  2.13305464E-02 -6.54685454E-02 -3.50015091E-08  1.77037666E-01  1.77037672E-01
  3.51112922E-01  4.55434001E-02  5.83338504E-02  1.62812785E-08  1.47695671E-01
  1.47695671E-01  2.25874400E-01  7.18379367E-02 -2.48641769E-02 -2.21258207E-08
  9.71292344E-02  8.62765401E-02  9.71292346E-02  3.78097080E-01 -7.42457661E-02
  3.68717139E-02 -6.90017296E-08  1.61240189E-01  1.61240164E-01  1.57714207E-01
  3.94322718E-01  5.40263629E-02 -5.68360680E-02  6.00850180E-08  1.60643297E-01
  1.60643306E-01  1.68222508E-01  1.44893853E-01  3.47461958E-02 -1.74513302E-09
  6.90927335E-02  6.90927102E-02 -1.68222512E-01  1.44893850E-01  3.47461980E-02
 -1.06986224E-08 -6.90927262E-02 -6.90927199E-02 -3.94322719E-01  5.40263637E-02
 -5.68360657E-02 -3.34137680E-08 -1.60643303E-01 -1.60643301E-01 -3.78097080E-01
 -7.42457668E-02  3.68717132E-02  2.72475841E-08 -1.61240176E-01 -1.57714207E-01
 -1.61240176E-01  4.18237011E-01  1.66739125E-02  1.79815924E-02 -3.36320172E-09
  1.84967147E-01  1.84967262E-01  2.04247077E-01  1.05374495E-01  2.09037702E-01
 -5.58906726E-03  9.80920151E-08  3.99102162E-02  3.99102463E-02 -3.23016681E-01
  1.30514586E-01 -2.97685609E-02 -1.29348277E-08 -1.30492129E-01 -1.30492167E-01
 -3.23016684E-01 -1.30514584E-01  2.97685609E-02  4.97871610E-08 -1.30492151E-01
 -1.30492148E-01  1.05374493E-01 -2.09037707E-01  5.58906301E-03  4.03433528E-08
  3.99102332E-02  3.99102282E-02  4.18237017E-01 -1.66739130E-02 -1.79815935E-02
 -4.18070727E-09  1.84967207E-01  2.04247081E-01  1.84967207E-01  3.50213262E-01
  1.51326970E-01 -5.87361758E-02  1.41133519E-07  1.85458002E-01  1.85458136E-01
  2.05938594E-01 -2.61101435E-01  1.84749197E-01 -2.34716986E-02  1.68634890E-07
 -1.28141630E-01 -1.28141689E-01 -2.41575513E-01 -1.60570607E-01 -3.41406263E-02
  9.05057948E-08 -9.69428636E-02 -9.69429241E-02  2.41575511E-01 -1.60570606E-01
 -3.41406253E-02  4.75012912E-08  9.69428798E-02  9.69429080E-02  2.61101429E-01
  1.84749195E-01 -2.34716921E-02 -2.69702524E-08  1.28141662E-01  1.28141648E-01
 -3.50213254E-01  1.51326969E-01 -5.87361697E-02 -4.36025534E-08 -1.85458068E-01
 -2.05938589E-01 -1.85458062E-01  4.06744515E-02  1.80315670E-02 -1.12384721E-01
 -4.02788576E-09  6.13348146E-02  6.13342784E-02 -1.40178393E-02 -1.92516051E-01
 -4.56163173E-02 -2.16634107E-01 -5.34000348E-08 -1.67397789E-01 -1.67397627E-01
  3.45446406E-01  5.47967265E-02 -2.78315702E-01 -1.44575120E-07  2.60534699E-01
  2.60534712E-01 -3.45446398E-01  5.47967365E-02 -2.78315696E-01 -1.57233862E-07
 -2.60534696E-01 -2.60534703E-01  1.92516024E-01 -4.56163121E-02 -2.16634097E-01
 -9.68401426E-08  1.67397683E-01  1.67397701E-01 -4.06744417E-02  1.80315605E-02
 -1.12384710E-01 -5.36110961E-08 -6.13345347E-02  1.40178445E-02 -6.13345398E-02
 -1.98190882E-01 -1.60856198E-01  1.57013309E-01 -1.88611186E-07 -1.54751271E-01
 -1.54750994E-01 -1.08052603E-01  3.64165780E-01  1.37643721E-02  1.77018395E-01
 -1.49401242E-07  2.26583673E-01  2.26583751E-01 -1.86852126E-01  1.29396960E-01
  8.59672710E-02 -6.97319119E-08 -1.11246506E-01 -1.11246435E-01 -1.86852144E-01
 -1.29396960E-01 -8.59672920E-02 -3.06161386E-08 -1.11246480E-01 -1.11246493E-01
  3.64165796E-01 -1.37643689E-02 -1.77018408E-01 -7.34678689E-08  2.26583721E-01
  2.26583726E-01 -1.98190891E-01  1.60856208E-01 -1.57013313E-01 -9.05698252E-08
 -1.54751140E-01 -1.08052606E-01 -1.54751140E-01 -3.58842129E-08 -3.47333276E-07
  9.58224057E-08  2.15902574E-01 -1.16837678E-01  1.16838225E-01 -7.44654990E-07
  2.75444901E-08 -1.34437375E-07 -3.14765132E-08  3.32492406E-01  1.80330466E-01
 -1.80330598E-01  3.80797963E-08  1.11176978E-07 -5.95776232E-08  3.97954647E-01
  2.14623548E-01 -2.14623614E-01 -6.78022830E-08  2.02293691E-07 -1.96624220E-07
  3.97954646E-01 -2.14623608E-01  2.14623551E-01  2.30555490E-08 -8.50092752E-09
 -2.61014207E-07  3.32492406E-01  1.80330591E-01 -1.80330474E-01  3.51036379E-09
 -8.81611734E-09 -1.73261974E-07  2.15902572E-01 -1.16837979E-01  5.91475215E-08
  1.16837922E-01  3.71141722E-08 -1.52816418E-07  5.91378481E-08  3.70603292E-01
 -2.04498915E-01  2.04500155E-01 -1.09894487E-06 -5.98990858E-08 -3.83419295E-07
  2.02470049E-07  3.84681477E-01  2.10763098E-01 -2.10763149E-01  5.52376215E-08
 -2.16257449E-07  4.00403716E-07  1.62607160E-01  8.87409246E-02 -8.87412704E-02
 -2.84783589E-08  5.08413888E-07  6.39423494E-08 -1.62607163E-01  8.87410628E-02
 -8.87411351E-02 -2.18505126E-08 -2.23126472E-07 -3.34700445E-07 -3.84681477E-01
 -2.10762940E-01  2.10763307E-01  1.02989541E-08 -4.11735675E-07 -2.41223461E-07
 -3.70603291E-01  2.04499404E-01  3.60828207E-07 -2.04499665E-01  1.54562569E-02
  3.51380341E-01  1.85581493E-01 -9.99274770E-08 -4.74763863E-02 -4.74749068E-02
  2.78907961E-01 -6.75823883E-02 -3.34039857E-02  3.13490615E-01 -3.59428631E-07
  9.86014972E-02  9.86017060E-02  3.34659108E-02 -3.39021857E-01  1.26653746E-01
 -1.76642362E-07 -4.50217193E-02 -4.50213648E-02  3.34659084E-02  3.39021849E-01
 -1.26653761E-01 -3.99082224E-08 -4.50216092E-02 -4.50214908E-02 -6.75823904E-02
  3.34040037E-02 -3.13490604E-01  2.52028367E-07  9.86018075E-02  9.86013857E-02
  1.54562556E-02 -3.51380329E-01 -1.85581482E-01  4.06471659E-07 -4.74758730E-02
  2.78907948E-01 -4.74754030E-02 -1.40989711E-02  7.68048132E-02  3.71219447E-01
  1.08974219E-07 -1.51709681E-01 -1.51707571E-01  1.98529075E-01  8.09373721E-03
  2.54578940E-01  1.99182815E-01  3.13575795E-07  7.89137362E-02  7.89134657E-02
  1.53914674E-02 -1.75366523E-01 -3.02182345E-01  2.82331975E-07  1.25189258E-01
  1.25188841E-01 -1.53914705E-02 -1.75366539E-01 -3.02182344E-01 -1.67314718E-08
 -1.25189104E-01 -1.25188997E-01 -8.09373303E-03  2.54578940E-01  1.99182837E-01
 -2.46378957E-07 -7.89137644E-02 -7.89134488E-02  1.40989721E-02  7.68048202E-02
  3.71219467E-01 -2.49001851E-07  1.51708848E-01 -1.98529093E-01  1.51708416E-01
 -1.45966845E-08  1.23549419E-07 -4.07971595E-07  4.25477225E-01 -2.45042108E-01
  2.45044045E-01 -1.42310861E-06 -1.90789125E-08 -6.59237488E-07  4.35124440E-07
  1.15775578E-01  6.39755874E-02 -6.39752447E-02  8.06547961E-08 -1.79373442E-07
  4.56454481E-07 -3.29424161E-01 -1.85427890E-01  1.85427706E-01 -1.88562555E-07
 -5.73772102E-08 -3.17665397E-07 -3.29424165E-01  1.85427500E-01 -1.85428099E-01
  1.17942154E-07  1.55925716E-07  1.75718930E-07  1.15775577E-01  6.39753773E-02
 -6.39754533E-02  2.87140138E-08  5.67122742E-07  5.68703061E-07  4.25477230E-01
 -2.45042786E-01 -6.09246563E-07  2.45043374E-01 -3.74197978E-02  4.81187338E-01
 -9.93226421E-03  5.46313795E-08  1.46815876E-02  1.46825173E-02  2.57029649E-01
 -5.76862439E-02 -3.55621381E-01  1.82774543E-01 -1.94240592E-07  6.44780972E-02
  6.44779796E-02  1.14537306E-01  7.94945964E-02  9.39659074E-02  2.47971127E-07
  1.84532488E-02  1.84529808E-02 -1.14537294E-01  7.94945679E-02  9.39659992E-02
  4.61818728E-07 -1.84533190E-02 -1.84528196E-02  5.76862338E-02 -3.55621466E-01
  1.82774577E-01  1.11861829E-07 -6.44780718E-02 -6.44780533E-02  3.74198019E-02
  4.81187355E-01 -9.93238894E-03 -5.57454969E-07 -1.46818350E-02 -2.57029592E-01