 Entering Gaussian System, Link 0=/share/apps/g09/g09
 Input=C6H14_4_01_1_opt_B3L.gjf
 Output=C6H14_4_01_1_opt_B3L.log
 Initial command:
 /share/apps/g09/l1.exe /state/partition1/Gau-1237.inp -scrdir=/state/partition1/
 Entering Link 1 = /share/apps/g09/l1.exe PID=      1238.
  
 Copyright (c) 1988,1990,1992,1993,1995,1998,2003,2009, Gaussian, Inc.
                  All Rights Reserved.
  
 This is part of the Gaussian(R) 09 program.  It is based on
 the Gaussian(R) 03 system (copyright 2003, Gaussian, Inc.),
 the Gaussian(R) 98 system (copyright 1998, Gaussian, Inc.),
 the Gaussian(R) 94 system (copyright 1995, Gaussian, Inc.),
 the Gaussian 92(TM) system (copyright 1992, Gaussian, Inc.),
 the Gaussian 90(TM) system (copyright 1990, Gaussian, Inc.),
 the Gaussian 88(TM) system (copyright 1988, Gaussian, Inc.),
 the Gaussian 86(TM) system (copyright 1986, Carnegie Mellon
 University), and the Gaussian 82(TM) system (copyright 1983,
 Carnegie Mellon University). Gaussian is a federally registered
 trademark of Gaussian, Inc.
  
 This software contains proprietary and confidential information,
 including trade secrets, belonging to Gaussian, Inc.
  
 This software is provided under written license and may be
 used, copied, transmitted, or stored only in accord with that
 written license.
  
 The following legend is applicable only to US Government
 contracts under FAR:
  
                    RESTRICTED RIGHTS LEGEND
  
 Use, reproduction and disclosure by the US Government is
 subject to restrictions as set forth in subparagraphs (a)
 and (c) of the Commercial Computer Software - Restricted
 Rights clause in FAR 52.227-19.
  
 Gaussian, Inc.
 340 Quinnipiac St., Bldg. 40, Wallingford CT 06492
  
  
 ---------------------------------------------------------------
 Warning -- This program may not be used in any manner that
 competes with the business of Gaussian, Inc. or will provide
 assistance to any competitor of Gaussian, Inc.  The licensee
 of this program is prohibited from giving any competitor of
 Gaussian, Inc. access to this program.  By using this program,
 the user acknowledges that Gaussian, Inc. is engaged in the
 business of creating and licensing software in the field of
 computational chemistry and represents and warrants to the
 licensee that it is not a competitor of Gaussian, Inc. and that
 it will not use this program in any manner prohibited above.
 ---------------------------------------------------------------
  

 Cite this work as:
 Gaussian 09, Revision A.01,
 M. J. Frisch, G. W. Trucks, H. B. Schlegel, G. E. Scuseria, 
 M. A. Robb, J. R. Cheeseman, G. Scalmani, V. Barone, B. Mennucci, 
 G. A. Petersson, H. Nakatsuji, M. Caricato, X. Li, H. P. Hratchian, 
 A. F. Izmaylov, J. Bloino, G. Zheng, J. L. Sonnenberg, M. Hada, 
 M. Ehara, K. Toyota, R. Fukuda, J. Hasegawa, M. Ishida, T. Nakajima, 
 Y. Honda, O. Kitao, H. Nakai, T. Vreven, J. A. Montgomery, Jr., 
 J. E. Peralta, F. Ogliaro, M. Bearpark, J. J. Heyd, E. Brothers, 
 K. N. Kudin, V. N. Staroverov, R. Kobayashi, J. Normand, 
 K. Raghavachari, A. Rendell, J. C. Burant, S. S. Iyengar, J. Tomasi, 
 M. Cossi, N. Rega, J. M. Millam, M. Klene, J. E. Knox, J. B. Cross, 
 V. Bakken, C. Adamo, J. Jaramillo, R. Gomperts, R. E. Stratmann, 
 O. Yazyev, A. J. Austin, R. Cammi, C. Pomelli, J. W. Ochterski, 
 R. L. Martin, K. Morokuma, V. G. Zakrzewski, G. A. Voth, 
 P. Salvador, J. J. Dannenberg, S. Dapprich, A. D. Daniels, 
 O. Farkas, J. B. Foresman, J. V. Ortiz, J. Cioslowski, 
 and D. J. Fox, Gaussian, Inc., Wallingford CT, 2009.
 
 ******************************************
 Gaussian 09:  EM64L-G09RevA.01  8-May-2009
                18-Sep-2015 
 ******************************************
 %mem=3GB
 %nprocshared=2
 Will use up to    2 processors via shared memory.
 -----------------------------------------
 #p B3LYP/6-31G(d) opt=tight int=ultrafine
 -----------------------------------------
 1/7=10,14=-1,18=20,19=15,26=3,38=1/1,3;
 2/9=110,12=2,17=6,18=5,40=1/2;
 3/5=1,6=6,7=1,11=2,16=1,25=1,30=1,71=1,74=-5,75=-5/1,2,3;
 4//1;
 5/5=2,38=5/2;
 6/7=2,8=2,9=2,10=2,28=1/1;
 7//1,2,3,16;
 1/7=10,14=-1,18=20,19=15/3(2);
 2/9=110/2;
 99//99;
 2/9=110/2;
 3/5=1,6=6,7=1,11=2,16=1,25=1,30=1,71=1,74=-5,75=-5/1,2,3;
 4/5=5,16=3/1;
 5/5=2,38=5/2;
 7//1,2,3,16;
 1/7=10,14=-1,18=20,19=15/3(-5);
 2/9=110/2;
 6/7=2,8=2,9=2,10=2,19=2,28=1/1;
 99/9=1/99;
 Leave Link    1 at Fri Sep 18 13:24:01 2015, MaxMem=  402653184 cpu:       0.1
 (Enter /share/apps/g09/l101.exe)
 ---------------------------------------------
 using B3LYP/6-31G(d) to do opt and freq calc.
 ---------------------------------------------
 Symbolic Z-matrix:
 Charge =  0 Multiplicity = 1
 C                    -1.80722   0.70991  -0.56979 
 H                    -1.66947   1.28181  -1.49288 
 H                    -1.82974   1.42432   0.26043 
 H                    -2.79386   0.23742  -0.61908 
 C                    -0.70048  -0.3377   -0.38424 
 H                    -0.7336   -1.02776  -1.26621 
 C                     0.70048   0.3377   -0.38424 
 H                     0.7336    1.02776  -1.26621 
 C                     0.96193   1.17404   0.87349 
 H                     1.03354   0.54728   1.76878 
 H                     1.90038   1.73156   0.78909 
 H                     0.15882   1.89909   1.04311 
 C                    -0.96193  -1.17404   0.87349 
 H                    -0.15882  -1.89909   1.04311 
 H                    -1.03354  -0.54728   1.76878 
 H                    -1.90038  -1.73155   0.78909 
 C                     1.80722  -0.70991  -0.56979 
 H                     1.82973  -1.42433   0.26042 
 H                     1.66948  -1.2818   -1.49289 
 H                     2.79386  -0.23743  -0.61906 
 
 NAtoms=     20 NQM=     20 NQMF=      0 NMic=      0 NMicF=      0 NTot=     20.
                    Isotopes and Nuclear Properties:
 (Nuclear quadrupole moments (NQMom) in fm**2, nuclear magnetic moments (NMagM)
  in nuclear magnetons)

  Atom         1           2           3           4           5           6           7           8           9          10
 IAtWgt=          12           1           1           1          12           1          12           1          12           1
 AtmWgt=  12.0000000   1.0078250   1.0078250   1.0078250  12.0000000   1.0078250  12.0000000   1.0078250  12.0000000   1.0078250
 NucSpn=           0           1           1           1           0           1           0           1           0           1
 AtZEff=   0.0000000   0.0000000   0.0000000   0.0000000   0.0000000   0.0000000   0.0000000   0.0000000   0.0000000   0.0000000
 NQMom=    0.0000000   0.0000000   0.0000000   0.0000000   0.0000000   0.0000000   0.0000000   0.0000000   0.0000000   0.0000000
 NMagM=    0.0000000   2.7928460   2.7928460   2.7928460   0.0000000   2.7928460   0.0000000   2.7928460   0.0000000   2.7928460

  Atom        11          12          13          14          15          16          17          18          19          20
 IAtWgt=           1           1          12           1           1           1          12           1           1           1
 AtmWgt=   1.0078250   1.0078250  12.0000000   1.0078250   1.0078250   1.0078250  12.0000000   1.0078250   1.0078250   1.0078250
 NucSpn=           1           1           0           1           1           1           0           1           1           1
 AtZEff=   0.0000000   0.0000000   0.0000000   0.0000000   0.0000000   0.0000000   0.0000000   0.0000000   0.0000000   0.0000000
 NQMom=    0.0000000   0.0000000   0.0000000   0.0000000   0.0000000   0.0000000   0.0000000   0.0000000   0.0000000   0.0000000
 NMagM=    2.7928460   2.7928460   0.0000000   2.7928460   2.7928460   2.7928460   0.0000000   2.7928460   2.7928460   2.7928460
 Leave Link  101 at Fri Sep 18 13:24:01 2015, MaxMem=  402653184 cpu:       0.1
 (Enter /share/apps/g09/l103.exe)

 GradGradGradGradGradGradGradGradGradGradGradGradGradGradGradGradGradGrad
 Berny optimization.
 Initialization pass.
                           ----------------------------
                           !    Initial Parameters    !
                           ! (Angstroms and Degrees)  !
 --------------------------                            --------------------------
 ! Name  Definition              Value          Derivative Info.                !
 --------------------------------------------------------------------------------
 ! R1    R(1,2)                  1.0946         estimate D2E/DX2                !
 ! R2    R(1,3)                  1.0955         estimate D2E/DX2                !
 ! R3    R(1,4)                  1.095          estimate D2E/DX2                !
 ! R4    R(1,5)                  1.5352         estimate D2E/DX2                !
 ! R5    R(5,6)                  1.1203         estimate D2E/DX2                !
 ! R6    R(5,7)                  1.5553         estimate D2E/DX2                !
 ! R7    R(5,13)                 1.5329         estimate D2E/DX2                !
 ! R8    R(7,8)                  1.1203         estimate D2E/DX2                !
 ! R9    R(7,9)                  1.5329         estimate D2E/DX2                !
 ! R10   R(7,17)                 1.5352         estimate D2E/DX2                !
 ! R11   R(9,10)                 1.0952         estimate D2E/DX2                !
 ! R12   R(9,11)                 1.0948         estimate D2E/DX2                !
 ! R13   R(9,12)                 1.0952         estimate D2E/DX2                !
 ! R14   R(13,14)                1.0952         estimate D2E/DX2                !
 ! R15   R(13,15)                1.0952         estimate D2E/DX2                !
 ! R16   R(13,16)                1.0948         estimate D2E/DX2                !
 ! R17   R(17,18)                1.0955         estimate D2E/DX2                !
 ! R18   R(17,19)                1.0946         estimate D2E/DX2                !
 ! R19   R(17,20)                1.095          estimate D2E/DX2                !
 ! A1    A(2,1,3)              107.5149         estimate D2E/DX2                !
 ! A2    A(2,1,4)              107.51           estimate D2E/DX2                !
 ! A3    A(2,1,5)              111.5759         estimate D2E/DX2                !
 ! A4    A(3,1,4)              107.2756         estimate D2E/DX2                !
 ! A5    A(3,1,5)              111.6068         estimate D2E/DX2                !
 ! A6    A(4,1,5)              111.134          estimate D2E/DX2                !
 ! A7    A(1,5,6)              107.6893         estimate D2E/DX2                !
 ! A8    A(1,5,7)              110.6741         estimate D2E/DX2                !
 ! A9    A(1,5,13)             110.3967         estimate D2E/DX2                !
 ! A10   A(6,5,7)              107.1047         estimate D2E/DX2                !
 ! A11   A(6,5,13)             107.7478         estimate D2E/DX2                !
 ! A12   A(7,5,13)             112.9905         estimate D2E/DX2                !
 ! A13   A(5,7,8)              107.1048         estimate D2E/DX2                !
 ! A14   A(5,7,9)              112.9905         estimate D2E/DX2                !
 ! A15   A(5,7,17)             110.6741         estimate D2E/DX2                !
 ! A16   A(8,7,9)              107.7478         estimate D2E/DX2                !
 ! A17   A(8,7,17)             107.6892         estimate D2E/DX2                !
 ! A18   A(9,7,17)             110.3968         estimate D2E/DX2                !
 ! A19   A(7,9,10)             111.6938         estimate D2E/DX2                !
 ! A20   A(7,9,11)             111.1485         estimate D2E/DX2                !
 ! A21   A(7,9,12)             111.2968         estimate D2E/DX2                !
 ! A22   A(10,9,11)            107.3612         estimate D2E/DX2                !
 ! A23   A(10,9,12)            107.4699         estimate D2E/DX2                !
 ! A24   A(11,9,12)            107.6606         estimate D2E/DX2                !
 ! A25   A(5,13,14)            111.2968         estimate D2E/DX2                !
 ! A26   A(5,13,15)            111.6938         estimate D2E/DX2                !
 ! A27   A(5,13,16)            111.1484         estimate D2E/DX2                !
 ! A28   A(14,13,15)           107.4699         estimate D2E/DX2                !
 ! A29   A(14,13,16)           107.6605         estimate D2E/DX2                !
 ! A30   A(15,13,16)           107.3612         estimate D2E/DX2                !
 ! A31   A(7,17,18)            111.6068         estimate D2E/DX2                !
 ! A32   A(7,17,19)            111.5759         estimate D2E/DX2                !
 ! A33   A(7,17,20)            111.1341         estimate D2E/DX2                !
 ! A34   A(18,17,19)           107.515          estimate D2E/DX2                !
 ! A35   A(18,17,20)           107.2755         estimate D2E/DX2                !
 ! A36   A(19,17,20)           107.51           estimate D2E/DX2                !
 ! D1    D(2,1,5,6)            -59.4682         estimate D2E/DX2                !
 ! D2    D(2,1,5,7)             57.2957         estimate D2E/DX2                !
 ! D3    D(2,1,5,13)          -176.852          estimate D2E/DX2                !
 ! D4    D(3,1,5,6)           -179.7804         estimate D2E/DX2                !
 ! D5    D(3,1,5,7)            -63.0165         estimate D2E/DX2                !
 ! D6    D(3,1,5,13)            62.8358         estimate D2E/DX2                !
 ! D7    D(4,1,5,6)             60.514          estimate D2E/DX2                !
 ! D8    D(4,1,5,7)            177.2779         estimate D2E/DX2                !
 ! D9    D(4,1,5,13)           -56.8698         estimate D2E/DX2                !
 ! D10   D(1,5,7,8)            -48.0313         estimate D2E/DX2                !
 ! D11   D(1,5,7,9)             70.4594         estimate D2E/DX2                !
 ! D12   D(1,5,7,17)          -165.1555         estimate D2E/DX2                !
 ! D13   D(6,5,7,8)             69.0929         estimate D2E/DX2                !
 ! D14   D(6,5,7,9)           -172.4163         estimate D2E/DX2                !
 ! D15   D(6,5,7,17)           -48.0313         estimate D2E/DX2                !
 ! D16   D(13,5,7,8)          -172.4163         estimate D2E/DX2                !
 ! D17   D(13,5,7,9)           -53.9256         estimate D2E/DX2                !
 ! D18   D(13,5,7,17)           70.4595         estimate D2E/DX2                !
 ! D19   D(1,5,13,14)         -177.643          estimate D2E/DX2                !
 ! D20   D(1,5,13,15)          -57.5206         estimate D2E/DX2                !
 ! D21   D(1,5,13,16)           62.3621         estimate D2E/DX2                !
 ! D22   D(6,5,13,14)           65.0094         estimate D2E/DX2                !
 ! D23   D(6,5,13,15)         -174.8682         estimate D2E/DX2                !
 ! D24   D(6,5,13,16)          -54.9856         estimate D2E/DX2                !
 ! D25   D(7,5,13,14)          -53.1065         estimate D2E/DX2                !
 ! D26   D(7,5,13,15)           67.0158         estimate D2E/DX2                !
 ! D27   D(7,5,13,16)         -173.1015         estimate D2E/DX2                !
 ! D28   D(5,7,9,10)            67.0163         estimate D2E/DX2                !
 ! D29   D(5,7,9,11)          -173.101          estimate D2E/DX2                !
 ! D30   D(5,7,9,12)           -53.106          estimate D2E/DX2                !
 ! D31   D(8,7,9,10)          -174.8677         estimate D2E/DX2                !
 ! D32   D(8,7,9,11)           -54.985          estimate D2E/DX2                !
 ! D33   D(8,7,9,12)            65.01           estimate D2E/DX2                !
 ! D34   D(17,7,9,10)          -57.5201         estimate D2E/DX2                !
 ! D35   D(17,7,9,11)           62.3625         estimate D2E/DX2                !
 ! D36   D(17,7,9,12)         -177.6424         estimate D2E/DX2                !
 ! D37   D(5,7,17,18)          -63.0154         estimate D2E/DX2                !
 ! D38   D(5,7,17,19)           57.2968         estimate D2E/DX2                !
 ! D39   D(5,7,17,20)          177.279          estimate D2E/DX2                !
 ! D40   D(8,7,17,18)         -179.7794         estimate D2E/DX2                !
 ! D41   D(8,7,17,19)          -59.4672         estimate D2E/DX2                !
 ! D42   D(8,7,17,20)           60.515          estimate D2E/DX2                !
 ! D43   D(9,7,17,18)           62.8369         estimate D2E/DX2                !
 ! D44   D(9,7,17,19)         -176.8509         estimate D2E/DX2                !
 ! D45   D(9,7,17,20)          -56.8687         estimate D2E/DX2                !
 --------------------------------------------------------------------------------
 Trust Radius=3.00D-01 FncErr=1.00D-07 GrdErr=1.00D-06
 Number of steps in this run= 110 maximum allowed number of steps= 120.
 GradGradGradGradGradGradGradGradGradGradGradGradGradGradGradGradGradGrad

 Leave Link  103 at Fri Sep 18 13:24:01 2015, MaxMem=  402653184 cpu:       0.0
 (Enter /share/apps/g09/l202.exe)
                          Input orientation:                          
 ---------------------------------------------------------------------
 Center     Atomic      Atomic             Coordinates (Angstroms)
 Number     Number       Type             X           Y           Z
 ---------------------------------------------------------------------
      1          6           0       -1.807222    0.709909   -0.569789
      2          1           0       -1.669466    1.281813   -1.492875
      3          1           0       -1.829741    1.424320    0.260426
      4          1           0       -2.793855    0.237423   -0.619078
      5          6           0       -0.700475   -0.337697   -0.384244
      6          1           0       -0.733603   -1.027763   -1.266214
      7          6           0        0.700475    0.337697   -0.384244
      8          1           0        0.733604    1.027763   -1.266214
      9          6           0        0.961932    1.174037    0.873493
     10          1           0        1.033544    0.547278    1.768779
     11          1           0        1.900379    1.731560    0.789089
     12          1           0        0.158818    1.899087    1.043111
     13          6           0       -0.961932   -1.174037    0.873494
     14          1           0       -0.158823   -1.899093    1.043106
     15          1           0       -1.033535   -0.547278    1.768781
     16          1           0       -1.900383   -1.731553    0.789093
     17          6           0        1.807222   -0.709909   -0.569789
     18          1           0        1.829729   -1.424332    0.260417
     19          1           0        1.669476   -1.281800   -1.492885
     20          1           0        2.793857   -0.237426   -0.619059
 ---------------------------------------------------------------------
                    Distance matrix (angstroms):
                    1          2          3          4          5
     1  C    0.000000
     2  H    1.094595   0.000000
     3  H    1.095512   1.766369   0.000000
     4  H    1.095042   1.765934   1.764020   0.000000
     5  C    1.535185   2.188794   2.189873   2.183609   0.000000
     6  H    2.158048   2.502270   3.089476   2.502822   1.120339
     7  C    2.541951   2.781553   2.828134   3.503647   1.555255
     8  H    2.653646   2.427069   3.009755   3.672382   2.167703
     9  C    3.157007   3.540560   2.869134   4.148608   2.575042
    10  H    3.683110   4.299325   3.353018   4.521820   2.902673
    11  H    4.078802   4.260684   3.779904   5.123594   3.524624
    12  H    2.807295   3.186671   2.189147   3.773894   2.789073
    13  C    2.519292   3.483031   2.807206   2.752441   1.532883
    14  H    3.482175   4.339517   3.801267   3.777691   2.183729
    15  H    2.765505   3.793202   2.606967   3.068608   2.188691
    16  H    2.795707   3.786961   3.200627   2.580330   2.181590
    17  C    3.883309   4.111740   4.297870   4.697848   2.541951
    18  H    4.297864   4.758321   4.637514   4.991239   2.828126
    19  H    4.111744   4.209590   4.758330   4.795091   2.781561
    20  H    4.697850   4.795091   4.991248   5.607852   3.503648
                    6          7          8          9         10
     6  H    0.000000
     7  C    2.167702   0.000000
     8  H    2.525447   1.120339   0.000000
     9  C    3.507294   1.532882   2.156821   0.000000
    10  H    3.848993   2.188691   3.087396   1.095213   0.000000
    11  H    4.333128   2.181590   2.465961   1.094824   1.764573
    12  H    3.833516   2.183729   2.534278   1.095199   1.766105
    13  C    2.156822   2.575042   3.507295   3.035573   2.783233
    14  H    2.534274   2.789077   3.833519   3.275513   2.816571
    15  H    3.087397   2.902669   3.848991   2.783227   2.338989
    16  H    2.465965   3.524624   4.333128   4.079513   3.841976
    17  C    2.653645   1.535185   2.158047   2.519292   2.765501
    18  H    3.009741   2.189874   3.089476   2.807215   2.606974
    19  H    2.427077   2.188794   2.502262   3.483030   3.793203
    20  H    3.672386   2.183610   2.502829   2.752433   3.068588
                   11         12         13         14         15
    11  H    0.000000
    12  H    1.767944   0.000000
    13  C    4.079515   3.275506   0.000000
    14  H    4.181684   3.811439   1.095198   0.000000
    15  H    3.841972   2.816559   1.095214   1.766106   0.000000
    16  H    5.141881   4.181672   1.094823   1.767943   1.764574
    17  C    2.795711   3.482175   3.157007   2.807298   3.683105
    18  H    3.200647   3.801272   2.869126   2.189141   3.353009
    19  H    3.786959   4.339517   3.540575   3.186688   4.299332
    20  H    2.580327   3.777688   4.148603   3.773890   4.521805
                   16         17         18         19         20
    16  H    0.000000
    17  C    4.078805   0.000000
    18  H    3.779897   1.095513   0.000000
    19  H    4.260704   1.094596   1.766370   0.000000
    20  H    5.123592   1.095042   1.764020   1.765934   0.000000
 Stoichiometry    C6H14
 Framework group  C1[X(C6H14)]
 Deg. of freedom    54
 Full point group                 C1      NOp   1
 Largest Abelian subgroup         C1      NOp   1
 Largest concise Abelian subgroup C1      NOp   1
                         Standard orientation:                         
 ---------------------------------------------------------------------
 Center     Atomic      Atomic             Coordinates (Angstroms)
 Number     Number       Type             X           Y           Z
 ---------------------------------------------------------------------
      1          6           0        1.807222   -0.709909   -0.569789
      2          1           0        1.669466   -1.281813   -1.492875
      3          1           0        1.829741   -1.424320    0.260426
      4          1           0        2.793855   -0.237423   -0.619078
      5          6           0        0.700475    0.337697   -0.384244
      6          1           0        0.733603    1.027763   -1.266214
      7          6           0       -0.700475   -0.337697   -0.384244
      8          1           0       -0.733604   -1.027763   -1.266214
      9          6           0       -0.961932   -1.174037    0.873493
     10          1           0       -1.033544   -0.547278    1.768779
     11          1           0       -1.900379   -1.731560    0.789089
     12          1           0       -0.158818   -1.899087    1.043111
     13          6           0        0.961932    1.174037    0.873494
     14          1           0        0.158823    1.899093    1.043106
     15          1           0        1.033535    0.547278    1.768781
     16          1           0        1.900383    1.731553    0.789093
     17          6           0       -1.807222    0.709909   -0.569789
     18          1           0       -1.829729    1.424332    0.260417
     19          1           0       -1.669476    1.281800   -1.492885
     20          1           0       -2.793857    0.237426   -0.619059
 ---------------------------------------------------------------------
 Rotational constants (GHZ):      4.2296436      2.5386671      2.2712663
 Leave Link  202 at Fri Sep 18 13:24:01 2015, MaxMem=  402653184 cpu:       0.0
 (Enter /share/apps/g09/l301.exe)
 Standard basis: 6-31G(d) (6D, 7F)
 Ernie: Thresh=  0.10000D-02 Tol=  0.10000D-05 Strict=F.
 There are   118 symmetry adapted basis functions of A   symmetry.
 Integral buffers will be    131072 words long.
 Raffenetti 2 integral format.
 Two-electron integral symmetry is turned on.
   118 basis functions,   224 primitive gaussians,   118 cartesian basis functions
    25 alpha electrons       25 beta electrons
       nuclear repulsion energy       263.5088871059 Hartrees.
 IExCor=  402 DFT=T Ex+Corr=B3LYP ExCW=0 ScaHFX=  0.200000
 ScaDFX=  0.800000  0.720000  1.000000  0.810000 ScalE2=  1.000000  1.000000
 IRadAn=      5 IRanWt=     -1 IRanGd=            0 ICorTp=0
 NAtoms=   20 NActive=   20 NUniq=   20 SFac= 7.50D-01 NAtFMM=   80 NAOKFM=F Big=F
 Leave Link  301 at Fri Sep 18 13:24:01 2015, MaxMem=  402653184 cpu:       0.1
 (Enter /share/apps/g09/l302.exe)
 NPDir=0 NMtPBC=     1 NCelOv=     1 NCel=       1 NClECP=     1 NCelD=      1
         NCelK=      1 NCelE2=     1 NClLst=     1 CellRange=     0.0.
 One-electron integrals computed using PRISM.
 NBasis=   118 RedAO= T  NBF=   118
 NBsUse=   118 1.00D-06 NBFU=   118
 Precomputing XC quadrature grid using
 IXCGrd= 2 IRadAn=           5 IRanWt=          -1 IRanGd=           0 AccXCQ= 1.00D-10.
 NRdTot=    1640 NPtTot=      438216 NUsed=      449969 NTot=      450001
 NSgBfM=   118   118   118   118   118 NAtAll=    20    20.
 Leave Link  302 at Fri Sep 18 13:24:02 2015, MaxMem=  402653184 cpu:       1.2
 (Enter /share/apps/g09/l303.exe)
 DipDrv:  MaxL=1.
 Leave Link  303 at Fri Sep 18 13:24:02 2015, MaxMem=  402653184 cpu:       0.0
 (Enter /share/apps/g09/l401.exe)
 Harris functional with IExCor=  402 diagonalized for initial guess.
 ExpMin= 1.61D-01 ExpMax= 3.05D+03 ExpMxC= 4.57D+02 IAcc=3 IRadAn=         5 AccDes= 0.00D+00
 HarFok:  IExCor=  402 AccDes= 0.00D+00 IRadAn=         5 IDoV= 1
 ScaDFX=  1.000000  1.000000  1.000000  1.000000
 FoFCou: FMM=F IPFlag=           0 FMFlag=      100000 FMFlg1=           0
         NFxFlg=           0 DoJE=T BraDBF=F KetDBF=T FulRan=T
         Omega=  0.000000  0.000000  1.000000  0.000000  0.000000 ICntrl=     500 IOpCl=  0
         NMat0=    1 NMatS0=    1 NMatT0=    0 NMatD0=    1 NMtDS0=    0 NMtDT0=    0
         I1Cent=           4 NGrid=           0.
 Petite list used in FoFCou.
 Harris En= -237.177511317825    
 Initial guess orbital symmetries:
       Occupied  (A) (A) (A) (A) (A) (A) (A) (A) (A) (A) (A) (A)
                 (A) (A) (A) (A) (A) (A) (A) (A) (A) (A) (A) (A)
                 (A)
       Virtual   (A) (A) (A) (A) (A) (A) (A) (A) (A) (A) (A) (A)
                 (A) (A) (A) (A) (A) (A) (A) (A) (A) (A) (A) (A)
                 (A) (A) (A) (A) (A) (A) (A) (A) (A) (A) (A) (A)
                 (A) (A) (A) (A) (A) (A) (A) (A) (A) (A) (A) (A)
                 (A) (A) (A) (A) (A) (A) (A) (A) (A) (A) (A) (A)
                 (A) (A) (A) (A) (A) (A) (A) (A) (A) (A) (A) (A)
                 (A) (A) (A) (A) (A) (A) (A) (A) (A) (A) (A) (A)
                 (A) (A) (A) (A) (A) (A) (A) (A) (A)
 The electronic state of the initial guess is 1-A.
 Leave Link  401 at Fri Sep 18 13:24:07 2015, MaxMem=  402653184 cpu:      10.5
 (Enter /share/apps/g09/l502.exe)
 Closed shell SCF:
 Requested convergence on RMS density matrix=1.00D-08 within 128 cycles.
 Requested convergence on MAX density matrix=1.00D-06.
 Requested convergence on             energy=1.00D-06.
 No special actions if energy rises.
 Using DIIS extrapolation, IDIIS=  1040.
 Integral symmetry usage will be decided dynamically.
       449776 words used for storage of precomputed grid.
 Keep R1 ints in memory in canonical form, NReq=26103831.
 IEnd=      511320 IEndB=      511320 NGot=   402653184 MDV=   377521788
 LenX=   377521788 LenY=   377507423
 Symmetry not used in FoFDir.
 MinBra= 0 MaxBra= 2 Meth= 1.
 IRaf=       0 NMat=   1 IRICut=       1 DoRegI=T DoRafI=F ISym2E= 0 JSym2E=0.
 Integral accuracy reduced to 1.0D-05 until final iterations.

 Cycle   1  Pass 0  IDiag  1:
 E= -236.787061916373    
 DIIS: error= 5.03D-02 at cycle   1 NSaved=   1.
 NSaved= 1 IEnMin= 1 EnMin= -236.787061916373     IErMin= 1 ErrMin= 5.03D-02
 ErrMax= 5.03D-02 EMaxC= 1.00D-01 BMatC= 2.63D-01 BMatP= 2.63D-01
 IDIUse=3 WtCom= 4.97D-01 WtEn= 5.03D-01
 Coeff-Com:  0.100D+01
 Coeff-En:   0.100D+01
 Coeff:      0.100D+01
 Gap=     0.320 Goal=   None    Shift=    0.000
 GapD=    0.320 DampG=1.000 DampE=0.500 DampFc=0.5000 IDamp=-1.
 Damping current iteration by 5.00D-01
 RMSDP=1.03D-02 MaxDP=1.54D-01              OVMax= 1.80D-01

 Cycle   2  Pass 0  IDiag  1:
 E= -236.914684736446     Delta-E=       -0.127622820073 Rises=F Damp=T
 DIIS: error= 8.30D-03 at cycle   2 NSaved=   2.
 NSaved= 2 IEnMin= 2 EnMin= -236.914684736446     IErMin= 2 ErrMin= 8.30D-03
 ErrMax= 8.30D-03 EMaxC= 1.00D-01 BMatC= 1.09D-02 BMatP= 2.63D-01
 IDIUse=3 WtCom= 9.17D-01 WtEn= 8.30D-02
 Coeff-Com:  0.917D-01 0.908D+00
 Coeff-En:   0.153D+00 0.847D+00
 Coeff:      0.968D-01 0.903D+00
 Gap=     0.390 Goal=   None    Shift=    0.000
 RMSDP=1.82D-03 MaxDP=2.67D-02 DE=-1.28D-01 OVMax= 1.07D-01

 Cycle   3  Pass 0  IDiag  1:
 E= -237.079631031242     Delta-E=       -0.164946294796 Rises=F Damp=F
 DIIS: error= 3.50D-03 at cycle   3 NSaved=   3.
 NSaved= 3 IEnMin= 3 EnMin= -237.079631031242     IErMin= 3 ErrMin= 3.50D-03
 ErrMax= 3.50D-03 EMaxC= 1.00D-01 BMatC= 1.76D-03 BMatP= 1.09D-02
 IDIUse=3 WtCom= 9.65D-01 WtEn= 3.50D-02
 Coeff-Com:  0.141D-01 0.241D+00 0.745D+00
 Coeff-En:   0.000D+00 0.000D+00 0.100D+01
 Coeff:      0.136D-01 0.233D+00 0.754D+00
 Gap=     0.377 Goal=   None    Shift=    0.000
 RMSDP=6.18D-04 MaxDP=1.04D-02 DE=-1.65D-01 OVMax= 1.18D-02

 Cycle   4  Pass 0  IDiag  1:
 E= -237.080712833696     Delta-E=       -0.001081802454 Rises=F Damp=F
 DIIS: error= 1.84D-03 at cycle   4 NSaved=   4.
 NSaved= 4 IEnMin= 4 EnMin= -237.080712833696     IErMin= 4 ErrMin= 1.84D-03
 ErrMax= 1.84D-03 EMaxC= 1.00D-01 BMatC= 6.68D-04 BMatP= 1.76D-03
 IDIUse=3 WtCom= 9.82D-01 WtEn= 1.84D-02
 Coeff-Com:  0.350D-03 0.351D-01 0.384D+00 0.580D+00
 Coeff-En:   0.000D+00 0.000D+00 0.263D+00 0.737D+00
 Coeff:      0.344D-03 0.344D-01 0.382D+00 0.583D+00
 Gap=     0.381 Goal=   None    Shift=    0.000
 RMSDP=2.29D-04 MaxDP=4.28D-03 DE=-1.08D-03 OVMax= 5.50D-03

 Cycle   5  Pass 0  IDiag  1:
 E= -237.081337104340     Delta-E=       -0.000624270644 Rises=F Damp=F
 DIIS: error= 3.50D-04 at cycle   5 NSaved=   5.
 NSaved= 5 IEnMin= 5 EnMin= -237.081337104340     IErMin= 5 ErrMin= 3.50D-04
 ErrMax= 3.50D-04 EMaxC= 1.00D-01 BMatC= 1.84D-05 BMatP= 6.68D-04
 IDIUse=3 WtCom= 9.97D-01 WtEn= 3.50D-03
 Coeff-Com:  0.390D-04-0.982D-03 0.102D+00 0.225D+00 0.675D+00
 Coeff-En:   0.000D+00 0.000D+00 0.000D+00 0.000D+00 0.100D+01
 Coeff:      0.389D-04-0.979D-03 0.101D+00 0.224D+00 0.676D+00
 Gap=     0.381 Goal=   None    Shift=    0.000
 RMSDP=4.10D-05 MaxDP=6.05D-04 DE=-6.24D-04 OVMax= 8.45D-04

 Cycle   6  Pass 0  IDiag  1:
 E= -237.081354219421     Delta-E=       -0.000017115080 Rises=F Damp=F
 DIIS: error= 5.33D-05 at cycle   6 NSaved=   6.
 NSaved= 6 IEnMin= 6 EnMin= -237.081354219421     IErMin= 6 ErrMin= 5.33D-05
 ErrMax= 5.33D-05 EMaxC= 1.00D-01 BMatC= 2.99D-07 BMatP= 1.84D-05
 IDIUse=1 WtCom= 1.00D+00 WtEn= 0.00D+00
 Coeff-Com:  0.131D-03-0.113D-02 0.264D-01 0.630D-01 0.233D+00 0.679D+00
 Coeff:      0.131D-03-0.113D-02 0.264D-01 0.630D-01 0.233D+00 0.679D+00
 Gap=     0.381 Goal=   None    Shift=    0.000
 RMSDP=8.54D-06 MaxDP=8.41D-05 DE=-1.71D-05 OVMax= 1.50D-04

 Initial convergence to 1.0D-05 achieved.  Increase integral accuracy.
 Cycle   7  Pass 1  IDiag  1:
 E= -237.081346178531     Delta-E=        0.000008040890 Rises=F Damp=F
 DIIS: error= 1.18D-05 at cycle   1 NSaved=   1.
 NSaved= 1 IEnMin= 1 EnMin= -237.081346178531     IErMin= 1 ErrMin= 1.18D-05
 ErrMax= 1.18D-05 EMaxC= 1.00D-01 BMatC= 1.66D-08 BMatP= 1.66D-08
 IDIUse=1 WtCom= 1.00D+00 WtEn= 0.00D+00
 Coeff-Com:  0.100D+01
 Coeff:      0.100D+01
 Gap=     0.381 Goal=   None    Shift=    0.000
 RMSDP=8.54D-06 MaxDP=8.41D-05 DE= 8.04D-06 OVMax= 4.36D-05

 Cycle   8  Pass 1  IDiag  1:
 E= -237.081346180575     Delta-E=       -0.000000002044 Rises=F Damp=F
 DIIS: error= 1.21D-05 at cycle   2 NSaved=   2.
 NSaved= 2 IEnMin= 2 EnMin= -237.081346180575     IErMin= 1 ErrMin= 1.18D-05
 ErrMax= 1.21D-05 EMaxC= 1.00D-01 BMatC= 1.66D-08 BMatP= 1.66D-08
 IDIUse=1 WtCom= 1.00D+00 WtEn= 0.00D+00
 Coeff-Com:  0.500D+00 0.500D+00
 Coeff:      0.500D+00 0.500D+00
 Gap=     0.381 Goal=   None    Shift=    0.000
 RMSDP=1.13D-06 MaxDP=2.05D-05 DE=-2.04D-09 OVMax= 2.47D-05

 Cycle   9  Pass 1  IDiag  1:
 E= -237.081346196982     Delta-E=       -0.000000016407 Rises=F Damp=F
 DIIS: error= 1.55D-06 at cycle   3 NSaved=   3.
 NSaved= 3 IEnMin= 3 EnMin= -237.081346196982     IErMin= 3 ErrMin= 1.55D-06
 ErrMax= 1.55D-06 EMaxC= 1.00D-01 BMatC= 2.68D-10 BMatP= 1.66D-08
 IDIUse=1 WtCom= 1.00D+00 WtEn= 0.00D+00
 Coeff-Com:  0.497D-02 0.109D+00 0.886D+00
 Coeff:      0.497D-02 0.109D+00 0.886D+00
 Gap=     0.381 Goal=   None    Shift=    0.000
 RMSDP=1.35D-07 MaxDP=2.70D-06 DE=-1.64D-08 OVMax= 2.83D-06

 Cycle  10  Pass 1  IDiag  1:
 E= -237.081346197233     Delta-E=       -0.000000000252 Rises=F Damp=F
 DIIS: error= 2.53D-07 at cycle   4 NSaved=   4.
 NSaved= 4 IEnMin= 4 EnMin= -237.081346197233     IErMin= 4 ErrMin= 2.53D-07
 ErrMax= 2.53D-07 EMaxC= 1.00D-01 BMatC= 8.54D-12 BMatP= 2.68D-10
 IDIUse=1 WtCom= 1.00D+00 WtEn= 0.00D+00
 Coeff-Com: -0.994D-02 0.246D-01 0.278D+00 0.707D+00
 Coeff:     -0.994D-02 0.246D-01 0.278D+00 0.707D+00
 Gap=     0.381 Goal=   None    Shift=    0.000
 RMSDP=4.46D-08 MaxDP=4.76D-07 DE=-2.52D-10 OVMax= 8.06D-07

 Cycle  11  Pass 1  IDiag  1:
 E= -237.081346197242     Delta-E=       -0.000000000009 Rises=F Damp=F
 DIIS: error= 4.83D-08 at cycle   5 NSaved=   5.
 NSaved= 5 IEnMin= 5 EnMin= -237.081346197242     IErMin= 5 ErrMin= 4.83D-08
 ErrMax= 4.83D-08 EMaxC= 1.00D-01 BMatC= 3.65D-13 BMatP= 8.54D-12
 IDIUse=1 WtCom= 1.00D+00 WtEn= 0.00D+00
 Coeff-Com: -0.368D-02 0.613D-02 0.767D-01 0.257D+00 0.664D+00
 Coeff:     -0.368D-02 0.613D-02 0.767D-01 0.257D+00 0.664D+00
 Gap=     0.381 Goal=   None    Shift=    0.000
 RMSDP=7.20D-09 MaxDP=8.72D-08 DE=-8.87D-12 OVMax= 1.32D-07

 SCF Done:  E(RB3LYP) =  -237.081346197     A.U. after   11 cycles
             Convg  =    0.7196D-08             -V/T =  2.0104
 KE= 2.346367559458D+02 PE=-1.073944323939D+03 EE= 3.387173346905D+02
 Leave Link  502 at Fri Sep 18 13:25:00 2015, MaxMem=  402653184 cpu:     105.2
 (Enter /share/apps/g09/l601.exe)
 Copying SCF densities to generalized density rwf, IOpCl= 0 IROHF=0.

 **********************************************************************

            Population analysis using the SCF density.

 **********************************************************************

 Orbital symmetries:
       Occupied  (A) (A) (A) (A) (A) (A) (A) (A) (A) (A) (A) (A)
                 (A) (A) (A) (A) (A) (A) (A) (A) (A) (A) (A) (A)
                 (A)
       Virtual   (A) (A) (A) (A) (A) (A) (A) (A) (A) (A) (A) (A)
                 (A) (A) (A) (A) (A) (A) (A) (A) (A) (A) (A) (A)
                 (A) (A) (A) (A) (A) (A) (A) (A) (A) (A) (A) (A)
                 (A) (A) (A) (A) (A) (A) (A) (A) (A) (A) (A) (A)
                 (A) (A) (A) (A) (A) (A) (A) (A) (A) (A) (A) (A)
                 (A) (A) (A) (A) (A) (A) (A) (A) (A) (A) (A) (A)
                 (A) (A) (A) (A) (A) (A) (A) (A) (A) (A) (A) (A)
                 (A) (A) (A) (A) (A) (A) (A) (A) (A)
 The electronic state is 1-A.
 Alpha  occ. eigenvalues --  -10.18371 -10.18352 -10.16728 -10.16728 -10.16673
 Alpha  occ. eigenvalues --  -10.16673  -0.81227  -0.73981  -0.68055  -0.67373
 Alpha  occ. eigenvalues --   -0.60466  -0.52881  -0.46526  -0.44219  -0.43644
 Alpha  occ. eigenvalues --   -0.40127  -0.39577  -0.38196  -0.36989  -0.36914
 Alpha  occ. eigenvalues --   -0.34201  -0.34079  -0.30971  -0.30786  -0.30049
 Alpha virt. eigenvalues --    0.08027   0.12139   0.12187   0.13659   0.14298
 Alpha virt. eigenvalues --    0.14976   0.16735   0.17362   0.18093   0.18516
 Alpha virt. eigenvalues --    0.20590   0.20858   0.21757   0.23811   0.24023
 Alpha virt. eigenvalues --    0.24741   0.27254   0.28332   0.29012   0.50457
 Alpha virt. eigenvalues --    0.50635   0.51200   0.51301   0.54386   0.57156
 Alpha virt. eigenvalues --    0.61854   0.62373   0.65891   0.66698   0.70472
 Alpha virt. eigenvalues --    0.74236   0.77135   0.77617   0.78496   0.81873
 Alpha virt. eigenvalues --    0.86443   0.87826   0.89021   0.89709   0.90582
 Alpha virt. eigenvalues --    0.90811   0.92665   0.93982   0.94712   0.96325
 Alpha virt. eigenvalues --    0.96654   0.98857   0.99637   1.00745   1.02100
 Alpha virt. eigenvalues --    1.04143   1.04510   1.29518   1.37098   1.41230
 Alpha virt. eigenvalues --    1.41442   1.56884   1.60615   1.66216   1.69542
 Alpha virt. eigenvalues --    1.71202   1.77189   1.79919   1.83872   1.90311
 Alpha virt. eigenvalues --    1.90475   1.97956   2.01876   2.03215   2.06526
 Alpha virt. eigenvalues --    2.09755   2.11129   2.11813   2.17601   2.25811
 Alpha virt. eigenvalues --    2.27176   2.27937   2.28479   2.37879   2.39295
 Alpha virt. eigenvalues --    2.41878   2.50168   2.57033   2.58629   2.73900
 Alpha virt. eigenvalues --    2.74289   2.78131   4.12789   4.26473   4.28860
 Alpha virt. eigenvalues --    4.31103   4.50274   4.62212
          Condensed to atoms (all electrons):
              1          2          3          4          5          6
     1  C    5.118420   0.369583   0.371931   0.367760   0.377044  -0.045082
     2  H    0.369583   0.581268  -0.032230  -0.030748  -0.029997  -0.003350
     3  H    0.371931  -0.032230   0.579136  -0.031637  -0.032538   0.005590
     4  H    0.367760  -0.030748  -0.031637   0.584724  -0.029317  -0.003609
     5  C    0.377044  -0.029997  -0.032538  -0.029317   4.872629   0.376613
     6  H   -0.045082  -0.003350   0.005590  -0.003609   0.376613   0.648920
     7  C   -0.044641  -0.004430  -0.006921   0.004801   0.389935  -0.045923
     8  H   -0.006532   0.006006  -0.000208   0.000044  -0.045923  -0.002347
     9  C   -0.006740  -0.000153   0.001629   0.000084  -0.045085   0.005753
    10  H    0.000099   0.000022   0.000077  -0.000011  -0.007573   0.000003
    11  H    0.000032  -0.000027  -0.000137   0.000002   0.004943  -0.000145
    12  H    0.001851   0.000162   0.004971  -0.000164  -0.004533  -0.000002
    13  C   -0.056355   0.005435  -0.005724  -0.003340   0.376255  -0.047732
    14  H    0.005409  -0.000193  -0.000029  -0.000052  -0.032911  -0.002483
    15  H   -0.005832   0.000014   0.004832  -0.000222  -0.032877   0.005592
    16  H   -0.003506  -0.000061  -0.000233   0.003813  -0.027845  -0.004512
    17  C    0.004863   0.000059   0.000045  -0.000171  -0.044641  -0.006532
    18  H    0.000045   0.000003  -0.000001   0.000003  -0.006921  -0.000208
    19  H    0.000059  -0.000013   0.000003  -0.000005  -0.004430   0.006006
    20  H   -0.000171  -0.000005   0.000003   0.000003   0.004801   0.000044
              7          8          9         10         11         12
     1  C   -0.044641  -0.006532  -0.006740   0.000099   0.000032   0.001851
     2  H   -0.004430   0.006006  -0.000153   0.000022  -0.000027   0.000162
     3  H   -0.006921  -0.000208   0.001629   0.000077  -0.000137   0.004971
     4  H    0.004801   0.000044   0.000084  -0.000011   0.000002  -0.000164
     5  C    0.389935  -0.045923  -0.045085  -0.007573   0.004943  -0.004533
     6  H   -0.045923  -0.002347   0.005753   0.000003  -0.000145  -0.000002
     7  C    4.872629   0.376613   0.376255  -0.032877  -0.027845  -0.032911
     8  H    0.376613   0.648920  -0.047732   0.005592  -0.004512  -0.002483
     9  C    0.376255  -0.047732   5.120081   0.374200   0.370182   0.370271
    10  H   -0.032877   0.005592   0.374200   0.577041  -0.032232  -0.032171
    11  H   -0.027845  -0.004512   0.370182  -0.032232   0.579431  -0.029944
    12  H   -0.032911  -0.002483   0.370271  -0.032171  -0.029944   0.577447
    13  C   -0.045085   0.005753  -0.009659   0.003586   0.000165  -0.000756
    14  H   -0.004533  -0.000002  -0.000756   0.000497  -0.000040   0.000108
    15  H   -0.007573   0.000003   0.003586   0.001314  -0.000050   0.000497
    16  H    0.004943  -0.000145   0.000165  -0.000050  -0.000002  -0.000040
    17  C    0.377044  -0.045082  -0.056355  -0.005832  -0.003506   0.005409
    18  H   -0.032538   0.005590  -0.005724   0.004832  -0.000233  -0.000029
    19  H   -0.029997  -0.003351   0.005435   0.000014  -0.000061  -0.000193
    20  H   -0.029317  -0.003609  -0.003340  -0.000222   0.003813  -0.000052
             13         14         15         16         17         18
     1  C   -0.056355   0.005409  -0.005832  -0.003506   0.004863   0.000045
     2  H    0.005435  -0.000193   0.000014  -0.000061   0.000059   0.000003
     3  H   -0.005724  -0.000029   0.004832  -0.000233   0.000045  -0.000001
     4  H   -0.003340  -0.000052  -0.000222   0.003813  -0.000171   0.000003
     5  C    0.376255  -0.032911  -0.032877  -0.027845  -0.044641  -0.006921
     6  H   -0.047732  -0.002483   0.005592  -0.004512  -0.006532  -0.000208
     7  C   -0.045085  -0.004533  -0.007573   0.004943   0.377044  -0.032538
     8  H    0.005753  -0.000002   0.000003  -0.000145  -0.045082   0.005590
     9  C   -0.009659  -0.000756   0.003586   0.000165  -0.056355  -0.005724
    10  H    0.003586   0.000497   0.001314  -0.000050  -0.005832   0.004832
    11  H    0.000165  -0.000040  -0.000050  -0.000002  -0.003506  -0.000233
    12  H   -0.000756   0.000108   0.000497  -0.000040   0.005409  -0.000029
    13  C    5.120081   0.370271   0.374200   0.370182  -0.006740   0.001629
    14  H    0.370271   0.577446  -0.032171  -0.029944   0.001851   0.004971
    15  H    0.374200  -0.032171   0.577041  -0.032232   0.000099   0.000077
    16  H    0.370182  -0.029944  -0.032232   0.579431   0.000032  -0.000137
    17  C   -0.006740   0.001851   0.000099   0.000032   5.118421   0.371931
    18  H    0.001629   0.004971   0.000077  -0.000137   0.371931   0.579137
    19  H   -0.000153   0.000162   0.000022  -0.000027   0.369583  -0.032230
    20  H    0.000084  -0.000164  -0.000011   0.000002   0.367760  -0.031638
             19         20
     1  C    0.000059  -0.000171
     2  H   -0.000013  -0.000005
     3  H    0.000003   0.000003
     4  H   -0.000005   0.000003
     5  C   -0.004430   0.004801
     6  H    0.006006   0.000044
     7  C   -0.029997  -0.029317
     8  H   -0.003351  -0.003609
     9  C    0.005435  -0.003340
    10  H    0.000014  -0.000222
    11  H   -0.000061   0.003813
    12  H   -0.000193  -0.000052
    13  C   -0.000153   0.000084
    14  H    0.000162  -0.000164
    15  H    0.000022  -0.000011
    16  H   -0.000027   0.000002
    17  C    0.369583   0.367760
    18  H   -0.032230  -0.031638
    19  H    0.581268  -0.030748
    20  H   -0.030748   0.584724
 Mulliken atomic charges:
              1
     1  C   -0.448238
     2  H    0.138657
     3  H    0.141441
     4  H    0.138042
     5  C   -0.057629
     6  H    0.113403
     7  C   -0.057628
     8  H    0.113403
     9  C   -0.452097
    10  H    0.143690
    11  H    0.140167
    12  H    0.142564
    13  C   -0.452097
    14  H    0.142564
    15  H    0.143690
    16  H    0.140167
    17  C   -0.448238
    18  H    0.141441
    19  H    0.138657
    20  H    0.138042
 Sum of Mulliken atomic charges =   0.00000
 Mulliken charges with hydrogens summed into heavy atoms:
              1
     1  C   -0.030099
     5  C    0.055774
     7  C    0.055775
     9  C   -0.025676
    13  C   -0.025675
    17  C   -0.030099
 Sum of Mulliken charges with hydrogens summed into heavy atoms =   0.00000
 Electronic spatial extent (au):  <R**2>=            717.7285
 Charge=              0.0000 electrons
 Dipole moment (field-independent basis, Debye):
    X=              0.0000    Y=              0.0000    Z=             -0.0309  Tot=              0.0309
 Quadrupole moment (field-independent basis, Debye-Ang):
   XX=            -41.8182   YY=            -41.6878   ZZ=            -41.5230
   XY=              0.3225   XZ=              0.0000   YZ=              0.0000
 Traceless Quadrupole moment (field-independent basis, Debye-Ang):
   XX=             -0.1419   YY=             -0.0115   ZZ=              0.1533
   XY=              0.3225   XZ=              0.0000   YZ=              0.0000
 Octapole moment (field-independent basis, Debye-Ang**2):
  XXX=              0.0000  YYY=              0.0000  ZZZ=             -0.9006  XYY=              0.0000
  XXY=              0.0000  XXZ=              0.2357  XZZ=              0.0000  YZZ=              0.0000
  YYZ=             -0.3990  XYZ=             -1.1171
 Hexadecapole moment (field-independent basis, Debye-Ang**3):
 XXXX=           -509.9630 YYYY=           -278.4617 ZZZZ=           -203.7010 XXXY=             10.1515
 XXXZ=             -0.0001 YYYX=             -0.0079 YYYZ=              0.0000 ZZZX=              0.0000
 ZZZY=              0.0000 XXYY=           -131.3294 XXZZ=           -121.8971 YYZZ=            -80.2301
 XXYZ=              0.0000 YYXZ=              0.0000 ZZXY=             -2.3076
 N-N= 2.635088871059D+02 E-N=-1.073944335220D+03  KE= 2.346367559458D+02
 No NMR shielding tensors so no spin-rotation constants.
 Leave Link  601 at Fri Sep 18 13:25:00 2015, MaxMem=  402653184 cpu:       0.3
 (Enter /share/apps/g09/l701.exe)
 Compute integral first derivatives.
 ... and contract with generalized density number  0.
 Leave Link  701 at Fri Sep 18 13:25:00 2015, MaxMem=  402653184 cpu:       0.3
 (Enter /share/apps/g09/l702.exe)
 L702 exits ... SP integral derivatives will be done elsewhere.
 Leave Link  702 at Fri Sep 18 13:25:01 2015, MaxMem=  402653184 cpu:       0.0
 (Enter /share/apps/g09/l703.exe)
 Compute integral first derivatives, UseDBF=F ICtDFT=           0.
 Integral derivatives from FoFDir, PRISM(SPDF).
 Calling FoFJK, ICntrl=      2127 FMM=F ISym2X=0 I1Cent= 0 IOpClX= 0 NMat=1 NMatS=1 NMatT=0.
 FoFCou: FMM=F IPFlag=           0 FMFlag=      100000 FMFlg1=         800
         NFxFlg=           0 DoJE=F BraDBF=F KetDBF=F FulRan=T
         Omega=  0.000000  0.000000  1.000000  0.000000  0.000000 ICntrl=    2127 IOpCl=  0
         NMat0=    1 NMatS0=    1 NMatT0=    0 NMatD0=    1 NMtDS0=    0 NMtDT0=    0
         I1Cent=           0 NGrid=           0.
 Symmetry not used in FoFCou.
 Leave Link  703 at Fri Sep 18 13:25:14 2015, MaxMem=  402653184 cpu:      27.0
 (Enter /share/apps/g09/l716.exe)
 Dipole        = 2.67217901D-07 2.30346049D-07-1.21528692D-02
 ***** Axes restored to original set *****
 -------------------------------------------------------------------
 Center     Atomic                   Forces (Hartrees/Bohr)
 Number     Number              X              Y              Z
 -------------------------------------------------------------------
      1        6          -0.002468635   -0.001443656   -0.001271011
      2        1           0.000618434    0.000573549   -0.001340808
      3        1          -0.000363182   -0.000050624    0.000639272
      4        1          -0.001167083   -0.000500180    0.000106875
      5        6          -0.001493373    0.000358250   -0.007973600
      6        1           0.000691510    0.007502270    0.008855078
      7        6           0.001493578   -0.000358301   -0.007973762
      8        1          -0.000691624   -0.007502302    0.008855070
      9        6          -0.001396830    0.002595800    0.000575504
     10        1           0.000589437   -0.000646712    0.000213437
     11        1           0.000788090    0.000282146   -0.000636451
     12        1           0.000995234    0.001276341    0.000832029
     13        6           0.001396760   -0.002595233    0.000574996
     14        1          -0.000994940   -0.001276516    0.000832200
     15        1          -0.000589449    0.000646544    0.000213305
     16        1          -0.000788326   -0.000282233   -0.000636394
     17        6           0.002468451    0.001443009   -0.001270893
     18        1           0.000363139    0.000050956    0.000638907
     19        1          -0.000618422   -0.000573500   -0.001340555
     20        1           0.001167231    0.000500391    0.000106799
 -------------------------------------------------------------------
 Cartesian Forces:  Max     0.008855078 RMS     0.002767844
 Leave Link  716 at Fri Sep 18 13:25:14 2015, MaxMem=  402653184 cpu:       0.1
 (Enter /share/apps/g09/l103.exe)

 GradGradGradGradGradGradGradGradGradGradGradGradGradGradGradGradGradGrad
 Berny optimization.
 Internal  Forces:  Max     0.011612216 RMS     0.002058848
 Search for a local minimum.
 Step number   1 out of a maximum of  110
 All quantities printed in internal units (Hartrees-Bohrs-Radians)
 RMS Force = .20588D-02 SwitMx=.10000D-02 MixMth= 1
 Mixed Optimization -- RFO/linear search
 Second derivative matrix not updated -- first step.
     Eigenvalues ---    0.00230   0.00301   0.00301   0.00331   0.00331
     Eigenvalues ---    0.03357   0.03357   0.04670   0.04670   0.04914
     Eigenvalues ---    0.04915   0.05369   0.05369   0.05407   0.05407
     Eigenvalues ---    0.05428   0.05428   0.05453   0.05453   0.16000
     Eigenvalues ---    0.16000   0.16000   0.16000   0.16000   0.16000
     Eigenvalues ---    0.16000   0.16000   0.16000   0.16000   0.16000
     Eigenvalues ---    0.16000   0.16726   0.16726   0.17195   0.17195
     Eigenvalues ---    0.27209   0.28950   0.28950   0.29159   0.29159
     Eigenvalues ---    0.31529   0.31529   0.34183   0.34183   0.34217
     Eigenvalues ---    0.34217   0.34219   0.34219   0.34236   0.34236
     Eigenvalues ---    0.34261   0.34261   0.34287   0.342871000.00000
     Eigenvalues --- 1000.000001000.000001000.000001000.000001000.00000
     Eigenvalues --- 1000.000001000.000001000.000001000.000001000.00000
     Eigenvalues --- 1000.000001000.000001000.000001000.000001000.00000
     Eigenvalues --- 1000.000001000.000001000.000001000.000001000.00000
     Eigenvalues --- 1000.000001000.000001000.000001000.000001000.00000
     Eigenvalues --- 1000.000001000.000001000.000001000.000001000.00000
     Eigenvalues --- 1000.000001000.000001000.000001000.000001000.00000
     Eigenvalues --- 1000.000001000.000001000.000001000.000001000.00000
     Eigenvalues --- 1000.000001000.000001000.000001000.000001000.00000
 RFO step:  Lambda=-2.73381378D-03 EMin= 2.30000000D-03
 Linear search not attempted -- first point.
 Iteration  1 RMS(Cart)=  0.05644665 RMS(Int)=  0.00094657
 Iteration  2 RMS(Cart)=  0.00135309 RMS(Int)=  0.00024138
 Iteration  3 RMS(Cart)=  0.00000062 RMS(Int)=  0.00024138
 Variable       Old X    -DE/DX   Delta X   Delta X   Delta X     New X
                                 (Linear)    (Quad)   (Total)
    R1        2.06849   0.00151   0.00000   0.00436   0.00436   2.07285
    R2        2.07022   0.00046   0.00000   0.00133   0.00133   2.07155
    R3        2.06933   0.00126   0.00000   0.00366   0.00366   2.07299
    R4        2.90108   0.00169   0.00000   0.00579   0.00579   2.90687
    R5        2.11713  -0.01161   0.00000  -0.03651  -0.03651   2.08062
    R6        2.93901   0.00338   0.00000   0.01228   0.01228   2.95129
    R7        2.89673   0.00289   0.00000   0.00981   0.00981   2.90654
    R8        2.11713  -0.01161   0.00000  -0.03651  -0.03651   2.08062
    R9        2.89673   0.00289   0.00000   0.00981   0.00981   2.90654
   R10        2.90108   0.00169   0.00000   0.00579   0.00579   2.90687
   R11        2.06965   0.00058   0.00000   0.00169   0.00169   2.07134
   R12        2.06892   0.00087   0.00000   0.00251   0.00251   2.07143
   R13        2.06963   0.00024   0.00000   0.00071   0.00071   2.07034
   R14        2.06962   0.00025   0.00000   0.00071   0.00071   2.07034
   R15        2.06965   0.00058   0.00000   0.00169   0.00169   2.07134
   R16        2.06892   0.00087   0.00000   0.00251   0.00251   2.07143
   R17        2.07022   0.00046   0.00000   0.00133   0.00133   2.07155
   R18        2.06849   0.00151   0.00000   0.00436   0.00436   2.07285
   R19        2.06933   0.00126   0.00000   0.00366   0.00366   2.07299
    A1        1.87649   0.00041   0.00000   0.00349   0.00349   1.87998
    A2        1.87640   0.00030   0.00000   0.00208   0.00208   1.87848
    A3        1.94737  -0.00061   0.00000  -0.00312  -0.00312   1.94425
    A4        1.87231  -0.00023   0.00000  -0.00262  -0.00262   1.86969
    A5        1.94791   0.00006   0.00000   0.00024   0.00024   1.94814
    A6        1.93965   0.00011   0.00000   0.00013   0.00013   1.93978
    A7        1.87953  -0.00055   0.00000  -0.02323  -0.02303   1.85650
    A8        1.93163   0.00240   0.00000   0.02885   0.02829   1.95991
    A9        1.92679  -0.00210   0.00000   0.00331   0.00216   1.92894
   A10        1.86933  -0.00192   0.00000  -0.02650  -0.02605   1.84328
   A11        1.88055   0.00012   0.00000  -0.01442  -0.01426   1.86629
   A12        1.97206   0.00188   0.00000   0.02711   0.02653   1.99859
   A13        1.86933  -0.00192   0.00000  -0.02650  -0.02605   1.84328
   A14        1.97206   0.00188   0.00000   0.02711   0.02653   1.99859
   A15        1.93163   0.00240   0.00000   0.02885   0.02829   1.95991
   A16        1.88055   0.00012   0.00000  -0.01442  -0.01426   1.86629
   A17        1.87953  -0.00055   0.00000  -0.02323  -0.02303   1.85650
   A18        1.92679  -0.00210   0.00000   0.00331   0.00216   1.92894
   A19        1.94942  -0.00060   0.00000  -0.00297  -0.00307   1.94636
   A20        1.93991  -0.00142   0.00000  -0.01254  -0.01255   1.92736
   A21        1.94250   0.00265   0.00000   0.01946   0.01945   1.96195
   A22        1.87381   0.00041   0.00000  -0.00335  -0.00343   1.87037
   A23        1.87570  -0.00031   0.00000   0.00525   0.00516   1.88086
   A24        1.87903  -0.00080   0.00000  -0.00619  -0.00612   1.87291
   A25        1.94250   0.00265   0.00000   0.01946   0.01946   1.96195
   A26        1.94942  -0.00060   0.00000  -0.00297  -0.00307   1.94636
   A27        1.93991  -0.00142   0.00000  -0.01254  -0.01255   1.92736
   A28        1.87570  -0.00031   0.00000   0.00524   0.00516   1.88086
   A29        1.87903  -0.00080   0.00000  -0.00619  -0.00612   1.87291
   A30        1.87381   0.00041   0.00000  -0.00335  -0.00344   1.87037
   A31        1.94791   0.00006   0.00000   0.00024   0.00024   1.94814
   A32        1.94737  -0.00061   0.00000  -0.00312  -0.00312   1.94425
   A33        1.93966   0.00011   0.00000   0.00013   0.00013   1.93978
   A34        1.87649   0.00041   0.00000   0.00349   0.00349   1.87998
   A35        1.87231  -0.00023   0.00000  -0.00262  -0.00262   1.86969
   A36        1.87640   0.00030   0.00000   0.00208   0.00208   1.87848
    D1       -1.03792  -0.00007   0.00000  -0.01655  -0.01648  -1.05440
    D2        1.00000  -0.00139   0.00000  -0.04613  -0.04619   0.95381
    D3       -3.08665   0.00126   0.00000   0.01251   0.01250  -3.07415
    D4       -3.13776  -0.00021   0.00000  -0.01902  -0.01895   3.12648
    D5       -1.09985  -0.00153   0.00000  -0.04860  -0.04865  -1.14850
    D6        1.09669   0.00112   0.00000   0.01005   0.01003   1.10672
    D7        1.05617  -0.00004   0.00000  -0.01594  -0.01587   1.04030
    D8        3.09408  -0.00135   0.00000  -0.04552  -0.04557   3.04851
    D9       -0.99256   0.00130   0.00000   0.01313   0.01311  -0.97945
   D10       -0.83830   0.00034   0.00000   0.05587   0.05619  -0.78211
   D11        1.22975   0.00033   0.00000   0.03663   0.03662   1.26637
   D12       -2.88251   0.00082   0.00000   0.08354   0.08417  -2.79834
   D13        1.20590  -0.00015   0.00000   0.02820   0.02821   1.23411
   D14       -3.00923  -0.00015   0.00000   0.00896   0.00864  -3.00059
   D15       -0.83830   0.00034   0.00000   0.05587   0.05619  -0.78211
   D16       -3.00923  -0.00015   0.00000   0.00896   0.00864  -3.00059
   D17       -0.94118  -0.00016   0.00000  -0.01029  -0.01093  -0.95210
   D18        1.22975   0.00033   0.00000   0.03663   0.03662   1.26637
   D19       -3.10045  -0.00201   0.00000  -0.04570  -0.04573   3.13700
   D20       -1.00392  -0.00099   0.00000  -0.02769  -0.02768  -1.03160
   D21        1.08842  -0.00183   0.00000  -0.04248  -0.04243   1.04599
   D22        1.13463  -0.00025   0.00000  -0.01119  -0.01125   1.12337
   D23       -3.05203   0.00077   0.00000   0.00682   0.00680  -3.04523
   D24       -0.95968  -0.00007   0.00000  -0.00797  -0.00796  -0.96764
   D25       -0.92688   0.00093   0.00000   0.01498   0.01496  -0.91192
   D26        1.16965   0.00196   0.00000   0.03299   0.03301   1.20266
   D27       -3.02119   0.00111   0.00000   0.01820   0.01826  -3.00293
   D28        1.16966   0.00196   0.00000   0.03299   0.03301   1.20267
   D29       -3.02118   0.00111   0.00000   0.01819   0.01826  -3.00293
   D30       -0.92687   0.00093   0.00000   0.01498   0.01496  -0.91191
   D31       -3.05202   0.00077   0.00000   0.00682   0.00679  -3.04522
   D32       -0.95967  -0.00007   0.00000  -0.00798  -0.00796  -0.96763
   D33        1.13464  -0.00025   0.00000  -0.01119  -0.01126   1.12338
   D34       -1.00392  -0.00099   0.00000  -0.02769  -0.02768  -1.03160
   D35        1.08843  -0.00183   0.00000  -0.04248  -0.04244   1.04600
   D36       -3.10044  -0.00201   0.00000  -0.04570  -0.04573   3.13701
   D37       -1.09983  -0.00153   0.00000  -0.04861  -0.04866  -1.14849
   D38        1.00002  -0.00139   0.00000  -0.04614  -0.04620   0.95382
   D39        3.09410  -0.00135   0.00000  -0.04553  -0.04558   3.04852
   D40       -3.13774  -0.00021   0.00000  -0.01903  -0.01896   3.12649
   D41       -1.03790  -0.00007   0.00000  -0.01656  -0.01649  -1.05439
   D42        1.05619  -0.00004   0.00000  -0.01594  -0.01588   1.04031
   D43        1.09671   0.00112   0.00000   0.01004   0.01002   1.10673
   D44       -3.08663   0.00126   0.00000   0.01250   0.01249  -3.07414
   D45       -0.99255   0.00130   0.00000   0.01312   0.01310  -0.97944
         Item               Value     Threshold  Converged?
 Maximum Force            0.011612     0.000015     NO 
 RMS     Force            0.002059     0.000010     NO 
 Maximum Displacement     0.162985     0.000060     NO 
 RMS     Displacement     0.056063     0.000040     NO 
 Predicted change in Energy=-1.466540D-03
 GradGradGradGradGradGradGradGradGradGradGradGradGradGradGradGradGradGrad

 Leave Link  103 at Fri Sep 18 13:25:14 2015, MaxMem=  402653184 cpu:       0.0
 (Enter /share/apps/g09/l202.exe)
                          Input orientation:                          
 ---------------------------------------------------------------------
 Center     Atomic      Atomic             Coordinates (Angstroms)
 Number     Number       Type             X           Y           Z
 ---------------------------------------------------------------------
      1          6           0       -1.830234    0.691755   -0.594399
      2          1           0       -1.660525    1.260787   -1.516678
      3          1           0       -1.908556    1.409315    0.230625
      4          1           0       -2.804466    0.195675   -0.684618
      5          6           0       -0.707252   -0.331003   -0.351329
      6          1           0       -0.715533   -1.012337   -1.216172
      7          6           0        0.707252    0.331003   -0.351328
      8          1           0        0.715534    1.012338   -1.216172
      9          6           0        1.013327    1.182354    0.892535
     10          1           0        1.119789    0.560671    1.788988
     11          1           0        1.956354    1.725634    0.761766
     12          1           0        0.233754    1.925838    1.091984
     13          6           0       -1.013328   -1.182355    0.892534
     14          1           0       -0.233759   -1.925844    1.091979
     15          1           0       -1.119783   -0.560672    1.788988
     16          1           0       -1.956358   -1.725629    0.761766
     17          6           0        1.830234   -0.691755   -0.594399
     18          1           0        1.908549   -1.409322    0.230619
     19          1           0        1.660531   -1.260779   -1.516684
     20          1           0        2.804468   -0.195676   -0.684607
 ---------------------------------------------------------------------
                    Distance matrix (angstroms):
                    1          2          3          4          5
     1  C    0.000000
     2  H    1.096904   0.000000
     3  H    1.096216   1.771058   0.000000
     4  H    1.096979   1.770703   1.764439   0.000000
     5  C    1.538248   2.191019   2.193287   2.187871   0.000000
     6  H    2.129106   2.480002   3.062830   2.470927   1.101017
     7  C    2.574502   2.798018   2.888577   3.530093   1.561754
     8  H    2.640134   2.407838   3.022691   3.652381   2.139354
     9  C    3.246151   3.599992   3.004503   4.246939   2.607267
    10  H    3.794779   4.375812   3.509924   4.653141   2.951968
    11  H    4.152870   4.299907   3.914038   5.205594   3.544507
    12  H    2.937158   3.291763   2.366058   3.921806   2.839363
    13  C    2.527962   3.491720   2.820693   2.755821   1.538076
    14  H    3.499204   4.358368   3.830165   3.776993   2.202465
    15  H    2.784573   3.812813   2.632775   3.086899   2.191777
    16  H    2.774678   3.767958   3.179979   2.550044   2.178125
    17  C    3.913199   4.104682   4.367346   4.719758   2.574502
    18  H    4.367342   4.787569   4.744998   5.062231   2.888572
    19  H    4.104685   4.169857   4.787574   4.769673   2.798022
    20  H    4.719760   4.769673   5.062236   5.622570   3.530094
                    6          7          8          9         10
     6  H    0.000000
     7  C    2.139354   0.000000
     8  H    2.479367   1.101017   0.000000
     9  C    3.500325   1.538076   2.136406   0.000000
    10  H    3.856650   2.191777   3.065682   1.096107   0.000000
    11  H    4.306705   2.178125   2.441447   1.096154   1.764133
    12  H    3.855076   2.202465   2.528672   1.095574   1.770467
    13  C    2.136406   2.607267   3.500325   3.114350   2.896887
    14  H    2.528669   2.839366   3.855078   3.354981   2.915590
    15  H    3.065682   2.951965   3.856648   2.896882   2.504614
    16  H    2.441449   3.544508   4.306704   4.158425   3.968001
    17  C    2.640134   1.538248   2.129106   2.527962   2.784571
    18  H    3.022683   2.193287   3.062829   2.820699   2.632780
    19  H    2.407843   2.191019   2.479997   3.491720   3.812814
    20  H    3.652384   2.187871   2.470931   2.755817   3.086888
                   11         12         13         14         15
    11  H    0.000000
    12  H    1.765354   0.000000
    13  C    4.158426   3.354975   0.000000
    14  H    4.270705   3.879951   1.095574   0.000000
    15  H    3.967997   2.915581   1.096107   1.770467   0.000000
    16  H    5.217330   4.270696   1.096154   1.765354   1.764133
    17  C    2.774682   3.499204   3.246152   2.937160   3.794775
    18  H    3.179992   3.830168   3.004499   2.366056   3.509917
    19  H    3.767958   4.358368   3.600000   3.291773   4.375815
    20  H    2.550044   3.776992   4.246937   3.921806   4.653132
                   16         17         18         19         20
    16  H    0.000000
    17  C    4.152873   0.000000
    18  H    3.914036   1.096216   0.000000
    19  H    4.299919   1.096904   1.771058   0.000000
    20  H    5.205595   1.096979   1.764439   1.770703   0.000000
 Stoichiometry    C6H14
 Framework group  C1[X(C6H14)]
 Deg. of freedom    54
 Full point group                 C1      NOp   1
 Largest Abelian subgroup         C1      NOp   1
 Largest concise Abelian subgroup C1      NOp   1
                         Standard orientation:                         
 ---------------------------------------------------------------------
 Center     Atomic      Atomic             Coordinates (Angstroms)
 Number     Number       Type             X           Y           Z
 ---------------------------------------------------------------------
      1          6           0        1.806517   -0.751518   -0.599868
      2          1           0        1.618202   -1.314667   -1.522147
      3          1           0        1.861220   -1.471263    0.225155
      4          1           0        2.796522   -0.287715   -0.690088
      5          6           0        0.717746    0.307586   -0.356798
      6          1           0        0.748409    0.988280   -1.221642
      7          6           0       -0.717746   -0.307586   -0.356798
      8          1           0       -0.748410   -0.988281   -1.221641
      9          6           0       -1.051629   -1.148421    0.887066
     10          1           0       -1.137606   -0.523575    1.783518
     11          1           0       -2.011997   -1.660422    0.756296
     12          1           0       -0.296905   -1.917118    1.086515
     13          6           0        1.051629    1.148421    0.887065
     14          1           0        0.296910    1.917123    1.086510
     15          1           0        1.137601    0.523577    1.783518
     16          1           0        2.012001    1.660417    0.756297
     17          6           0       -1.806517    0.751518   -0.599868
     18          1           0       -1.861213    1.471270    0.225149
     19          1           0       -1.618209    1.314658   -1.522153
     20          1           0       -2.796524    0.287716   -0.690077
 ---------------------------------------------------------------------
 Rotational constants (GHZ):      4.2036623      2.4462841      2.2135889
 Leave Link  202 at Fri Sep 18 13:25:14 2015, MaxMem=  402653184 cpu:       0.0
 (Enter /share/apps/g09/l301.exe)
 Standard basis: 6-31G(d) (6D, 7F)
 Ernie: Thresh=  0.10000D-02 Tol=  0.10000D-05 Strict=F.
 There are   118 symmetry adapted basis functions of A   symmetry.
 Integral buffers will be    131072 words long.
 Raffenetti 2 integral format.
 Two-electron integral symmetry is turned on.
   118 basis functions,   224 primitive gaussians,   118 cartesian basis functions
    25 alpha electrons       25 beta electrons
       nuclear repulsion energy       261.6686968970 Hartrees.
 IExCor=  402 DFT=T Ex+Corr=B3LYP ExCW=0 ScaHFX=  0.200000
 ScaDFX=  0.800000  0.720000  1.000000  0.810000 ScalE2=  1.000000  1.000000
 IRadAn=      5 IRanWt=     -1 IRanGd=            0 ICorTp=0
 NAtoms=   20 NActive=   20 NUniq=   20 SFac= 7.50D-01 NAtFMM=   80 NAOKFM=F Big=F
 Leave Link  301 at Fri Sep 18 13:25:14 2015, MaxMem=  402653184 cpu:       0.1
 (Enter /share/apps/g09/l302.exe)
 NPDir=0 NMtPBC=     1 NCelOv=     1 NCel=       1 NClECP=     1 NCelD=      1
         NCelK=      1 NCelE2=     1 NClLst=     1 CellRange=     0.0.
 One-electron integrals computed using PRISM.
 NBasis=   118 RedAO= T  NBF=   118
 NBsUse=   118 1.00D-06 NBFU=   118
 Precomputing XC quadrature grid using
 IXCGrd= 2 IRadAn=           5 IRanWt=          -1 IRanGd=           0 AccXCQ= 1.00D-10.
 NRdTot=    1642 NPtTot=      438820 NUsed=      450587 NTot=      450619
 NSgBfM=   118   118   118   118   118 NAtAll=    20    20.
 Leave Link  302 at Fri Sep 18 13:25:15 2015, MaxMem=  402653184 cpu:       1.3
 (Enter /share/apps/g09/l303.exe)
 DipDrv:  MaxL=1.
 Leave Link  303 at Fri Sep 18 13:25:15 2015, MaxMem=  402653184 cpu:       0.1
 (Enter /share/apps/g09/l401.exe)
 Initial guess read from the read-write file.
 B after Tr=     0.000000    0.000000    0.000000
         Rot=    1.000000    0.000000    0.000000    0.000000 Ang=   0.00 deg.
 Guess basis will be translated and rotated to current coordinates.
 Initial guess orbital symmetries:
       Occupied  (A) (A) (A) (A) (A) (A) (A) (A) (A) (A) (A) (A)
                 (A) (A) (A) (A) (A) (A) (A) (A) (A) (A) (A) (A)
                 (A)
       Virtual   (A) (A) (A) (A) (A) (A) (A) (A) (A) (A) (A) (A)
                 (A) (A) (A) (A) (A) (A) (A) (A) (A) (A) (A) (A)
                 (A) (A) (A) (A) (A) (A) (A) (A) (A) (A) (A) (A)
                 (A) (A) (A) (A) (A) (A) (A) (A) (A) (A) (A) (A)
                 (A) (A) (A) (A) (A) (A) (A) (A) (A) (A) (A) (A)
                 (A) (A) (A) (A) (A) (A) (A) (A) (A) (A) (A) (A)
                 (A) (A) (A) (A) (A) (A) (A) (A) (A) (A) (A) (A)
                 (A) (A) (A) (A) (A) (A) (A) (A) (A)
 The electronic state of the initial guess is 1-A.
 Generating alternative initial guess.
 Harris functional with IExCor=  402 diagonalized for initial guess.
 ExpMin= 1.61D-01 ExpMax= 3.05D+03 ExpMxC= 4.57D+02 IAcc=3 IRadAn=         5 AccDes= 0.00D+00
 HarFok:  IExCor=  402 AccDes= 0.00D+00 IRadAn=         5 IDoV= 1
 ScaDFX=  1.000000  1.000000  1.000000  1.000000
 FoFCou: FMM=F IPFlag=           0 FMFlag=      100000 FMFlg1=           0
         NFxFlg=           0 DoJE=T BraDBF=F KetDBF=T FulRan=T
         Omega=  0.000000  0.000000  1.000000  0.000000  0.000000 ICntrl=     500 IOpCl=  0
         NMat0=    1 NMatS0=    1 NMatT0=    0 NMatD0=    1 NMtDS0=    0 NMtDT0=    0
         I1Cent=           4 NGrid=           0.
 Petite list used in FoFCou.
 Harris En= -237.180012086684    
 Leave Link  401 at Fri Sep 18 13:25:20 2015, MaxMem=  402653184 cpu:      11.0
 (Enter /share/apps/g09/l502.exe)
 Closed shell SCF:
 Requested convergence on RMS density matrix=1.00D-08 within 128 cycles.
 Requested convergence on MAX density matrix=1.00D-06.
 Requested convergence on             energy=1.00D-06.
 No special actions if energy rises.
 Using DIIS extrapolation, IDIIS=  1040.
 Integral symmetry usage will be decided dynamically.
       450394 words used for storage of precomputed grid.
 Keep R1 ints in memory in canonical form, NReq=26104449.
 IEnd=      511938 IEndB=      511938 NGot=   402653184 MDV=   377521170
 LenX=   377521170 LenY=   377506805
 Symmetry not used in FoFDir.
 MinBra= 0 MaxBra= 2 Meth= 1.
 IRaf=       0 NMat=   1 IRICut=       1 DoRegI=T DoRafI=F ISym2E= 0 JSym2E=0.
 Integral accuracy reduced to 1.0D-05 until final iterations.

 Cycle   1  Pass 0  IDiag  1:
 E= -237.078092110056    
 DIIS: error= 3.17D-03 at cycle   1 NSaved=   1.
 NSaved= 1 IEnMin= 1 EnMin= -237.078092110056     IErMin= 1 ErrMin= 3.17D-03
 ErrMax= 3.17D-03 EMaxC= 1.00D-01 BMatC= 2.11D-03 BMatP= 2.11D-03
 IDIUse=3 WtCom= 9.68D-01 WtEn= 3.17D-02
 Coeff-Com:  0.100D+01
 Coeff-En:   0.100D+01
 Coeff:      0.100D+01
 Gap=     0.381 Goal=   None    Shift=    0.000
 GapD=    0.381 DampG=1.000 DampE=1.000 DampFc=1.0000 IDamp=-1.
 RMSDP=5.47D-04 MaxDP=6.09D-03              OVMax= 1.44D-02

 Cycle   2  Pass 0  IDiag  1:
 E= -237.082134926682     Delta-E=       -0.004042816625 Rises=F Damp=F
 DIIS: error= 4.07D-04 at cycle   2 NSaved=   2.
 NSaved= 2 IEnMin= 2 EnMin= -237.082134926682     IErMin= 2 ErrMin= 4.07D-04
 ErrMax= 4.07D-04 EMaxC= 1.00D-01 BMatC= 3.33D-05 BMatP= 2.11D-03
 IDIUse=3 WtCom= 9.96D-01 WtEn= 4.07D-03
 Coeff-Com: -0.499D-01 0.105D+01
 Coeff-En:   0.000D+00 0.100D+01
 Coeff:     -0.497D-01 0.105D+01
 Gap=     0.378 Goal=   None    Shift=    0.000
 RMSDP=1.07D-04 MaxDP=9.56D-04 DE=-4.04D-03 OVMax= 2.36D-03

 Cycle   3  Pass 0  IDiag  1:
 E= -237.082170887194     Delta-E=       -0.000035960512 Rises=F Damp=F
 DIIS: error= 3.25D-04 at cycle   3 NSaved=   3.
 NSaved= 3 IEnMin= 3 EnMin= -237.082170887194     IErMin= 3 ErrMin= 3.25D-04
 ErrMax= 3.25D-04 EMaxC= 1.00D-01 BMatC= 1.84D-05 BMatP= 3.33D-05
 IDIUse=3 WtCom= 9.97D-01 WtEn= 3.25D-03
 Coeff-Com: -0.361D-01 0.468D+00 0.569D+00
 Coeff-En:   0.000D+00 0.000D+00 0.100D+01
 Coeff:     -0.360D-01 0.466D+00 0.570D+00
 Gap=     0.379 Goal=   None    Shift=    0.000
 RMSDP=4.50D-05 MaxDP=6.11D-04 DE=-3.60D-05 OVMax= 9.16D-04

 Cycle   4  Pass 0  IDiag  1:
 E= -237.082188297457     Delta-E=       -0.000017410263 Rises=F Damp=F
 DIIS: error= 6.66D-05 at cycle   4 NSaved=   4.
 NSaved= 4 IEnMin= 4 EnMin= -237.082188297457     IErMin= 4 ErrMin= 6.66D-05
 ErrMax= 6.66D-05 EMaxC= 1.00D-01 BMatC= 9.78D-07 BMatP= 1.84D-05
 IDIUse=1 WtCom= 1.00D+00 WtEn= 0.00D+00
 Coeff-Com: -0.136D-01 0.152D+00 0.257D+00 0.604D+00
 Coeff:     -0.136D-01 0.152D+00 0.257D+00 0.604D+00
 Gap=     0.379 Goal=   None    Shift=    0.000
 RMSDP=9.00D-06 MaxDP=1.48D-04 DE=-1.74D-05 OVMax= 1.93D-04

 Initial convergence to 1.0D-05 achieved.  Increase integral accuracy.
 Cycle   5  Pass 1  IDiag  1:
 E= -237.082206463681     Delta-E=       -0.000018166225 Rises=F Damp=F
 DIIS: error= 1.74D-05 at cycle   1 NSaved=   1.
 NSaved= 1 IEnMin= 1 EnMin= -237.082206463681     IErMin= 1 ErrMin= 1.74D-05
 ErrMax= 1.74D-05 EMaxC= 1.00D-01 BMatC= 4.06D-08 BMatP= 4.06D-08
 IDIUse=1 WtCom= 1.00D+00 WtEn= 0.00D+00
 Coeff-Com:  0.100D+01
 Coeff:      0.100D+01
 Gap=     0.379 Goal=   None    Shift=    0.000
 RMSDP=9.00D-06 MaxDP=1.48D-04 DE=-1.82D-05 OVMax= 7.67D-05

 Cycle   6  Pass 1  IDiag  1:
 E= -237.082206471181     Delta-E=       -0.000000007499 Rises=F Damp=F
 DIIS: error= 1.71D-05 at cycle   2 NSaved=   2.
 NSaved= 2 IEnMin= 2 EnMin= -237.082206471181     IErMin= 2 ErrMin= 1.71D-05
 ErrMax= 1.71D-05 EMaxC= 1.00D-01 BMatC= 3.96D-08 BMatP= 4.06D-08
 IDIUse=1 WtCom= 1.00D+00 WtEn= 0.00D+00
 Coeff-Com:  0.497D+00 0.503D+00
 Coeff:      0.497D+00 0.503D+00
 Gap=     0.379 Goal=   None    Shift=    0.000
 RMSDP=2.03D-06 MaxDP=3.40D-05 DE=-7.50D-09 OVMax= 4.28D-05

 Cycle   7  Pass 1  IDiag  1:
 E= -237.082206509655     Delta-E=       -0.000000038474 Rises=F Damp=F
 DIIS: error= 2.43D-06 at cycle   3 NSaved=   3.
 NSaved= 3 IEnMin= 3 EnMin= -237.082206509655     IErMin= 3 ErrMin= 2.43D-06
 ErrMax= 2.43D-06 EMaxC= 1.00D-01 BMatC= 1.18D-09 BMatP= 3.96D-08
 IDIUse=1 WtCom= 1.00D+00 WtEn= 0.00D+00
 Coeff-Com:  0.124D+00 0.192D+00 0.684D+00
 Coeff:      0.124D+00 0.192D+00 0.684D+00
 Gap=     0.379 Goal=   None    Shift=    0.000
 RMSDP=4.38D-07 MaxDP=6.40D-06 DE=-3.85D-08 OVMax= 8.74D-06

 Cycle   8  Pass 1  IDiag  1:
 E= -237.082206510779     Delta-E=       -0.000000001124 Rises=F Damp=F
 DIIS: error= 6.67D-07 at cycle   4 NSaved=   4.
 NSaved= 4 IEnMin= 4 EnMin= -237.082206510779     IErMin= 4 ErrMin= 6.67D-07
 ErrMax= 6.67D-07 EMaxC= 1.00D-01 BMatC= 8.31D-11 BMatP= 1.18D-09
 IDIUse=1 WtCom= 1.00D+00 WtEn= 0.00D+00
 Coeff-Com: -0.114D-01 0.965D-02 0.235D+00 0.767D+00
 Coeff:     -0.114D-01 0.965D-02 0.235D+00 0.767D+00
 Gap=     0.379 Goal=   None    Shift=    0.000
 RMSDP=1.17D-07 MaxDP=1.22D-06 DE=-1.12D-09 OVMax= 2.18D-06

 Cycle   9  Pass 1  IDiag  1:
 E= -237.082206510872     Delta-E=       -0.000000000093 Rises=F Damp=F
 DIIS: error= 9.13D-08 at cycle   5 NSaved=   5.
 NSaved= 5 IEnMin= 5 EnMin= -237.082206510872     IErMin= 5 ErrMin= 9.13D-08
 ErrMax= 9.13D-08 EMaxC= 1.00D-01 BMatC= 1.03D-12 BMatP= 8.31D-11
 IDIUse=1 WtCom= 1.00D+00 WtEn= 0.00D+00
 Coeff-Com: -0.492D-02 0.238D-02 0.759D-01 0.269D+00 0.658D+00
 Coeff:     -0.492D-02 0.238D-02 0.759D-01 0.269D+00 0.658D+00
 Gap=     0.379 Goal=   None    Shift=    0.000
 RMSDP=1.21D-08 MaxDP=2.37D-07 DE=-9.27D-11 OVMax= 2.80D-07

 Cycle  10  Pass 1  IDiag  1:
 E= -237.082206510872     Delta-E=        0.000000000000 Rises=F Damp=F
 DIIS: error= 3.86D-08 at cycle   6 NSaved=   6.
 NSaved= 6 IEnMin= 5 EnMin= -237.082206510872     IErMin= 6 ErrMin= 3.86D-08
 ErrMax= 3.86D-08 EMaxC= 1.00D-01 BMatC= 1.86D-13 BMatP= 1.03D-12
 IDIUse=1 WtCom= 1.00D+00 WtEn= 0.00D+00
 Coeff-Com: -0.954D-03 0.710D-04 0.699D-02 0.330D-01 0.309D+00 0.652D+00
 Coeff:     -0.954D-03 0.710D-04 0.699D-02 0.330D-01 0.309D+00 0.652D+00
 Gap=     0.379 Goal=   None    Shift=    0.000
 RMSDP=3.60D-09 MaxDP=7.40D-08 DE= 2.84D-13 OVMax= 8.31D-08

 SCF Done:  E(RB3LYP) =  -237.082206511     A.U. after   10 cycles
             Convg  =    0.3603D-08             -V/T =  2.0105
 KE= 2.346110489986D+02 PE=-1.070250698893D+03 EE= 3.368887464864D+02
 Leave Link  502 at Fri Sep 18 13:26:14 2015, MaxMem=  402653184 cpu:     106.8
 (Enter /share/apps/g09/l701.exe)
 Compute integral first derivatives.
 ... and contract with generalized density number  0.
 Leave Link  701 at Fri Sep 18 13:26:14 2015, MaxMem=  402653184 cpu:       0.3
 (Enter /share/apps/g09/l702.exe)
 L702 exits ... SP integral derivatives will be done elsewhere.
 Leave Link  702 at Fri Sep 18 13:26:14 2015, MaxMem=  402653184 cpu:       0.0
 (Enter /share/apps/g09/l703.exe)
 Compute integral first derivatives, UseDBF=F ICtDFT=           0.
 Integral derivatives from FoFDir, PRISM(SPDF).
 Calling FoFJK, ICntrl=      2127 FMM=F ISym2X=0 I1Cent= 0 IOpClX= 0 NMat=1 NMatS=1 NMatT=0.
 FoFCou: FMM=F IPFlag=           0 FMFlag=      100000 FMFlg1=         800
         NFxFlg=           0 DoJE=F BraDBF=F KetDBF=F FulRan=T
         Omega=  0.000000  0.000000  1.000000  0.000000  0.000000 ICntrl=    2127 IOpCl=  0
         NMat0=    1 NMatS0=    1 NMatT0=    0 NMatD0=    1 NMtDS0=    0 NMtDT0=    0
         I1Cent=           0 NGrid=           0.
 Symmetry not used in FoFCou.
 Leave Link  703 at Fri Sep 18 13:26:27 2015, MaxMem=  402653184 cpu:      26.1
 (Enter /share/apps/g09/l716.exe)
 Dipole        = 9.51817958D-08 8.12754797D-09-3.24769860D-02
 ***** Axes restored to original set *****
 -------------------------------------------------------------------
 Center     Atomic                   Forces (Hartrees/Bohr)
 Number     Number              X              Y              Z
 -------------------------------------------------------------------
      1        6           0.000877738    0.000651388    0.000889376
      2        1           0.000214200   -0.000060518    0.000150063
      3        1          -0.000009173    0.000616104    0.000457842
      4        1           0.000523237   -0.000435232    0.000088536
      5        6           0.001399122   -0.001049829   -0.001733080
      6        1           0.000419158   -0.000174873   -0.000052464
      7        6          -0.001399142    0.001049782   -0.001733175
      8        1          -0.000419144    0.000174928   -0.000052417
      9        6          -0.000712177   -0.000864465    0.000237331
     10        1          -0.000291829   -0.000360926    0.000474649
     11        1           0.000216559   -0.000041016   -0.000225903
     12        1          -0.000516085   -0.000087276   -0.000286334
     13        6           0.000712185    0.000864494    0.000237185
     14        1           0.000516110    0.000087268   -0.000286286
     15        1           0.000291808    0.000360909    0.000474706
     16        1          -0.000216550    0.000040994   -0.000225882
     17        6          -0.000877720   -0.000651422    0.000889399
     18        1           0.000009179   -0.000616079    0.000457873
     19        1          -0.000214227    0.000060512    0.000150086
     20        1          -0.000523249    0.000435257    0.000088495
 -------------------------------------------------------------------
 Cartesian Forces:  Max     0.001733175 RMS     0.000621763
 Leave Link  716 at Fri Sep 18 13:26:27 2015, MaxMem=  402653184 cpu:       0.0
 (Enter /share/apps/g09/l103.exe)

 GradGradGradGradGradGradGradGradGradGradGradGradGradGradGradGradGradGrad
 Berny optimization.
 Using GEDIIS/GDIIS optimizer.
 Internal  Forces:  Max     0.004662805 RMS     0.000720383
 Search for a local minimum.
 Step number   2 out of a maximum of  110
 All quantities printed in internal units (Hartrees-Bohrs-Radians)
 RMS Force = .72038D-03 SwitMx=.10000D-02 MixMth= 2
 Mixed Optimization -- En-DIIS/RFO-DIIS
 Update second derivatives using D2CorX and points    1    2
 DE= -8.60D-04 DEPred=-1.47D-03 R= 5.87D-01
 SS=  1.41D+00  RLast= 2.37D-01 DXNew= 5.0454D-01 7.1199D-01
 Trust test= 5.87D-01 RLast= 2.37D-01 DXMaxT set to 5.05D-01
 Use linear search instead of GDIIS.
[...]
 Leave Link  103 at Fri Sep 18 13:32:54 2015, MaxMem=  402653184 cpu:       0.1
 (Enter /share/apps/g09/l202.exe)
                          Input orientation:                          
 ---------------------------------------------------------------------
 Center     Atomic      Atomic             Coordinates (Angstroms)
 Number     Number       Type             X           Y           Z
 ---------------------------------------------------------------------
      1          6           0       -1.824188    0.712939   -0.543634
      2          1           0       -1.654268    1.343363   -1.425072
      3          1           0       -1.901171    1.372648    0.329092
      4          1           0       -2.797145    0.222356   -0.666712
      5          6           0       -0.705187   -0.327424   -0.374222
      6          1           0       -0.735077   -0.977559   -1.262388
      7          6           0        0.705187    0.327424   -0.374221
      8          1           0        0.735078    0.977562   -1.262385
      9          6           0        0.981556    1.216661    0.849446
     10          1           0        1.020968    0.628437    1.774136
     11          1           0        1.948893    1.722082    0.744131
     12          1           0        0.218695    1.992338    0.977926
     13          6           0       -0.981556   -1.216663    0.849444
     14          1           0       -0.218696   -1.992339    0.977922
     15          1           0       -1.020969   -0.628440    1.774134
     16          1           0       -1.948893   -1.722084    0.744126
     17          6           0        1.824188   -0.712938   -0.543634
     18          1           0        1.901171   -1.372649    0.329091
     19          1           0        1.654269   -1.343361   -1.425074
     20          1           0        2.797145   -0.222354   -0.666710
 ---------------------------------------------------------------------
                    Distance matrix (angstroms):
                    1          2          3          4          5
     1  C    0.000000
     2  H    1.096924   0.000000
     3  H    1.096719   1.771697   0.000000
     4  H    1.096570   1.771422   1.765663   0.000000
     5  C    1.537276   2.190108   2.194373   2.182681   0.000000
     6  H    2.135545   2.501611   3.068560   2.459014   1.101094
     7  C    2.564188   2.775509   2.894865   3.516094   1.554986
     8  H    2.671418   2.422654   3.104626   3.660842   2.136864
     9  C    3.172792   3.483828   2.933465   4.191176   2.593581
    10  H    3.670709   4.231187   3.343785   4.549794   2.916971
    11  H    4.112523   4.222753   3.888104   5.173445   3.534873
    12  H    2.850505   3.115054   2.301920   3.864319   2.839569
    13  C    2.524689   3.489942   2.796603   2.768729   1.537688
    14  H    3.494462   4.354556   3.817702   3.775989   2.199298
    15  H    2.795802   3.811037   2.620546   3.136301   2.192205
    16  H    2.757392   3.766854   3.122803   2.547712   2.177748
    17  C    3.917113   4.135815   4.357709   4.716634   2.564188
    18  H    4.357709   4.805721   4.689825   5.060616   2.894865
    19  H    4.135815   4.262030   4.805721   4.779295   2.775509
    20  H    4.716634   4.779295   5.060616   5.611938   3.516094
                    6          7          8          9         10
     6  H    0.000000
     7  C    2.136864   0.000000
     8  H    2.446192   1.101094   0.000000
     9  C    3.495894   1.537688   2.139568   0.000000
    10  H    3.857900   2.192205   3.069867   1.096637   0.000000
    11  H    4.303240   2.177748   2.460440   1.096487   1.765791
    12  H    3.840439   2.199298   2.513049   1.095507   1.771388
    13  C    2.139568   2.593581   3.495894   3.126480   2.875683
    14  H    2.513049   2.839569   3.840439   3.428527   3.006525
    15  H    3.069867   2.916971   3.857900   2.875683   2.397758
    16  H    2.460440   3.534873   4.303240   4.151488   3.925041
    17  C    2.671418   1.537276   2.135545   2.524689   2.795802
    18  H    3.104626   2.194373   3.068560   2.796603   2.620546
    19  H    2.422654   2.190108   2.501611   3.489942   3.811037
    20  H    3.660842   2.182681   2.459014   2.768729   3.136301
                   11         12         13         14         15
    11  H    0.000000
    12  H    1.766715   0.000000
    13  C    4.151488   3.428527   0.000000
    14  H    4.306974   4.008611   1.095507   0.000000
    15  H    3.925041   3.006525   1.096637   1.771388   0.000000
    16  H    5.201444   4.306974   1.096487   1.766715   1.765791
    17  C    2.757392   3.494462   3.172792   2.850505   3.670709
    18  H    3.122803   3.817702   2.933465   2.301920   3.343785
    19  H    3.766854   4.354556   3.483828   3.115054   4.231187
    20  H    2.547712   3.775989   4.191176   3.864319   4.549794
                   16         17         18         19         20
    16  H    0.000000
    17  C    4.112523   0.000000
    18  H    3.888104   1.096719   0.000000
    19  H    4.222753   1.096924   1.771697   0.000000
    20  H    5.173445   1.096570   1.765663   1.771422   0.000000
 Stoichiometry    C6H14
 Framework group  C1[X(C6H14)]
 Deg. of freedom    54
 Full point group                 C1      NOp   1
 Largest Abelian subgroup         C1      NOp   1
 Largest concise Abelian subgroup C1      NOp   1
                         Standard orientation:                         
 ---------------------------------------------------------------------
 Center     Atomic      Atomic             Coordinates (Angstroms)
 Number     Number       Type             X           Y           Z
 ---------------------------------------------------------------------
      1          6           0        1.810487   -0.747048   -0.546060
      2          1           0        1.628765   -1.374173   -1.427498
      3          1           0        1.875076   -1.408086    0.326666
      4          1           0        2.792479   -0.274811   -0.669138
      5          6           0        0.711208    0.314132   -0.376648
      6          1           0        0.753294    0.963592   -1.264814
      7          6           0       -0.711208   -0.314132   -0.376647
      8          1           0       -0.753295   -0.963594   -1.264811
      9          6           0       -1.004216   -1.198026    0.847020
     10          1           0       -1.032582   -0.609166    1.771710
     11          1           0       -1.980868   -1.685204    0.741705
     12          1           0       -0.256047   -1.987882    0.975500
     13          6           0        1.004217    1.198028    0.847018
     14          1           0        0.256048    1.987884    0.975496
     15          1           0        1.032583    0.609169    1.771708
     16          1           0        1.980869    1.685205    0.741700
     17          6           0       -1.810487    0.747047   -0.546060
     18          1           0       -1.875075    1.408087    0.326665
     19          1           0       -1.628766    1.374170   -1.427500
     20          1           0       -2.792479    0.274810   -0.669136
 ---------------------------------------------------------------------
 Rotational constants (GHZ):      4.2102071      2.5258754      2.2071851
 Leave Link  202 at Fri Sep 18 13:32:54 2015, MaxMem=  402653184 cpu:       0.0
 (Enter /share/apps/g09/l601.exe)
 Copying SCF densities to generalized density rwf, IOpCl= 0 IROHF=0.

 **********************************************************************

            Population analysis using the SCF density.

 **********************************************************************

 Orbital symmetries:
       Occupied  (A) (A) (A) (A) (A) (A) (A) (A) (A) (A) (A) (A)
                 (A) (A) (A) (A) (A) (A) (A) (A) (A) (A) (A) (A)
                 (A)
       Virtual   (A) (A) (A) (A) (A) (A) (A) (A) (A) (A) (A) (A)
                 (A) (A) (A) (A) (A) (A) (A) (A) (A) (A) (A) (A)
                 (A) (A) (A) (A) (A) (A) (A) (A) (A) (A) (A) (A)
                 (A) (A) (A) (A) (A) (A) (A) (A) (A) (A) (A) (A)
                 (A) (A) (A) (A) (A) (A) (A) (A) (A) (A) (A) (A)
                 (A) (A) (A) (A) (A) (A) (A) (A) (A) (A) (A) (A)
                 (A) (A) (A) (A) (A) (A) (A) (A) (A) (A) (A) (A)
                 (A) (A) (A) (A) (A) (A) (A) (A) (A)
 The electronic state is 1-A.
 Alpha  occ. eigenvalues --  -10.18215 -10.18196 -10.16787 -10.16787 -10.16759
 Alpha  occ. eigenvalues --  -10.16759  -0.81058  -0.74039  -0.67985  -0.67216
 Alpha  occ. eigenvalues --   -0.60656  -0.52999  -0.46456  -0.43955  -0.43683
 Alpha  occ. eigenvalues --   -0.40203  -0.39330  -0.38306  -0.36949  -0.36924
 Alpha  occ. eigenvalues --   -0.34211  -0.34088  -0.30884  -0.30880  -0.30102
 Alpha virt. eigenvalues --    0.07885   0.12318   0.12344   0.13683   0.14547
 Alpha virt. eigenvalues --    0.14771   0.16635   0.17189   0.18141   0.18839
 Alpha virt. eigenvalues --    0.20281   0.20944   0.21701   0.23565   0.23687
 Alpha virt. eigenvalues --    0.24724   0.26805   0.28115   0.28699   0.50020
 Alpha virt. eigenvalues --    0.50306   0.50772   0.51227   0.54458   0.57488
 Alpha virt. eigenvalues --    0.61553   0.62020   0.65832   0.66620   0.70304
 Alpha virt. eigenvalues --    0.73894   0.77634   0.78001   0.78468   0.81340
 Alpha virt. eigenvalues --    0.86810   0.87669   0.89272   0.89413   0.90394
 Alpha virt. eigenvalues --    0.91062   0.92303   0.94387   0.94914   0.95924
 Alpha virt. eigenvalues --    0.96323   0.98827   0.99422   1.01064   1.01641
 Alpha virt. eigenvalues --    1.02690   1.03852   1.27010   1.38034   1.41540
 Alpha virt. eigenvalues --    1.41672   1.54848   1.60845   1.66528   1.69064
 Alpha virt. eigenvalues --    1.73007   1.76244   1.78288   1.84337   1.90104
 Alpha virt. eigenvalues --    1.91013   1.97600   2.02734   2.03521   2.07124
 Alpha virt. eigenvalues --    2.09299   2.10616   2.11557   2.17468   2.25298
 Alpha virt. eigenvalues --    2.25850   2.27297   2.28910   2.38363   2.39130
 Alpha virt. eigenvalues --    2.42045   2.48781   2.57601   2.59068   2.73258
 Alpha virt. eigenvalues --    2.74910   2.77404   4.11904   4.25964   4.28755
 Alpha virt. eigenvalues --    4.30470   4.50568   4.61711
          Condensed to atoms (all electrons):
              1          2          3          4          5          6
     1  C    5.116731   0.368948   0.372009   0.368356   0.377646  -0.046496
     2  H    0.368948   0.581891  -0.031897  -0.030364  -0.030643  -0.002981
     3  H    0.372009  -0.031897   0.579353  -0.032041  -0.032631   0.005794
     4  H    0.368356  -0.030364  -0.032041   0.583232  -0.028402  -0.004520
     5  C    0.377646  -0.030643  -0.032631  -0.028402   4.865073   0.376253
     6  H   -0.046496  -0.002981   0.005794  -0.004520   0.376253   0.649498
     7  C   -0.043074  -0.004339  -0.006241   0.004586   0.394245  -0.046063
     8  H   -0.006729   0.006294  -0.000205   0.000004  -0.046063  -0.003321
     9  C   -0.005495  -0.000302   0.002018   0.000076  -0.044905   0.006023
    10  H   -0.000073   0.000036   0.000104  -0.000012  -0.006929  -0.000002
    11  H    0.000015  -0.000031  -0.000102   0.000002   0.004913  -0.000160
    12  H    0.002332   0.000228   0.003470  -0.000112  -0.004427   0.000000
    13  C   -0.055898   0.005359  -0.005718  -0.003160   0.376359  -0.048678
    14  H    0.005167  -0.000183  -0.000022  -0.000062  -0.030388  -0.002953
    15  H   -0.005525  -0.000013   0.004871  -0.000261  -0.033252   0.005798
    16  H   -0.003724  -0.000042  -0.000256   0.004015  -0.028982  -0.004403
    17  C    0.004749   0.000054   0.000000  -0.000155  -0.043074  -0.006729
    18  H    0.000000   0.000003   0.000001   0.000002  -0.006241  -0.000205
    19  H    0.000054  -0.000010   0.000003  -0.000006  -0.004339   0.006294
    20  H   -0.000155  -0.000006   0.000002   0.000002   0.004586   0.000004
              7          8          9         10         11         12
     1  C   -0.043074  -0.006729  -0.005495  -0.000073   0.000015   0.002332
     2  H   -0.004339   0.006294  -0.000302   0.000036  -0.000031   0.000228
     3  H   -0.006241  -0.000205   0.002018   0.000104  -0.000102   0.003470
     4  H    0.004586   0.000004   0.000076  -0.000012   0.000002  -0.000112
     5  C    0.394245  -0.046063  -0.044905  -0.006929   0.004913  -0.004427
     6  H   -0.046063  -0.003321   0.006023  -0.000002  -0.000160   0.000000
     7  C    4.865073   0.376253   0.376359  -0.033252  -0.028982  -0.030388
     8  H    0.376253   0.649498  -0.048678   0.005798  -0.004403  -0.002953
     9  C    0.376359  -0.048678   5.116737   0.373574   0.370507   0.370833
    10  H   -0.033252   0.005798   0.373574   0.578167  -0.032367  -0.031802
    11  H   -0.028982  -0.004403   0.370507  -0.032367   0.582062  -0.030637
    12  H   -0.030388  -0.002953   0.370833  -0.031802  -0.030637   0.575785
    13  C   -0.044905   0.006023  -0.008657   0.003459   0.000094  -0.000360
    14  H   -0.004427   0.000000  -0.000360   0.000261  -0.000026   0.000050
    15  H   -0.006929  -0.000002   0.003459   0.001735  -0.000074   0.000261
    16  H    0.004913  -0.000160   0.000094  -0.000074   0.000000  -0.000026
    17  C    0.377646  -0.046496  -0.055898  -0.005525  -0.003724   0.005167
    18  H   -0.032631   0.005794  -0.005718   0.004871  -0.000256  -0.000022
    19  H   -0.030643  -0.002981   0.005359  -0.000013  -0.000042  -0.000183
    20  H   -0.028402  -0.004520  -0.003160  -0.000261   0.004015  -0.000062
             13         14         15         16         17         18
     1  C   -0.055898   0.005167  -0.005525  -0.003724   0.004749   0.000000
     2  H    0.005359  -0.000183  -0.000013  -0.000042   0.000054   0.000003
     3  H   -0.005718  -0.000022   0.004871  -0.000256   0.000000   0.000001
     4  H   -0.003160  -0.000062  -0.000261   0.004015  -0.000155   0.000002
     5  C    0.376359  -0.030388  -0.033252  -0.028982  -0.043074  -0.006241
     6  H   -0.048678  -0.002953   0.005798  -0.004403  -0.006729  -0.000205
     7  C   -0.044905  -0.004427  -0.006929   0.004913   0.377646  -0.032631
     8  H    0.006023   0.000000  -0.000002  -0.000160  -0.046496   0.005794
     9  C   -0.008657  -0.000360   0.003459   0.000094  -0.055898  -0.005718
    10  H    0.003459   0.000261   0.001735  -0.000074  -0.005525   0.004871
    11  H    0.000094  -0.000026  -0.000074   0.000000  -0.003724  -0.000256
    12  H   -0.000360   0.000050   0.000261  -0.000026   0.005167  -0.000022
    13  C    5.116737   0.370833   0.373574   0.370507  -0.005495   0.002018
    14  H    0.370833   0.575785  -0.031802  -0.030637   0.002332   0.003470
    15  H    0.373574  -0.031802   0.578167  -0.032367  -0.000073   0.000104
    16  H    0.370507  -0.030637  -0.032367   0.582062   0.000015  -0.000102
    17  C   -0.005495   0.002332  -0.000073   0.000015   5.116731   0.372009
    18  H    0.002018   0.003470   0.000104  -0.000102   0.372009   0.579353
    19  H   -0.000302   0.000228   0.000036  -0.000031   0.368948  -0.031897
    20  H    0.000076  -0.000112  -0.000012   0.000002   0.368356  -0.032041
             19         20
     1  C    0.000054  -0.000155
     2  H   -0.000010  -0.000006
     3  H    0.000003   0.000002
     4  H   -0.000006   0.000002
     5  C   -0.004339   0.004586
     6  H    0.006294   0.000004
     7  C   -0.030643  -0.028402
     8  H   -0.002981  -0.004520
     9  C    0.005359  -0.003160
    10  H   -0.000013  -0.000261
    11  H   -0.000042   0.004015
    12  H   -0.000183  -0.000062
    13  C   -0.000302   0.000076
    14  H    0.000228  -0.000112
    15  H    0.000036  -0.000012
    16  H   -0.000031   0.000002
    17  C    0.368948   0.368356
    18  H   -0.031897  -0.032041
    19  H    0.581891  -0.030364
    20  H   -0.030364   0.583232
 Mulliken atomic charges:
              1
     1  C   -0.448838
     2  H    0.137997
     3  H    0.141487
     4  H    0.138820
     5  C   -0.058798
     6  H    0.116848
     7  C   -0.058798
     8  H    0.116848
     9  C   -0.451866
    10  H    0.142306
    11  H    0.139198
    12  H    0.142846
    13  C   -0.451866
    14  H    0.142846
    15  H    0.142306
    16  H    0.139198
    17  C   -0.448838
    18  H    0.141487
    19  H    0.137997
    20  H    0.138820
 Sum of Mulliken atomic charges =   0.00000
 Mulliken charges with hydrogens summed into heavy atoms:
              1
     1  C   -0.030534
     5  C    0.058050
     7  C    0.058050
     9  C   -0.027516
    13  C   -0.027516
    17  C   -0.030534
 Sum of Mulliken charges with hydrogens summed into heavy atoms =   0.00000
 Electronic spatial extent (au):  <R**2>=            726.4437
 Charge=              0.0000 electrons
 Dipole moment (field-independent basis, Debye):
    X=              0.0000    Y=              0.0000    Z=             -0.0821  Tot=              0.0821
 Quadrupole moment (field-independent basis, Debye-Ang):
   XX=            -41.7168   YY=            -41.7053   ZZ=            -41.4844
   XY=              0.3068   XZ=              0.0000   YZ=              0.0000
 Traceless Quadrupole moment (field-independent basis, Debye-Ang):
   XX=             -0.0813   YY=             -0.0698   ZZ=              0.1511
   XY=              0.3068   XZ=              0.0000   YZ=              0.0000
 Octapole moment (field-independent basis, Debye-Ang**2):
  XXX=              0.0000  YYY=              0.0000  ZZZ=             -0.8044  XYY=              0.0000
  XXY=              0.0000  XXZ=             -0.1140  XZZ=              0.0000  YZZ=              0.0000
  YYZ=             -0.4893  XYZ=             -1.2355
 Hexadecapole moment (field-independent basis, Debye-Ang**3):
 XXXX=           -519.1775 YYYY=           -287.2032 ZZZZ=           -196.1247 XXXY=             10.2000
 XXXZ=              0.0000 YYYX=             -0.5555 YYYZ=              0.0000 ZZZX=              0.0001
 ZZZY=              0.0000 XXYY=           -135.5877 XXZZ=           -122.3739 YYZZ=            -80.4530
 XXYZ=              0.0000 YYXZ=              0.0000 ZZXY=             -2.2700
 N-N= 2.624722644328D+02 E-N=-1.071872756770D+03  KE= 2.346286130022D+02
 No NMR shielding tensors so no spin-rotation constants.
 Leave Link  601 at Fri Sep 18 13:32:54 2015, MaxMem=  402653184 cpu:       0.3
 (Enter /share/apps/g09/l9999.exe)
 1\1\GINC-COMPUTE-0-10\FOpt\RB3LYP\6-31G(d)\C6H14\HETANJIN\18-Sep-2015\
 0\\#p B3LYP/6-31G(d) opt=tight int=ultrafine\\using B3LYP/6-31G(d) to 
 do opt and freq calc.\\0,1\C,-1.8241878973,0.7129389853,-0.5436336892\
 H,-1.6542678845,1.3433631879,-1.4250722477\H,-1.9011711811,1.372648254
 3,0.3290920184\H,-2.7971446042,0.222355618,-0.6667117037\C,-0.70518683
 93,-0.3274237864,-0.3742215633\H,-0.7350773247,-0.9775594909,-1.262387
 5326\C,0.7051872065,0.3274244468,-0.3742205102\H,0.7350782659,0.977561
 7773,-1.2623852698\C,0.9815559124,1.2166614754,0.8494464336\H,1.020967
 7272,0.6284371401,1.7741361648\H,1.9488931436,1.7220822416,0.744130782
 1\H,0.2186953668,1.9923376288,0.9779258186\C,-0.9815563317,-1.21666305
 8,0.8494435726\H,-0.2186958652,-1.9923394423,0.9779220354\H,-1.0209687
 5,-0.6284404128,1.7741343538\H,-1.9488934912,-1.7220836385,0.744126370
 4\C,1.8241883717,-0.7129380157,-0.5436338183\H,1.9011710771,-1.3726488
 978,0.3290907215\H,1.6542689378,-1.3433605911,-1.4250736521\H,2.797145
 1601,-0.2223544219,-0.6667102843\\Version=EM64L-G09RevA.01\State=1-A\H
 F=-237.0824675\RMSD=3.125e-09\RMSF=1.493e-06\Dipole=0.,0.,-0.032309\Qu
 adrupole=-0.0690058,-0.0433418,0.1123476,0.2277564,0.0000002,0.\PG=C01
  [X(C6H14)]\\@


 REVOLUTIONS HAVE NEVER LIGHTENED THE BURDEN OF TYRANNY:
 THEY HAVE MERELY SHIFTED IT TO OTHER SHOULDERS.
                                   -- G. B. SHAW (1903)
 Job cpu time:  0 days  0 hours 17 minutes 43.0 seconds.
 File lengths (MBytes):  RWF=     15 Int=      0 D2E=      0 Chk=      2 Scr=      1
 Normal termination of Gaussian 09 at Fri Sep 18 13:32:54 2015.
