 Entering Gaussian System, Link 0=/home/hetanjin/apps/g09D01/g09/g09
 Input=C6H14_2_r007_C10_2_opt_B3L.gjf
 Output=C6H14_2_r007_C10_2_opt_B3L.log
 Initial command:
 /home/hetanjin/apps/g09D01/g09/l1.exe "/state/partition1/Gau-18274.inp" -scrdir="/state/partition1/"
 Entering Link 1 = /home/hetanjin/apps/g09D01/g09/l1.exe PID=     18275.
  
 Copyright (c) 1988,1990,1992,1993,1995,1998,2003,2009,2013,
            Gaussian, Inc.  All Rights Reserved.
  
 This is part of the Gaussian(R) 09 program.  It is based on
 the Gaussian(R) 03 system (copyright 2003, Gaussian, Inc.),
 the Gaussian(R) 98 system (copyright 1998, Gaussian, Inc.),
 the Gaussian(R) 94 system (copyright 1995, Gaussian, Inc.),
 the Gaussian 92(TM) system (copyright 1992, Gaussian, Inc.),
 the Gaussian 90(TM) system (copyright 1990, Gaussian, Inc.),
 the Gaussian 88(TM) system (copyright 1988, Gaussian, Inc.),
 the Gaussian 86(TM) system (copyright 1986, Carnegie Mellon
 University), and the Gaussian 82(TM) system (copyright 1983,
 Carnegie Mellon University). Gaussian is a federally registered
 trademark of Gaussian, Inc.
  
 This software contains proprietary and confidential information,
 including trade secrets, belonging to Gaussian, Inc.
  
 This software is provided under written license and may be
 used, copied, transmitted, or stored only in accord with that
 written license.
  
 The following legend is applicable only to US Government
 contracts under FAR:
  
                    RESTRICTED RIGHTS LEGEND
  
 Use, reproduction and disclosure by the US Government is
 subject to restrictions as set forth in subparagraphs (a)
 and (c) of the Commercial Computer Software - Restricted
 Rights clause in FAR 52.227-19.
  
 Gaussian, Inc.
 340 Quinnipiac St., Bldg. 40, Wallingford CT 06492
  
  
 ---------------------------------------------------------------
 Warning -- This program may not be used in any manner that
 competes with the business of Gaussian, Inc. or will provide
 assistance to any competitor of Gaussian, Inc.  The licensee
 of this program is prohibited from giving any competitor of
 Gaussian, Inc. access to this program.  By using this program,
 the user acknowledges that Gaussian, Inc. is engaged in the
 business of creating and licensing software in the field of
 computational chemistry and represents and warrants to the
 licensee that it is not a competitor of Gaussian, Inc. and that
 it will not use this program in any manner prohibited above.
 ---------------------------------------------------------------
  

 Cite this work as:
 Gaussian 09, Revision D.01,
 M. J. Frisch, G. W. Trucks, H. B. Schlegel, G. E. Scuseria, 
 M. A. Robb, J. R. Cheeseman, G. Scalmani, V. Barone, B. Mennucci, 
 G. A. Petersson, H. Nakatsuji, M. Caricato, X. Li, H. P. Hratchian, 
 A. F. Izmaylov, J. Bloino, G. Zheng, J. L. Sonnenberg, M. Hada, 
 M. Ehara, K. Toyota, R. Fukuda, J. Hasegawa, M. Ishida, T. Nakajima, 
 Y. Honda, O. Kitao, H. Nakai, T. Vreven, J. A. Montgomery, Jr., 
 J. E. Peralta, F. Ogliaro, M. Bearpark, J. J. Heyd, E. Brothers, 
 K. N. Kudin, V. N. Staroverov, T. Keith, R. Kobayashi, J. Normand, 
 K. Raghavachari, A. Rendell, J. C. Burant, S. S. Iyengar, J. Tomasi, 
 M. Cossi, N. Rega, J. M. Millam, M. Klene, J. E. Knox, J. B. Cross, 
 V. Bakken, C. Adamo, J. Jaramillo, R. Gomperts, R. E. Stratmann, 
 O. Yazyev, A. J. Austin, R. Cammi, C. Pomelli, J. W. Ochterski, 
 R. L. Martin, K. Morokuma, V. G. Zakrzewski, G. A. Voth, 
 P. Salvador, J. J. Dannenberg, S. Dapprich, A. D. Daniels, 
 O. Farkas, J. B. Foresman, J. V. Ortiz, J. Cioslowski, 
 and D. J. Fox, Gaussian, Inc., Wallingford CT, 2013.
 
 ******************************************
 Gaussian 09:  ES64L-G09RevD.01 24-Apr-2013
                 7-Nov-2015 
 ******************************************
 %mem=6GB
 %nprocshared=4
 Will use up to    4 processors via shared memory.
 ----------------------------------------------
 #p B3LYP/6-31G(d) opt=tight int=ultrafine freq
 ----------------------------------------------
 1/7=10,14=-1,18=20,19=15,26=4,38=1/1,3;
 2/9=110,12=2,17=6,18=5,40=1/2;
 3/5=1,6=6,7=1,11=2,16=1,25=1,30=1,71=1,74=-5,75=-5/1,2,3;
 4//1;
 5/5=2,38=5/2;
 6/7=2,8=2,9=2,10=2,28=1/1;
 7//1,2,3,16;
 1/7=10,14=-1,18=20,19=15,26=4/3(2);
 2/9=110/2;
 99//99;
 2/9=110/2;
 3/5=1,6=6,7=1,11=2,16=1,25=1,30=1,71=1,74=-5,75=-5/1,2,3;
 4/5=5,16=3,69=1/1;
 5/5=2,38=5/2;
 7//1,2,3,16;
 1/7=10,14=-1,18=20,19=15,26=4/3(-5);
 2/9=110/2;
 6/7=2,8=2,9=2,10=2,19=2,28=1/1;
 99/9=1/99;
 Leave Link    1 at Sat Nov  7 02:01:17 2015, MaxMem=   805306368 cpu:         0.2
 (Enter /home/hetanjin/apps/g09D01/g09/l101.exe)
 ---------------------------------------------
 using B3LYP/6-31G(d) to do opt and freq calc.
 ---------------------------------------------
 Symbolic Z-matrix:
 Charge =  0 Multiplicity = 2
 C                     2.1588   -1.03826   0.03329 
 H                     1.92753  -2.02922  -0.37555 
 H                     2.248    -1.14076   1.12291 
 H                     3.14007  -0.7364   -0.35209 
 C                     1.07513  -0.01325  -0.33394 
 H                     1.02737   0.04492  -1.43284 
 C                    -0.30521  -0.48286   0.1671 
 H                    -0.29365  -0.5158    1.26793 
 H                    -0.46137  -1.52058  -0.16344 
 C                    -1.49862   0.36099  -0.30192 
 H                    -1.48122   0.43273  -1.39913 
 C                    -2.84619  -0.21322   0.1491 
 H                    -2.90621  -0.27062   1.24305 
 H                    -3.68183   0.40554  -0.19769 
 H                    -2.99673  -1.22689  -0.24256 
 C                     1.45204   1.37934   0.1949 
 H                     0.73689   2.14756  -0.118 
 H                     1.48756   1.38271   1.29264 
 H                     2.44125   1.682    -0.16891 
 
 NAtoms=     19 NQM=       19 NQMF=       0 NMMI=      0 NMMIF=      0
                NMic=       0 NMicF=      0.
                    Isotopes and Nuclear Properties:
 (Nuclear quadrupole moments (NQMom) in fm**2, nuclear magnetic moments (NMagM)
  in nuclear magnetons)

  Atom         1           2           3           4           5           6           7           8           9          10
 IAtWgt=          12           1           1           1          12           1          12           1           1          12
 AtmWgt=  12.0000000   1.0078250   1.0078250   1.0078250  12.0000000   1.0078250  12.0000000   1.0078250   1.0078250  12.0000000
 NucSpn=           0           1           1           1           0           1           0           1           1           0
 AtZEff=   0.0000000   0.0000000   0.0000000   0.0000000   0.0000000   0.0000000   0.0000000   0.0000000   0.0000000   0.0000000
 NQMom=    0.0000000   0.0000000   0.0000000   0.0000000   0.0000000   0.0000000   0.0000000   0.0000000   0.0000000   0.0000000
 NMagM=    0.0000000   2.7928460   2.7928460   2.7928460   0.0000000   2.7928460   0.0000000   2.7928460   2.7928460   0.0000000
 AtZNuc=   6.0000000   1.0000000   1.0000000   1.0000000   6.0000000   1.0000000   6.0000000   1.0000000   1.0000000   6.0000000

  Atom        11          12          13          14          15          16          17          18          19
 IAtWgt=           1          12           1           1           1          12           1           1           1
 AtmWgt=   1.0078250  12.0000000   1.0078250   1.0078250   1.0078250  12.0000000   1.0078250   1.0078250   1.0078250
 NucSpn=           1           0           1           1           1           0           1           1           1
 AtZEff=   0.0000000   0.0000000   0.0000000   0.0000000   0.0000000   0.0000000   0.0000000   0.0000000   0.0000000
 NQMom=    0.0000000   0.0000000   0.0000000   0.0000000   0.0000000   0.0000000   0.0000000   0.0000000   0.0000000
 NMagM=    2.7928460   0.0000000   2.7928460   2.7928460   2.7928460   0.0000000   2.7928460   2.7928460   2.7928460
 AtZNuc=   1.0000000   6.0000000   1.0000000   1.0000000   1.0000000   6.0000000   1.0000000   1.0000000   1.0000000
 Leave Link  101 at Sat Nov  7 02:01:17 2015, MaxMem=   805306368 cpu:         0.8
 (Enter /home/hetanjin/apps/g09D01/g09/l103.exe)

 GradGradGradGradGradGradGradGradGradGradGradGradGradGradGradGradGradGrad
 Berny optimization.
 Initialization pass.
                           ----------------------------
                           !    Initial Parameters    !
                           ! (Angstroms and Degrees)  !
 --------------------------                            --------------------------
 ! Name  Definition              Value          Derivative Info.                !
 --------------------------------------------------------------------------------
 ! R1    R(1,2)                  1.0967         estimate D2E/DX2                !
 ! R2    R(1,3)                  1.0981         estimate D2E/DX2                !
 ! R3    R(1,4)                  1.0966         estimate D2E/DX2                !
 ! R4    R(1,5)                  1.5362         estimate D2E/DX2                !
 ! R5    R(5,6)                  1.1015         estimate D2E/DX2                !
 ! R6    R(5,7)                  1.5417         estimate D2E/DX2                !
 ! R7    R(5,16)                 1.5366         estimate D2E/DX2                !
 ! R8    R(7,8)                  1.1014         estimate D2E/DX2                !
 ! R9    R(7,9)                  1.1002         estimate D2E/DX2                !
 ! R10   R(7,10)                 1.535          estimate D2E/DX2                !
 ! R11   R(10,11)                1.0997         estimate D2E/DX2                !
 ! R12   R(10,12)                1.5327         estimate D2E/DX2                !
 ! R13   R(12,13)                1.0971         estimate D2E/DX2                !
 ! R14   R(12,14)                1.0961         estimate D2E/DX2                !
 ! R15   R(12,15)                1.0971         estimate D2E/DX2                !
 ! R16   R(16,17)                1.0952         estimate D2E/DX2                !
 ! R17   R(16,18)                1.0983         estimate D2E/DX2                !
 ! R18   R(16,19)                1.0966         estimate D2E/DX2                !
 ! A1    A(2,1,3)              107.6218         estimate D2E/DX2                !
 ! A2    A(2,1,4)              107.8439         estimate D2E/DX2                !
 ! A3    A(2,1,5)              111.411          estimate D2E/DX2                !
 ! A4    A(3,1,4)              107.5616         estimate D2E/DX2                !
 ! A5    A(3,1,5)              110.9048         estimate D2E/DX2                !
 ! A6    A(4,1,5)              111.3185         estimate D2E/DX2                !
 ! A7    A(1,5,6)              107.7173         estimate D2E/DX2                !
 ! A8    A(1,5,7)              110.5269         estimate D2E/DX2                !
 ! A9    A(1,5,16)             110.4513         estimate D2E/DX2                !
 ! A10   A(6,5,7)              107.5475         estimate D2E/DX2                !
 ! A11   A(6,5,16)             107.8272         estimate D2E/DX2                !
 ! A12   A(7,5,16)             112.5709         estimate D2E/DX2                !
 ! A13   A(5,7,8)              108.9373         estimate D2E/DX2                !
 ! A14   A(5,7,9)              108.4663         estimate D2E/DX2                !
 ! A15   A(5,7,10)             115.4245         estimate D2E/DX2                !
 ! A16   A(8,7,9)              105.8761         estimate D2E/DX2                !
 ! A17   A(8,7,10)             109.2684         estimate D2E/DX2                !
 ! A18   A(9,7,10)             108.4426         estimate D2E/DX2                !
 ! A19   A(7,10,11)            109.1727         estimate D2E/DX2                !
 ! A20   A(7,10,12)            112.8109         estimate D2E/DX2                !
 ! A21   A(11,10,12)           109.3876         estimate D2E/DX2                !
 ! A22   A(10,12,13)           111.1695         estimate D2E/DX2                !
 ! A23   A(10,12,14)           111.4511         estimate D2E/DX2                !
 ! A24   A(10,12,15)           111.208          estimate D2E/DX2                !
 ! A25   A(13,12,14)           107.6561         estimate D2E/DX2                !
 ! A26   A(13,12,15)           107.4655         estimate D2E/DX2                !
 ! A27   A(14,12,15)           107.7002         estimate D2E/DX2                !
 ! A28   A(5,16,17)            112.1608         estimate D2E/DX2                !
 ! A29   A(5,16,18)            110.7757         estimate D2E/DX2                !
 ! A30   A(5,16,19)            110.9303         estimate D2E/DX2                !
 ! A31   A(17,16,18)           107.7288         estimate D2E/DX2                !
 ! A32   A(17,16,19)           107.4963         estimate D2E/DX2                !
 ! A33   A(18,16,19)           107.5521         estimate D2E/DX2                !
 ! D1    D(2,1,5,6)            -59.9218         estimate D2E/DX2                !
 ! D2    D(2,1,5,7)             57.3095         estimate D2E/DX2                !
 ! D3    D(2,1,5,16)          -177.4475         estimate D2E/DX2                !
 ! D4    D(3,1,5,6)           -179.7802         estimate D2E/DX2                !
 ! D5    D(3,1,5,7)            -62.549          estimate D2E/DX2                !
 ! D6    D(3,1,5,16)            62.6941         estimate D2E/DX2                !
 ! D7    D(4,1,5,6)             60.4987         estimate D2E/DX2                !
 ! D8    D(4,1,5,7)            177.7299         estimate D2E/DX2                !
 ! D9    D(4,1,5,16)           -57.027          estimate D2E/DX2                !
 ! D10   D(1,5,7,8)             64.5902         estimate D2E/DX2                !
 ! D11   D(1,5,7,9)            -50.2121         estimate D2E/DX2                !
 ! D12   D(1,5,7,10)          -172.0848         estimate D2E/DX2                !
 ! D13   D(6,5,7,8)           -178.0739         estimate D2E/DX2                !
 ! D14   D(6,5,7,9)             67.1238         estimate D2E/DX2                !
 ! D15   D(6,5,7,10)           -54.749          estimate D2E/DX2                !
 ! D16   D(16,5,7,8)           -59.4435         estimate D2E/DX2                !
 ! D17   D(16,5,7,9)          -174.2457         estimate D2E/DX2                !
 ! D18   D(16,5,7,10)           63.8815         estimate D2E/DX2                !
 ! D19   D(1,5,16,17)          175.5612         estimate D2E/DX2                !
 ! D20   D(1,5,16,18)          -64.0287         estimate D2E/DX2                !
 ! D21   D(1,5,16,19)           55.3403         estimate D2E/DX2                !
 ! D22   D(6,5,16,17)           58.1032         estimate D2E/DX2                !
 ! D23   D(6,5,16,18)          178.5133         estimate D2E/DX2                !
 ! D24   D(6,5,16,19)          -62.1177         estimate D2E/DX2                !
 ! D25   D(7,5,16,17)          -60.3633         estimate D2E/DX2                !
 ! D26   D(7,5,16,18)           60.0468         estimate D2E/DX2                !
 ! D27   D(7,5,16,19)          179.4158         estimate D2E/DX2                !
 ! D28   D(5,7,10,11)           54.1765         estimate D2E/DX2                !
 ! D29   D(5,7,10,12)          176.0138         estimate D2E/DX2                !
 ! D30   D(8,7,10,11)          177.3265         estimate D2E/DX2                !
 ! D31   D(8,7,10,12)          -60.8362         estimate D2E/DX2                !
 ! D32   D(9,7,10,11)          -67.709          estimate D2E/DX2                !
 ! D33   D(9,7,10,12)           54.1283         estimate D2E/DX2                !
 ! D34   D(7,10,12,13)          59.9145         estimate D2E/DX2                !
 ! D35   D(7,10,12,14)        -179.978          estimate D2E/DX2                !
 ! D36   D(7,10,12,15)         -59.7885         estimate D2E/DX2                !
 ! D37   D(11,10,12,13)       -178.3696         estimate D2E/DX2                !
 ! D38   D(11,10,12,14)        -58.2621         estimate D2E/DX2                !
 ! D39   D(11,10,12,15)         61.9275         estimate D2E/DX2                !
 --------------------------------------------------------------------------------
 Trust Radius=3.00D-01 FncErr=1.00D-07 GrdErr=1.00D-06
 Number of steps in this run=    100 maximum allowed number of steps=    114.
 GradGradGradGradGradGradGradGradGradGradGradGradGradGradGradGradGradGrad

 Leave Link  103 at Sat Nov  7 02:01:17 2015, MaxMem=   805306368 cpu:         0.0
 (Enter /home/hetanjin/apps/g09D01/g09/l202.exe)
                          Input orientation:                          
 ---------------------------------------------------------------------
 Center     Atomic      Atomic             Coordinates (Angstroms)
 Number     Number       Type             X           Y           Z
 ---------------------------------------------------------------------
      1          6           0        2.158797   -1.038262    0.033294
      2          1           0        1.927533   -2.029222   -0.375554
      3          1           0        2.248004   -1.140761    1.122907
      4          1           0        3.140068   -0.736400   -0.352089
      5          6           0        1.075129   -0.013247   -0.333943
      6          1           0        1.027373    0.044919   -1.432844
      7          6           0       -0.305208   -0.482864    0.167098
      8          1           0       -0.293645   -0.515801    1.267925
      9          1           0       -0.461374   -1.520579   -0.163436
     10          6           0       -1.498621    0.360991   -0.301923
     11          1           0       -1.481223    0.432726   -1.399129
     12          6           0       -2.846192   -0.213221    0.149098
     13          1           0       -2.906213   -0.270618    1.243053
     14          1           0       -3.681827    0.405542   -0.197689
     15          1           0       -2.996731   -1.226889   -0.242561
     16          6           0        1.452038    1.379337    0.194904
     17          1           0        0.736890    2.147561   -0.117998
     18          1           0        1.487561    1.382710    1.292643
     19          1           0        2.441246    1.682004   -0.168912
 ---------------------------------------------------------------------
                    Distance matrix (angstroms):
                    1          2          3          4          5
     1  C    0.000000
     2  H    1.096650   0.000000
     3  H    1.098053   1.771285   0.000000
     4  H    1.096601   1.772620   1.770565   0.000000
     5  C    1.536182   2.189173   2.183881   2.187979   0.000000
     6  H    2.145451   2.496039   3.070446   2.498394   1.101475
     7  C    2.529366   2.769626   2.804513   3.493388   1.541724
     8  H    2.794951   3.150412   2.621371   3.803090   2.166122
     9  H    2.671447   2.451650   3.023189   3.690652   2.159158
    10  C    3.930265   4.178166   4.280490   4.766993   2.601013
    11  H    4.179161   4.327645   4.769031   4.880520   2.805076
    12  C    5.073856   5.134352   5.268725   6.029943   3.956018
    13  H    5.263755   5.392372   5.228531   6.270482   4.290016
    14  H    6.020865   6.117567   6.268806   6.918535   4.777298
    15  H    5.166347   4.990972   5.420255   6.157343   4.249861
    16  C    2.523967   3.488523   2.801008   2.761338   1.536564
    17  H    3.492016   4.350802   3.825751   3.761289   2.197755
    18  H    2.810271   3.823315   2.641021   3.150643   2.182791
    19  H    2.742355   3.752306   3.110328   2.524002   2.183435
                    6          7          8          9         10
     6  H    0.000000
     7  C    2.148055   0.000000
     8  H    3.058374   1.101380   0.000000
     9  H    2.505703   1.100224   1.756846   0.000000
    10  C    2.785593   1.535027   2.164522   2.152990   0.000000
    11  H    2.538619   2.162032   3.069727   2.526347   1.099686
    12  C    4.192098   2.555314   2.803360   2.737557   1.532673
    13  H    4.767923   2.822757   2.624166   3.085102   2.183391
    14  H    4.881826   3.510540   3.804823   3.752657   2.186147
    15  H    4.384938   2.822355   3.177088   2.553537   2.183854
    16  C    2.147225   2.560562   2.791116   3.492716   3.160736
    17  H    2.496859   2.843657   3.174316   3.859165   2.867607
    18  H    3.070788   2.821567   2.603392   3.787823   3.536076
    19  H    2.505316   3.513199   3.791369   4.322241   4.157562
                   11         12         13         14         15
    11  H    0.000000
    12  C    2.162729   0.000000
    13  H    3.083247   1.097103   0.000000
    14  H    2.507360   1.096091   1.770454   0.000000
    15  H    2.527595   1.097079   1.769095   1.770932   0.000000
    16  C    3.470019   4.584007   4.776538   5.240131   5.174489
    17  H    3.082528   4.299199   4.579547   4.750373   5.034119
    18  H    4.118469   4.757742   4.694806   5.467954   5.410705
    19  H    4.296498   5.625834   5.865296   6.254775   6.167550
                   16         17         18         19
    16  C    0.000000
    17  H    1.095223   0.000000
    18  H    1.098319   1.771556   0.000000
    19  H    1.096586   1.767531   1.770659   0.000000
 Stoichiometry    C6H13(2)
 Framework group  C1[X(C6H13)]
 Deg. of freedom    51
 Full point group                 C1      NOp   1
 Largest Abelian subgroup         C1      NOp   1
 Largest concise Abelian subgroup C1      NOp   1
                         Standard orientation:                         
 ---------------------------------------------------------------------
 Center     Atomic      Atomic             Coordinates (Angstroms)
 Number     Number       Type             X           Y           Z
 ---------------------------------------------------------------------
      1          6           0        2.114721   -1.042027    0.029514
      2          1           0        1.868290   -2.027851   -0.382875
      3          1           0        2.203071   -1.149942    1.118674
      4          1           0        3.100182   -0.753539   -0.355421
      5          6           0        1.046385    0.000567   -0.333133
      6          1           0        0.998808    0.063565   -1.431776
      7          6           0       -0.340550   -0.450077    0.167110
      8          1           0       -0.328780   -0.487311    1.267798
      9          1           0       -0.512546   -1.484075   -0.167193
     10          6           0       -1.521413    0.413413   -0.297921
     11          1           0       -1.503638    0.488991   -1.394863
     12          6           0       -2.877194   -0.142119    0.151888
     13          1           0       -2.937372   -0.202706    1.245662
     14          1           0       -3.703632    0.490458   -0.192001
     15          1           0       -3.043240   -1.151929   -0.243453
     16          6           0        1.444573    1.385322    0.200654
     17          1           0        0.740881    2.165401   -0.108875
     18          1           0        1.480845    1.384045    1.298373
     19          1           0        2.437996    1.674414   -0.162717
 ---------------------------------------------------------------------
 Rotational constants (GHZ):      6.7630953      1.7026150      1.4719725
 Leave Link  202 at Sat Nov  7 02:01:17 2015, MaxMem=   805306368 cpu:         0.1
 (Enter /home/hetanjin/apps/g09D01/g09/l301.exe)
 Standard basis: 6-31G(d) (6D, 7F)
 Ernie: Thresh=  0.10000D-02 Tol=  0.10000D-05 Strict=F.
 There are   116 symmetry adapted cartesian basis functions of A   symmetry.
 There are   116 symmetry adapted basis functions of A   symmetry.
   116 basis functions,   220 primitive gaussians,   116 cartesian basis functions
    25 alpha electrons       24 beta electrons
       nuclear repulsion energy       241.4687593628 Hartrees.
 IExCor=  402 DFT=T Ex+Corr=B3LYP ExCW=0 ScaHFX=  0.200000
 ScaDFX=  0.800000  0.720000  1.000000  0.810000 ScalE2=  1.000000  1.000000
 IRadAn=      5 IRanWt=     -1 IRanGd=            0 ICorTp=0 IEmpDi=  4
 NAtoms=   19 NActive=   19 NUniq=   19 SFac= 1.00D+00 NAtFMM=   60 NAOKFM=F Big=F
 Integral buffers will be    131072 words long.
 Raffenetti 2 integral format.
 Two-electron integral symmetry is turned on.
 Leave Link  301 at Sat Nov  7 02:01:17 2015, MaxMem=   805306368 cpu:         0.2
 (Enter /home/hetanjin/apps/g09D01/g09/l302.exe)
 NPDir=0 NMtPBC=     1 NCelOv=     1 NCel=       1 NClECP=     1 NCelD=      1
         NCelK=      1 NCelE2=     1 NClLst=     1 CellRange=     0.0.
 One-electron integrals computed using PRISM.
 NBasis=   116 RedAO= T EigKep=  3.77D-03  NBF=   116
 NBsUse=   116 1.00D-06 EigRej= -1.00D+00 NBFU=   116
 Precomputing XC quadrature grid using
 IXCGrd= 4 IRadAn=           5 IRanWt=          -1 IRanGd=           0 AccXCQ= 0.00D+00.
 Generated NRdTot=       0 NPtTot=           0 NUsed=           0 NTot=          32
 NSgBfM=   116   116   116   116   116 MxSgAt=    19 MxSgA2=    19.
 Leave Link  302 at Sat Nov  7 02:01:18 2015, MaxMem=   805306368 cpu:         1.7
 (Enter /home/hetanjin/apps/g09D01/g09/l303.exe)
 DipDrv:  MaxL=1.
 Leave Link  303 at Sat Nov  7 02:01:18 2015, MaxMem=   805306368 cpu:         0.1
 (Enter /home/hetanjin/apps/g09D01/g09/l401.exe)
 ExpMin= 1.61D-01 ExpMax= 3.05D+03 ExpMxC= 4.57D+02 IAcc=3 IRadAn=         5 AccDes= 0.00D+00
 Harris functional with IExCor=  402 and IRadAn=       5 diagonalized for initial guess.
 HarFok:  IExCor=  402 AccDes= 0.00D+00 IRadAn=         5 IDoV= 1 UseB2=F ITyADJ=14
 ICtDFT=  3500011 ScaDFX=  1.000000  1.000000  1.000000  1.000000
 FoFCou: FMM=F IPFlag=           0 FMFlag=      100000 FMFlg1=           0
         NFxFlg=           0 DoJE=T BraDBF=F KetDBF=T FulRan=T
         wScrn=  0.000000 ICntrl=     500 IOpCl=  0 I1Cent=   200000004 NGrid=           0
         NMat0=    1 NMatS0=      1 NMatT0=    0 NMatD0=    1 NMtDS0=    0 NMtDT0=    0
 Petite list used in FoFCou.
 Harris En= -236.454196667020    
 JPrj=0 DoOrth=F DoCkMO=F.
 Initial guess <Sx>= 0.0000 <Sy>= 0.0000 <Sz>= 0.5000 <S**2>= 0.7500 S= 0.5000
 Leave Link  401 at Sat Nov  7 02:01:20 2015, MaxMem=   805306368 cpu:         8.5
 (Enter /home/hetanjin/apps/g09D01/g09/l502.exe)
 UHF open shell SCF:
 Using DIIS extrapolation, IDIIS=  1040.
 Integral symmetry usage will be decided dynamically.
 Keep R1 and R2 ints in memory in canonical form, NReq=47059932.
 IVT=       60514 IEndB=       60514 NGot=   805306368 MDV=   759189273
 LenX=   759189273 LenY=   759175376
 Requested convergence on RMS density matrix=1.00D-08 within 128 cycles.
 Requested convergence on MAX density matrix=1.00D-06.
 Requested convergence on             energy=1.00D-06.
 No special actions if energy rises.
 FoFCou: FMM=F IPFlag=           0 FMFlag=           0 FMFlg1=           0
         NFxFlg=           0 DoJE=F BraDBF=F KetDBF=F FulRan=T
         wScrn=  0.000000 ICntrl=     600 IOpCl=  0 I1Cent=           0 NGrid=           0
         NMat0=    1 NMatS0=   6786 NMatT0=    0 NMatD0=    1 NMtDS0=    0 NMtDT0=    0
 Symmetry not used in FoFCou.
 Integral accuracy reduced to 1.0D-05 until final iterations.

 Cycle   1  Pass 0  IDiag  1:
 E= -236.150009575968    
 DIIS: error= 5.48D-02 at cycle   1 NSaved=   1.
 NSaved= 1 IEnMin= 1 EnMin= -236.150009575968     IErMin= 1 ErrMin= 5.48D-02
 ErrMax= 5.48D-02  0.00D+00 EMaxC= 1.00D-01 BMatC= 9.19D-01 BMatP= 9.19D-01
 IDIUse=3 WtCom= 4.52D-01 WtEn= 5.48D-01
 Coeff-Com:  0.100D+01
 Coeff-En:   0.100D+01
 Coeff:      0.100D+01
 Gap=     0.277 Goal=   None    Shift=    0.000
 Gap=     0.246 Goal=   None    Shift=    0.000
 GapD=    0.246 DampG=1.000 DampE=0.500 DampFc=0.5000 IDamp=-1.
 Damping current iteration by 5.00D-01
 RMSDP=9.52D-03 MaxDP=1.54D-01              OVMax= 1.84D-01

 Cycle   2  Pass 0  IDiag  1:
 E= -236.267167070532     Delta-E=       -0.117157494564 Rises=F Damp=T
 DIIS: error= 6.87D-03 at cycle   2 NSaved=   2.
 NSaved= 2 IEnMin= 2 EnMin= -236.267167070532     IErMin= 2 ErrMin= 6.87D-03
 ErrMax= 6.87D-03  0.00D+00 EMaxC= 1.00D-01 BMatC= 3.60D-02 BMatP= 9.19D-01
 IDIUse=3 WtCom= 9.31D-01 WtEn= 6.87D-02
 Coeff-Com:  0.655D-01 0.935D+00
 Coeff-En:   0.105D+00 0.895D+00
 Coeff:      0.682D-01 0.932D+00
 Gap=     0.299 Goal=   None    Shift=    0.000
 Gap=     0.259 Goal=   None    Shift=    0.000
 RMSDP=1.47D-03 MaxDP=2.24D-02 DE=-1.17D-01 OVMax= 9.77D-02

 Cycle   3  Pass 0  IDiag  1:
 E= -236.407819227668     Delta-E=       -0.140652157136 Rises=F Damp=F
 DIIS: error= 2.22D-03 at cycle   3 NSaved=   3.
 NSaved= 3 IEnMin= 3 EnMin= -236.407819227668     IErMin= 3 ErrMin= 2.22D-03
 ErrMax= 2.22D-03  0.00D+00 EMaxC= 1.00D-01 BMatC= 3.47D-03 BMatP= 3.60D-02
 IDIUse=3 WtCom= 9.78D-01 WtEn= 2.22D-02
 Coeff-Com: -0.384D-02 0.163D+00 0.840D+00
 Coeff-En:   0.000D+00 0.000D+00 0.100D+01
 Coeff:     -0.376D-02 0.160D+00 0.844D+00
 Gap=     0.304 Goal=   None    Shift=    0.000
 Gap=     0.250 Goal=   None    Shift=    0.000
 RMSDP=4.81D-04 MaxDP=1.05D-02 DE=-1.41D-01 OVMax= 9.18D-03

 Cycle   4  Pass 0  IDiag  1:
 E= -236.408279251906     Delta-E=       -0.000460024238 Rises=F Damp=F
 DIIS: error= 1.45D-03 at cycle   4 NSaved=   4.
 NSaved= 4 IEnMin= 4 EnMin= -236.408279251906     IErMin= 4 ErrMin= 1.45D-03
 ErrMax= 1.45D-03  0.00D+00 EMaxC= 1.00D-01 BMatC= 1.87D-03 BMatP= 3.47D-03
 IDIUse=3 WtCom= 9.86D-01 WtEn= 1.45D-02
 Coeff-Com: -0.476D-02 0.260D-01 0.432D+00 0.547D+00
 Coeff-En:   0.000D+00 0.000D+00 0.318D+00 0.682D+00
 Coeff:     -0.469D-02 0.256D-01 0.430D+00 0.549D+00
 Gap=     0.301 Goal=   None    Shift=    0.000
 Gap=     0.254 Goal=   None    Shift=    0.000
 RMSDP=2.05D-04 MaxDP=4.52D-03 DE=-4.60D-04 OVMax= 4.71D-03

 Cycle   5  Pass 0  IDiag  1:
 E= -236.408734666662     Delta-E=       -0.000455414756 Rises=F Damp=F
 DIIS: error= 2.22D-04 at cycle   5 NSaved=   5.
 NSaved= 5 IEnMin= 5 EnMin= -236.408734666662     IErMin= 5 ErrMin= 2.22D-04
 ErrMax= 2.22D-04  0.00D+00 EMaxC= 1.00D-01 BMatC= 5.85D-05 BMatP= 1.87D-03
 IDIUse=3 WtCom= 9.98D-01 WtEn= 2.22D-03
 Coeff-Com: -0.107D-02-0.373D-02 0.920D-01 0.199D+00 0.714D+00
 Coeff-En:   0.000D+00 0.000D+00 0.000D+00 0.000D+00 0.100D+01
 Coeff:     -0.106D-02-0.372D-02 0.918D-01 0.198D+00 0.715D+00
 Gap=     0.302 Goal=   None    Shift=    0.000
 Gap=     0.254 Goal=   None    Shift=    0.000
 RMSDP=4.01D-05 MaxDP=6.92D-04 DE=-4.55D-04 OVMax= 8.88D-04

 Cycle   6  Pass 0  IDiag  1:
 E= -236.408750372964     Delta-E=       -0.000015706302 Rises=F Damp=F
 DIIS: error= 6.62D-05 at cycle   6 NSaved=   6.
 NSaved= 6 IEnMin= 6 EnMin= -236.408750372964     IErMin= 6 ErrMin= 6.62D-05
 ErrMax= 6.62D-05  0.00D+00 EMaxC= 1.00D-01 BMatC= 2.66D-06 BMatP= 5.85D-05
 IDIUse=1 WtCom= 1.00D+00 WtEn= 0.00D+00
 Coeff-Com:  0.153D-03-0.233D-02-0.162D-01-0.970D-02 0.104D+00 0.924D+00
 Coeff:      0.153D-03-0.233D-02-0.162D-01-0.970D-02 0.104D+00 0.924D+00
 Gap=     0.302 Goal=   None    Shift=    0.000
 Gap=     0.254 Goal=   None    Shift=    0.000
 RMSDP=1.47D-05 MaxDP=2.93D-04 DE=-1.57D-05 OVMax= 3.93D-04

 Cycle   7  Pass 0  IDiag  1:
 E= -236.408751586338     Delta-E=       -0.000001213373 Rises=F Damp=F
 DIIS: error= 2.23D-05 at cycle   7 NSaved=   7.
 NSaved= 7 IEnMin= 7 EnMin= -236.408751586338     IErMin= 7 ErrMin= 2.23D-05
 ErrMax= 2.23D-05  0.00D+00 EMaxC= 1.00D-01 BMatC= 5.51D-07 BMatP= 2.66D-06
 IDIUse=1 WtCom= 1.00D+00 WtEn= 0.00D+00
 Coeff-Com:  0.175D-03-0.194D-04-0.189D-01-0.344D-01-0.875D-01 0.276D+00
 Coeff-Com:  0.865D+00
 Coeff:      0.175D-03-0.194D-04-0.189D-01-0.344D-01-0.875D-01 0.276D+00
 Coeff:      0.865D+00
 Gap=     0.302 Goal=   None    Shift=    0.000
 Gap=     0.254 Goal=   None    Shift=    0.000
 RMSDP=6.05D-06 MaxDP=1.31D-04 DE=-1.21D-06 OVMax= 1.63D-04

 Initial convergence to 1.0D-05 achieved.  Increase integral accuracy.
 Cycle   8  Pass 1  IDiag  1:
 E= -236.408738933568     Delta-E=        0.000012652770 Rises=F Damp=F
 DIIS: error= 9.54D-06 at cycle   1 NSaved=   1.
 NSaved= 1 IEnMin= 1 EnMin= -236.408738933568     IErMin= 1 ErrMin= 9.54D-06
 ErrMax= 9.54D-06  0.00D+00 EMaxC= 1.00D-01 BMatC= 8.53D-08 BMatP= 8.53D-08
 IDIUse=1 WtCom= 1.00D+00 WtEn= 0.00D+00
 Coeff-Com:  0.100D+01
 Coeff:      0.100D+01
 Gap=     0.302 Goal=   None    Shift=    0.000
 Gap=     0.254 Goal=   None    Shift=    0.000
 RMSDP=6.05D-06 MaxDP=1.31D-04 DE= 1.27D-05 OVMax= 6.25D-05

 Cycle   9  Pass 1  IDiag  1:
 E= -236.408738936309     Delta-E=       -0.000000002741 Rises=F Damp=F
 DIIS: error= 1.27D-05 at cycle   2 NSaved=   2.
 NSaved= 2 IEnMin= 2 EnMin= -236.408738936309     IErMin= 1 ErrMin= 9.54D-06
 ErrMax= 1.27D-05  0.00D+00 EMaxC= 1.00D-01 BMatC= 1.03D-07 BMatP= 8.53D-08
 IDIUse=1 WtCom= 1.00D+00 WtEn= 0.00D+00
 Coeff-Com:  0.526D+00 0.474D+00
 Coeff:      0.526D+00 0.474D+00
 Gap=     0.302 Goal=   None    Shift=    0.000
 Gap=     0.254 Goal=   None    Shift=    0.000
 RMSDP=1.30D-06 MaxDP=2.66D-05 DE=-2.74D-09 OVMax= 3.22D-05

 Cycle  10  Pass 1  IDiag  1:
 E= -236.408738961875     Delta-E=       -0.000000025566 Rises=F Damp=F
 DIIS: error= 1.55D-06 at cycle   3 NSaved=   3.
 NSaved= 3 IEnMin= 3 EnMin= -236.408738961875     IErMin= 3 ErrMin= 1.55D-06
 ErrMax= 1.55D-06  0.00D+00 EMaxC= 1.00D-01 BMatC= 1.41D-09 BMatP= 8.53D-08
 IDIUse=1 WtCom= 1.00D+00 WtEn= 0.00D+00
 Coeff-Com: -0.114D+00-0.178D-01 0.113D+01
 Coeff:     -0.114D+00-0.178D-01 0.113D+01
 Gap=     0.302 Goal=   None    Shift=    0.000
 Gap=     0.254 Goal=   None    Shift=    0.000
 RMSDP=3.42D-07 MaxDP=8.42D-06 DE=-2.56D-08 OVMax= 9.90D-06

 Cycle  11  Pass 1  IDiag  1:
 E= -236.408738962697     Delta-E=       -0.000000000822 Rises=F Damp=F
 DIIS: error= 5.89D-07 at cycle   4 NSaved=   4.
 NSaved= 4 IEnMin= 4 EnMin= -236.408738962697     IErMin= 4 ErrMin= 5.89D-07
 ErrMax= 5.89D-07  0.00D+00 EMaxC= 1.00D-01 BMatC= 2.50D-10 BMatP= 1.41D-09
 IDIUse=1 WtCom= 1.00D+00 WtEn= 0.00D+00
 Coeff-Com: -0.702D-01-0.406D-01 0.296D+00 0.815D+00
 Coeff:     -0.702D-01-0.406D-01 0.296D+00 0.815D+00
 Gap=     0.302 Goal=   None    Shift=    0.000
 Gap=     0.254 Goal=   None    Shift=    0.000
 RMSDP=1.23D-07 MaxDP=3.73D-06 DE=-8.22D-10 OVMax= 4.04D-06

 Cycle  12  Pass 1  IDiag  1:
 E= -236.408738962792     Delta-E=       -0.000000000095 Rises=F Damp=F
 DIIS: error= 2.94D-07 at cycle   5 NSaved=   5.
 NSaved= 5 IEnMin= 5 EnMin= -236.408738962792     IErMin= 5 ErrMin= 2.94D-07
 ErrMax= 2.94D-07  0.00D+00 EMaxC= 1.00D-01 BMatC= 7.19D-11 BMatP= 2.50D-10
 IDIUse=1 WtCom= 1.00D+00 WtEn= 0.00D+00
 Coeff-Com: -0.586D-02-0.136D-01-0.120D+00 0.353D+00 0.786D+00
 Coeff:     -0.586D-02-0.136D-01-0.120D+00 0.353D+00 0.786D+00
 Gap=     0.302 Goal=   None    Shift=    0.000
 Gap=     0.254 Goal=   None    Shift=    0.000
 RMSDP=5.48D-08 MaxDP=1.56D-06 DE=-9.49D-11 OVMax= 1.73D-06

 Cycle  13  Pass 1  IDiag  1:
 E= -236.408738962811     Delta-E=       -0.000000000019 Rises=F Damp=F
 DIIS: error= 8.15D-08 at cycle   6 NSaved=   6.
 NSaved= 6 IEnMin= 6 EnMin= -236.408738962811     IErMin= 6 ErrMin= 8.15D-08
 ErrMax= 8.15D-08  0.00D+00 EMaxC= 1.00D-01 BMatC= 5.81D-12 BMatP= 7.19D-11
 IDIUse=1 WtCom= 1.00D+00 WtEn= 0.00D+00
 Coeff-Com:  0.463D-02-0.126D-02-0.772D-01 0.623D-01 0.316D+00 0.695D+00
 Coeff:      0.463D-02-0.126D-02-0.772D-01 0.623D-01 0.316D+00 0.695D+00
 Gap=     0.302 Goal=   None    Shift=    0.000
 Gap=     0.254 Goal=   None    Shift=    0.000
 RMSDP=1.48D-08 MaxDP=3.04D-07 DE=-1.89D-11 OVMax= 3.59D-07

 Cycle  14  Pass 1  IDiag  1:
 E= -236.408738962814     Delta-E=       -0.000000000003 Rises=F Damp=F
 DIIS: error= 1.75D-08 at cycle   7 NSaved=   7.
 NSaved= 7 IEnMin= 7 EnMin= -236.408738962814     IErMin= 7 ErrMin= 1.75D-08
 ErrMax= 1.75D-08  0.00D+00 EMaxC= 1.00D-01 BMatC= 2.11D-13 BMatP= 5.81D-12
 IDIUse=1 WtCom= 1.00D+00 WtEn= 0.00D+00
 Coeff-Com:  0.146D-02 0.222D-03-0.157D-01 0.925D-03 0.533D-01 0.200D+00
 Coeff-Com:  0.760D+00
 Coeff:      0.146D-02 0.222D-03-0.157D-01 0.925D-03 0.533D-01 0.200D+00
 Coeff:      0.760D+00
 Gap=     0.302 Goal=   None    Shift=    0.000
 Gap=     0.254 Goal=   None    Shift=    0.000
 RMSDP=3.39D-09 MaxDP=7.81D-08 DE=-3.35D-12 OVMax= 9.18D-08

 SCF Done:  E(UB3LYP) =  -236.408738963     A.U. after   14 cycles
            NFock= 14  Conv=0.34D-08     -V/T= 2.0105
 <Sx>= 0.0000 <Sy>= 0.0000 <Sz>= 0.5000 <S**2>= 0.7529 S= 0.5014
 <L.S>= 0.000000000000E+00
 KE= 2.339408360893D+02 PE=-1.028524026474D+03 EE= 3.167056920595D+02
 Annihilation of the first spin contaminant:
 S**2 before annihilation     0.7529,   after     0.7500
 Leave Link  502 at Sat Nov  7 02:02:02 2015, MaxMem=   805306368 cpu:       157.3
 (Enter /home/hetanjin/apps/g09D01/g09/l601.exe)
 Copying SCF densities to generalized density rwf, IOpCl= 1 IROHF=0.

 **********************************************************************

            Population analysis using the SCF density.

 **********************************************************************

 Orbital symmetries:
 Alpha Orbitals:
       Occupied  (A) (A) (A) (A) (A) (A) (A) (A) (A) (A) (A) (A)
                 (A) (A) (A) (A) (A) (A) (A) (A) (A) (A) (A) (A)
                 (A)
       Virtual   (A) (A) (A) (A) (A) (A) (A) (A) (A) (A) (A) (A)
                 (A) (A) (A) (A) (A) (A) (A) (A) (A) (A) (A) (A)
                 (A) (A) (A) (A) (A) (A) (A) (A) (A) (A) (A) (A)
                 (A) (A) (A) (A) (A) (A) (A) (A) (A) (A) (A) (A)
                 (A) (A) (A) (A) (A) (A) (A) (A) (A) (A) (A) (A)
                 (A) (A) (A) (A) (A) (A) (A) (A) (A) (A) (A) (A)
                 (A) (A) (A) (A) (A) (A) (A) (A) (A) (A) (A) (A)
                 (A) (A) (A) (A) (A) (A) (A)
 Beta  Orbitals:
       Occupied  (A) (A) (A) (A) (A) (A) (A) (A) (A) (A) (A) (A)
                 (A) (A) (A) (A) (A) (A) (A) (A) (A) (A) (A) (A)
       Virtual   (A) (A) (A) (A) (A) (A) (A) (A) (A) (A) (A) (A)
                 (A) (A) (A) (A) (A) (A) (A) (A) (A) (A) (A) (A)
                 (A) (A) (A) (A) (A) (A) (A) (A) (A) (A) (A) (A)
                 (A) (A) (A) (A) (A) (A) (A) (A) (A) (A) (A) (A)
                 (A) (A) (A) (A) (A) (A) (A) (A) (A) (A) (A) (A)
                 (A) (A) (A) (A) (A) (A) (A) (A) (A) (A) (A) (A)
                 (A) (A) (A) (A) (A) (A) (A) (A) (A) (A) (A) (A)
                 (A) (A) (A) (A) (A) (A) (A) (A)
 The electronic state is 2-A.
 Alpha  occ. eigenvalues --  -10.19654 -10.18416 -10.17861 -10.17664 -10.16908
 Alpha  occ. eigenvalues --  -10.16647  -0.80633  -0.75546  -0.67556  -0.67384
 Alpha  occ. eigenvalues --   -0.57819  -0.55094  -0.45768  -0.44197  -0.42923
 Alpha  occ. eigenvalues --   -0.41088  -0.39512  -0.37921  -0.37718  -0.36004
 Alpha  occ. eigenvalues --   -0.34006  -0.32407  -0.31580  -0.30823  -0.21167
 Alpha virt. eigenvalues --    0.09059   0.11064   0.12278   0.14905   0.15208
 Alpha virt. eigenvalues --    0.16094   0.16458   0.17123   0.17651   0.19071
 Alpha virt. eigenvalues --    0.19593   0.19833   0.21767   0.23373   0.25011
 Alpha virt. eigenvalues --    0.26510   0.27208   0.28622   0.49771   0.50797
 Alpha virt. eigenvalues --    0.51836   0.52285   0.52749   0.57244   0.58752
 Alpha virt. eigenvalues --    0.61361   0.62959   0.67351   0.69325   0.70505
 Alpha virt. eigenvalues --    0.72897   0.74056   0.78627   0.81143   0.84456
 Alpha virt. eigenvalues --    0.86073   0.88342   0.89966   0.90190   0.90581
 Alpha virt. eigenvalues --    0.91537   0.92393   0.94233   0.95442   0.96562
 Alpha virt. eigenvalues --    0.97005   0.98247   0.98717   1.00148   1.03526
 Alpha virt. eigenvalues --    1.22321   1.34426   1.40485   1.43416   1.45681
 Alpha virt. eigenvalues --    1.50024   1.55536   1.67554   1.70136   1.77849
 Alpha virt. eigenvalues --    1.78700   1.83503   1.89274   1.90631   1.95039
 Alpha virt. eigenvalues --    1.97900   1.99582   2.01954   2.03564   2.10070
 Alpha virt. eigenvalues --    2.11735   2.20736   2.22135   2.24269   2.25044
 Alpha virt. eigenvalues --    2.26296   2.34064   2.37301   2.44578   2.51623
 Alpha virt. eigenvalues --    2.52823   2.58024   2.68536   2.76437   2.79786
 Alpha virt. eigenvalues --    4.09342   4.19405   4.29136   4.32163   4.41683
 Alpha virt. eigenvalues --    4.58679
  Beta  occ. eigenvalues --  -10.18407 -10.18230 -10.17891 -10.17699 -10.16909
  Beta  occ. eigenvalues --  -10.16639  -0.80210  -0.74425  -0.67529  -0.67189
  Beta  occ. eigenvalues --   -0.56648  -0.54325  -0.45203  -0.43804  -0.42444
  Beta  occ. eigenvalues --   -0.40198  -0.39372  -0.37777  -0.37553  -0.35591
  Beta  occ. eigenvalues --   -0.33599  -0.32174  -0.31378  -0.30534
  Beta virt. eigenvalues --   -0.05136   0.09313   0.11314   0.12420   0.15019
  Beta virt. eigenvalues --    0.15366   0.16207   0.16687   0.17332   0.17986
  Beta virt. eigenvalues --    0.19314   0.19821   0.20191   0.22132   0.23859
  Beta virt. eigenvalues --    0.25355   0.26783   0.28044   0.29457   0.50144
  Beta virt. eigenvalues --    0.51668   0.51933   0.52602   0.53305   0.58738
  Beta virt. eigenvalues --    0.59293   0.62806   0.64086   0.68028   0.69902
  Beta virt. eigenvalues --    0.71604   0.73079   0.74639   0.79159   0.81690
  Beta virt. eigenvalues --    0.85001   0.86224   0.88677   0.90044   0.90298
  Beta virt. eigenvalues --    0.90844   0.91752   0.92888   0.94449   0.95884
  Beta virt. eigenvalues --    0.96838   0.97337   0.98700   0.99065   1.00577
  Beta virt. eigenvalues --    1.04098   1.23218   1.35320   1.41204   1.43970
  Beta virt. eigenvalues --    1.45730   1.50650   1.56766   1.68168   1.70477
  Beta virt. eigenvalues --    1.78634   1.78817   1.84239   1.91038   1.91433
  Beta virt. eigenvalues --    1.96151   1.99089   2.00311   2.02435   2.04666
  Beta virt. eigenvalues --    2.10174   2.13276   2.20883   2.23144   2.24635
  Beta virt. eigenvalues --    2.26081   2.27251   2.35074   2.38405   2.44924
  Beta virt. eigenvalues --    2.51796   2.53144   2.59705   2.69061   2.76906
  Beta virt. eigenvalues --    2.80534   4.10667   4.19807   4.29141   4.32690
  Beta virt. eigenvalues --    4.42974   4.58866
          Condensed to atoms (all electrons):
               1          2          3          4          5          6
     1  C    5.117570   0.368942   0.371685   0.368441   0.373202  -0.046561
     2  H    0.368942   0.583756  -0.031905  -0.030189  -0.030006  -0.003378
     3  H    0.371685  -0.031905   0.584107  -0.031831  -0.033848   0.005893
     4  H    0.368441  -0.030189  -0.031831   0.580287  -0.027967  -0.003432
     5  C    0.373202  -0.030006  -0.033848  -0.027967   4.841710   0.379297
     6  H   -0.046561  -0.003378   0.005893  -0.003432   0.379297   0.644186
     7  C   -0.046572  -0.004378  -0.006098   0.004707   0.385406  -0.049599
     8  H   -0.004130  -0.000277   0.004862  -0.000092  -0.036300   0.006506
     9  H   -0.003954   0.005396  -0.000332   0.000019  -0.039554  -0.003580
    10  C    0.003890   0.000003   0.000018  -0.000122  -0.033950  -0.005605
    11  H    0.000043  -0.000002   0.000009   0.000001  -0.003934   0.006168
    12  C   -0.000161  -0.000003   0.000001   0.000002   0.003579   0.000041
    13  H    0.000000   0.000000  -0.000001   0.000000   0.000054   0.000009
    14  H    0.000002   0.000000   0.000000   0.000000  -0.000117   0.000001
    15  H    0.000003   0.000000   0.000000   0.000000  -0.000070  -0.000002
    16  C   -0.055066   0.005314  -0.005463  -0.003672   0.384325  -0.047627
    17  H    0.005156  -0.000182  -0.000042  -0.000032  -0.028485  -0.003444
    18  H   -0.005260  -0.000048   0.004860  -0.000228  -0.034587   0.005915
    19  H   -0.004280  -0.000006  -0.000243   0.004368  -0.031221  -0.003413
               7          8          9         10         11         12
     1  C   -0.046572  -0.004130  -0.003954   0.003890   0.000043  -0.000161
     2  H   -0.004378  -0.000277   0.005396   0.000003  -0.000002  -0.000003
     3  H   -0.006098   0.004862  -0.000332   0.000018   0.000009   0.000001
     4  H    0.004707  -0.000092   0.000019  -0.000122   0.000001   0.000002
     5  C    0.385406  -0.036300  -0.039554  -0.033950  -0.003934   0.003579
     6  H   -0.049599   0.006506  -0.003580  -0.005605   0.006168   0.000041
     7  C    5.051153   0.360260   0.359196   0.381801  -0.056471  -0.048796
     8  H    0.360260   0.615481  -0.039462  -0.041155   0.006054  -0.004122
     9  H    0.359196  -0.039462   0.623431  -0.042500  -0.002175  -0.002459
    10  C    0.381801  -0.041155  -0.042500   5.205757   0.358095   0.361350
    11  H   -0.056471   0.006054  -0.002175   0.358095   0.627808  -0.052981
    12  C   -0.048796  -0.004122  -0.002459   0.361350  -0.052981   5.110969
    13  H   -0.005425   0.004720  -0.000293  -0.034984   0.005347   0.373285
    14  H    0.004147  -0.000046  -0.000027  -0.027388  -0.003362   0.369683
    15  H   -0.003500  -0.000322   0.005155  -0.034589  -0.002038   0.363506
    16  C   -0.048836  -0.007854   0.005720  -0.002631  -0.000660   0.000142
    17  H   -0.004624  -0.000149   0.000062   0.007672   0.000201  -0.000152
    18  H   -0.006240   0.005650  -0.000020  -0.000185   0.000075  -0.000021
    19  H    0.005012  -0.000062  -0.000162   0.000094  -0.000030   0.000000
              13         14         15         16         17         18
     1  C    0.000000   0.000002   0.000003  -0.055066   0.005156  -0.005260
     2  H    0.000000   0.000000   0.000000   0.005314  -0.000182  -0.000048
     3  H   -0.000001   0.000000   0.000000  -0.005463  -0.000042   0.004860
     4  H    0.000000   0.000000   0.000000  -0.003672  -0.000032  -0.000228
     5  C    0.000054  -0.000117  -0.000070   0.384325  -0.028485  -0.034587
     6  H    0.000009   0.000001  -0.000002  -0.047627  -0.003444   0.005915
     7  C   -0.005425   0.004147  -0.003500  -0.048836  -0.004624  -0.006240
     8  H    0.004720  -0.000046  -0.000322  -0.007854  -0.000149   0.005650
     9  H   -0.000293  -0.000027   0.005155   0.005720   0.000062  -0.000020
    10  C   -0.034984  -0.027388  -0.034589  -0.002631   0.007672  -0.000185
    11  H    0.005347  -0.003362  -0.002038  -0.000660   0.000201   0.000075
    12  C    0.373285   0.369683   0.363506   0.000142  -0.000152  -0.000021
    13  H    0.572182  -0.030280  -0.033502  -0.000011   0.000002   0.000001
    14  H   -0.030280   0.570131  -0.031850   0.000004   0.000003   0.000000
    15  H   -0.033502  -0.031850   0.585235   0.000002   0.000006   0.000000
    16  C   -0.000011   0.000004   0.000002   5.104349   0.369810   0.371306
    17  H    0.000002   0.000003   0.000006   0.369810   0.565503  -0.030344
    18  H    0.000001   0.000000   0.000000   0.371306  -0.030344   0.584928
    19  H    0.000000   0.000000   0.000000   0.370317  -0.030531  -0.032141
              19
     1  C   -0.004280
     2  H   -0.000006
     3  H   -0.000243
     4  H    0.004368
     5  C   -0.031221
     6  H   -0.003413
     7  C    0.005012
     8  H   -0.000062
     9  H   -0.000162
    10  C    0.000094
    11  H   -0.000030
    12  C    0.000000
    13  H    0.000000
    14  H    0.000000
    15  H    0.000000
    16  C    0.370317
    17  H   -0.030531
    18  H   -0.032141
    19  H    0.585131
          Atomic-Atomic Spin Densities.
               1          2          3          4          5          6
     1  C   -0.002194  -0.000146   0.000146   0.000165   0.000086   0.000381
     2  H   -0.000146  -0.000155   0.000037   0.000054  -0.000223  -0.000028
     3  H    0.000146   0.000037  -0.000023  -0.000005  -0.000124  -0.000012
     4  H    0.000165   0.000054  -0.000005  -0.000368  -0.000223  -0.000070
     5  C    0.000086  -0.000223  -0.000124  -0.000223   0.013228   0.000227
     6  H    0.000381  -0.000028  -0.000012  -0.000070   0.000227  -0.000683
     7  C    0.000570   0.000090  -0.000011  -0.000018   0.004065   0.000521
     8  H   -0.000280  -0.000055  -0.000021  -0.000021   0.004377   0.000072
     9  H    0.000545   0.000489   0.000004   0.000049  -0.007781  -0.000730
    10  C    0.000108  -0.000030  -0.000001  -0.000005  -0.005989  -0.000149
    11  H   -0.000040  -0.000005   0.000000  -0.000001   0.000896   0.000188
    12  C    0.000002   0.000000   0.000000   0.000000   0.000128   0.000015
    13  H   -0.000001   0.000000   0.000000   0.000000   0.000055   0.000001
    14  H    0.000000   0.000000   0.000000   0.000000   0.000006   0.000001
    15  H    0.000004   0.000002   0.000000   0.000000  -0.000121  -0.000014
    16  C    0.000646   0.000051   0.000025   0.000140  -0.004307  -0.000166
    17  H   -0.000035   0.000003   0.000003   0.000010  -0.000232  -0.000020
    18  H    0.000069   0.000001  -0.000004   0.000004  -0.000298  -0.000018
    19  H    0.000025   0.000006   0.000003   0.000045  -0.000263  -0.000064
               7          8          9         10         11         12
     1  C    0.000570  -0.000280   0.000545   0.000108  -0.000040   0.000002
     2  H    0.000090  -0.000055   0.000489  -0.000030  -0.000005   0.000000
     3  H   -0.000011  -0.000021   0.000004  -0.000001   0.000000   0.000000
     4  H   -0.000018  -0.000021   0.000049  -0.000005  -0.000001   0.000000
     5  C    0.004065   0.004377  -0.007781  -0.005989   0.000896   0.000128
     6  H    0.000521   0.000072  -0.000730  -0.000149   0.000188   0.000015
     7  C   -0.045484   0.004386   0.005329  -0.024631   0.005139   0.001931
     8  H    0.004386   0.014294  -0.009281  -0.005489   0.000318   0.001006
     9  H    0.005329  -0.009281   0.088045  -0.026135  -0.003371  -0.001355
    10  C   -0.024631  -0.005489  -0.026135   1.126172  -0.014678  -0.024602
    11  H    0.005139   0.000318  -0.003371  -0.014678  -0.019468   0.005863
    12  C    0.001931   0.001006  -0.001355  -0.024602   0.005863  -0.049698
    13  H    0.001063   0.000696  -0.000897  -0.005287   0.000231   0.006251
    14  H    0.000052   0.000046  -0.000131  -0.004374   0.000996   0.006233
    15  H   -0.001379  -0.000858   0.006738  -0.023779  -0.003430   0.000352
    16  C    0.000326  -0.000886   0.000766  -0.000197   0.000024  -0.000021
    17  H   -0.000725  -0.000162   0.000112   0.003533  -0.000283  -0.000028
    18  H    0.000009  -0.000079   0.000017   0.000127  -0.000003  -0.000001
    19  H   -0.000051  -0.000029   0.000019   0.000112  -0.000009   0.000000
              13         14         15         16         17         18
     1  C   -0.000001   0.000000   0.000004   0.000646  -0.000035   0.000069
     2  H    0.000000   0.000000   0.000002   0.000051   0.000003   0.000001
     3  H    0.000000   0.000000   0.000000   0.000025   0.000003  -0.000004
     4  H    0.000000   0.000000   0.000000   0.000140   0.000010   0.000004
     5  C    0.000055   0.000006  -0.000121  -0.004307  -0.000232  -0.000298
     6  H    0.000001   0.000001  -0.000014  -0.000166  -0.000020  -0.000018
     7  C    0.001063   0.000052  -0.001379   0.000326  -0.000725   0.000009
     8  H    0.000696   0.000046  -0.000858  -0.000886  -0.000162  -0.000079
     9  H   -0.000897  -0.000131   0.006738   0.000766   0.000112   0.000017
    10  C   -0.005287  -0.004374  -0.023779  -0.000197   0.003533   0.000127
    11  H    0.000231   0.000996  -0.003430   0.000024  -0.000283  -0.000003
    12  C    0.006251   0.006233   0.000352  -0.000021  -0.000028  -0.000001
    13  H    0.011469   0.001642  -0.008294  -0.000006  -0.000006  -0.000001
    14  H    0.001642   0.006480  -0.005674   0.000000  -0.000003   0.000000
    15  H   -0.008294  -0.005674   0.090999   0.000008   0.000005   0.000000
    16  C   -0.000006   0.000000   0.000008   0.010919  -0.000665  -0.000079
    17  H   -0.000006  -0.000003   0.000005  -0.000665  -0.002426   0.000288
    18  H   -0.000001   0.000000   0.000000  -0.000079   0.000288  -0.000064
    19  H    0.000000   0.000000   0.000000  -0.000565   0.000210   0.000045
              19
     1  C    0.000025
     2  H    0.000006
     3  H    0.000003
     4  H    0.000045
     5  C   -0.000263
     6  H   -0.000064
     7  C   -0.000051
     8  H   -0.000029
     9  H    0.000019
    10  C    0.000112
    11  H   -0.000009
    12  C    0.000000
    13  H    0.000000
    14  H    0.000000
    15  H    0.000000
    16  C   -0.000565
    17  H    0.000210
    18  H    0.000045
    19  H    0.000498
 Mulliken charges and spin densities:
               1          2
     1  C   -0.442952   0.000051
     2  H    0.136966   0.000089
     3  H    0.138329   0.000017
     4  H    0.139742  -0.000245
     5  C   -0.067535   0.003508
     6  H    0.118625  -0.000547
     7  C   -0.271143  -0.048818
     8  H    0.130438   0.008033
     9  H    0.135540   0.052430
    10  C   -0.095570   0.994705
    11  H    0.117853  -0.027636
    12  C   -0.473864  -0.053922
    13  H    0.148897   0.006915
    14  H    0.149099   0.005273
    15  H    0.151964   0.054560
    16  C   -0.439467   0.006015
    17  H    0.149570  -0.000423
    18  H    0.136339   0.000013
    19  H    0.137169  -0.000019
 Sum of Mulliken charges =   0.00000   1.00000
 Mulliken charges and spin densities with hydrogens summed into heavy atoms:
               1          2
     1  C   -0.027915  -0.000088
     5  C    0.051090   0.002960
     7  C   -0.005165   0.011645
    10  C    0.022283   0.967069
    12  C   -0.023904   0.012826
    16  C   -0.016390   0.005586
 Electronic spatial extent (au):  <R**2>=            892.3870
 Charge=              0.0000 electrons
 Dipole moment (field-independent basis, Debye):
    X=             -0.1130    Y=             -0.5644    Z=             -0.1810  Tot=              0.6033
 Quadrupole moment (field-independent basis, Debye-Ang):
   XX=            -40.5409   YY=            -41.6113   ZZ=            -40.1807
   XY=              0.9122   XZ=              0.1435   YZ=              0.0333
 Traceless Quadrupole moment (field-independent basis, Debye-Ang):
   XX=              0.2367   YY=             -0.8337   ZZ=              0.5970
   XY=              0.9122   XZ=              0.1435   YZ=              0.0333
 Octapole moment (field-independent basis, Debye-Ang**2):
  XXX=             -1.1747  YYY=             -2.4869  ZZZ=              0.9094  XYY=             -0.5044
  XXY=              0.2691  XXZ=             -1.8094  XZZ=             -0.2605  YZZ=             -0.2374
  YYZ=             -1.1958  XYZ=             -0.2044
 Hexadecapole moment (field-independent basis, Debye-Ang**3):
 XXXX=           -892.0259 YYYY=           -241.2286 ZZZZ=            -95.6642 XXXY=              2.9447
 XXXZ=             -0.4944 YYYX=              2.6044 YYYZ=              1.2198 ZZZX=              0.3247
 ZZZY=             -0.3696 XXYY=           -192.9588 XXZZ=           -165.4028 YYZZ=            -57.7529
 XXYZ=             -0.8601 YYXZ=              0.0479 ZZXY=              0.0888
 N-N= 2.414687593628D+02 E-N=-1.028524029917D+03  KE= 2.339408360893D+02
                          Isotropic Fermi Contact Couplings
        Atom                 a.u.       MegaHertz       Gauss      10(-4) cm-1
     1  C(13)             -0.00056      -0.63394      -0.22620      -0.21146
     2  H(1)               0.00007       0.30515       0.10888       0.10179
     3  H(1)               0.00003       0.14190       0.05063       0.04733
     4  H(1)              -0.00012      -0.53432      -0.19066      -0.17823
     5  C(13)              0.00383       4.31032       1.53803       1.43777
     6  H(1)              -0.00019      -0.86567      -0.30889      -0.28876
     7  C(13)             -0.00856      -9.62574      -3.43470      -3.21080
     8  H(1)               0.00507      22.66270       8.08662       7.55946
     9  H(1)               0.02312     103.32522      36.86901      34.46558
    10  C(13)              0.29662     333.45319     118.98438     111.22801
    11  H(1)              -0.00267     -11.94495      -4.26225      -3.98440
    12  C(13)             -0.00851      -9.56774      -3.41401      -3.19145
    13  H(1)               0.00425      19.01352       6.78449       6.34223
    14  H(1)               0.00366      16.34699       5.83301       5.45277
    15  H(1)               0.02378     106.29815      37.92982      35.45725
    16  C(13)              0.00015       0.16931       0.06042       0.05648
    17  H(1)               0.00063       2.80225       0.99991       0.93473
    18  H(1)               0.00002       0.10593       0.03780       0.03533
    19  H(1)              -0.00004      -0.16500      -0.05888      -0.05504
 --------------------------------------------------------
       Center         ----  Spin Dipole Couplings  ----
                      3XX-RR        3YY-RR        3ZZ-RR
 --------------------------------------------------------
     1   Atom        0.003115     -0.001176     -0.001940
     2   Atom        0.002531     -0.000227     -0.002304
     3   Atom        0.002290     -0.000901     -0.001389
     4   Atom        0.002303     -0.000923     -0.001380
     5   Atom        0.012946     -0.006128     -0.006819
     6   Atom        0.006713     -0.004263     -0.002450
     7   Atom        0.004239      0.014825     -0.019064
     8   Atom       -0.002594     -0.001604      0.004197
     9   Atom       -0.000952      0.009914     -0.008962
    10   Atom       -0.467418      0.736408     -0.268989
    11   Atom       -0.057856     -0.013429      0.071284
    12   Atom        0.014377      0.003594     -0.017971
    13   Atom        0.001554     -0.004630      0.003076
    14   Atom        0.019330     -0.008778     -0.010552
    15   Atom        0.003220      0.004684     -0.007904
    16   Atom        0.008713     -0.001111     -0.007602
    17   Atom        0.009821     -0.001611     -0.008211
    18   Atom        0.004277     -0.003082     -0.001195
    19   Atom        0.004071     -0.001653     -0.002418
 --------------------------------------------------------
                        XY            XZ            YZ
 --------------------------------------------------------
     1   Atom       -0.001053      0.000441      0.000513
     2   Atom       -0.002443     -0.000273      0.000208
     3   Atom       -0.001571      0.001524     -0.000516
     4   Atom       -0.000887     -0.000134      0.000109
     5   Atom       -0.003227     -0.004020     -0.000592
     6   Atom       -0.002215     -0.006123      0.001272
     7   Atom       -0.030585      0.003835     -0.002132
     8   Atom       -0.007712      0.011434     -0.009877
     9   Atom       -0.007371      0.002933     -0.000014
    10   Atom        0.130381      0.054051      0.503387
    11   Atom        0.005036     -0.001335     -0.002275
    12   Atom        0.026111     -0.006171     -0.003227
    13   Atom        0.007215     -0.012776     -0.006730
    14   Atom        0.001732      0.000025      0.000728
    15   Atom        0.009577     -0.001770      0.001582
    16   Atom       -0.002309      0.002691     -0.001509
    17   Atom        0.008356      0.000893     -0.000276
    18   Atom        0.001540      0.003895      0.000791
    19   Atom        0.001451     -0.000255     -0.000140
 --------------------------------------------------------


 ---------------------------------------------------------------------------------
              Anisotropic Spin Dipole Couplings in Principal Axis System
 ---------------------------------------------------------------------------------

       Atom             a.u.   MegaHertz   Gauss  10(-4) cm-1        Axes

              Baa    -0.0023    -0.315    -0.112    -0.105 -0.1676 -0.5186  0.8384
     1 C(13)  Bbb    -0.0010    -0.139    -0.049    -0.046  0.1522  0.8267  0.5417
              Bcc     0.0034     0.453     0.162     0.151  0.9740 -0.2184  0.0596
 
              Baa    -0.0023    -1.240    -0.443    -0.414  0.0152 -0.0812  0.9966
     2 H(1)   Bbb    -0.0017    -0.881    -0.314    -0.294  0.5065  0.8600  0.0623
              Bcc     0.0040     2.121     0.757     0.708  0.8621 -0.5038 -0.0542
 
              Baa    -0.0019    -1.037    -0.370    -0.346 -0.3699 -0.1002  0.9237
     3 H(1)   Bbb    -0.0015    -0.812    -0.290    -0.271  0.2955  0.9298  0.2192
              Bcc     0.0035     1.849     0.660     0.617  0.8808 -0.3541  0.3143
 
              Baa    -0.0014    -0.751    -0.268    -0.250 -0.0308 -0.2741  0.9612
     4 H(1)   Bbb    -0.0011    -0.603    -0.215    -0.201  0.2506  0.9288  0.2729
              Bcc     0.0025     1.354     0.483     0.452  0.9676 -0.2492 -0.0401
 
              Baa    -0.0084    -1.126    -0.402    -0.375  0.2341  0.5451  0.8050
     5 C(13)  Bbb    -0.0058    -0.779    -0.278    -0.260  0.0209  0.8250 -0.5647
              Bcc     0.0142     1.905     0.680     0.635  0.9720 -0.1491 -0.1817
 
              Baa    -0.0055    -2.956    -1.055    -0.986  0.4159 -0.1689  0.8936
     6 H(1)   Bbb    -0.0047    -2.501    -0.892    -0.834  0.2296  0.9703  0.0766
              Bcc     0.0102     5.457     1.947     1.820  0.8799 -0.1733 -0.4424
 
              Baa    -0.0223    -2.995    -1.069    -0.999  0.6973  0.5476 -0.4624
     7 C(13)  Bbb    -0.0185    -2.487    -0.887    -0.829  0.3150  0.3453  0.8840
              Bcc     0.0409     5.482     1.956     1.829 -0.6438  0.7621 -0.0683
 
              Baa    -0.0112    -5.949    -2.123    -1.985  0.8259  0.0917 -0.5563
     8 H(1)   Bbb    -0.0088    -4.719    -1.684    -1.574  0.2157  0.8601  0.4622
              Bcc     0.0200    10.669     3.807     3.559  0.5209 -0.5018  0.6906
 
              Baa    -0.0103    -5.473    -1.953    -1.826 -0.4005 -0.1457  0.9046
     9 H(1)   Bbb    -0.0035    -1.846    -0.659    -0.616  0.7938  0.4380  0.4220
              Bcc     0.0137     7.319     2.612     2.441 -0.4577  0.8871 -0.0597
 
              Baa    -0.4814   -64.597   -23.050   -21.547  0.9951 -0.0916 -0.0362
    10 C(13)  Bbb    -0.4777   -64.103   -22.874   -21.382 -0.0016 -0.3829  0.9238
              Bcc     0.9591   128.700    45.923    42.930  0.0985  0.9193  0.3811
 
              Baa    -0.0584   -31.175   -11.124   -10.399  0.9938 -0.1108  0.0083
    11 H(1)   Bbb    -0.0129    -6.901    -2.462    -2.302  0.1105  0.9935  0.0286
              Bcc     0.0714    38.076    13.586    12.701 -0.0114 -0.0275  0.9996
 
              Baa    -0.0198    -2.650    -0.946    -0.884  0.4296 -0.3665  0.8253
    12 C(13)  Bbb    -0.0168    -2.248    -0.802    -0.750 -0.4696  0.6900  0.5508
              Bcc     0.0365     4.898     1.748     1.634  0.7713  0.6242 -0.1244
 
              Baa    -0.0107    -5.689    -2.030    -1.898  0.7674 -0.2683  0.5823
    13 H(1)   Bbb    -0.0085    -4.548    -1.623    -1.517 -0.0436  0.8843  0.4649
              Bcc     0.0192    10.237     3.653     3.415 -0.6396 -0.3822  0.6669
 
              Baa    -0.0108    -5.775    -2.061    -1.926  0.0193 -0.3496  0.9367
    14 H(1)   Bbb    -0.0086    -4.596    -1.640    -1.533 -0.0583  0.9349  0.3501
              Bcc     0.0194    10.370     3.700     3.459  0.9981  0.0613  0.0023
 
              Baa    -0.0094    -5.018    -1.791    -1.674  0.3931 -0.3621  0.8452
    15 H(1)   Bbb    -0.0042    -2.215    -0.790    -0.739  0.6191 -0.5753 -0.5345
              Bcc     0.0136     7.233     2.581     2.413  0.6798  0.7334 -0.0020
 
              Baa    -0.0082    -1.103    -0.394    -0.368 -0.1329  0.1643  0.9774
    16 C(13)  Bbb    -0.0015    -0.203    -0.072    -0.068  0.2503  0.9598 -0.1273
              Bcc     0.0097     1.306     0.466     0.436  0.9590 -0.2277  0.1687
 
              Baa    -0.0084    -4.488    -1.602    -1.497 -0.1489  0.2220  0.9636
    17 H(1)   Bbb    -0.0058    -3.114    -1.111    -1.039 -0.4420  0.8567 -0.2657
              Bcc     0.0142     7.602     2.713     2.536  0.8845  0.4655  0.0294
 
              Baa    -0.0034    -1.810    -0.646    -0.604 -0.1774  0.9834 -0.0396
    18 H(1)   Bbb    -0.0032    -1.717    -0.613    -0.573 -0.4532 -0.0459  0.8902
              Bcc     0.0066     3.527     1.258     1.176  0.8736  0.1758  0.4538
 
              Baa    -0.0024    -1.303    -0.465    -0.435 -0.0006  0.1757  0.9844
    19 H(1)   Bbb    -0.0020    -1.060    -0.378    -0.354 -0.2363  0.9565 -0.1709
              Bcc     0.0044     2.363     0.843     0.788  0.9717  0.2327 -0.0409
 

 ---------------------------------------------------------------------------------

 No NMR shielding tensors so no spin-rotation constants.
 Leave Link  601 at Sat Nov  7 02:02:02 2015, MaxMem=   805306368 cpu:         1.0
 (Enter /home/hetanjin/apps/g09D01/g09/l701.exe)
 Compute integral first derivatives.
 ... and contract with generalized density number  0.
 Leave Link  701 at Sat Nov  7 02:02:03 2015, MaxMem=   805306368 cpu:         0.6
 (Enter /home/hetanjin/apps/g09D01/g09/l702.exe)
 L702 exits ... SP integral derivatives will be done elsewhere.
 Leave Link  702 at Sat Nov  7 02:02:03 2015, MaxMem=   805306368 cpu:         0.1
 (Enter /home/hetanjin/apps/g09D01/g09/l703.exe)
 Compute integral first derivatives, UseDBF=F ICtDFT=           0.
 Integral derivatives from FoFJK, PRISM(SPDF).
 Calling FoFJK, ICntrl=      2127 FMM=F ISym2X=0 I1Cent= 0 IOpClX= 1 NMat=1 NMatS=1 NMatT=0.
 FoFJK:  IHMeth= 1 ICntrl=    2127 DoSepK=F KAlg= 0 I1Cent=   0 FoldK=F
 IRaf=         0 NMat=   1 IRICut=       1 DoRegI=T DoRafI=F ISym2E= 0.
 FoFCou: FMM=F IPFlag=           0 FMFlag=      100000 FMFlg1=         800
         NFxFlg=           0 DoJE=F BraDBF=F KetDBF=F FulRan=T
         wScrn=  0.000000 ICntrl=    2127 IOpCl=  1 I1Cent=           0 NGrid=           0
         NMat0=    1 NMatS0=      1 NMatT0=    0 NMatD0=    1 NMtDS0=    0 NMtDT0=    0
 Symmetry not used in FoFCou.
 Leave Link  703 at Sat Nov  7 02:02:10 2015, MaxMem=   805306368 cpu:        29.5
 (Enter /home/hetanjin/apps/g09D01/g09/l716.exe)
 Dipole        =-4.44388640D-02-2.22033628D-01-7.12062535D-02
 ***** Axes restored to original set *****
 -------------------------------------------------------------------
 Center     Atomic                   Forces (Hartrees/Bohr)
 Number     Number              X              Y              Z
 -------------------------------------------------------------------
      1        6          -0.000066274   -0.000223134   -0.000170912
      2        1           0.000156543   -0.000214557   -0.000020176
      3        1           0.000002998    0.000031655   -0.000021063
      4        1          -0.000135280   -0.000038226   -0.000005754
      5        6           0.000991469    0.000001622   -0.000199948
      6        1          -0.000140242   -0.000051703   -0.000009637
      7        6          -0.001122823    0.021145452    0.005479377
      8        1           0.000477018   -0.001322699    0.000438043
      9        1          -0.002449398   -0.001854236   -0.001388738
     10        6          -0.004370133   -0.048941651   -0.009987752
     11        1           0.001514419    0.015544212    0.001774156
     12        6           0.007144476    0.020942446    0.005894365
     13        1          -0.000728921   -0.001131182    0.000297255
     14        1          -0.000739395   -0.000732676   -0.000255572
     15        1           0.001316185   -0.002218961   -0.001965057
     16        6          -0.000487157    0.000047575    0.000124865
     17        1          -0.001487391   -0.000718362    0.000136681
     18        1          -0.000096385    0.000003744   -0.000112383
     19        1           0.000220289   -0.000269319   -0.000007749
 -------------------------------------------------------------------
 Cartesian Forces:  Max     0.048941651 RMS     0.008160084
 Leave Link  716 at Sat Nov  7 02:02:10 2015, MaxMem=   805306368 cpu:         0.1
 (Enter /home/hetanjin/apps/g09D01/g09/l103.exe)

 GradGradGradGradGradGradGradGradGradGradGradGradGradGradGradGradGradGrad
 Berny optimization.
 FormGI is forming the generalized inverse of G from B-inverse, IUseBI=4.
 Internal  Forces:  Max     0.014352502 RMS     0.003235587
 Search for a local minimum.
 Step number   1 out of a maximum of  100
 All quantities printed in internal units (Hartrees-Bohrs-Radians)
 RMS Force = .32356D-02 SwitMx=.10000D-02 MixMth= 1
 Mixed Optimization -- RFO/linear search
 Second derivative matrix not updated -- first step.
 ITU=  0
     Eigenvalues ---    0.00230   0.00282   0.00287   0.00303   0.00334
     Eigenvalues ---    0.02344   0.03394   0.03630   0.04648   0.04879
     Eigenvalues ---    0.05236   0.05336   0.05398   0.05465   0.05490
     Eigenvalues ---    0.06909   0.06955   0.09704   0.10926   0.13099
     Eigenvalues ---    0.16000   0.16000   0.16000   0.16000   0.16000
     Eigenvalues ---    0.16000   0.16000   0.16000   0.16000   0.16671
     Eigenvalues ---    0.17068   0.21972   0.23396   0.28367   0.28825
     Eigenvalues ---    0.28860   0.28964   0.29178   0.33520   0.33530
     Eigenvalues ---    0.33657   0.33717   0.33869   0.33898   0.34005
     Eigenvalues ---    0.34007   0.34055   0.34061   0.34062   0.34118
     Eigenvalues ---    0.34216
 RFO step:  Lambda=-1.36084888D-02 EMin= 2.30000000D-03
 Linear search not attempted -- first point.
 Iteration  1 RMS(Cart)=  0.08650295 RMS(Int)=  0.00688029
 Iteration  2 RMS(Cart)=  0.00952570 RMS(Int)=  0.00409837
 Iteration  3 RMS(Cart)=  0.00003342 RMS(Int)=  0.00409826
 Iteration  4 RMS(Cart)=  0.00000017 RMS(Int)=  0.00409826
 ITry= 1 IFail=0 DXMaxC= 3.09D-01 DCOld= 1.00D+10 DXMaxT= 3.00D-01 DXLimC= 3.00D+00 Rises=F
 Variable       Old X    -DE/DX   Delta X   Delta X   Delta X     New X
                                 (Linear)    (Quad)   (Total)
    R1        2.07237   0.00017   0.00000   0.00047   0.00047   2.07284
    R2        2.07502  -0.00002   0.00000  -0.00007  -0.00007   2.07495
    R3        2.07228  -0.00013   0.00000  -0.00036  -0.00036   2.07191
    R4        2.90296   0.00021   0.00000   0.00071   0.00071   2.90367
    R5        2.08149   0.00001   0.00000   0.00004   0.00004   2.08152
    R6        2.91344  -0.00128   0.00000  -0.00429  -0.00429   2.90915
    R7        2.90369  -0.00125   0.00000  -0.00415  -0.00415   2.89954
    R8        2.08131   0.00048   0.00000   0.00138   0.00138   2.08269
    R9        2.07912   0.00251   0.00000   0.00718   0.00718   2.08630
   R10        2.90078  -0.01101   0.00000  -0.03631  -0.03631   2.86447
   R11        2.07811  -0.00073   0.00000  -0.00209  -0.00209   2.07602
   R12        2.89633  -0.01130   0.00000  -0.03699  -0.03699   2.85935
   R13        2.07322   0.00039   0.00000   0.00112   0.00112   2.07434
   R14        2.07131   0.00023   0.00000   0.00065   0.00065   2.07196
   R15        2.07318   0.00257   0.00000   0.00727   0.00727   2.08045
   R16        2.06967   0.00043   0.00000   0.00120   0.00120   2.07088
   R17        2.07552  -0.00011   0.00000  -0.00033  -0.00033   2.07520
   R18        2.07225   0.00013   0.00000   0.00036   0.00036   2.07261
    A1        1.87835  -0.00008   0.00000  -0.00009  -0.00009   1.87826
    A2        1.88223  -0.00012   0.00000  -0.00074  -0.00074   1.88149
    A3        1.94449   0.00031   0.00000   0.00196   0.00196   1.94645
    A4        1.87730   0.00004   0.00000  -0.00010  -0.00011   1.87720
    A5        1.93565  -0.00006   0.00000  -0.00031  -0.00031   1.93535
    A6        1.94287  -0.00010   0.00000  -0.00077  -0.00077   1.94211
    A7        1.88002  -0.00068   0.00000   0.00181   0.00180   1.88182
    A8        1.92906   0.00120   0.00000   0.00706   0.00710   1.93616
    A9        1.92774   0.00148   0.00000   0.00908   0.00911   1.93685
   A10        1.87706   0.00037   0.00000  -0.00125  -0.00130   1.87576
   A11        1.88194   0.00041   0.00000   0.00058   0.00051   1.88245
   A12        1.96473  -0.00276   0.00000  -0.01700  -0.01703   1.94770
   A13        1.90132   0.00007   0.00000   0.00433   0.00431   1.90563
   A14        1.89309   0.00206   0.00000   0.00966   0.00954   1.90264
   A15        2.01454  -0.00174   0.00000  -0.00759  -0.00762   2.00692
   A16        1.84789  -0.00045   0.00000  -0.00147  -0.00146   1.84643
   A17        1.90709   0.00163   0.00000   0.01319   0.01322   1.92032
   A18        1.89268  -0.00148   0.00000  -0.01783  -0.01781   1.87487
   A19        1.90542   0.00100   0.00000   0.11716   0.09424   1.99966
   A20        1.96892   0.01435   0.00000   0.10409   0.08445   2.05337
   A21        1.90917   0.00094   0.00000   0.11694   0.09401   2.00318
   A22        1.94027   0.00212   0.00000   0.01458   0.01448   1.95475
   A23        1.94519   0.00161   0.00000   0.01093   0.01080   1.95599
   A24        1.94094  -0.00380   0.00000  -0.02587  -0.02584   1.91511
   A25        1.87895  -0.00047   0.00000   0.00480   0.00458   1.88353
   A26        1.87563   0.00024   0.00000  -0.00175  -0.00169   1.87393
   A27        1.87972   0.00029   0.00000  -0.00270  -0.00269   1.87703
   A28        1.95757  -0.00174   0.00000  -0.01084  -0.01085   1.94673
   A29        1.93340   0.00019   0.00000   0.00009   0.00007   1.93347
   A30        1.93610   0.00011   0.00000   0.00244   0.00245   1.93855
   A31        1.88022   0.00036   0.00000  -0.00125  -0.00129   1.87894
   A32        1.87616   0.00112   0.00000   0.00822   0.00823   1.88439
   A33        1.87714   0.00007   0.00000   0.00193   0.00193   1.87907
    D1       -1.04583   0.00009   0.00000   0.00114   0.00114  -1.04469
    D2        1.00024   0.00080   0.00000   0.00460   0.00459   1.00483
    D3       -3.09704  -0.00083   0.00000  -0.00566  -0.00565  -3.10269
    D4       -3.13776   0.00002   0.00000   0.00016   0.00016  -3.13759
    D5       -1.09169   0.00073   0.00000   0.00362   0.00361  -1.08807
    D6        1.09422  -0.00089   0.00000  -0.00664  -0.00663   1.08759
    D7        1.05590   0.00008   0.00000   0.00101   0.00101   1.05691
    D8        3.10197   0.00079   0.00000   0.00447   0.00446   3.10643
    D9       -0.99531  -0.00083   0.00000  -0.00579  -0.00578  -1.00109
   D10        1.12731   0.00002   0.00000  -0.01042  -0.01042   1.11690
   D11       -0.87637  -0.00058   0.00000  -0.01610  -0.01614  -0.89251
   D12       -3.00345   0.00098   0.00000   0.00497   0.00497  -2.99847
   D13       -3.10798   0.00009   0.00000  -0.00509  -0.00509  -3.11307
   D14        1.17153  -0.00052   0.00000  -0.01077  -0.01082   1.16071
   D15       -0.95555   0.00104   0.00000   0.01029   0.01030  -0.94525
   D16       -1.03748  -0.00080   0.00000  -0.01516  -0.01513  -1.05261
   D17       -3.04116  -0.00140   0.00000  -0.02084  -0.02085  -3.06201
   D18        1.11494   0.00016   0.00000   0.00023   0.00026   1.11521
   D19        3.06412   0.00033   0.00000   0.01550   0.01551   3.07963
   D20       -1.11751  -0.00027   0.00000   0.00661   0.00664  -1.11087
   D21        0.96587   0.00001   0.00000   0.01069   0.01071   0.97658
   D22        1.01409   0.00008   0.00000   0.00793   0.00792   1.02201
   D23        3.11564  -0.00052   0.00000  -0.00096  -0.00095   3.11469
   D24       -1.08416  -0.00024   0.00000   0.00311   0.00312  -1.08104
   D25       -1.05354   0.00099   0.00000   0.01914   0.01910  -1.03443
   D26        1.04801   0.00039   0.00000   0.01025   0.01024   1.05825
   D27        3.13140   0.00067   0.00000   0.01432   0.01431  -3.13748
   D28        0.94556  -0.00553   0.00000  -0.14670  -0.14914   0.79642
   D29        3.07202   0.00601   0.00000   0.15552   0.15806  -3.05310
   D30        3.09493  -0.00540   0.00000  -0.13599  -0.13846   2.95647
   D31       -1.06179   0.00613   0.00000   0.16623   0.16875  -0.89305
   D32       -1.18174  -0.00587   0.00000  -0.14038  -0.14295  -1.32470
   D33        0.94472   0.00566   0.00000   0.16184   0.16425   1.10897
   D34        1.04570  -0.00682   0.00000  -0.16819  -0.17077   0.87493
   D35       -3.14121  -0.00488   0.00000  -0.14482  -0.14721   2.99476
   D36       -1.04351  -0.00601   0.00000  -0.15845  -0.16091  -1.20441
   D37       -3.11314   0.00479   0.00000   0.13479   0.13716  -2.97598
   D38       -1.01687   0.00673   0.00000   0.15816   0.16072  -0.85614
   D39        1.08084   0.00561   0.00000   0.14453   0.14703   1.22787
         Item               Value     Threshold  Converged?
 Maximum Force            0.014353     0.000015     NO 
 RMS     Force            0.003236     0.000010     NO 
 Maximum Displacement     0.308748     0.000060     NO 
 RMS     Displacement     0.086365     0.000040     NO 
 Predicted change in Energy=-1.006636D-02
 Lowest energy point so far.  Saving SCF results.
 GradGradGradGradGradGradGradGradGradGradGradGradGradGradGradGradGradGrad

 Leave Link  103 at Sat Nov  7 02:02:11 2015, MaxMem=   805306368 cpu:         2.1
 (Enter /home/hetanjin/apps/g09D01/g09/l202.exe)
                          Input orientation:                          
 ---------------------------------------------------------------------
 Center     Atomic      Atomic             Coordinates (Angstroms)
 Number     Number       Type             X           Y           Z
 ---------------------------------------------------------------------
      1          6           0        2.206050   -1.024836    0.045992
      2          1           0        2.025140   -2.026198   -0.363566
      3          1           0        2.282614   -1.120926    1.137114
      4          1           0        3.179125   -0.681775   -0.324878
      5          6           0        1.085743   -0.046828   -0.340557
      6          1           0        1.050727    0.008074   -1.440125
      7          6           0       -0.283334   -0.560839    0.140417
      8          1           0       -0.289352   -0.598838    1.241857
      9          1           0       -0.414703   -1.603818   -0.196932
     10          6           0       -1.475808    0.231047   -0.358182
     11          1           0       -1.447932    0.472988   -1.429428
     12          6           0       -2.841661   -0.148628    0.170749
     13          1           0       -2.853680   -0.218017    1.266181
     14          1           0       -3.614096    0.568924   -0.130301
     15          1           0       -3.132282   -1.134323   -0.224200
     16          6           0        1.378780    1.362089    0.191766
     17          1           0        0.617279    2.080774   -0.131526
     18          1           0        1.397225    1.367701    1.289743
     19          1           0        2.353773    1.721357   -0.159278
 ---------------------------------------------------------------------
                    Distance matrix (angstroms):
                    1          2          3          4          5
     1  C    0.000000
     2  H    1.096901   0.000000
     3  H    1.098018   1.771398   0.000000
     4  H    1.096408   1.772188   1.770312   0.000000
     5  C    1.536557   2.191096   2.183964   2.187613   0.000000
     6  H    2.147142   2.499345   3.071539   2.499949   1.101494
     7  C    2.534017   2.780347   2.809127   3.495675   1.539453
     8  H    2.799750   3.157787   2.626511   3.806819   2.167865
     9  H    2.694917   2.481735   3.047685   3.712429   2.167068
    10  C    3.911097   4.165553   4.264912   4.743707   2.576639
    11  H    4.215676   4.409561   4.800487   4.895218   2.806307
    12  C    5.124713   5.243712   5.304471   6.064631   3.961855
    13  H    5.266943   5.452383   5.216648   6.256299   4.257930
    14  H    6.036990   6.212090   6.263635   6.910134   4.744665
    15  H    5.346286   5.235826   5.583409   6.328411   4.357513
    16  C    2.530423   3.493804   2.806415   2.772282   1.534369
    17  H    3.492925   4.347774   3.825398   3.772548   2.188572
    18  H    2.815200   3.827044   2.645841   3.159513   2.180778
    19  H    2.757814   3.767480   3.124783   2.546306   2.183401
                    6          7          8          9         10
     6  H    0.000000
     7  C    2.145110   0.000000
     8  H    3.058952   1.102112   0.000000
     9  H    2.508229   1.104023   1.759491   0.000000
    10  C    2.757481   1.515810   2.157895   2.125718   0.000000
    11  H    2.541566   2.211222   3.102722   2.626734   1.098582
    12  C    4.215466   2.591500   2.804325   2.853575   1.513101
    13  H    4.756008   2.826933   2.592565   3.163819   2.176866
    14  H    4.877578   3.527553   3.781588   3.867992   2.176779
    15  H    4.503456   2.928879   3.243195   2.757971   2.150835
[...]
 4278,0.33141311,-0.24813364,-0.08588571,0.07094856,-0.00240062,-0.0012
 6111,0.00050682,0.00209047,0.00098338,-0.00017087,0.27109839,-0.086652
 81,-0.08648360,0.03025298,-0.02614318,-0.01046819,0.01077673,-0.001657
 02,-0.00176431,0.00037985,0.09304615,0.09115619,0.07123751,0.03006649,
 -0.07473313,-0.01321665,-0.00466052,0.00432124,0.02981139,0.01307513,-
 0.00922834,-0.07713618,-0.03444006,0.07611287,-0.13860011,0.04788958,-
 0.02324513,0.00302646,-0.00362123,0.00151191,-0.00144219,0.00030041,-0
 .00089807,-0.02169076,0.01833784,-0.00922317,0.46776770,0.04749173,-0.
 11723908,0.01893117,0.02290277,-0.01816145,0.00982855,0.00229458,-0.00
 272925,0.00116919,-0.01054603,0.00750819,-0.00434429,-0.00580782,0.477
 72987,-0.02249279,0.01833700,-0.09015347,0.01197226,-0.00847023,0.0033
 5849,-0.02698020,0.02122866,-0.01030328,0.00852182,-0.00782188,0.00232
 379,0.00632738,-0.00647041,0.58697143,-0.00193383,0.00322862,-0.027070
 56,0.00095254,-0.00037475,0.00072504,-0.00371359,0.00352600,-0.0017674
 4,0.00086899,-0.00090198,0.00017049,-0.04872155,0.00001315,-0.00130287
 ,0.05787871,0.00153742,-0.00265925,0.02159599,-0.00083895,0.00053704,-
 0.00003240,0.00353087,-0.00211443,0.00134683,-0.00034346,0.00066659,-0
 .00072062,-0.00011045,-0.04986234,0.01486619,-0.00005929,0.05863021,-0
 .00070302,0.00116390,-0.00929651,0.00002419,0.00053698,0.00057014,-0.0
 0147455,0.00116722,0.00111489,-0.00049156,-0.00022732,0.00046621,-0.00
 141327,0.01472184,-0.29232197,0.00169224,-0.01624700,0.31977396,-0.031
 47684,-0.00703352,0.00754429,0.00132635,-0.00137820,0.00016775,0.00185
 826,-0.00102938,0.00086901,-0.00270594,0.00244932,-0.00119052,-0.14178
 856,-0.02966057,0.02222496,-0.00349968,-0.00148723,0.00159301,0.458348
 35,0.01626153,0.00831910,-0.00601856,0.00132095,0.00025026,-0.00029839
 ,-0.00014087,0.00022793,-0.00016133,0.00470616,-0.00266622,0.00105945,
 -0.03520501,-0.08966885,0.01291026,-0.00240781,-0.00119561,0.00088738,
 -0.01165162,0.48574326,-0.00863384,-0.00483050,0.00352279,0.00056523,-
 0.00013145,-0.00009911,-0.00135474,-0.00012075,0.00038007,-0.00302556,
 0.00131127,-0.00017698,0.02485792,0.01398401,-0.09170498,0.03106714,0.
 01410341,-0.01151335,0.00196011,0.00125590,0.55346895,0.00159291,-0.00
 035670,0.00114327,-0.00010541,0.00000717,-0.00000432,-0.00028910,0.000
 20217,-0.00079964,0.00021044,-0.00005544,-0.00042255,-0.00221370,-0.00
 058614,0.02983144,-0.00520050,-0.00243419,0.00179545,-0.05100922,-0.00
 154053,0.00823759,0.05610380,0.00058157,-0.00004398,-0.00054598,-0.000
 06026,0.00004512,-0.00013238,0.00008348,0.00034202,-0.00012366,0.00006
 295,-0.00012977,0.00002353,-0.00074470,-0.00130380,0.01376367,-0.00241
 913,-0.00059701,0.00126241,-0.00174931,-0.04574374,0.00534649,-0.00090
 258,0.05119883,-0.00063838,0.00003679,0.00019621,-0.00001567,0.0000685
 3,0.00002417,0.00072579,-0.00037465,0.00055189,0.00015631,-0.00000614,
 0.00042594,0.00095554,0.00050499,-0.01094022,0.00191300,0.00085284,0.0
 0070617,0.00956491,0.00543728,-0.28986711,-0.01010267,-0.00863897,0.31
 989178,0.00099108,-0.00167204,-0.00068447,-0.00045200,0.00068976,0.000
 27774,-0.00008925,0.00009881,-0.00008610,0.00044805,0.00010343,0.00012
 257,-0.00388838,-0.02824161,-0.00999878,0.00105701,0.00069915,0.000149
 89,-0.04261869,-0.00205858,0.00037179,0.00059682,0.00131510,0.00068014
 ,0.05401686,0.00178775,0.00046497,-0.00037843,-0.00063413,0.00102057,0
 .00008945,-0.00010223,0.00001775,0.00003295,0.00014357,0.00039565,0.00
 035971,-0.00191634,-0.01499995,-0.00589350,0.00034058,0.00029689,0.000
 49727,-0.01563016,-0.24763426,-0.07178373,-0.00044960,-0.00031295,-0.0
 0146497,0.00738623,0.27878149,-0.00028787,-0.00007382,0.00016819,-0.00
 020090,-0.00002804,0.00023285,-0.00000251,-0.00017411,-0.00009854,-0.0
 0013726,0.00022798,-0.00015002,0.00214346,0.00987112,0.00273263,-0.000
 69373,0.00008067,0.00048051,-0.00375809,-0.06387174,-0.06862387,-0.001
 21676,-0.03244686,-0.01216880,0.00307532,0.07461632,0.07212232,-0.0037
 6384,-0.00279839,0.00129799,0.00019239,0.00002659,0.00015752,-0.000110
 46,-0.00004389,-0.00016147,-0.00081402,0.00094318,-0.00051974,-0.03034
 833,0.01415435,-0.00734950,0.00175171,0.00085630,-0.00135015,-0.166232
 04,0.05927623,-0.03392268,0.00116755,0.00144123,-0.00089784,-0.0038155
 8,0.01032622,-0.00040268,0.49826729,-0.00196468,-0.00144092,0.00114745
 ,-0.00026361,0.00040616,0.00020255,0.00014418,-0.00014878,-0.00005209,
 -0.00093297,0.00074940,-0.00007003,-0.00361757,0.00758980,-0.00688124,
 -0.00076049,0.00015767,0.00053137,0.05740561,-0.09458529,0.03953119,0.
 00327852,-0.00348083,0.00412887,0.02710946,-0.01825676,0.01258224,-0.0
 6989178,0.22807661,0.00291513,0.00203265,-0.00137114,-0.00022580,0.000
 31063,-0.00006092,0.00001788,-0.00004625,0.00045661,0.00129810,-0.0005
 0137,0.00068792,0.00617190,-0.00908599,0.00502701,0.00144252,-0.000575
 39,0.00028422,-0.03315513,0.04131470,-0.09888143,-0.02622268,0.0197916
 6,-0.01210718,0.00487119,0.00168245,0.00493683,-0.05232919,-0.19628622
 ,0.49501948,-0.00003859,0.00002018,0.00018712,0.00005517,-0.00004242,-
 0.00003192,0.00009257,-0.00007797,0.00022731,-0.00006850,-0.00005160,0
 .00007727,0.00210184,0.00022090,-0.00181541,-0.00020045,-0.00001410,0.
 00086012,0.00292410,0.00747235,-0.02148830,-0.00355549,0.00290810,-0.0
 0211515,-0.00022724,0.00065566,-0.00017410,-0.05423281,0.00292677,0.01
 665212,0.05575620,0.00000787,-0.00004873,-0.00018406,0.00002085,-0.000
 05650,0.00002407,-0.00012029,0.00004487,-0.00008486,0.00003512,0.00000
 419,-0.00003915,-0.00060676,0.00014795,-0.00015577,0.00051059,0.000206
 37,-0.00057298,-0.00121875,-0.00117754,0.01676449,0.00214095,-0.000867
 86,-0.00041049,-0.00052854,-0.00000209,-0.00108049,0.00236717,-0.06328
 680,0.10938600,-0.00367618,0.06180665,-0.00016640,-0.00023876,0.000400
 18,0.00006195,-0.00007332,-0.00002954,0.00022966,-0.00007274,0.0000330
 5,-0.00014374,0.00003748,0.00000252,0.00138508,0.00039604,0.00011208,-
 0.00079975,-0.00017892,0.00057773,0.00226233,0.00166313,-0.00654861,-0
 .00153229,0.00183952,-0.00036083,-0.00036626,0.00031500,-0.00060690,0.
 01887464,0.11773793,-0.28338043,-0.02011683,-0.12433346,0.29708100,-0.
 00059239,-0.00071424,0.00051502,0.00004506,-0.00002172,0.00000614,0.00
 003163,-0.00001154,-0.00002549,-0.00027365,0.00017786,-0.00011594,-0.0
 0104952,0.00294018,-0.00136665,-0.00008464,-0.00004877,0.00025568,-0.0
 2121402,-0.00387122,0.00787596,0.00133997,-0.00090153,0.00120263,0.001
 07715,-0.00068699,0.00048620,-0.20159481,-0.00407963,0.05966022,0.0013
 2263,0.00170960,-0.00197606,0.50051846,0.00081815,0.00080291,-0.000450
 29,0.00000727,-0.00000880,-0.00003390,-0.00006699,-0.00000130,0.000041
 82,0.00038951,-0.00021323,0.00010411,0.00068402,-0.00277258,0.00180161
 ,0.00012620,-0.00000762,-0.00023179,0.01786722,0.00785482,-0.00751802,
 -0.00061576,0.00007562,-0.00012183,-0.00137508,-0.00002071,-0.00002905
 ,-0.00273293,-0.06081826,0.02199309,-0.00849632,0.00232154,0.00296905,
 -0.03883592,0.51054549,-0.00097250,-0.00054878,0.00068561,0.00009054,-
 0.00002769,-0.00000734,0.00009286,-0.00005823,-0.00003904,-0.00043503,
 0.00019973,-0.00010597,-0.00183738,0.00224096,-0.00188934,-0.00000157,
 0.00000295,0.00047907,-0.00868682,-0.00385621,0.00679862,-0.00139750,-
 0.00003843,0.00063477,-0.00060119,0.00062828,0.00007395,0.05777707,0.0
 2161274,-0.10621248,0.02627381,0.00461731,-0.00647252,0.02362989,-0.02
 132682,0.54137280,0.00006248,0.00003506,-0.00009011,-0.00000267,0.0000
 0180,-0.00000261,-0.00004856,0.00002573,-0.00002796,0.00002991,-0.0000
 0972,0.00000384,-0.00006918,-0.00031955,0.00006892,0.00008622,0.000057
 65,-0.00026567,0.00187536,-0.00029559,0.00138705,-0.00015352,0.0002119
 3,-0.00105838,-0.00012616,0.00001904,-0.00027277,0.00107076,-0.0022916
 0,0.03154442,-0.00456043,0.00006705,0.00227811,-0.04964220,0.00370324,
 -0.01658759,0.05371096,-0.00001118,-0.00002959,-0.00003374,0.00000349,
 -0.00000753,-0.00000416,0.00000456,0.00001268,0.00000808,-0.00001476,-
 0.00000067,0.00001021,0.00012275,0.00002952,0.00011560,0.00000264,-0.0
 0004892,-0.00000151,-0.00005022,-0.00038623,-0.00082945,0.00006029,0.0
 0022034,-0.00002458,0.00024099,-0.00004878,-0.00010744,-0.00210589,-0.
 00050410,0.00645912,-0.00124585,0.00062937,0.00072332,0.00403384,-0.04
 728464,-0.01002834,0.00183891,0.04731518,0.00005851,0.00004293,0.00000
 395,-0.00001005,0.00000555,-0.00000336,0.00003470,-0.00000831,0.000027
 36,0.00003293,-0.00001718,-0.00000021,-0.00002156,0.00001170,0.0005181
 1,-0.00026710,-0.00004621,0.00012627,-0.00121296,0.00069254,0.00045983
 ,0.00090654,-0.00057395,0.00078425,0.00002487,-0.00019088,0.00006794,0
 .00330947,0.00359706,-0.01369758,0.00207770,-0.00177967,-0.00054320,-0
 .01926524,-0.00948401,-0.30104912,0.01685004,0.00962354,0.33008923,-0.
 00045061,-0.00044054,0.00025482,0.00004630,-0.00001576,0.00000525,0.00
 002972,0.00000801,-0.00003218,-0.00023957,0.00010413,-0.00006346,-0.00
 022029,0.00144463,-0.00075991,-0.00003412,-0.00002029,0.00010590,-0.00
 339924,-0.00172246,0.00426800,0.00032141,-0.00032087,0.00011506,-0.000
 11816,0.00046051,0.00005322,-0.02135269,0.02019260,-0.01185161,0.00138
 414,-0.00084535,-0.00003939,-0.14581292,0.11906586,-0.04911078,-0.0013
 9479,0.00017153,-0.00067846,0.16200838,-0.00001531,0.00001704,-0.00001
 135,-0.00000875,-0.00000624,0.00000730,-0.00000302,-0.00000517,0.00000
 295,0.00000567,0.00000397,-0.00000158,-0.00032307,0.00003162,0.0001497
 3,0.00001877,0.00000994,-0.00001843,-0.00103105,0.00053182,-0.00010536
 ,-0.00000066,-0.00007635,0.00003239,-0.00023322,0.00013092,0.00002351,
 -0.00453428,0.00443744,-0.00223199,0.00032146,0.00046127,-0.00035433,0
 .11934867,-0.18480673,0.05920528,-0.00302433,0.00191263,-0.00062524,-0
 .12840574,0.19976077,0.00016598,0.00013220,-0.00011347,-0.00000741,-0.
 00000506,-0.00000179,-0.00000216,0.00000881,0.00000879,0.00007524,-0.0
 0004525,0.00001729,0.00033737,-0.00031836,0.00073789,-0.00009914,-0.00
 003836,-0.00002782,0.00156271,0.00124342,-0.00113180,0.00019903,-0.000
 04257,0.00053812,-0.00024811,0.00008344,0.00001474,0.00883208,-0.01121
 972,0.00558097,-0.00065436,-0.00075066,0.00053526,-0.04870514,0.058895
 41,-0.07684957,-0.01977200,0.02470524,-0.00785554,0.05303880,-0.065921
 75,0.07614187,-0.00007874,-0.00005265,0.00002325,0.00001211,0.00002538
 ,0.00000768,-0.00001191,0.00000061,-0.00001716,-0.00006238,0.00001709,
 -0.00000778,-0.00022296,0.00017827,0.00008164,0.00007422,-0.00000419,-
 0.00004880,0.00203197,0.00040386,0.00086657,-0.00024914,-0.00015115,-0
 .00015266,-0.00103374,0.00111466,-0.00013356,-0.01995339,-0.02454864,-
 0.00074679,-0.00061693,0.00027606,0.00029737,-0.08409821,-0.09031349,-
 0.02803306,-0.00083725,-0.00301671,-0.00188120,0.00934164,0.01779788,0
 .00526195,0.09578255,-0.00005737,-0.00008703,0.00005439,0.00000570,0.0
 0002750,0.00000218,-0.00000153,0.00000348,-0.00001500,-0.00005689,0.00
 002423,-0.00000766,-0.00014136,0.00018842,-0.00012367,0.00001656,-0.00
 001150,0.00000912,0.00002232,-0.00040218,0.00029481,0.00000866,0.00002
 130,-0.00014642,-0.00061109,0.00028961,-0.00021341,-0.00797367,0.00109
 143,0.00540175,-0.00062610,-0.00010421,0.00000694,-0.07892948,-0.22584
 080,-0.05261154,-0.00007377,-0.00179866,-0.00119227,-0.00967706,-0.022
 43243,-0.00673010,0.09807369,0.24894117,0.00002301,-0.00000184,-0.0000
 0643,-0.00001162,0.00000287,0.00001040,0.00000159,-0.00000628,0.000000
 24,0.00001846,-0.00000043,-0.00000153,-0.00001732,-0.00000225,0.000022
 63,-0.00000505,0.00001726,0.00000835,-0.00064021,0.00030132,0.00004082
 ,0.00012308,-0.00022146,0.00002837,0.00017039,-0.00038837,0.00005285,0
 .00737352,0.01353469,0.00356978,-0.00000813,-0.00112142,-0.00083158,-0
 .02221325,-0.04657093,-0.05749658,-0.01405171,-0.03062062,-0.00888998,
 0.00467356,0.00986486,0.00243071,0.02449233,0.05525357,0.06108067,0.00
 289276,0.02572970,0.00999590,-0.00421415,0.00460718,-0.00131459,0.0006
 6799,-0.00060955,0.00038185,0.00064516,0.00074824,0.00037752,-0.081573
 57,-0.01281509,-0.00550292,-0.00013521,-0.00076711,-0.00020371,-0.0061
 6926,-0.03015309,-0.01081751,0.00134061,0.00065585,-0.00076968,-0.0057
 2507,-0.00299588,0.00118670,0.00022942,-0.00195363,0.00028134,-0.00020
 384,0.00012238,-0.00043220,-0.00008643,-0.00011814,-0.00014635,0.00006
 426,-0.00001744,-0.00001856,-0.00010666,0.00006484,0.00000967,0.000047
 34,0.00006105,0.00002367,0.58330947,0.00253873,-0.02678901,-0.00777168
 ,0.00209652,-0.00132283,0.00086029,-0.00137379,0.00131045,-0.00074005,
 -0.00151559,0.00130117,-0.00015190,-0.01122490,-0.16727425,-0.03655666
 ,-0.00018267,-0.00068364,-0.00043038,-0.00885212,-0.01667715,-0.003484
 68,0.00140862,0.00071550,-0.00069100,-0.00126639,0.00036674,0.00025614
 ,0.00022150,-0.00011670,-0.00088769,-0.00004343,0.00013771,0.00025700,
 0.00040626,-0.00031323,0.00007317,-0.00000010,0.00005234,0.00003542,0.
 00013701,0.00005978,-0.00002279,-0.00009170,-0.00000801,0.00004279,-0.
 01485612,0.48964036,0.00210287,0.00726598,0.00407956,-0.00177244,0.002
 53495,-0.00008792,-0.00015137,0.00154830,0.00062256,0.00029221,-0.0003
 5464,-0.00002455,-0.00541865,-0.03824274,-0.09738514,-0.00475844,-0.03
 344529,-0.01310126,0.00031791,0.00828505,0.00395933,0.00049476,0.00145
 611,0.00067380,0.00272982,0.00213320,-0.00009623,-0.00049376,0.0005223
 9,0.00011889,0.00003279,-0.00015942,0.00004304,0.00001100,-0.00008979,
 0.00029046,0.00003489,-0.00001617,-0.00010666,0.00006006,-0.00004605,-
 0.00006479,0.00002544,0.00003158,-0.00006501,-0.00570668,-0.03808694,0
 .55480832,0.00037011,-0.00060123,0.00020559,0.00037084,-0.00013116,-0.
 00018490,-0.00007875,-0.00006015,-0.00006068,0.00039684,-0.00021029,-0
 .00013136,0.00403991,-0.00332414,0.00223837,0.00014864,0.00044580,0.00
 035860,0.00028682,-0.00001406,0.00035056,-0.00001770,0.00002330,0.0000
 1283,0.00015087,0.00027081,-0.00005004,-0.00047391,-0.00042082,-0.0003
 0787,-0.00006369,-0.00030798,-0.00006143,0.00001234,-0.00003398,0.0000
 7831,-0.00000305,-0.00000211,-0.00002112,0.00003552,-0.00001130,-0.000
 01703,0.00000829,0.00001456,-0.00001292,-0.19798179,0.11928062,-0.0546
 5471,0.21282116,-0.00275315,-0.00543347,-0.00361373,0.00168100,-0.0014
 0688,0.00046500,-0.00028368,0.00023632,0.00006106,-0.00000088,0.000282
 40,-0.00017114,0.02374398,-0.01782721,0.01024721,-0.00011525,0.0012735
 9,-0.00025301,0.00112373,0.00114394,0.00044254,-0.00020119,-0.00012842
 ,0.00000482,0.00003749,0.00024051,-0.00020338,-0.00019128,0.00014309,0
 .00060657,-0.00022273,-0.00015428,-0.00050230,-0.00035419,0.00029786,-
 0.00000224,0.00005788,-0.00004361,-0.00009009,-0.00003120,-0.00004324,
 -0.00000366,0.00022059,0.00008929,-0.00006485,0.11815995,-0.14326915,0
 .04401531,-0.13080229,0.15632206,-0.00071899,-0.00214714,-0.00068512,0
 .00039783,-0.00069938,0.00063463,0.00013698,-0.00037275,0.00039590,-0.
 00032513,0.00010029,-0.00012871,0.01110350,-0.00779627,0.00325160,0.00
 049654,0.00063148,0.00049188,-0.00016426,0.00078245,0.00019776,-0.0000
 7421,0.00007382,-0.00004068,0.00015901,0.00007283,-0.00011132,-0.00018
 113,-0.00050025,0.00002867,-0.00014498,-0.00010700,-0.00017674,-0.0000
 0111,0.00006336,-0.00006014,0.00005664,0.00007067,-0.00005168,0.000007
 87,0.00001104,0.00002360,0.00000989,-0.00000303,-0.00001718,-0.0544870
 3,0.04441907,-0.07014197,0.06083075,-0.04660256,0.07165384,0.00009243,
 0.00005535,0.00095895,-0.00013765,-0.00004200,-0.00013301,0.00026869,0
 .00014766,-0.00003087,0.00000689,-0.00002418,0.00014436,-0.00118247,0.
 00014828,-0.00472597,0.00057453,-0.00091064,-0.00038352,0.00046742,0.0
 0040187,-0.00140194,0.00003139,-0.00023407,0.00038271,0.00003826,0.000
 03867,0.00022943,-0.00012161,0.00025225,-0.00001318,0.00011642,-0.0000
 3929,0.00016446,0.00001994,-0.00005043,-0.00003299,-0.00007107,-0.0000
 3717,0.00006314,0.00000939,-0.00000239,0.00000673,-0.00003233,-0.00000
 930,0.00003075,-0.05041213,0.00031353,-0.00758619,0.00007200,-0.000118
 27,-0.02593367,0.04821757,-0.00063774,0.00194189,-0.00100197,-0.000221
 45,0.00028675,0.00035732,0.00022871,-0.00021390,0.00081204,0.00010703,
 -0.00010078,0.00008138,-0.00083370,0.00029962,-0.03294176,-0.00094149,
 -0.00595792,-0.00264673,0.00112354,0.00145947,-0.00097106,-0.00028626,
 -0.00003144,0.00082463,0.00028945,0.00024418,0.00031774,-0.00010732,0.
 00002728,0.00019429,0.00010277,-0.00005080,0.00000681,-0.00004965,0.00
 002830,0.00000910,-0.00000789,0.00001241,-0.00001340,-0.00000857,-0.00
 000520,0.00000915,0.00002035,0.00000890,-0.00001400,0.00027644,-0.0491
 2543,0.00887297,-0.00105322,-0.00061547,0.02017665,0.00041119,0.052819
 66,-0.00029602,0.00100126,0.00055410,0.00000849,-0.00008362,0.00045780
 ,0.00058588,-0.00074588,0.00056957,-0.00000022,-0.00003864,-0.00004812
 ,-0.00042567,-0.00015687,-0.01417562,-0.00041970,-0.00294132,0.0005607
 4,0.00064240,0.00074081,0.00046683,-0.00075970,-0.00051907,0.00060339,
 -0.00002709,-0.00003208,0.00039322,-0.00015916,-0.00001941,-0.00005788
 ,0.00013334,-0.00003924,0.00013127,0.00001675,-0.00000730,-0.00006739,
 -0.00006557,-0.00003083,0.00008089,-0.00002707,0.00000663,0.00000465,-
 0.00003477,-0.00001485,0.00003576,-0.00742220,0.00857474,-0.30504046,0
 .00013680,0.00053344,-0.00817003,0.00864411,-0.00684926,0.33356211,0.0
 0053287,0.00078849,-0.00002244,0.00022073,-0.00004296,-0.00017480,0.00
 000207,0.00002273,-0.00003468,0.00059393,-0.00022102,0.00008239,-0.003
 92432,-0.00048790,0.00102822,0.00013100,-0.00008851,-0.00050083,0.0009
 9486,-0.00078211,-0.00116335,0.00008888,0.00020010,0.00004149,-0.00028
 182,-0.00012836,0.00015593,0.00013438,-0.00058395,-0.00000257,0.000014
 90,0.00008551,0.00008075,0.00008161,-0.00002240,-0.00009970,0.00000893
 ,0.00002233,0.00001833,-0.00004746,0.00003584,0.00001579,-0.00010112,-
 0.00004493,0.00002986,-0.24258891,-0.08699598,0.07444049,-0.02009442,-
 0.00995051,0.00883152,0.00204233,0.00158779,-0.00053061,0.26219158,-0.
 00152094,0.00126353,0.00068630,0.00019166,0.00045261,-0.00024831,0.000
 09315,-0.00009240,-0.00000849,0.00107785,-0.00026520,-0.00017305,-0.02
 692566,-0.01168624,0.01189519,0.00037976,0.00135993,-0.00014833,0.0007
 8042,-0.00539355,-0.00325913,0.00032268,0.00009743,-0.00001210,-0.0019
 8331,-0.00097379,0.00025263,0.00076665,-0.00004045,0.00044201,-0.00013
 147,-0.00001110,-0.00019839,-0.00011152,0.00016137,-0.00009124,0.00000
 425,-0.00003174,0.00001249,-0.00009645,0.00001816,0.00002063,0.0000501
 0,-0.00000051,-0.00000490,-0.08613958,-0.08800466,0.03377521,0.0169376
 4,0.00889267,-0.00817329,-0.00030105,-0.00102750,0.00062146,0.09660583
 ,0.09528145,-0.00000388,0.00051364,0.00002212,-0.00022546,0.00009693,-
 0.00011562,0.00015224,0.00001438,-0.00002233,0.00001510,0.00016660,0.0
 0023978,-0.01229382,-0.00524239,0.00381836,-0.00032160,0.00072788,0.00
 062078,0.00009858,-0.00236747,-0.00074777,-0.00019882,-0.00027387,0.00
 042595,-0.00062072,-0.00037893,0.00057965,0.00014501,-0.00009951,0.000
 05865,0.00002760,0.00002679,0.00003421,0.00000938,-0.00000471,-0.00008
 578,-0.00002955,-0.00001892,0.00003952,-0.00001968,0.00001239,0.000010
 88,-0.00001033,0.00000362,0.00002770,0.07456477,0.03430514,-0.07848198
 ,-0.00870973,-0.00486900,0.00290568,0.02961670,0.01277612,-0.00986081,
 -0.08219579,-0.03538867,0.08053097\\-0.00000009,-0.00000020,-0.0000002
 5,-0.00000015,-0.00000022,-0.00000006,0.00000015,0.00000006,-0.0000001
 9,-0.00000019,-0.00000019,-0.00000043,0.00000045,0.00000025,-0.0000003
 6,-0.00000026,-0.00000026,-0.00000011,-0.00000094,0.00000004,0.0000000
 2,0.00000006,0.00000008,0.00000010,-0.00000002,-0.00000028,0.00000040,
 0.00000075,0.00000047,0.00000082,-0.00000020,-0.00000039,0.00000009,-0
 .00000006,0.00000048,-0.00000002,0.00000004,0.00000019,0.00000060,0.00
 000020,0.00000011,0.00000050,-0.00000031,-0.00000004,0.00000097,0.0000
 0011,-0.00000019,-0.00000072,0.00000010,0.00000009,-0.00000030,0.00000
 029,0.00000008,-0.00000046,0.00000008,-0.00000008,-0.00000059\\\@


 WOMEN HOLD UP HALF THE SKY. -- MAO TSE TUNG
 Job cpu time:       0 days  0 hours 27 minutes 16.0 seconds.
 File lengths (MBytes):  RWF=     64 Int=      0 D2E=      0 Chk=      3 Scr=      1
 Normal termination of Gaussian 09 at Sat Nov  7 02:17:40 2015.
