using PM6 to do opt and freq calc.                                      
FOpt      RPM6                                                        ZDO                 
Number of atoms                            I               20
Info1-9                                    I   N=           9
          33          29           0           0           0         110
           2           8         302
Charge                                     I                0
Multiplicity                               I                1
Number of electrons                        I               38
Number of alpha electrons                  I               19
Number of beta electrons                   I               19
Number of basis functions                  I               38
Number of independent functions            I               38
Number of point charges in /Mol/           I                0
Number of translation vectors              I                0
Atomic numbers                             I   N=          20
           6           1           1           1           6           1
           6           1           6           1           1           1
           6           1           1           1           6           1
           1           1
Nuclear charges                            R   N=          20
  4.00000000E+00  1.00000000E+00  1.00000000E+00  1.00000000E+00  4.00000000E+00
  1.00000000E+00  4.00000000E+00  1.00000000E+00  4.00000000E+00  1.00000000E+00
  1.00000000E+00  1.00000000E+00  4.00000000E+00  1.00000000E+00  1.00000000E+00
  1.00000000E+00  4.00000000E+00  1.00000000E+00  1.00000000E+00  1.00000000E+00
Current cartesian coordinates              R   N=          60
 -3.41515522E+00  1.34153307E+00 -1.07674585E+00 -3.15483434E+00  2.42227531E+00
 -2.82112574E+00 -3.45771003E+00  2.69157492E+00  4.92133627E-01 -5.27962158E+00
  4.48665062E-01 -1.16988803E+00 -1.32370613E+00 -6.38154812E-01 -7.26116051E-01
 -1.38630903E+00 -1.94219133E+00 -2.39279679E+00  1.32370647E+00  6.38154895E-01
 -7.26116286E-01  1.38630975E+00  1.94219045E+00 -2.39279751E+00  1.81778838E+00
  2.21860908E+00  1.65066310E+00  1.95311480E+00  1.03420522E+00  3.34250850E+00
  3.59119517E+00  3.27217501E+00  1.49116180E+00  3.00122895E-01  3.58875455E+00
  1.97119354E+00 -1.81778824E+00 -2.21860799E+00  1.65066402E+00 -3.00131260E-01
 -3.58876513E+00  1.97118545E+00 -1.95309739E+00 -1.03420544E+00  3.34251175E+00
 -3.59120382E+00 -3.27216013E+00  1.49117038E+00  3.41515488E+00 -1.34153416E+00
 -1.07674544E+00  3.45768594E+00 -2.69159652E+00  4.92117158E-01  3.15485286E+00
 -2.42225184E+00 -2.82114320E+00  5.27962520E+00 -4.48670631E-01 -1.16985191E+00
Force Field                                I                0
Int Atom Types                             I   N=          20
           0           0           0           0           0           0
           0           0           0           0           0           0
           0           0           0           0           0           0
           0           0
MM charges                                 R   N=          20
  0.00000000E+00  0.00000000E+00  0.00000000E+00  0.00000000E+00  0.00000000E+00
  0.00000000E+00  0.00000000E+00  0.00000000E+00  0.00000000E+00  0.00000000E+00
  0.00000000E+00  0.00000000E+00  0.00000000E+00  0.00000000E+00  0.00000000E+00
  0.00000000E+00  0.00000000E+00  0.00000000E+00  0.00000000E+00  0.00000000E+00
Integer atomic weights                     I   N=          20
          12           1           1           1          12           1
          12           1          12           1           1           1
          12           1           1           1          12           1
           1           1
Real atomic weights                        R   N=          20
  1.20000000E+01  1.00782504E+00  1.00782504E+00  1.00782504E+00  1.20000000E+01
  1.00782504E+00  1.20000000E+01  1.00782504E+00  1.20000000E+01  1.00782504E+00
  1.00782504E+00  1.00782504E+00  1.20000000E+01  1.00782504E+00  1.00782504E+00
  1.00782504E+00  1.20000000E+01  1.00782504E+00  1.00782504E+00  1.00782504E+00
Atom fragment info                         I   N=          20
           0           0           0           0           0           0
           0           0           0           0           0           0
           0           0           0           0           0           0
           0           0
Atom residue num                           I   N=          20
           0           0           0           0           0           0
           0           0           0           0           0           0
           0           0           0           0           0           0
           0           0
Nuclear spins                              I   N=          20
           0           1           1           1           0           1
           0           1           0           1           1           1
           0           1           1           1           0           1
           1           1
Nuclear ZEff                               R   N=          20
 -3.90000000E+00 -1.00000000E+00 -1.00000000E+00 -1.00000000E+00 -3.90000000E+00
 -1.00000000E+00 -3.90000000E+00 -1.00000000E+00 -3.90000000E+00 -1.00000000E+00
 -1.00000000E+00 -1.00000000E+00 -3.90000000E+00 -1.00000000E+00 -1.00000000E+00
 -1.00000000E+00 -3.90000000E+00 -1.00000000E+00 -1.00000000E+00 -1.00000000E+00
Nuclear QMom                               R   N=          20
  0.00000000E+00  0.00000000E+00  0.00000000E+00  0.00000000E+00  0.00000000E+00
  0.00000000E+00  0.00000000E+00  0.00000000E+00  0.00000000E+00  0.00000000E+00
  0.00000000E+00  0.00000000E+00  0.00000000E+00  0.00000000E+00  0.00000000E+00
  0.00000000E+00  0.00000000E+00  0.00000000E+00  0.00000000E+00  0.00000000E+00
Nuclear GFac                               R   N=          20
  0.00000000E+00  2.79284600E+00  2.79284600E+00  2.79284600E+00  0.00000000E+00
  2.79284600E+00  0.00000000E+00  2.79284600E+00  0.00000000E+00  2.79284600E+00
  2.79284600E+00  2.79284600E+00  0.00000000E+00  2.79284600E+00  2.79284600E+00
  2.79284600E+00  0.00000000E+00  2.79284600E+00  2.79284600E+00  2.79284600E+00
MicOpt                                     I   N=          20
          -1          -1          -1          -1          -1          -1
          -1          -1          -1          -1          -1          -1
          -1          -1          -1          -1          -1          -1
          -1          -1
Number of contracted shells                I               20
Number of primitive shells                 I              120
Pure/Cartesian d shells                    I                0
Pure/Cartesian f shells                    I                0
Highest angular momentum                   I                1
Largest degree of contraction              I                6
Shell types                                I   N=          20
          -1           0           0           0          -1           0
          -1           0          -1           0           0           0
          -1           0           0           0          -1           0
           0           0
Number of primitives per shell             I   N=          20
           6           6           6           6           6           6
           6           6           6           6           6           6
           6           6           6           6           6           6
           6           6
Shell to atom map                          I   N=          20
           1           2           3           4           5           6
           7           8           9          10          11          12
          13          14          15          16          17          18
          19          20
Primitive exponents                        R   N=         120
  1.14476344E+01  3.29633588E+00  1.29653143E+00  5.92558930E-01  2.94896438E-01
  1.51447622E-01  4.39461478E+00  1.26542531E+00  4.97723458E-01  2.27476537E-01
  1.13207340E-01  5.81389949E-02  4.39461478E+00  1.26542531E+00  4.97723458E-01
  2.27476537E-01  1.13207340E-01  5.81389949E-02  4.39461478E+00  1.26542531E+00
  4.97723458E-01  2.27476537E-01  1.13207340E-01  5.81389949E-02  1.14476344E+01
  3.29633588E+00  1.29653143E+00  5.92558930E-01  2.94896438E-01  1.51447622E-01
  4.39461478E+00  1.26542531E+00  4.97723458E-01  2.27476537E-01  1.13207340E-01
  5.81389949E-02  1.14476344E+01  3.29633588E+00  1.29653143E+00  5.92558930E-01
  2.94896438E-01  1.51447622E-01  4.39461478E+00  1.26542531E+00  4.97723458E-01
  2.27476537E-01  1.13207340E-01  5.81389949E-02  1.14476344E+01  3.29633588E+00
  1.29653143E+00  5.92558930E-01  2.94896438E-01  1.51447622E-01  4.39461478E+00
  1.26542531E+00  4.97723458E-01  2.27476537E-01  1.13207340E-01  5.81389949E-02
  4.39461478E+00  1.26542531E+00  4.97723458E-01  2.27476537E-01  1.13207340E-01
  5.81389949E-02  4.39461478E+00  1.26542531E+00  4.97723458E-01  2.27476537E-01
  1.13207340E-01  5.81389949E-02  1.14476344E+01  3.29633588E+00  1.29653143E+00
  5.92558930E-01  2.94896438E-01  1.51447622E-01  4.39461478E+00  1.26542531E+00
  4.97723458E-01  2.27476537E-01  1.13207340E-01  5.81389949E-02  4.39461478E+00
  1.26542531E+00  4.97723458E-01  2.27476537E-01  1.13207340E-01  5.81389949E-02
  4.39461478E+00  1.26542531E+00  4.97723458E-01  2.27476537E-01  1.13207340E-01
  5.81389949E-02  1.14476344E+01  3.29633588E+00  1.29653143E+00  5.92558930E-01
  2.94896438E-01  1.51447622E-01  4.39461478E+00  1.26542531E+00  4.97723458E-01
  2.27476537E-01  1.13207340E-01  5.81389949E-02  4.39461478E+00  1.26542531E+00
  4.97723458E-01  2.27476537E-01  1.13207340E-01  5.81389949E-02  4.39461478E+00
  1.26542531E+00  4.97723458E-01  2.27476537E-01  1.13207340E-01  5.81389949E-02
Contraction coefficients                   R   N=         120
 -9.73739553E-03 -7.26587678E-02 -1.71615520E-01  1.28977624E-01  7.28861451E-01
  3.01331742E-01 -9.73739553E-03 -7.26587678E-02 -1.71615520E-01  1.28977624E-01
  7.28861451E-01  3.01331742E-01 -9.73739553E-03 -7.26587678E-02 -1.71615520E-01
  1.28977624E-01  7.28861451E-01  3.01331742E-01 -9.73739553E-03 -7.26587678E-02
 -1.71615520E-01  1.28977624E-01  7.28861451E-01  3.01331742E-01 -9.73739553E-03
 -7.26587678E-02 -1.71615520E-01  1.28977624E-01  7.28861451E-01  3.01331742E-01
 -9.73739553E-03 -7.26587678E-02 -1.71615520E-01  1.28977624E-01  7.28861451E-01
  3.01331742E-01 -9.73739553E-03 -7.26587678E-02 -1.71615520E-01  1.28977624E-01
  7.28861451E-01  3.01331742E-01 -9.73739553E-03 -7.26587678E-02 -1.71615520E-01
  1.28977624E-01  7.28861451E-01  3.01331742E-01 -9.73739553E-03 -7.26587678E-02
 -1.71615520E-01  1.28977624E-01  7.28861451E-01  3.01331742E-01 -9.73739553E-03
 -7.26587678E-02 -1.71615520E-01  1.28977624E-01  7.28861451E-01  3.01331742E-01
 -9.73739553E-03 -7.26587678E-02 -1.71615520E-01  1.28977624E-01  7.28861451E-01
  3.01331742E-01 -9.73739553E-03 -7.26587678E-02 -1.71615520E-01  1.28977624E-01
  7.28861451E-01  3.01331742E-01 -9.73739553E-03 -7.26587678E-02 -1.71615520E-01
  1.28977624E-01  7.28861451E-01  3.01331742E-01 -9.73739553E-03 -7.26587678E-02
 -1.71615520E-01  1.28977624E-01  7.28861451E-01  3.01331742E-01 -9.73739553E-03
 -7.26587678E-02 -1.71615520E-01  1.28977624E-01  7.28861451E-01  3.01331742E-01
 -9.73739553E-03 -7.26587678E-02 -1.71615520E-01  1.28977624E-01  7.28861451E-01
  3.01331742E-01 -9.73739553E-03 -7.26587678E-02 -1.71615520E-01  1.28977624E-01
  7.28861451E-01  3.01331742E-01 -9.73739553E-03 -7.26587678E-02 -1.71615520E-01
  1.28977624E-01  7.28861451E-01  3.01331742E-01 -9.73739553E-03 -7.26587678E-02
 -1.71615520E-01  1.28977624E-01  7.28861451E-01  3.01331742E-01 -9.73739553E-03
 -7.26587678E-02 -1.71615520E-01  1.28977624E-01  7.28861451E-01  3.01331742E-01
P(S=P) Contraction coefficients            R   N=         120
 -8.10494336E-03 -1.71547892E-02  7.36978576E-02  3.96514999E-01  4.97808488E-01
  1.17482582E-01  0.00000000E+00  0.00000000E+00  0.00000000E+00  0.00000000E+00
  0.00000000E+00  0.00000000E+00  0.00000000E+00  0.00000000E+00  0.00000000E+00
  0.00000000E+00  0.00000000E+00  0.00000000E+00  0.00000000E+00  0.00000000E+00
  0.00000000E+00  0.00000000E+00  0.00000000E+00  0.00000000E+00 -8.10494336E-03
 -1.71547892E-02  7.36978576E-02  3.96514999E-01  4.97808488E-01  1.17482582E-01
  0.00000000E+00  0.00000000E+00  0.00000000E+00  0.00000000E+00  0.00000000E+00
  0.00000000E+00 -8.10494336E-03 -1.71547892E-02  7.36978576E-02  3.96514999E-01
  4.97808488E-01  1.17482582E-01  0.00000000E+00  0.00000000E+00  0.00000000E+00
  0.00000000E+00  0.00000000E+00  0.00000000E+00 -8.10494336E-03 -1.71547892E-02
  7.36978576E-02  3.96514999E-01  4.97808488E-01  1.17482582E-01  0.00000000E+00
  0.00000000E+00  0.00000000E+00  0.00000000E+00  0.00000000E+00  0.00000000E+00
  0.00000000E+00  0.00000000E+00  0.00000000E+00  0.00000000E+00  0.00000000E+00
  0.00000000E+00  0.00000000E+00  0.00000000E+00  0.00000000E+00  0.00000000E+00
  0.00000000E+00  0.00000000E+00 -8.10494336E-03 -1.71547892E-02  7.36978576E-02
  3.96514999E-01  4.97808488E-01  1.17482582E-01  0.00000000E+00  0.00000000E+00
  0.00000000E+00  0.00000000E+00  0.00000000E+00  0.00000000E+00  0.00000000E+00
  0.00000000E+00  0.00000000E+00  0.00000000E+00  0.00000000E+00  0.00000000E+00
  0.00000000E+00  0.00000000E+00  0.00000000E+00  0.00000000E+00  0.00000000E+00
  0.00000000E+00 -8.10494336E-03 -1.71547892E-02  7.36978576E-02  3.96514999E-01
  4.97808488E-01  1.17482582E-01  0.00000000E+00  0.00000000E+00  0.00000000E+00
  0.00000000E+00  0.00000000E+00  0.00000000E+00  0.00000000E+00  0.00000000E+00
  0.00000000E+00  0.00000000E+00  0.00000000E+00  0.00000000E+00  0.00000000E+00
  0.00000000E+00  0.00000000E+00  0.00000000E+00  0.00000000E+00  0.00000000E+00
Coordinates of each shell                  R   N=          60
 -3.41515522E+00  1.34153307E+00 -1.07674585E+00 -3.15483434E+00  2.42227531E+00
 -2.82112574E+00 -3.45771003E+00  2.69157492E+00  4.92133627E-01 -5.27962158E+00
  4.48665062E-01 -1.16988803E+00 -1.32370613E+00 -6.38154812E-01 -7.26116051E-01
 -1.38630903E+00 -1.94219133E+00 -2.39279679E+00  1.32370647E+00  6.38154895E-01
 -7.26116286E-01  1.38630975E+00  1.94219045E+00 -2.39279751E+00  1.81778838E+00
  2.21860908E+00  1.65066310E+00  1.95311480E+00  1.03420522E+00  3.34250850E+00
  3.59119517E+00  3.27217501E+00  1.49116180E+00  3.00122895E-01  3.58875455E+00
  1.97119354E+00 -1.81778824E+00 -2.21860799E+00  1.65066402E+00 -3.00131260E-01
 -3.58876513E+00  1.97118545E+00 -1.95309739E+00 -1.03420544E+00  3.34251175E+00
 -3.59120382E+00 -3.27216013E+00  1.49117038E+00  3.41515488E+00 -1.34153416E+00
 -1.07674544E+00  3.45768594E+00 -2.69159652E+00  4.92117158E-01  3.15485286E+00
 -2.42225184E+00 -2.82114320E+00  5.27962520E+00 -4.48670631E-01 -1.16985191E+00
Constraint Structure                       R   N=          60
 -3.41325340E+00  1.46735502E+00 -1.01355537E+00 -2.98566848E+00  2.69904555E+00
 -2.66599031E+00 -3.56522850E+00  2.66797924E+00  7.07307224E-01 -5.28364492E+00
  5.60238260E-01 -1.34904321E+00 -1.35965634E+00 -5.65358731E-01 -6.99030108E-01
 -1.51577606E+00 -1.79054065E+00 -2.40878383E+00  1.35971426E+00  5.65446160E-01
 -6.99061770E-01  1.51586659E+00  1.79042170E+00 -2.40881805E+00  1.97130867E+00
  2.25623065E+00  1.58567052E+00  1.95238008E+00  1.14700173E+00  3.37289136E+00
  3.88264430E+00  3.10986240E+00  1.35914167E+00  5.88961837E-01  3.83184815E+00
  1.74538989E+00 -1.97138118E+00 -2.25611639E+00  1.58564302E+00 -5.89033520E-01
 -3.83178586E+00  1.74544706E+00 -1.95242177E+00 -1.14683964E+00  3.37302796E+00
 -3.88280441E+00 -3.10989443E+00  1.35940941E+00  3.41328410E+00 -1.46751024E+00
 -1.01344441E+00  3.56517550E+00 -2.66797801E+00  7.07605501E-01  2.98579273E+00
 -2.69919454E+00 -2.66580647E+00  5.28365992E+00 -5.60442761E-01 -1.34910945E+00
Num ILSW                                   I              100
ILSW                                       I   N=         100
           0           0           0           0           2           0
           0           0           0           0           0          -1
           0           0           0           0           0           0
           0           0           0           0           1           0
           1           0           0           0           0           0
           0           0      100000           0          -1           0
           0           0           0           0           0           0
           0           0           0          40           0           0
           0           0           1           0           0           0
           0           0           4          40           0           0
           0           0           0           0           0           0
           0           0           0           0           0           0
           0           0           0           0           0           0
           0           0           0           0           0           0
           0           0           0           0           0           0
           0           0           0           0           0           0
           0           0           0           0
Num RLSW                                   I               40
RLSW                                       R   N=          40
  1.00000000E+00  1.00000000E+00  1.00000000E+00  1.00000000E+00  1.00000000E+00
  0.00000000E+00  0.00000000E+00  1.00000000E+00  0.00000000E+00  0.00000000E+00
  0.00000000E+00  0.00000000E+00  1.00000000E+00  0.00000000E+00  0.00000000E+00
  0.00000000E+00  0.00000000E+00  1.00000000E+00  0.00000000E+00  0.00000000E+00
  0.00000000E+00  0.00000000E+00  1.00000000E+00  0.00000000E+00  0.00000000E+00
  0.00000000E+00  0.00000000E+00  1.00000000E+00  0.00000000E+00  0.00000000E+00
  0.00000000E+00  0.00000000E+00  0.00000000E+00  0.00000000E+00  0.00000000E+00
  0.00000000E+00  0.00000000E+00  0.00000000E+00  1.00000000E+00  1.00000000E+00
MxBond                                     I                4
NBond                                      I   N=          20
           4           1           1           1           4           1
           4           1           4           1           1           1
           4           1           1           1           4           1
           1           1
IBond                                      I   N=          80
           2           3           4           5           1           0
           0           0           1           0           0           0
           1           0           0           0           1           6
           7          13           5           0           0           0
           5           8           9          17           7           0
           0           0           7          10          11          12
           9           0           0           0           9           0
           0           0           9           0           0           0
           5          14          15          16          13           0
           0           0          13           0           0           0
          13           0           0           0           7          18
          19          20          17           0           0           0
          17           0           0           0          17           0
           0           0
RBond                                      R   N=          80
  1.00000000E+00  1.00000000E+00  1.00000000E+00  1.00000000E+00  1.00000000E+00
  0.00000000E+00  0.00000000E+00  0.00000000E+00  1.00000000E+00  0.00000000E+00
  0.00000000E+00  0.00000000E+00  1.00000000E+00  0.00000000E+00  0.00000000E+00
  0.00000000E+00  1.00000000E+00  1.00000000E+00  1.00000000E+00  1.00000000E+00
  1.00000000E+00  0.00000000E+00  0.00000000E+00  0.00000000E+00  1.00000000E+00
  1.00000000E+00  1.00000000E+00  1.00000000E+00  1.00000000E+00  0.00000000E+00
  0.00000000E+00  0.00000000E+00  1.00000000E+00  1.00000000E+00  1.00000000E+00
  1.00000000E+00  1.00000000E+00  0.00000000E+00  0.00000000E+00  0.00000000E+00
  1.00000000E+00  0.00000000E+00  0.00000000E+00  0.00000000E+00  1.00000000E+00
  0.00000000E+00  0.00000000E+00  0.00000000E+00  1.00000000E+00  1.00000000E+00
  1.00000000E+00  1.00000000E+00  1.00000000E+00  0.00000000E+00  0.00000000E+00
  0.00000000E+00  1.00000000E+00  0.00000000E+00  0.00000000E+00  0.00000000E+00
  1.00000000E+00  0.00000000E+00  0.00000000E+00  0.00000000E+00  1.00000000E+00
  1.00000000E+00  1.00000000E+00  1.00000000E+00  1.00000000E+00  0.00000000E+00
  0.00000000E+00  0.00000000E+00  1.00000000E+00  0.00000000E+00  0.00000000E+00
  0.00000000E+00  1.00000000E+00  0.00000000E+00  0.00000000E+00  0.00000000E+00
Virial Ratio                               R      9.989780409455235E-01
SCF Energy                                 R     -5.760668313570250E-02
Total Energy                               R     -5.760668313570250E-02
RMS Force                                  R      2.687894718017970E-06
RMS Density                                R      4.573028758338417E-09
External E-field                           R   N=          35
  0.00000000E+00  0.00000000E+00  0.00000000E+00  0.00000000E+00  0.00000000E+00
  0.00000000E+00  0.00000000E+00  0.00000000E+00  0.00000000E+00  0.00000000E+00
  0.00000000E+00  0.00000000E+00  0.00000000E+00  0.00000000E+00  0.00000000E+00
  0.00000000E+00  0.00000000E+00  0.00000000E+00  0.00000000E+00  0.00000000E+00
  0.00000000E+00  0.00000000E+00  0.00000000E+00  0.00000000E+00  0.00000000E+00
  0.00000000E+00  0.00000000E+00  0.00000000E+00  0.00000000E+00  0.00000000E+00
  0.00000000E+00  0.00000000E+00  0.00000000E+00  0.00000000E+00  0.00000000E+00
IOpCl                                      I                0
IROHF                                      I                0
Alpha Orbital Energies                     R   N=          38
 -1.06873112E+00 -9.63156858E-01 -8.91203951E-01 -8.74904615E-01 -7.78397761E-01
 -6.72305304E-01 -5.87170252E-01 -5.56024213E-01 -5.50428373E-01 -5.08003064E-01
 -4.99860295E-01 -4.84386267E-01 -4.73367967E-01 -4.71244109E-01 -4.43359716E-01
 -4.41551530E-01 -4.11720747E-01 -4.06721355E-01 -3.97109081E-01  1.54902814E-01
  1.61314656E-01  1.63366383E-01  1.81770236E-01  1.84102700E-01  2.16857016E-01
  2.18718715E-01  2.23033091E-01  2.23529294E-01  2.24494353E-01  2.26179081E-01
  2.27007403E-01  2.30770913E-01  2.35890573E-01  2.39380117E-01  2.54085398E-01
  2.58561551E-01  2.65246011E-01  2.65507060E-01
Alpha MO coefficients                      R   N=        1444
  2.79957338E-01  7.79495849E-02 -5.47753562E-02  2.02165818E-02  1.16637900E-01
  1.26189575E-01  1.09844943E-01  4.41112178E-01  4.08668080E-02  3.73807738E-02
  3.37081728E-02  1.79183985E-01  4.41112109E-01 -4.08668626E-02 -3.73807866E-02
  3.37081468E-02  1.79183997E-01  2.90187731E-01 -2.93026568E-02 -6.16390753E-02
 -7.02209503E-02  1.29759364E-01  1.12788274E-01  1.27661438E-01  2.90187853E-01
  2.93026606E-02  6.16390447E-02 -7.02209884E-02  1.27661393E-01  1.29759507E-01
  1.12788363E-01  2.79957283E-01 -7.79495675E-02  5.47753433E-02  2.02165713E-02
  1.26189728E-01  1.16637694E-01  1.09844991E-01  3.79359235E-01  1.49613356E-02
 -6.12156056E-02  1.61398068E-02  1.51097194E-01  1.56925645E-01  1.82820017E-01
  2.83505586E-01 -1.78419990E-01 -1.16697976E-02  3.40524955E-02  1.16577851E-01
 -2.83505748E-01 -1.78419852E-01 -1.16698411E-02 -3.40525506E-02 -1.16577927E-01
 -2.99666114E-01 -4.06225750E-02  3.44913127E-02  5.34648055E-02 -1.24667617E-01
 -1.51403025E-01 -9.95873455E-02  2.99665880E-01 -4.06226044E-02  3.44913049E-02
 -5.34647976E-02  9.95873885E-02  1.24667200E-01  1.51403064E-01 -3.79359049E-01
  1.49613360E-02 -6.12156616E-02 -1.61397501E-02 -1.56925057E-01 -1.51097441E-01
 -1.82820056E-01  3.29131296E-01 -3.47920160E-03  5.84048377E-02 -1.66460343E-02
  1.74700712E-01  1.70359215E-01  1.36766829E-01 -5.69695863E-02 -5.66255740E-02
  1.97238477E-01 -8.35506808E-02 -5.90373552E-02  5.69697962E-02 -5.66255508E-02
  1.97238525E-01  8.35505440E-02  5.90374904E-02  3.88178502E-01 -2.09647007E-02
  5.14853417E-02 -5.31326268E-04  1.51926994E-01  1.80892000E-01  2.10538465E-01
 -3.88178518E-01 -2.09647515E-02  5.14854556E-02  5.31268603E-04 -2.10538718E-01
 -1.51927040E-01 -1.80891761E-01 -3.29131336E-01 -3.47918161E-03  5.84049672E-02
  1.66459331E-02 -1.70359949E-01 -1.74700386E-01 -1.36766639E-01 -3.29073546E-01
  8.35190856E-03 -2.00482836E-02  5.35825581E-02 -1.81359338E-01 -1.26052465E-01
 -1.49424013E-01 -6.05419489E-02  2.46155429E-02 -1.17141724E-01  1.69598772E-01
 -6.48199288E-02 -6.05421414E-02 -2.46156569E-02  1.17141823E-01  1.69598760E-01
 -6.48200648E-02  3.90989596E-01 -7.15679312E-03  2.54258431E-02  5.87384568E-02
  2.02516267E-01  1.78964387E-01  1.90365454E-01  3.90989700E-01  7.15672403E-03
 -2.54257434E-02  5.87384755E-02  1.90365312E-01  2.02516539E-01  1.78964419E-01
 -3.29073763E-01 -8.35188966E-03  2.00481534E-02  5.35825487E-02 -1.26052730E-01
 -1.81359602E-01 -1.49423590E-01 -2.83980798E-01  1.79814299E-01 -9.88067249E-02
 -2.15132658E-02 -1.34272413E-01 -1.82421998E-01 -1.99349210E-01  3.39135056E-01
  2.12334193E-01  1.12689202E-02 -1.02054969E-01  1.85756452E-01  3.39134983E-01
 -2.12334195E-01 -1.12690167E-02 -1.02055017E-01  1.85756418E-01 -1.49521499E-01
 -6.80379420E-02 -5.77757519E-02 -1.28661669E-01 -1.17792462E-01 -1.14906796E-01
 -8.15283255E-02 -1.49521245E-01  6.80379098E-02  5.77756922E-02 -1.28661670E-01
 -8.15282188E-02 -1.17792161E-01 -1.14906901E-01 -2.83980786E-01 -1.79814256E-01
  9.88067684E-02 -2.15132477E-02 -1.82421217E-01 -1.34272700E-01 -1.99349740E-01
 -8.93585037E-02  9.85046780E-02 -2.08182638E-01 -1.09906011E-02 -1.01684106E-01
 -1.28791330E-01 -4.37766143E-02  3.46965478E-01 -1.08330568E-01 -1.62243283E-01
 -1.09501301E-01  2.79778890E-01 -3.46965364E-01 -1.08330476E-01 -1.62243273E-01
  1.09501476E-01 -2.79778979E-01  1.67017933E-01  3.46044667E-02  9.10656821E-02
  2.59111275E-01  1.72415998E-01  1.14339391E-01  1.18206531E-01 -1.67018063E-01
  3.46045561E-02  9.10655848E-02 -2.59111509E-01 -1.18206238E-01 -1.72416165E-01
 -1.14339784E-01  8.93586164E-02  9.85047349E-02 -2.08182258E-01  1.09908785E-02
  1.28791800E-01  1.01682687E-01  4.37774063E-02  2.49666409E-02  7.76303166E-02
  1.68547690E-01  1.95070248E-01 -3.79678268E-02  1.83256845E-01 -9.25013211E-02
  2.21064779E-02  2.00566671E-01  1.90338701E-01  2.70512756E-01 -2.20816002E-01
  2.21065081E-02 -2.00566555E-01 -1.90338739E-01  2.70512868E-01 -2.20816109E-01
 -4.82594136E-02 -2.27204652E-01 -2.36032495E-01  8.09143981E-02  1.07799894E-01
 -2.37878381E-01  3.27994280E-03 -4.82595811E-02  2.27204787E-01  2.36032363E-01
  8.09141175E-02  3.27821115E-03  1.07800902E-01 -2.37877877E-01  2.49665941E-02
 -7.76305745E-02 -1.68547324E-01  1.95070109E-01  1.83257126E-01 -3.79706308E-02
 -9.24990700E-02 -5.50452763E-02  2.73566885E-01 -7.63340798E-02  2.56646412E-01
 -1.74825011E-01  7.96962584E-02 -1.79314618E-01  7.02440218E-02 -1.47207505E-01
  2.30178392E-01  1.31356426E-01 -1.31908815E-01 -7.02438198E-02 -1.47206966E-01
  2.30177932E-01 -1.31356018E-01  1.31908409E-01 -1.91561319E-02 -1.97069351E-01
  2.43551538E-01 -7.02606912E-02 -1.50261052E-01 -3.22611657E-02  2.00126069E-01
  1.91560516E-02 -1.97069844E-01  2.43552696E-01  7.02607216E-02 -2.00127438E-01
  1.50260291E-01  3.22628367E-02  5.50453776E-02  2.73566793E-01 -7.63334638E-02
 -2.56646385E-01 -7.96968730E-02  1.74827636E-01  1.79312110E-01 -4.77169734E-03
  1.01477586E-01  2.77302794E-01 -2.25702466E-01  2.38755316E-01  1.40101748E-02
 -1.40872958E-01 -7.30586758E-02  2.29000872E-01  3.61451239E-02 -2.09747669E-01
  7.08869015E-02 -7.30592299E-02 -2.29001431E-01 -3.61446074E-02 -2.09748075E-01
  7.08872209E-02  2.69967066E-02 -1.73341213E-01  2.38972544E-01  1.88237752E-01
  2.08621034E-02 -1.80201116E-02  2.29376046E-01  2.69965164E-02  1.73341228E-01
 -2.38971796E-01  1.88237656E-01  2.29375675E-01  2.08634914E-02 -1.80216273E-02
 -4.77164557E-03 -1.01477093E-01 -2.77303364E-01 -2.25703051E-01  1.40143058E-02
  2.38754242E-01 -1.40875198E-01  8.05130905E-03  3.68478539E-01  6.66176853E-03
 -3.45274565E-01  2.48969222E-01 -1.87101270E-01 -2.25209546E-01  4.96735954E-02
 -7.85664284E-02  1.80090101E-01 -1.38958030E-01  1.46886024E-02 -4.96735978E-02
 -7.85670762E-02  1.80091595E-01  1.38959010E-01 -1.46885959E-02 -1.28499430E-02
  2.79674547E-02 -9.28441368E-02 -1.34299080E-01 -3.84866485E-02 -1.09774755E-02
 -8.59245026E-02  1.28499483E-02  2.79684447E-02 -9.28466112E-02  1.34295837E-01
  8.59257478E-02  3.84839869E-02  1.09777385E-02 -8.05135838E-03  3.68479196E-01
  6.65968780E-03  3.45276976E-01  1.87098491E-01 -2.48969679E-01  2.25213954E-01
  6.61646849E-03  1.04363679E-01 -1.35075495E-01 -2.00028458E-01  8.36519819E-02
 -1.74774087E-01 -1.59977028E-02 -2.77466708E-03 -3.91007259E-02  1.64404750E-01
 -1.12796636E-01 -7.26248675E-03 -2.77528721E-03  3.91004779E-02 -1.64404209E-01
 -1.12794538E-01 -7.26353855E-03 -4.83875524E-03  1.59177894E-01 -2.61418601E-01
  3.48810569E-01  3.22694074E-01 -1.92053877E-02 -1.78324416E-01 -4.83858462E-03
 -1.59177864E-01  2.61416025E-01  3.48810549E-01 -1.78324966E-01  3.22692379E-01
 -1.92017481E-02  6.61648058E-03 -1.04359516E-01  1.35077554E-01 -2.00025437E-01
 -1.74772757E-01  8.36508672E-02 -1.59971694E-02  2.40781080E-02  1.48119723E-01
  2.57087889E-01  1.36790611E-01  4.11755914E-02  1.96399074E-01 -1.80402866E-01
  8.74740700E-02  5.26438674E-02 -7.31571208E-02  1.20139781E-01  2.20528704E-03
 -8.74740161E-02  5.26443504E-02 -7.31575902E-02 -1.20140056E-01 -2.20516573E-03
 -3.91810952E-02  4.05549699E-01  1.18365987E-01  4.65522266E-02 -1.91634242E-02
  2.83734073E-01 -1.63087833E-01  3.91811303E-02  4.05545811E-01  1.18365171E-01
 -4.65531772E-02  1.63084586E-01  1.91649659E-02 -2.83732111E-01 -2.40781670E-02
  1.48117048E-01  2.57085217E-01 -1.36788393E-01 -1.96398861E-01 -4.11716859E-02