 Entering Gaussian System, Link 0=/share/apps/g09/g09
 Input=C6H14_4_01_1_opt_PM6.gjf
 Output=C6H14_4_01_1_opt_PM6.log
 Initial command:
 /share/apps/g09/l1.exe /state/partition1/Gau-19426.inp -scrdir=/state/partition1/
 Entering Link 1 = /share/apps/g09/l1.exe PID=     19431.
  
 Copyright (c) 1988,1990,1992,1993,1995,1998,2003,2009, Gaussian, Inc.
                  All Rights Reserved.
  
 This is part of the Gaussian(R) 09 program.  It is based on
 the Gaussian(R) 03 system (copyright 2003, Gaussian, Inc.),
 the Gaussian(R) 98 system (copyright 1998, Gaussian, Inc.),
 the Gaussian(R) 94 system (copyright 1995, Gaussian, Inc.),
 the Gaussian 92(TM) system (copyright 1992, Gaussian, Inc.),
 the Gaussian 90(TM) system (copyright 1990, Gaussian, Inc.),
 the Gaussian 88(TM) system (copyright 1988, Gaussian, Inc.),
 the Gaussian 86(TM) system (copyright 1986, Carnegie Mellon
 University), and the Gaussian 82(TM) system (copyright 1983,
 Carnegie Mellon University). Gaussian is a federally registered
 trademark of Gaussian, Inc.
  
 This software contains proprietary and confidential information,
 including trade secrets, belonging to Gaussian, Inc.
  
 This software is provided under written license and may be
 used, copied, transmitted, or stored only in accord with that
 written license.
  
 The following legend is applicable only to US Government
 contracts under FAR:
  
                    RESTRICTED RIGHTS LEGEND
  
 Use, reproduction and disclosure by the US Government is
 subject to restrictions as set forth in subparagraphs (a)
 and (c) of the Commercial Computer Software - Restricted
 Rights clause in FAR 52.227-19.
  
 Gaussian, Inc.
 340 Quinnipiac St., Bldg. 40, Wallingford CT 06492
  
  
 ---------------------------------------------------------------
 Warning -- This program may not be used in any manner that
 competes with the business of Gaussian, Inc. or will provide
 assistance to any competitor of Gaussian, Inc.  The licensee
 of this program is prohibited from giving any competitor of
 Gaussian, Inc. access to this program.  By using this program,
 the user acknowledges that Gaussian, Inc. is engaged in the
 business of creating and licensing software in the field of
 computational chemistry and represents and warrants to the
 licensee that it is not a competitor of Gaussian, Inc. and that
 it will not use this program in any manner prohibited above.
 ---------------------------------------------------------------
  

 Cite this work as:
 Gaussian 09, Revision A.01,
 M. J. Frisch, G. W. Trucks, H. B. Schlegel, G. E. Scuseria, 
 M. A. Robb, J. R. Cheeseman, G. Scalmani, V. Barone, B. Mennucci, 
 G. A. Petersson, H. Nakatsuji, M. Caricato, X. Li, H. P. Hratchian, 
 A. F. Izmaylov, J. Bloino, G. Zheng, J. L. Sonnenberg, M. Hada, 
 M. Ehara, K. Toyota, R. Fukuda, J. Hasegawa, M. Ishida, T. Nakajima, 
 Y. Honda, O. Kitao, H. Nakai, T. Vreven, J. A. Montgomery, Jr., 
 J. E. Peralta, F. Ogliaro, M. Bearpark, J. J. Heyd, E. Brothers, 
 K. N. Kudin, V. N. Staroverov, R. Kobayashi, J. Normand, 
 K. Raghavachari, A. Rendell, J. C. Burant, S. S. Iyengar, J. Tomasi, 
 M. Cossi, N. Rega, J. M. Millam, M. Klene, J. E. Knox, J. B. Cross, 
 V. Bakken, C. Adamo, J. Jaramillo, R. Gomperts, R. E. Stratmann, 
 O. Yazyev, A. J. Austin, R. Cammi, C. Pomelli, J. W. Ochterski, 
 R. L. Martin, K. Morokuma, V. G. Zakrzewski, G. A. Voth, 
 P. Salvador, J. J. Dannenberg, S. Dapprich, A. D. Daniels, 
 O. Farkas, J. B. Foresman, J. V. Ortiz, J. Cioslowski, 
 and D. J. Fox, Gaussian, Inc., Wallingford CT, 2009.
 
 ******************************************
 Gaussian 09:  EM64L-G09RevA.01  8-May-2009
                14-Sep-2015 
 ******************************************
 %mem=3GB
 %nprocshared=2
 Will use up to    2 processors via shared memory.
 %chk=C6H14_4_01_1_opt_PM6.chk
 ----------
 #p PM6 opt
 ----------
 1/14=-1,18=20,19=15,26=1,38=1/1,3;
 2/9=110,12=2,17=6,18=5,40=1/2;
 3/5=2,16=1,25=1,41=3900000,71=1/1,2,3;
 4/35=1/1;
 5/5=2,35=1,38=5/2;
 6/7=2,8=2,9=2,10=2,28=1/1;
 7//1,2,3,16;
 1/14=-1,18=20,19=15/3(2);
 2/9=110/2;
 99//99;
 2/9=110/2;
 3/5=2,16=1,25=1,41=3900000,71=1,135=20/1,2,3;
 4/5=5,16=3,35=1/1;
 5/5=2,35=1,38=5/2;
 7//1,2,3,16;
 1/14=-1,18=20,19=15/3(-5);
 2/9=110/2;
 6/7=2,8=2,9=2,10=2,19=2,28=1/1;
 99/9=1/99;
 Leave Link    1 at Mon Sep 14 19:12:19 2015, MaxMem=  402653184 cpu:       0.1
 (Enter /share/apps/g09/l101.exe)
 ----------------------------------
 using PM6 to do opt and freq calc.
 ----------------------------------
 Symbolic Z-matrix:
 Charge =  0 Multiplicity = 1
 C                    -1.4226   -1.2911    0.4191 
 H                    -0.7194   -1.9952    0.9195 
 H                    -1.7422   -1.7318   -0.552 
 H                    -2.3231   -1.1879    1.0672 
 C                    -0.7581    0.081     0.2154 
 H                    -0.5877    0.484     1.2422 
 C                     0.6385   -0.0262   -0.4679 
 H                     1.2268   -0.7777    0.1107 
 C                     0.6051   -0.5245   -1.9231 
 H                     0.0766    0.2006   -2.5819 
 H                     1.6435   -0.6519   -2.3064 
 H                     0.0984   -1.5123   -1.9934 
 C                    -1.7386    1.0451   -0.4746 
 H                    -1.3028    2.0655   -0.5543 
 H                    -2.0032    0.6844   -1.494 
 H                    -2.6766    1.1264    0.1213 
 C                     1.4425    1.2819   -0.3763 
 H                     0.9984    2.0734   -1.0211 
 H                     1.4726    1.6491    0.6748 
 H                     2.4919    1.1103   -0.7093 
 
 NAtoms=     20 NQM=     20 NQMF=      0 NMic=      0 NMicF=      0 NTot=     20.
                    Isotopes and Nuclear Properties:
 (Nuclear quadrupole moments (NQMom) in fm**2, nuclear magnetic moments (NMagM)
  in nuclear magnetons)

  Atom         1           2           3           4           5           6           7           8           9          10
 IAtWgt=          12           1           1           1          12           1          12           1          12           1
 AtmWgt=  12.0000000   1.0078250   1.0078250   1.0078250  12.0000000   1.0078250  12.0000000   1.0078250  12.0000000   1.0078250
 NucSpn=           0           1           1           1           0           1           0           1           0           1
 AtZEff=   0.0000000   0.0000000   0.0000000   0.0000000   0.0000000   0.0000000   0.0000000   0.0000000   0.0000000   0.0000000
 NQMom=    0.0000000   0.0000000   0.0000000   0.0000000   0.0000000   0.0000000   0.0000000   0.0000000   0.0000000   0.0000000
 NMagM=    0.0000000   2.7928460   2.7928460   2.7928460   0.0000000   2.7928460   0.0000000   2.7928460   0.0000000   2.7928460

  Atom        11          12          13          14          15          16          17          18          19          20
 IAtWgt=           1           1          12           1           1           1          12           1           1           1
 AtmWgt=   1.0078250   1.0078250  12.0000000   1.0078250   1.0078250   1.0078250  12.0000000   1.0078250   1.0078250   1.0078250
 NucSpn=           1           1           0           1           1           1           0           1           1           1
 AtZEff=   0.0000000   0.0000000   0.0000000   0.0000000   0.0000000   0.0000000   0.0000000   0.0000000   0.0000000   0.0000000
 NQMom=    0.0000000   0.0000000   0.0000000   0.0000000   0.0000000   0.0000000   0.0000000   0.0000000   0.0000000   0.0000000
 NMagM=    2.7928460   2.7928460   0.0000000   2.7928460   2.7928460   2.7928460   0.0000000   2.7928460   2.7928460   2.7928460
 Leave Link  101 at Mon Sep 14 19:12:19 2015, MaxMem=  402653184 cpu:       0.2
 (Enter /share/apps/g09/l103.exe)

 GradGradGradGradGradGradGradGradGradGradGradGradGradGradGradGradGradGrad
 Berny optimization.
 Initialization pass.
                           ----------------------------
                           !    Initial Parameters    !
                           ! (Angstroms and Degrees)  !
 --------------------------                            --------------------------
 ! Name  Definition              Value          Derivative Info.                !
 --------------------------------------------------------------------------------
 ! R1    R(1,2)                  1.1138         estimate D2E/DX2                !
 ! R2    R(1,3)                  1.1133         estimate D2E/DX2                !
 ! R3    R(1,4)                  1.1143         estimate D2E/DX2                !
 ! R4    R(1,5)                  1.5381         estimate D2E/DX2                !
 ! R5    R(5,6)                  1.1161         estimate D2E/DX2                !
 ! R6    R(5,7)                  1.5585         estimate D2E/DX2                !
 ! R7    R(5,13)                 1.5385         estimate D2E/DX2                !
 ! R8    R(7,8)                  1.1161         estimate D2E/DX2                !
 ! R9    R(7,9)                  1.5385         estimate D2E/DX2                !
 ! R10   R(7,17)                 1.5382         estimate D2E/DX2                !
 ! R11   R(9,10)                 1.1131         estimate D2E/DX2                !
 ! R12   R(9,11)                 1.1142         estimate D2E/DX2                !
 ! R13   R(9,12)                 1.1124         estimate D2E/DX2                !
 ! R14   R(13,14)                1.1124         estimate D2E/DX2                !
 ! R15   R(13,15)                1.1132         estimate D2E/DX2                !
 ! R16   R(13,16)                1.1142         estimate D2E/DX2                !
 ! R17   R(17,18)                1.1133         estimate D2E/DX2                !
 ! R18   R(17,19)                1.1138         estimate D2E/DX2                !
 ! R19   R(17,20)                1.1143         estimate D2E/DX2                !
 ! A1    A(2,1,3)              108.8375         estimate D2E/DX2                !
 ! A2    A(2,1,4)              107.9058         estimate D2E/DX2                !
 ! A3    A(2,1,5)              110.5278         estimate D2E/DX2                !
 ! A4    A(3,1,4)              108.1807         estimate D2E/DX2                !
 ! A5    A(3,1,5)              111.201          estimate D2E/DX2                !
 ! A6    A(4,1,5)              110.0937         estimate D2E/DX2                !
 ! A7    A(1,5,6)              105.4396         estimate D2E/DX2                !
 ! A8    A(1,5,7)              112.5728         estimate D2E/DX2                !
 ! A9    A(1,5,13)             110.0648         estimate D2E/DX2                !
 ! A10   A(6,5,7)              106.94           estimate D2E/DX2                !
 ! A11   A(6,5,13)             106.4768         estimate D2E/DX2                !
 ! A12   A(7,5,13)             114.6819         estimate D2E/DX2                !
 ! A13   A(5,7,8)              106.9406         estimate D2E/DX2                !
 ! A14   A(5,7,9)              114.6781         estimate D2E/DX2                !
 ! A15   A(5,7,17)             112.5693         estimate D2E/DX2                !
 ! A16   A(8,7,9)              106.4817         estimate D2E/DX2                !
 ! A17   A(8,7,17)             105.4403         estimate D2E/DX2                !
 ! A18   A(9,7,17)             110.0668         estimate D2E/DX2                !
 ! A19   A(7,9,10)             111.0459         estimate D2E/DX2                !
 ! A20   A(7,9,11)             110.0102         estimate D2E/DX2                !
 ! A21   A(7,9,12)             110.9325         estimate D2E/DX2                !
 ! A22   A(10,9,11)            108.2621         estimate D2E/DX2                !
 ! A23   A(10,9,12)            108.9515         estimate D2E/DX2                !
 ! A24   A(11,9,12)            107.5321         estimate D2E/DX2                !
 ! A25   A(5,13,14)            110.9328         estimate D2E/DX2                !
 ! A26   A(5,13,15)            111.0464         estimate D2E/DX2                !
 ! A27   A(5,13,16)            110.0215         estimate D2E/DX2                !
 ! A28   A(14,13,15)           108.9483         estimate D2E/DX2                !
 ! A29   A(14,13,16)           107.5283         estimate D2E/DX2                !
 ! A30   A(15,13,16)           108.2566         estimate D2E/DX2                !
 ! A31   A(7,17,18)            111.1992         estimate D2E/DX2                !
 ! A32   A(7,17,19)            110.53           estimate D2E/DX2                !
 ! A33   A(7,17,20)            110.0909         estimate D2E/DX2                !
 ! A34   A(18,17,19)           108.8423         estimate D2E/DX2                !
 ! A35   A(18,17,20)           108.1846         estimate D2E/DX2                !
 ! A36   A(19,17,20)           107.8996         estimate D2E/DX2                !
 ! D1    D(2,1,5,6)            -65.4689         estimate D2E/DX2                !
 ! D2    D(2,1,5,7)             50.7734         estimate D2E/DX2                !
 ! D3    D(2,1,5,13)          -179.934          estimate D2E/DX2                !
 ! D4    D(3,1,5,6)            173.5303         estimate D2E/DX2                !
 ! D5    D(3,1,5,7)            -70.2273         estimate D2E/DX2                !
 ! D6    D(3,1,5,13)            59.0653         estimate D2E/DX2                !
 ! D7    D(4,1,5,6)             53.6456         estimate D2E/DX2                !
 ! D8    D(4,1,5,7)            169.8879         estimate D2E/DX2                !
 ! D9    D(4,1,5,13)           -60.8194         estimate D2E/DX2                !
 ! D10   D(1,5,7,8)            -51.2035         estimate D2E/DX2                !
 ! D11   D(1,5,7,9)             66.5938         estimate D2E/DX2                !
 ! D12   D(1,5,7,17)          -166.5437         estimate D2E/DX2                !
 ! D13   D(6,5,7,8)             64.1374         estimate D2E/DX2                !
 ! D14   D(6,5,7,9)           -178.0653         estimate D2E/DX2                !
 ! D15   D(6,5,7,17)           -51.2028         estimate D2E/DX2                !
 ! D16   D(13,5,7,8)          -178.0695         estimate D2E/DX2                !
 ! D17   D(13,5,7,9)           -60.2722         estimate D2E/DX2                !
 ! D18   D(13,5,7,17)           66.5903         estimate D2E/DX2                !
 ! D19   D(1,5,13,14)          175.3712         estimate D2E/DX2                !
 ! D20   D(1,5,13,15)          -63.3165         estimate D2E/DX2                !
 ! D21   D(1,5,13,16)           56.5165         estimate D2E/DX2                !
 ! D22   D(6,5,13,14)           61.5682         estimate D2E/DX2                !
 ! D23   D(6,5,13,15)         -177.1196         estimate D2E/DX2                !
 ! D24   D(6,5,13,16)          -57.2865         estimate D2E/DX2                !
 ! D25   D(7,5,13,14)          -56.4872         estimate D2E/DX2                !
 ! D26   D(7,5,13,15)           64.8251         estimate D2E/DX2                !
 ! D27   D(7,5,13,16)         -175.3419         estimate D2E/DX2                !
 ! D28   D(5,7,9,10)            64.8269         estimate D2E/DX2                !
 ! D29   D(5,7,9,11)          -175.3409         estimate D2E/DX2                !
 ! D30   D(5,7,9,12)           -56.4889         estimate D2E/DX2                !
 ! D31   D(8,7,9,10)          -177.1159         estimate D2E/DX2                !
 ! D32   D(8,7,9,11)           -57.2836         estimate D2E/DX2                !
 ! D33   D(8,7,9,12)            61.5684         estimate D2E/DX2                !
 ! D34   D(17,7,9,10)          -63.3085         estimate D2E/DX2                !
 ! D35   D(17,7,9,11)           56.5237         estimate D2E/DX2                !
 ! D36   D(17,7,9,12)          175.3757         estimate D2E/DX2                !
 ! D37   D(5,7,17,18)          -70.2288         estimate D2E/DX2                !
 ! D38   D(5,7,17,19)           50.7782         estimate D2E/DX2                !
 ! D39   D(5,7,17,20)          169.8845         estimate D2E/DX2                !
 ! D40   D(8,7,17,18)          173.5295         estimate D2E/DX2                !
 ! D41   D(8,7,17,19)          -65.4635         estimate D2E/DX2                !
 ! D42   D(8,7,17,20)           53.6428         estimate D2E/DX2                !
 ! D43   D(9,7,17,18)           59.0575         estimate D2E/DX2                !
 ! D44   D(9,7,17,19)         -179.9355         estimate D2E/DX2                !
 ! D45   D(9,7,17,20)          -60.8292         estimate D2E/DX2                !
 --------------------------------------------------------------------------------
 Trust Radius=3.00D-01 FncErr=1.00D-07 GrdErr=1.00D-07
 Number of steps in this run= 110 maximum allowed number of steps= 120.
 GradGradGradGradGradGradGradGradGradGradGradGradGradGradGradGradGradGrad

 Leave Link  103 at Mon Sep 14 19:12:21 2015, MaxMem=  402653184 cpu:       0.0
 (Enter /share/apps/g09/l202.exe)
                          Input orientation:                          
 ---------------------------------------------------------------------
 Center     Atomic      Atomic             Coordinates (Angstroms)
 Number     Number       Type             X           Y           Z
 ---------------------------------------------------------------------
      1          6           0       -1.422600   -1.291100    0.419100
      2          1           0       -0.719400   -1.995200    0.919500
      3          1           0       -1.742200   -1.731800   -0.552000
      4          1           0       -2.323100   -1.187900    1.067200
      5          6           0       -0.758100    0.081000    0.215400
      6          1           0       -0.587700    0.484000    1.242200
      7          6           0        0.638500   -0.026200   -0.467900
      8          1           0        1.226800   -0.777700    0.110700
      9          6           0        0.605100   -0.524500   -1.923100
     10          1           0        0.076600    0.200600   -2.581900
     11          1           0        1.643500   -0.651900   -2.306400
     12          1           0        0.098400   -1.512300   -1.993400
     13          6           0       -1.738600    1.045100   -0.474600
     14          1           0       -1.302800    2.065500   -0.554300
     15          1           0       -2.003200    0.684400   -1.494000
     16          1           0       -2.676600    1.126400    0.121300
     17          6           0        1.442500    1.281900   -0.376300
     18          1           0        0.998400    2.073400   -1.021100
     19          1           0        1.472600    1.649100    0.674800
     20          1           0        2.491900    1.110300   -0.709300
 ---------------------------------------------------------------------
                    Distance matrix (angstroms):
                    1          2          3          4          5
     1  C    0.000000
     2  H    1.113843   0.000000
     3  H    1.113282   1.811301   0.000000
     4  H    1.114264   1.801500   1.804184   0.000000
     5  C    1.538087   2.192684   2.200818   2.187440   0.000000
     6  H    2.127330   2.503580   3.076003   2.416089   1.116138
     7  C    2.575825   2.765092   2.929825   3.532301   1.558487
     8  H    2.716249   2.433959   3.188172   3.699317   2.165215
     9  C    3.191417   3.463760   2.974442   4.237493   2.607322
    10  H    3.671345   4.208914   3.341062   4.582840   2.921629
    11  H    4.151855   4.218315   3.963214   5.234729   3.558694
    12  H    2.860512   3.063817   2.348110   3.916142   2.854995
    13  C    2.521187   3.496528   2.777981   2.775802   1.538496
    14  H    3.496945   4.359097   3.822638   3.775564   2.197129
    15  H    2.810631   3.827973   2.606436   3.188666   2.199185
    16  H    2.739618   3.769899   3.081516   2.525010   2.186860
    17  C    3.932148   4.134283   4.388117   4.728990   2.575832
    18  H    4.388084   4.823927   4.712801   5.101905   2.929826
    19  H    4.134289   4.259773   4.823947   4.754985   2.765142
    20  H    4.728987   4.754952   5.101949   5.623335   3.532284
                    6          7          8          9         10
     6  H    0.000000
     7  C    2.165251   0.000000
     8  H    2.482859   1.116077   0.000000
     9  C    3.529726   1.538514   2.141720   0.000000
    10  H    3.891703   2.199128   3.087090   1.113149   0.000000
    11  H    4.342935   2.186689   2.455980   1.114192   1.804947
    12  H    3.863296   2.197123   2.498031   1.112401   1.811307
    13  C    2.141683   2.607361   3.529699   3.170919   2.906690
    14  H    2.497984   2.855052   3.863274   3.495969   3.080870
    15  H    3.087166   2.921714   3.891747   2.906681   2.396488
    16  H    2.456135   3.558867   4.343068   4.204117   3.967935
    17  C    2.716229   1.538159   2.127357   2.521291   2.810616
    18  H    3.188171   2.200881   3.076022   2.778016   2.606375
    19  H    2.433976   2.192742   2.503594   3.496595   3.827932
    20  H    3.699262   2.187464   2.416076   2.775950   3.188708
                   11         12         13         14         15
    11  H    0.000000
    12  H    1.795993   0.000000
    13  C    4.204034   3.495943   0.000000
    14  H    4.374334   4.103050   1.112425   0.000000
    15  H    3.967885   3.080846   1.113236   1.811362   0.000000
    16  H    5.264916   4.374394   1.114249   1.796015   1.805000
    17  C    2.739575   3.497023   3.191416   2.860487   3.671390
    18  H    3.081462   3.822645   2.974430   2.348081   3.341041
    19  H    3.769796   4.359147   3.463776   3.063808   4.208981
    20  H    2.525046   3.775683   4.237507   3.916144   4.582911
                   16         17         18         19         20
    16  H    0.000000
    17  C    4.151960   0.000000
    18  H    3.963270   1.113312   0.000000
    19  H    4.218464   1.113801   1.811346   0.000000
    20  H    5.234840   1.114260   1.804251   1.801391   0.000000
 Stoichiometry    C6H14
 Framework group  C1[X(C6H14)]
 Deg. of freedom    54
 Full point group                 C1      NOp   1
 Largest Abelian subgroup         C1      NOp   1
 Largest concise Abelian subgroup C1      NOp   1
                         Standard orientation:                         
 ---------------------------------------------------------------------
 Center     Atomic      Atomic             Coordinates (Angstroms)
 Number     Number       Type             X           Y           Z
 ---------------------------------------------------------------------
      1          6           0       -1.806216    0.776491   -0.536350
      2          1           0       -1.579948    1.428273   -1.410781
      3          1           0       -1.886638    1.411834    0.374291
      4          1           0       -2.795984    0.296465   -0.713883
      5          6           0       -0.719499   -0.299175   -0.369911
      6          1           0       -0.802114   -0.947513   -1.274674
      7          6           0        0.719530    0.299221   -0.369928
      8          1           0        0.802162    0.947450   -1.274692
      9          6           0        1.043172    1.193946    0.839101
     10          1           0        1.033155    0.606967    1.784857
     11          1           0        2.054607    1.645668    0.719227
     12          1           0        0.311665    2.027727    0.923621
     13          6           0       -1.043210   -1.193885    0.839086
     14          1           0       -0.311703   -2.027694    0.923651
     15          1           0       -1.033177   -0.606881    1.784930
     16          1           0       -2.054692   -1.645685    0.719368
     17          6           0        1.806232   -0.776573   -0.536292
     18          1           0        1.886610   -1.411833    0.374449
     19          1           0        1.580013   -1.428352   -1.410684
     20          1           0        2.795992   -0.296574   -0.713918
 ---------------------------------------------------------------------
 Rotational constants (GHZ):      4.2013802      2.5040737      2.1746554
 Leave Link  202 at Mon Sep 14 19:12:22 2015, MaxMem=  402653184 cpu:       0.0
 (Enter /share/apps/g09/l301.exe)
 Standard basis: VSTO-6G (5D, 7F)
 Ernie: Thresh=  0.10000D-02 Tol=  0.10000D-05 Strict=F.
  NNHCO=     0 NNPyr=     0 NCTC=     0               EPep=         0.000000000
    EC=       132.088539189  ECS=         3.127189028   EG=         0.302828095
   EHC=         0.000406557  EAt=       -31.187935768  AtH=         2.796400831
 EPDDG=         0.000000000  ECC=       135.518962870 EAtT=        33.984336599
 There are    38 symmetry adapted basis functions of A   symmetry.
 Integral buffers will be    131072 words long.
 Regular integral format.
 Two-electron integral symmetry is turned off.
    38 basis functions,   228 primitive gaussians,    38 cartesian basis functions
    19 alpha electrons       19 beta electrons
       nuclear repulsion energy       169.5032994689 Hartrees.
 IExCor=    0 DFT=F Ex=HF Corr=None ExCW=0 ScaHFX=  1.000000
 ScaDFX=  1.000000  1.000000  1.000000  1.000000 ScalE2=  1.000000  1.000000
 IRadAn=      0 IRanWt=     -1 IRanGd=            0 ICorTp=0
 Leave Link  301 at Mon Sep 14 19:12:23 2015, MaxMem=  402653184 cpu:       0.1
 (Enter /share/apps/g09/l302.exe)
 Do NDO integrals.
 NPDir=0 NMtPBC=     1 NCelOv=     1 NCel=       1 NClECP=     1 NCelD=      1
         NCelK=      1 NCelE2=     1 NClLst=     1 CellRange=     0.0.
 One-electron integrals computed using PRISM.
 NBasis=    38 RedAO= F  NBF=    38
 NBsUse=    38 1.00D-04 NBFU=    38
 Leave Link  302 at Mon Sep 14 19:12:24 2015, MaxMem=  402653184 cpu:       0.1
 (Enter /share/apps/g09/l303.exe)
 DipDrv:  MaxL=1.
 Leave Link  303 at Mon Sep 14 19:12:24 2015, MaxMem=  402653184 cpu:       0.1
 (Enter /share/apps/g09/l401.exe)
 Simple Huckel Guess.
 Initial guess orbital symmetries:
       Occupied  (A) (A) (A) (A) (A) (A) (A) (A) (A) (A) (A) (A)
                 (A) (A) (A) (A) (A) (A) (A)
       Virtual   (A) (A) (A) (A) (A) (A) (A) (A) (A) (A) (A) (A)
                 (A) (A) (A) (A) (A) (A) (A)
 The electronic state of the initial guess is 1-A.
 Leave Link  401 at Mon Sep 14 19:12:25 2015, MaxMem=  402653184 cpu:       0.1
 (Enter /share/apps/g09/l502.exe)
 Closed shell SCF:
 Requested convergence on RMS density matrix=1.00D-08 within 128 cycles.
 Requested convergence on MAX density matrix=1.00D-06.
 Requested convergence on             energy=1.00D-06.
 No special actions if energy rises.
 Using DIIS extrapolation, IDIIS=  1040.
 Overlap will be assumed to be unity.
 Two-electron integral symmetry not used.
 Keep J ints in memory in canonical form, NReq=884654.
 IEnd=       81865 IEndB=       81865 NGot=   402653184 MDV=   402586639
 LenX=   402586639 LenY=   402584754
 Symmetry not used in FoFDir.
 MinBra= 0 MaxBra= 1 Meth=40.
 IRaf=       0 NMat=   1 IRICut=       1 DoRegI=T DoRafI=F ISym2E= 0 JSym2E=0.

 Cycle   1  Pass 1  IDiag  1:
 E= 0.731189163486476E-01
 DIIS: error= 2.19D-02 at cycle   1 NSaved=   1.
 NSaved= 1 IEnMin= 1 EnMin= 0.731189163486476E-01 IErMin= 1 ErrMin= 2.19D-02
 ErrMax= 2.19D-02 EMaxC= 1.00D-01 BMatC= 4.34D-02 BMatP= 4.34D-02
 IDIUse=3 WtCom= 7.81D-01 WtEn= 2.19D-01
 Coeff-Com:  0.100D+01
 Coeff-En:   0.100D+01
 Coeff:      0.100D+01
 GapD=    2.000 DampG=2.000 DampE=0.500 DampFc=1.0000 IDamp=-1.
 RMSDP=8.39D-03 MaxDP=6.89D-02              OVMax= 0.00D+00

 Cycle   2  Pass 1  IDiag  1:
 E=-0.419538626875351E-01 Delta-E=       -0.115072779036 Rises=F Damp=F
 DIIS: error= 5.37D-03 at cycle   2 NSaved=   2.
 NSaved= 2 IEnMin= 2 EnMin=-0.419538626875351E-01 IErMin= 2 ErrMin= 5.37D-03
 ErrMax= 5.37D-03 EMaxC= 1.00D-01 BMatC= 3.00D-03 BMatP= 4.34D-02
 IDIUse=3 WtCom= 9.46D-01 WtEn= 5.37D-02
 Coeff-Com: -0.309D+00 0.131D+01
 Coeff-En:   0.000D+00 0.100D+01
 Coeff:     -0.292D+00 0.129D+01
 RMSDP=3.08D-03 MaxDP=2.12D-02 DE=-1.15D-01 OVMax= 0.00D+00

 Cycle   3  Pass 1  IDiag  3:
 E=-0.523163058639966E-01 Delta-E=       -0.010362443176 Rises=F Damp=F
 DIIS: error= 1.48D-03 at cycle   3 NSaved=   3.
 NSaved= 3 IEnMin= 3 EnMin=-0.523163058639966E-01 IErMin= 3 ErrMin= 1.48D-03
 ErrMax= 1.48D-03 EMaxC= 1.00D-01 BMatC= 1.84D-04 BMatP= 3.00D-03
 IDIUse=3 WtCom= 9.85D-01 WtEn= 1.48D-02
 Coeff-Com:  0.229D+00-0.105D+01 0.182D+01
 Coeff-En:   0.000D+00 0.000D+00 0.100D+01
 Coeff:      0.226D+00-0.103D+01 0.181D+01
 Gap=     0.551 Goal=   None    Shift=    0.000
 RMSDP=1.38D-03 MaxDP=1.19D-02 DE=-1.04D-02 OVMax= 0.00D+00

 Cycle   4  Pass 1  IDiag  3:
 E=-0.535873345803850E-01 Delta-E=       -0.001271028716 Rises=F Damp=F
 DIIS: error= 4.60D-04 at cycle   4 NSaved=   4.
 NSaved= 4 IEnMin= 4 EnMin=-0.535873345803850E-01 IErMin= 4 ErrMin= 4.60D-04
 ErrMax= 4.60D-04 EMaxC= 1.00D-01 BMatC= 1.84D-05 BMatP= 1.84D-04
 IDIUse=3 WtCom= 9.95D-01 WtEn= 4.60D-03
 Coeff-Com: -0.122D+00 0.572D+00-0.129D+01 0.184D+01
 Coeff-En:   0.000D+00 0.000D+00 0.000D+00 0.100D+01
 Coeff:     -0.121D+00 0.569D+00-0.128D+01 0.183D+01
 Gap=     0.552 Goal=   None    Shift=    0.000
 RMSDP=5.93D-04 MaxDP=4.62D-03 DE=-1.27D-03 OVMax= 0.00D+00

 Cycle   5  Pass 1  IDiag  3:
 E=-0.537301676395145E-01 Delta-E=       -0.000142833059 Rises=F Damp=F
 DIIS: error= 7.82D-05 at cycle   5 NSaved=   5.
 NSaved= 5 IEnMin= 5 EnMin=-0.537301676395145E-01 IErMin= 5 ErrMin= 7.82D-05
 ErrMax= 7.82D-05 EMaxC= 1.00D-01 BMatC= 3.98D-07 BMatP= 1.84D-05
 IDIUse=1 WtCom= 1.00D+00 WtEn= 0.00D+00
 Coeff-Com:  0.485D-01-0.231D+00 0.546D+00-0.871D+00 0.151D+01
 Coeff:      0.485D-01-0.231D+00 0.546D+00-0.871D+00 0.151D+01
 Gap=     0.551 Goal=   None    Shift=    0.000
 RMSDP=6.25D-05 MaxDP=5.27D-04 DE=-1.43D-04 OVMax= 0.00D+00

 Cycle   6  Pass 1  IDiag  3:
 E=-0.537325157269777E-01 Delta-E=       -0.000002348087 Rises=F Damp=F
 DIIS: error= 2.19D-05 at cycle   6 NSaved=   6.
 NSaved= 6 IEnMin= 6 EnMin=-0.537325157269777E-01 IErMin= 6 ErrMin= 2.19D-05
 ErrMax= 2.19D-05 EMaxC= 1.00D-01 BMatC= 1.86D-08 BMatP= 3.98D-07
 IDIUse=1 WtCom= 1.00D+00 WtEn= 0.00D+00
 Coeff-Com: -0.670D-02 0.322D-01-0.792D-01 0.135D+00-0.380D+00 0.130D+01
 Coeff:     -0.670D-02 0.322D-01-0.792D-01 0.135D+00-0.380D+00 0.130D+01
 Gap=     0.551 Goal=   None    Shift=    0.000
 RMSDP=1.21D-05 MaxDP=1.28D-04 DE=-2.35D-06 OVMax= 0.00D+00

 Cycle   7  Pass 1  IDiag  3:
 E=-0.537326174226678E-01 Delta-E=       -0.000000101696 Rises=F Damp=F
 DIIS: error= 5.05D-06 at cycle   7 NSaved=   7.
 NSaved= 7 IEnMin= 7 EnMin=-0.537326174226678E-01 IErMin= 7 ErrMin= 5.05D-06
 ErrMax= 5.05D-06 EMaxC= 1.00D-01 BMatC= 1.11D-09 BMatP= 1.86D-08
 IDIUse=1 WtCom= 1.00D+00 WtEn= 0.00D+00
 Coeff-Com:  0.115D-02-0.572D-02 0.154D-01-0.286D-01 0.105D+00-0.587D+00
 Coeff-Com:  0.150D+01
 Coeff:      0.115D-02-0.572D-02 0.154D-01-0.286D-01 0.105D+00-0.587D+00
 Coeff:      0.150D+01
 Gap=     0.551 Goal=   None    Shift=    0.000
 RMSDP=3.20D-06 MaxDP=3.15D-05 DE=-1.02D-07 OVMax= 0.00D+00

 Cycle   8  Pass 1  IDiag  3:
 E=-0.537326231322766E-01 Delta-E=       -0.000000005710 Rises=F Damp=F
 DIIS: error= 3.34D-07 at cycle   8 NSaved=   8.
 NSaved= 8 IEnMin= 8 EnMin=-0.537326231322766E-01 IErMin= 8 ErrMin= 3.34D-07
 ErrMax= 3.34D-07 EMaxC= 1.00D-01 BMatC= 1.57D-11 BMatP= 1.11D-09
 IDIUse=1 WtCom= 1.00D+00 WtEn= 0.00D+00
 Coeff-Com:  0.805D-04-0.298D-03 0.389D-04 0.142D-02-0.183D-01 0.156D+00
 Coeff-Com: -0.482D+00 0.134D+01
 Coeff:      0.805D-04-0.298D-03 0.389D-04 0.142D-02-0.183D-01 0.156D+00
 Coeff:     -0.482D+00 0.134D+01
 Gap=     0.551 Goal=   None    Shift=    0.000
 RMSDP=3.01D-07 MaxDP=1.45D-06 DE=-5.71D-09 OVMax= 0.00D+00

 Cycle   9  Pass 1  IDiag  3:
 E=-0.537326232047519E-01 Delta-E=       -0.000000000072 Rises=F Damp=F
 DIIS: error= 8.82D-08 at cycle   9 NSaved=   9.
 NSaved= 9 IEnMin= 9 EnMin=-0.537326232047519E-01 IErMin= 9 ErrMin= 8.82D-08
 ErrMax= 8.82D-08 EMaxC= 1.00D-01 BMatC= 7.51D-13 BMatP= 1.57D-11
 IDIUse=1 WtCom= 1.00D+00 WtEn= 0.00D+00
 Coeff-Com: -0.152D-04 0.355D-04 0.204D-03-0.970D-03 0.874D-02-0.708D-01
 Coeff-Com:  0.217D+00-0.695D+00 0.154D+01
 Coeff:     -0.152D-04 0.355D-04 0.204D-03-0.970D-03 0.874D-02-0.708D-01
 Coeff:      0.217D+00-0.695D+00 0.154D+01
 Gap=     0.551 Goal=   None    Shift=    0.000
 RMSDP=7.87D-08 MaxDP=3.63D-07 DE=-7.25D-11 OVMax= 0.00D+00

 Cycle  10  Pass 1  IDiag  3:
 E=-0.537326232087594E-01 Delta-E=       -0.000000000004 Rises=F Damp=F
 DIIS: error= 1.54D-08 at cycle  10 NSaved=  10.
 NSaved=10 IEnMin=10 EnMin=-0.537326232087594E-01 IErMin=10 ErrMin= 1.54D-08
 ErrMax= 1.54D-08 EMaxC= 1.00D-01 BMatC= 2.63D-14 BMatP= 7.51D-13
 IDIUse=1 WtCom= 1.00D+00 WtEn= 0.00D+00
 Coeff-Com: -0.563D-05 0.418D-04-0.217D-03 0.611D-03-0.403D-02 0.303D-01
 Coeff-Com: -0.911D-01 0.291D+00-0.746D+00 0.152D+01
 Coeff:     -0.563D-05 0.418D-04-0.217D-03 0.611D-03-0.403D-02 0.303D-01
 Coeff:     -0.911D-01 0.291D+00-0.746D+00 0.152D+01
 Gap=     0.551 Goal=   None    Shift=    0.000
 RMSDP=1.53D-08 MaxDP=9.89D-08 DE=-4.01D-12 OVMax= 0.00D+00

 Cycle  11  Pass 1  IDiag  3:
 E=-0.537326232089015E-01 Delta-E=        0.000000000000 Rises=F Damp=F
 DIIS: error= 4.64D-09 at cycle  11 NSaved=  11.
 NSaved=11 IEnMin=11 EnMin=-0.537326232089015E-01 IErMin=11 ErrMin= 4.64D-09
 ErrMax= 4.64D-09 EMaxC= 1.00D-01 BMatC= 1.24D-15 BMatP= 2.63D-14
 IDIUse=1 WtCom= 1.00D+00 WtEn= 0.00D+00
 Coeff-Com:  0.971D-06-0.121D-04 0.879D-04-0.272D-03 0.194D-02-0.149D-01
 Coeff-Com:  0.451D-01-0.146D+00 0.382D+00-0.860D+00 0.159D+01
 Coeff:      0.971D-06-0.121D-04 0.879D-04-0.272D-03 0.194D-02-0.149D-01
 Coeff:      0.451D-01-0.146D+00 0.382D+00-0.860D+00 0.159D+01
 Gap=     0.551 Goal=   None    Shift=    0.000
 RMSDP=3.41D-09 MaxDP=3.60D-08 DE=-1.42D-13 OVMax= 0.00D+00

 Cycle  12  Pass 2  IDiag  1:
 RMSDP=3.41D-09 MaxDP=3.60D-08 DE=-1.42D-13 OVMax= 0.00D+00

 SCF Done:  E(RPM6) = -0.537326232089E-01 A.U. after   12 cycles
             Convg  =    0.3410D-08             -V/T =  0.9990
 KE=-5.624860292450D+01 PE=-2.600957733285D+02 EE= 1.467873441609D+02
 Leave Link  502 at Mon Sep 14 19:12:28 2015, MaxMem=  402653184 cpu:       0.1
 (Enter /share/apps/g09/l601.exe)
 Copying SCF densities to generalized density rwf, IOpCl= 0 IROHF=0.

 **********************************************************************

            Population analysis using the SCF density.

 **********************************************************************

 Orbital symmetries:
       Occupied  (A) (A) (A) (A) (A) (A) (A) (A) (A) (A) (A) (A)
                 (A) (A) (A) (A) (A) (A) (A)
       Virtual   (A) (A) (A) (A) (A) (A) (A) (A) (A) (A) (A) (A)
                 (A) (A) (A) (A) (A) (A) (A)
 The electronic state is 1-A.
 Alpha  occ. eigenvalues --   -1.05663  -0.95866  -0.87810  -0.85978  -0.77102
 Alpha  occ. eigenvalues --   -0.66652  -0.58517  -0.54926  -0.54703  -0.50548
 Alpha  occ. eigenvalues --   -0.49483  -0.48445  -0.47077  -0.46890  -0.43963
 Alpha  occ. eigenvalues --   -0.43864  -0.41060  -0.40236  -0.39702
 Alpha virt. eigenvalues --    0.15427   0.16150   0.16356   0.18111   0.18139
 Alpha virt. eigenvalues --    0.21505   0.21837   0.22038   0.22105   0.22170
 Alpha virt. eigenvalues --    0.22300   0.22464   0.22727   0.23729   0.23855
 Alpha virt. eigenvalues --    0.24871   0.25210   0.25886   0.25892
          Condensed to atoms (all electrons):
              1          2          3          4          5          6
     1  C    4.492738   0.000000   0.000000   0.000000   0.000000   0.000000
     2  H    0.000000   0.853603   0.000000   0.000000   0.000000   0.000000
     3  H    0.000000   0.000000   0.847816   0.000000   0.000000   0.000000
     4  H    0.000000   0.000000   0.000000   0.852696   0.000000   0.000000
     5  C    0.000000   0.000000   0.000000   0.000000   4.020643   0.000000
     6  H    0.000000   0.000000   0.000000   0.000000   0.000000   0.892267
     7  C    0.000000   0.000000   0.000000   0.000000   0.000000   0.000000
     8  H    0.000000   0.000000   0.000000   0.000000   0.000000   0.000000
     9  C    0.000000   0.000000   0.000000   0.000000   0.000000   0.000000
    10  H    0.000000   0.000000   0.000000   0.000000   0.000000   0.000000
    11  H    0.000000   0.000000   0.000000   0.000000   0.000000   0.000000
    12  H    0.000000   0.000000   0.000000   0.000000   0.000000   0.000000
    13  C    0.000000   0.000000   0.000000   0.000000   0.000000   0.000000
    14  H    0.000000   0.000000   0.000000   0.000000   0.000000   0.000000
    15  H    0.000000   0.000000   0.000000   0.000000   0.000000   0.000000
    16  H    0.000000   0.000000   0.000000   0.000000   0.000000   0.000000
    17  C    0.000000   0.000000   0.000000   0.000000   0.000000   0.000000
    18  H    0.000000   0.000000   0.000000   0.000000   0.000000   0.000000
    19  H    0.000000   0.000000   0.000000   0.000000   0.000000   0.000000
    20  H    0.000000   0.000000   0.000000   0.000000   0.000000   0.000000
              7          8          9         10         11         12
     1  C    0.000000   0.000000   0.000000   0.000000   0.000000   0.000000
     2  H    0.000000   0.000000   0.000000   0.000000   0.000000   0.000000
     3  H    0.000000   0.000000   0.000000   0.000000   0.000000   0.000000
     4  H    0.000000   0.000000   0.000000   0.000000   0.000000   0.000000
     5  C    0.000000   0.000000   0.000000   0.000000   0.000000   0.000000
     6  H    0.000000   0.000000   0.000000   0.000000   0.000000   0.000000
     7  C    4.020636   0.000000   0.000000   0.000000   0.000000   0.000000
     8  H    0.000000   0.892271   0.000000   0.000000   0.000000   0.000000
     9  C    0.000000   0.000000   4.482525   0.000000   0.000000   0.000000
    10  H    0.000000   0.000000   0.000000   0.849023   0.000000   0.000000
    11  H    0.000000   0.000000   0.000000   0.000000   0.855945   0.000000
    12  H    0.000000   0.000000   0.000000   0.000000   0.000000   0.852739
    13  C    0.000000   0.000000   0.000000   0.000000   0.000000   0.000000
    14  H    0.000000   0.000000   0.000000   0.000000   0.000000   0.000000
    15  H    0.000000   0.000000   0.000000   0.000000   0.000000   0.000000
    16  H    0.000000   0.000000   0.000000   0.000000   0.000000   0.000000
    17  C    0.000000   0.000000   0.000000   0.000000   0.000000   0.000000
    18  H    0.000000   0.000000   0.000000   0.000000   0.000000   0.000000
    19  H    0.000000   0.000000   0.000000   0.000000   0.000000   0.000000
    20  H    0.000000   0.000000   0.000000   0.000000   0.000000   0.000000
             13         14         15         16         17         18
     1  C    0.000000   0.000000   0.000000   0.000000   0.000000   0.000000
     2  H    0.000000   0.000000   0.000000   0.000000   0.000000   0.000000
     3  H    0.000000   0.000000   0.000000   0.000000   0.000000   0.000000
     4  H    0.000000   0.000000   0.000000   0.000000   0.000000   0.000000
     5  C    0.000000   0.000000   0.000000   0.000000   0.000000   0.000000
     6  H    0.000000   0.000000   0.000000   0.000000   0.000000   0.000000
     7  C    0.000000   0.000000   0.000000   0.000000   0.000000   0.000000
     8  H    0.000000   0.000000   0.000000   0.000000   0.000000   0.000000
     9  C    0.000000   0.000000   0.000000   0.000000   0.000000   0.000000
    10  H    0.000000   0.000000   0.000000   0.000000   0.000000   0.000000
    11  H    0.000000   0.000000   0.000000   0.000000   0.000000   0.000000
    12  H    0.000000   0.000000   0.000000   0.000000   0.000000   0.000000
    13  C    4.482523   0.000000   0.000000   0.000000   0.000000   0.000000
    14  H    0.000000   0.852746   0.000000   0.000000   0.000000   0.000000
    15  H    0.000000   0.000000   0.849026   0.000000   0.000000   0.000000
    16  H    0.000000   0.000000   0.000000   0.855946   0.000000   0.000000
    17  C    0.000000   0.000000   0.000000   0.000000   4.492737   0.000000
    18  H    0.000000   0.000000   0.000000   0.000000   0.000000   0.847809
    19  H    0.000000   0.000000   0.000000   0.000000   0.000000   0.000000
    20  H    0.000000   0.000000   0.000000   0.000000   0.000000   0.000000
             19         20
     1  C    0.000000   0.000000
     2  H    0.000000   0.000000
     3  H    0.000000   0.000000
     4  H    0.000000   0.000000
     5  C    0.000000   0.000000
     6  H    0.000000   0.000000
     7  C    0.000000   0.000000
     8  H    0.000000   0.000000
     9  C    0.000000   0.000000
    10  H    0.000000   0.000000
    11  H    0.000000   0.000000
    12  H    0.000000   0.000000
    13  C    0.000000   0.000000
    14  H    0.000000   0.000000
    15  H    0.000000   0.000000
    16  H    0.000000   0.000000
    17  C    0.000000   0.000000
    18  H    0.000000   0.000000
    19  H    0.853607   0.000000
    20  H    0.000000   0.852703
 Mulliken atomic charges:
              1
     1  C   -0.492738
     2  H    0.146397
     3  H    0.152184
     4  H    0.147304
     5  C   -0.020643
     6  H    0.107733
     7  C   -0.020636
     8  H    0.107729
     9  C   -0.482525
    10  H    0.150977
    11  H    0.144055
    12  H    0.147261
    13  C   -0.482523
    14  H    0.147254
    15  H    0.150974
    16  H    0.144054
    17  C   -0.492737
    18  H    0.152191
    19  H    0.146393
    20  H    0.147297
 Sum of Mulliken atomic charges =   0.00000
 Mulliken charges with hydrogens summed into heavy atoms:
              1
     1  C   -0.046853
     5  C    0.087089
     7  C    0.087093
     9  C   -0.040232
    13  C   -0.040241
    17  C   -0.046856
 Sum of Mulliken charges with hydrogens summed into heavy atoms =   0.00000
 Charge=              0.0000 electrons
 Dipole moment (field-independent basis, Debye):
    X=              0.0000    Y=              0.0000    Z=             -0.0035  Tot=              0.0035
 N-N= 1.695032994689D+02 E-N=-2.600957733787D+02  KE=-5.624860292450D+01
 Leave Link  601 at Mon Sep 14 19:12:28 2015, MaxMem=  402653184 cpu:       0.0
 (Enter /share/apps/g09/l701.exe)
 Compute integral first derivatives.
 ... and contract with generalized density number  0.
 Leave Link  701 at Mon Sep 14 19:12:28 2015, MaxMem=  402653184 cpu:       0.1
 (Enter /share/apps/g09/l702.exe)
 L702 exits ... SP integral derivatives will be done elsewhere.
 Leave Link  702 at Mon Sep 14 19:12:29 2015, MaxMem=  402653184 cpu:       0.0
 (Enter /share/apps/g09/l703.exe)
 Compute integral first derivatives, UseDBF=F ICtDFT=           0.
 Integral derivatives from FoFDir, PRISM(SPDF).
 Calling FoFJK, ICntrl=      2127 FMM=F ISym2X=0 I1Cent= 0 IOpClX= 0 NMat=1 NMatS=1 NMatT=0.
 FoFCou: FMM=F IPFlag=           0 FMFlag=      100000 FMFlg1=         800
         NFxFlg=           0 DoJE=F BraDBF=F KetDBF=F FulRan=T
         Omega=  0.000000  0.000000  1.000000  0.000000  0.000000 ICntrl=    2127 IOpCl=  0
         NMat0=    1 NMatS0=    1 NMatT0=    0 NMatD0=    1 NMtDS0=    0 NMtDT0=    0
         I1Cent=           0 NGrid=           0.
 Symmetry not used in FoFCou.
 Leave Link  703 at Mon Sep 14 19:12:30 2015, MaxMem=  402653184 cpu:       0.0
 (Enter /share/apps/g09/l716.exe)
 Dipole        = 1.18174431D-06-3.14125705D-06-1.38924002D-03
 ***** Axes restored to original set *****
 -------------------------------------------------------------------
 Center     Atomic                   Forces (Hartrees/Bohr)
 Number     Number              X              Y              Z
 -------------------------------------------------------------------
      1        6           0.000533182   -0.004545682   -0.001742202
      2        1          -0.007734427    0.004820115   -0.005371473
      3        1           0.002855274    0.002620585    0.009645253
      4        1           0.007775970   -0.002625568   -0.006576393
      5        6          -0.002064604    0.002781481   -0.001326749
      6        1           0.003297075    0.002748257    0.002409515
      7        6          -0.000119947   -0.001732265   -0.003251991
      8        1          -0.000774506   -0.003916546    0.002904678
      9        6          -0.001811279    0.000296398   -0.001934752
     10        1           0.004564159   -0.007880097    0.005135095
     11        1          -0.010075972    0.001246293    0.001774447
     12        1           0.003445524    0.009415798   -0.000443815
     13        6          -0.000341387    0.000699426   -0.002607048
     14        1          -0.004088467   -0.009132863   -0.000908334
     15        1           0.002145430    0.004812191    0.009074774
     16        1           0.007686142   -0.000145937   -0.006908420
     17        6          -0.000921179    0.004681362    0.000921593
     18        1           0.004909584   -0.006195770    0.006778788
     19        1           0.000230426   -0.001371221   -0.010470504
     20        1          -0.009510996    0.003424042    0.002897541
 -------------------------------------------------------------------
 Cartesian Forces:  Max     0.010470504 RMS     0.004887664
 Leave Link  716 at Mon Sep 14 19:12:33 2015, MaxMem=  402653184 cpu:       0.0
 (Enter /share/apps/g09/l103.exe)

 GradGradGradGradGradGradGradGradGradGradGradGradGradGradGradGradGradGrad
 Berny optimization.
 Internal  Forces:  Max     0.010769144 RMS     0.004110901
 Search for a local minimum.
 Step number   1 out of a maximum of  110
 All quantities printed in internal units (Hartrees-Bohrs-Radians)
 RMS Force = .41109D-02 SwitMx=.10000D-02 MixMth= 1
 Mixed Optimization -- RFO/linear search
 Second derivative matrix not updated -- first step.
     Eigenvalues ---    0.00230   0.00256   0.00257   0.00261   0.00262
     Eigenvalues ---    0.02987   0.02987   0.04586   0.04586   0.05133
     Eigenvalues ---    0.05134   0.05425   0.05425   0.05449   0.05450
     Eigenvalues ---    0.05595   0.05596   0.05600   0.05600   0.16000
     Eigenvalues ---    0.16000   0.16000   0.16000   0.16000   0.16000
     Eigenvalues ---    0.16000   0.16000   0.16000   0.16000   0.16000
     Eigenvalues ---    0.16000   0.17154   0.17154   0.17902   0.17903
     Eigenvalues ---    0.26942   0.28651   0.28653   0.28683   0.28689
     Eigenvalues ---    0.31959   0.31965   0.32153   0.32153   0.32154
     Eigenvalues ---    0.32160   0.32196   0.32201   0.32252   0.32255
     Eigenvalues ---    0.32260   0.32269   0.32345   0.323471000.00000
     Eigenvalues --- 1000.000001000.000001000.000001000.000001000.00000
     Eigenvalues --- 1000.000001000.000001000.000001000.000001000.00000
     Eigenvalues --- 1000.000001000.000001000.000001000.000001000.00000
     Eigenvalues --- 1000.000001000.000001000.000001000.000001000.00000
     Eigenvalues --- 1000.000001000.000001000.000001000.000001000.00000
     Eigenvalues --- 1000.000001000.000001000.000001000.000001000.00000
     Eigenvalues --- 1000.000001000.000001000.000001000.000001000.00000
     Eigenvalues --- 1000.000001000.000001000.000001000.000001000.00000
     Eigenvalues --- 1000.000001000.000001000.000001000.000001000.00000
 RFO step:  Lambda=-7.52018747D-03 EMin= 2.30000000D-03
 Linear search not attempted -- first point.
 Iteration  1 RMS(Cart)=  0.06319385 RMS(Int)=  0.00108627
 Iteration  2 RMS(Cart)=  0.00161137 RMS(Int)=  0.00035355
 Iteration  3 RMS(Cart)=  0.00000069 RMS(Int)=  0.00035355
 Variable       Old X    -DE/DX   Delta X   Delta X   Delta X     New X
                                 (Linear)    (Quad)   (Total)
    R1        2.10486  -0.01034   0.00000  -0.03139  -0.03139   2.07347
    R2        2.10380  -0.01027   0.00000  -0.03112  -0.03112   2.07268
    R3        2.10565  -0.01035   0.00000  -0.03146  -0.03146   2.07419
    R4        2.90656  -0.00226   0.00000  -0.00767  -0.00767   2.89889
    R5        2.10919   0.00371   0.00000   0.01135   0.01135   2.12054
    R6        2.94511  -0.01077   0.00000  -0.03889  -0.03889   2.90623
    R7        2.90734  -0.00520   0.00000  -0.01768  -0.01768   2.88966
    R8        2.10908   0.00373   0.00000   0.01142   0.01142   2.12049
    R9        2.90737  -0.00520   0.00000  -0.01768  -0.01768   2.88969
   R10        2.90670  -0.00230   0.00000  -0.00782  -0.00782   2.89888
   R11        2.10355  -0.01034   0.00000  -0.03131  -0.03131   2.07224
   R12        2.10552  -0.01014   0.00000  -0.03082  -0.03082   2.07470
   R13        2.10213  -0.00990   0.00000  -0.02992  -0.02992   2.07222
   R14        2.10218  -0.00991   0.00000  -0.02995  -0.02995   2.07222
   R15        2.10371  -0.01038   0.00000  -0.03144  -0.03144   2.07227
   R16        2.10563  -0.01018   0.00000  -0.03092  -0.03092   2.07470
   R17        2.10386  -0.01029   0.00000  -0.03118  -0.03118   2.07268
   R18        2.10478  -0.01033   0.00000  -0.03134  -0.03134   2.07344
   R19        2.10565  -0.01035   0.00000  -0.03146  -0.03146   2.07419
    A1        1.89957  -0.00227   0.00000  -0.01680  -0.01680   1.88277
    A2        1.88331  -0.00166   0.00000  -0.00564  -0.00581   1.87750
    A3        1.92907   0.00235   0.00000   0.01440   0.01431   1.94339
    A4        1.88811  -0.00173   0.00000  -0.01117  -0.01119   1.87692
    A5        1.94082   0.00111   0.00000   0.00448   0.00447   1.94529
    A6        1.92150   0.00198   0.00000   0.01358   0.01348   1.93498
    A7        1.84027   0.00143   0.00000   0.04249   0.04233   1.88260
    A8        1.96477  -0.00235   0.00000  -0.02948  -0.03010   1.93466
    A9        1.92099   0.00305   0.00000   0.00411   0.00230   1.92329
   A10        1.86645   0.00076   0.00000   0.00496   0.00573   1.87218
   A11        1.85837   0.00076   0.00000   0.02615   0.02582   1.88419
   A12        2.00158  -0.00315   0.00000  -0.03735  -0.03787   1.96370
   A13        1.86647   0.00076   0.00000   0.00497   0.00574   1.87220
   A14        2.00151  -0.00314   0.00000  -0.03729  -0.03782   1.96369
   A15        1.96471  -0.00235   0.00000  -0.02945  -0.03007   1.93463
   A16        1.85846   0.00076   0.00000   0.02610   0.02578   1.88423
   A17        1.84028   0.00143   0.00000   0.04248   0.04232   1.88260
   A18        1.92103   0.00304   0.00000   0.00406   0.00225   1.92328
   A19        1.93812   0.00117   0.00000   0.00420   0.00417   1.94228
   A20        1.92004   0.00234   0.00000   0.01748   0.01739   1.93743
   A21        1.93614   0.00054   0.00000   0.00238   0.00233   1.93847
   A22        1.88953  -0.00165   0.00000  -0.00835  -0.00841   1.88112
   A23        1.90156  -0.00175   0.00000  -0.01701  -0.01700   1.88456
   A24        1.87679  -0.00079   0.00000   0.00066   0.00056   1.87735
   A25        1.93614   0.00054   0.00000   0.00240   0.00236   1.93850
   A26        1.93813   0.00117   0.00000   0.00420   0.00417   1.94229
   A27        1.92024   0.00231   0.00000   0.01732   0.01724   1.93748
   A28        1.90151  -0.00175   0.00000  -0.01697  -0.01696   1.88454
   A29        1.87672  -0.00078   0.00000   0.00071   0.00060   1.87733
   A30        1.88943  -0.00164   0.00000  -0.00830  -0.00837   1.88107
   A31        1.94079   0.00111   0.00000   0.00447   0.00445   1.94525
   A32        1.92911   0.00234   0.00000   0.01436   0.01427   1.94339
   A33        1.92145   0.00199   0.00000   0.01361   0.01351   1.93496
   A34        1.89966  -0.00227   0.00000  -0.01683  -0.01683   1.88283
   A35        1.88818  -0.00173   0.00000  -0.01119  -0.01122   1.87696
   A36        1.88320  -0.00165   0.00000  -0.00555  -0.00573   1.87748
    D1       -1.14265   0.00049   0.00000   0.01239   0.01257  -1.13007
    D2        0.88616   0.00106   0.00000   0.02869   0.02859   0.91475
    D3       -3.14044  -0.00257   0.00000  -0.04237  -0.04260   3.10015
    D4        3.02868   0.00102   0.00000   0.02087   0.02111   3.04979
    D5       -1.22570   0.00159   0.00000   0.03717   0.03713  -1.18857
    D6        1.03088  -0.00204   0.00000  -0.03388  -0.03406   0.99683
    D7        0.93629   0.00117   0.00000   0.02303   0.02330   0.95960
    D8        2.96510   0.00173   0.00000   0.03933   0.03932   3.00442
    D9       -1.06150  -0.00190   0.00000  -0.03172  -0.03187  -1.09337
   D10       -0.89367  -0.00001   0.00000  -0.01731  -0.01688  -0.91055
   D11        1.16228  -0.00039   0.00000  -0.00326  -0.00325   1.15903
   D12       -2.90674  -0.00094   0.00000  -0.05588  -0.05502  -2.96175
   D13        1.11941   0.00093   0.00000   0.02125   0.02124   1.14065
   D14       -3.10783   0.00054   0.00000   0.03531   0.03488  -3.07295
   D15       -0.89366  -0.00001   0.00000  -0.01732  -0.01689  -0.91055
   D16       -3.10790   0.00054   0.00000   0.03533   0.03489  -3.07301
   D17       -1.05195   0.00016   0.00000   0.04938   0.04853  -1.00342
   D18        1.16222  -0.00039   0.00000  -0.00324  -0.00324   1.15898
   D19        3.06080   0.00289   0.00000   0.05605   0.05613   3.11693
   D20       -1.10508   0.00184   0.00000   0.03900   0.03903  -1.06605
   D21        0.98640   0.00205   0.00000   0.04262   0.04266   1.02906
   D22        1.07457  -0.00066   0.00000  -0.00949  -0.00961   1.06496
   D23       -3.09132  -0.00171   0.00000  -0.02654  -0.02670  -3.11802
   D24       -0.99984  -0.00150   0.00000  -0.02292  -0.02307  -1.02291
   D25       -0.98589  -0.00029   0.00000  -0.01174  -0.01162  -0.99751
   D26        1.13141  -0.00135   0.00000  -0.02879  -0.02871   1.10270
   D27       -3.06029  -0.00114   0.00000  -0.02516  -0.02508  -3.08538
   D28        1.13144  -0.00135   0.00000  -0.02882  -0.02874   1.10270
   D29       -3.06028  -0.00113   0.00000  -0.02515  -0.02507  -3.08535
   D30       -0.98592  -0.00029   0.00000  -0.01170  -0.01158  -0.99750
   D31       -3.09125  -0.00171   0.00000  -0.02656  -0.02672  -3.11798
   D32       -0.99979  -0.00150   0.00000  -0.02290  -0.02305  -1.02283
   D33        1.07457  -0.00065   0.00000  -0.00944  -0.00956   1.06502
   D34       -1.10494   0.00183   0.00000   0.03892   0.03895  -1.06599
   D35        0.98653   0.00205   0.00000   0.04259   0.04263   1.02915
   D36        3.06088   0.00289   0.00000   0.05604   0.05612   3.11700
   D37       -1.22572   0.00159   0.00000   0.03719   0.03714  -1.18858
   D38        0.88625   0.00105   0.00000   0.02863   0.02853   0.91478
   D39        2.96504   0.00173   0.00000   0.03936   0.03935   3.00440
   D40        3.02866   0.00102   0.00000   0.02087   0.02111   3.04977
   D41       -1.14255   0.00049   0.00000   0.01231   0.01249  -1.13006
   D42        0.93624   0.00117   0.00000   0.02305   0.02332   0.95956
   D43        1.03075  -0.00204   0.00000  -0.03381  -0.03398   0.99677
   D44       -3.14047  -0.00257   0.00000  -0.04237  -0.04259   3.10013
   D45       -1.06167  -0.00189   0.00000  -0.03163  -0.03177  -1.09344
         Item               Value     Threshold  Converged?
 Maximum Force            0.010769     0.000450     NO 
 RMS     Force            0.004111     0.000300     NO 
 Maximum Displacement     0.209621     0.001800     NO 
 RMS     Displacement     0.063819     0.001200     NO 
 Predicted change in Energy=-4.018557D-03
 GradGradGradGradGradGradGradGradGradGradGradGradGradGradGradGradGradGrad

 Leave Link  103 at Mon Sep 14 19:12:36 2015, MaxMem=  402653184 cpu:       0.0
 (Enter /share/apps/g09/l202.exe)
                          Input orientation:                          
 ---------------------------------------------------------------------
 Center     Atomic      Atomic             Coordinates (Angstroms)
 Number     Number       Type             X           Y           Z
 ---------------------------------------------------------------------
      1          6           0       -1.391583   -1.292498    0.401735
      2          1           0       -0.719210   -2.002753    0.899097
      3          1           0       -1.670944   -1.717398   -0.570079
      4          1           0       -2.304781   -1.221519    1.006541
      5          6           0       -0.732417    0.083666    0.243886
      6          1           0       -0.560874    0.502989    1.270505
      7          6           0        0.642583   -0.042506   -0.433330
      8          1           0        1.227402   -0.809266    0.140442
      9          6           0        0.539649   -0.516263   -1.883600
     10          1           0       -0.004047    0.208406   -2.501449
     11          1           0        1.535718   -0.652416   -2.324797
     12          1           0        0.015009   -1.477021   -1.948108
     13          6           0       -1.668081    1.034597   -0.503465
     14          1           0       -1.220727    2.030869   -0.602422
     15          1           0       -1.892273    0.662737   -1.510434
     16          1           0       -2.620203    1.150543    0.030737
     17          6           0        1.409663    1.284079   -0.362731
     18          1           0        0.936396    2.054672   -0.983381
     19          1           0        1.458435    1.663015    0.665820
     20          1           0        2.440284    1.159167   -0.719068
 ---------------------------------------------------------------------
                    Distance matrix (angstroms):
                    1          2          3          4          5
     1  C    0.000000
     2  H    1.097232   0.000000
     3  H    1.096816   1.773613   0.000000
     4  H    1.097615   1.770850   1.770134   0.000000
     5  C    1.534029   2.186921   2.187968   2.181165   0.000000
     6  H    2.160697   2.538061   3.090327   2.466742   1.122143
     7  C    2.529357   2.733571   2.859435   3.485722   1.537910
     8  H    2.675981   2.406090   3.119287   3.660109   2.156135
     9  C    3.091109   3.396731   2.838095   4.115955   2.550345
    10  H    3.550556   4.118786   3.196476   4.432162   2.843052
    11  H    4.051268   4.159519   3.807348   5.115772   3.504908
    12  H    2.744870   2.986980   2.190704   3.765190   2.792709
    13  C    2.512212   3.477504   2.752803   2.788470   1.529141
    14  H    3.475959   4.333149   3.775347   3.787078   2.178596
    15  H    2.780292   3.779782   2.568715   3.171079   2.181336
    16  H    2.759637   3.783002   3.080124   2.584253   2.178852
    17  C    3.882028   4.114314   4.306042   4.685085   2.529324
    18  H    4.305994   4.769429   4.604080   5.019805   2.859368
    19  H    4.114292   4.270177   4.769449   4.753779   2.733533
    20  H    4.685089   4.753797   5.019862   5.582206   3.485686
                    6          7          8          9         10
     6  H    0.000000
     7  C    2.156137   0.000000
     8  H    2.489375   1.122117   0.000000
     9  C    3.492621   1.529158   2.157684   0.000000
    10  H    3.824196   2.181331   3.087347   1.096580   0.000000
    11  H    4.319358   2.178836   2.489390   1.097883   1.772878
    12  H    3.822506   2.178586   2.505561   1.096569   1.774038
    13  C    2.157657   2.550341   3.492602   3.030513   2.728285
    14  H    2.505530   2.792741   3.822505   3.350853   2.899652
    15  H    3.087355   2.843065   3.824207   2.728285   2.180350
    16  H    2.489415   3.504925   4.319369   4.053097   3.760833
    17  C    2.675926   1.534022   2.160670   2.512210   2.780246
    18  H    3.119221   2.187930   3.090275   2.752728   2.568591
    19  H    2.406016   2.186903   2.538025   3.477493   3.779726
    20  H    3.660043   2.181144   2.466691   2.788479   3.171054
                   11         12         13         14         15
    11  H    0.000000
    12  H    1.770430   0.000000
    13  C    4.053097   3.350822   0.000000
    14  H    4.214805   3.955149   1.096574   0.000000
    15  H    3.760843   2.899629   1.096598   1.774047   0.000000
    16  H    5.105966   4.214767   1.097885   1.770422   1.772864
    17  C    2.759639   3.475940   3.091045   2.744832   3.550504
    18  H    3.080083   3.775249   2.837987   2.190634   3.196348
    19  H    3.782986   4.333119   3.396651   2.986915   4.118723
    20  H    2.584267   3.787081   4.115904   3.765166   4.432128
                   16         17         18         19         20
    16  H    0.000000
    17  C    4.051231   0.000000
    18  H    3.807266   1.096814   0.000000
    19  H    4.159476   1.097218   1.773635   0.000000
    20  H    5.115741   1.097614   1.770161   1.770820   0.000000
 Stoichiometry    C6H14
 Framework group  C1[X(C6H14)]
 Deg. of freedom    54
 Full point group                 C1      NOp   1
 Largest Abelian subgroup         C1      NOp   1
 Largest concise Abelian subgroup C1      NOp   1
                         Standard orientation:                         
 ---------------------------------------------------------------------
 Center     Atomic      Atomic             Coordinates (Angstroms)
 Number     Number       Type             X           Y           Z
 ---------------------------------------------------------------------
      1          6           0        1.813266   -0.692573   -0.526296
      2          1           0        1.650621   -1.354307   -1.386280
      3          1           0        1.886892   -1.318787    0.371167
      4          1           0        2.783966   -0.199723   -0.666297
      5          6           0        0.688443    0.342533   -0.397557
      6          1           0        0.728952    1.008902   -1.299509
      7          6           0       -0.688446   -0.342553   -0.397578
      8          1           0       -0.728965   -1.008886   -1.299524
      9          6           0       -0.909993   -1.211590    0.840976
     10          1           0       -0.904709   -0.608305    1.756676
     11          1           0       -1.874785   -1.732908    0.788525
     12          1           0       -0.126748   -1.973495    0.933120
     13          6           0        0.909955    1.211589    0.840968
     14          1           0        0.126728    1.973523    0.933093
     15          1           0        0.904639    0.608325    1.756703
     16          1           0        1.874759    1.732897    0.788586
     17          6           0       -1.813230    0.692586   -0.526312
     18          1           0       -1.886828    1.318747    0.371189
     19          1           0       -1.650560    1.354312   -1.386279
     20          1           0       -2.783928    0.199751   -0.666371
 ---------------------------------------------------------------------
 Rotational constants (GHZ):      4.2607697      2.6134007      2.2782560
 Leave Link  202 at Mon Sep 14 19:12:36 2015, MaxMem=  402653184 cpu:       0.0
 (Enter /share/apps/g09/l301.exe)
 Standard basis: VSTO-6G (5D, 7F)
 Ernie: Thresh=  0.10000D-02 Tol=  0.10000D-05 Strict=F.
  NNHCO=     0 NNPyr=     0 NCTC=     0               EPep=         0.000000000
    EC=       133.624324207  ECS=         3.244969436   EG=         0.307519939
   EHC=         0.000466719  EAt=       -31.187935768  AtH=         2.796400831
 EPDDG=         0.000000000  ECC=       137.177280300 EAtT=        33.984336599
 There are    38 symmetry adapted basis functions of A   symmetry.
 Integral buffers will be    131072 words long.
 Regular integral format.
 Two-electron integral symmetry is turned off.
    38 basis functions,   228 primitive gaussians,    38 cartesian basis functions
    19 alpha electrons       19 beta electrons
       nuclear repulsion energy       171.1616168991 Hartrees.
 IExCor=    0 DFT=F Ex=HF Corr=None ExCW=0 ScaHFX=  1.000000
 ScaDFX=  1.000000  1.000000  1.000000  1.000000 ScalE2=  1.000000  1.000000
 IRadAn=      0 IRanWt=     -1 IRanGd=            0 ICorTp=0
 Leave Link  301 at Mon Sep 14 19:12:37 2015, MaxMem=  402653184 cpu:       0.1
 (Enter /share/apps/g09/l302.exe)
 Do NDO integrals.
 NPDir=0 NMtPBC=     1 NCelOv=     1 NCel=       1 NClECP=     1 NCelD=      1
         NCelK=      1 NCelE2=     1 NClLst=     1 CellRange=     0.0.
 One-electron integrals computed using PRISM.
 NBasis=    38 RedAO= F  NBF=    38
 NBsUse=    38 1.00D-04 NBFU=    38
 Leave Link  302 at Mon Sep 14 19:12:39 2015, MaxMem=  402653184 cpu:       0.1
 (Enter /share/apps/g09/l303.exe)
 DipDrv:  MaxL=1.
 Leave Link  303 at Mon Sep 14 19:12:41 2015, MaxMem=  402653184 cpu:       0.0
 (Enter /share/apps/g09/l401.exe)
 Initial guess read from the read-write file.
 B after Tr=     0.000000    0.000000    0.000000
         Rot=    1.000000    0.000000    0.000000    0.000000 Ang=   0.00 deg.
 Guess basis will be translated and rotated to current coordinates.
 Initial guess orbital symmetries:
       Occupied  (A) (A) (A) (A) (A) (A) (A) (A) (A) (A) (A) (A)
                 (A) (A) (A) (A) (A) (A) (A)
       Virtual   (A) (A) (A) (A) (A) (A) (A) (A) (A) (A) (A) (A)
                 (A) (A) (A) (A) (A) (A) (A)
 The electronic state of the initial guess is 1-A.
 Leave Link  401 at Mon Sep 14 19:12:41 2015, MaxMem=  402653184 cpu:       0.2
 (Enter /share/apps/g09/l502.exe)
 Closed shell SCF:
 Requested convergence on RMS density matrix=1.00D-08 within 128 cycles.
 Requested convergence on MAX density matrix=1.00D-06.
 Requested convergence on             energy=1.00D-06.
 No special actions if energy rises.
 Using DIIS extrapolation, IDIIS=  1040.
 Overlap will be assumed to be unity.
 Two-electron integral symmetry not used.
 Keep J ints in memory in canonical form, NReq=884654.
 IEnd=       81865 IEndB=       81865 NGot=   402653184 MDV=   402586639
 LenX=   402586639 LenY=   402584754
 Symmetry not used in FoFDir.
 MinBra= 0 MaxBra= 1 Meth=40.
 IRaf=       0 NMat=   1 IRICut=       1 DoRegI=T DoRafI=F ISym2E= 0 JSym2E=0.

 Cycle   1  Pass 1  IDiag  1:
 E=  6.86554374441033    
 DIIS: error= 7.81D-02 at cycle   1 NSaved=   1.
 NSaved= 1 IEnMin= 1 EnMin=  6.86554374441033     IErMin= 1 ErrMin= 7.81D-02
 ErrMax= 7.81D-02 EMaxC= 1.00D-01 BMatC= 3.63D-01 BMatP= 3.63D-01
 IDIUse=3 WtCom= 2.19D-01 WtEn= 7.81D-01
 Coeff-Com:  0.100D+01
 Coeff-En:   0.100D+01
 Coeff:      0.100D+01
 GapD=    2.000 DampG=2.000 DampE=0.500 DampFc=1.0000 IDamp=-1.
 RMSDP=7.53D-02 MaxDP=3.93D-01              OVMax= 0.00D+00

 Cycle   2  Pass 1  IDiag  1:
 E=  2.01178284760005     Delta-E=       -4.853760896810 Rises=F Damp=F
 DIIS: error= 6.09D-02 at cycle   2 NSaved=   2.
 NSaved= 2 IEnMin= 2 EnMin=  2.01178284760005     IErMin= 2 ErrMin= 6.09D-02
 ErrMax= 6.09D-02 EMaxC= 1.00D-01 BMatC= 2.55D-01 BMatP= 3.63D-01
 IDIUse=3 WtCom= 3.91D-01 WtEn= 6.09D-01
 Coeff-Com:  0.237D+00 0.763D+00
 Coeff-En:   0.000D+00 0.100D+01
 Coeff:      0.928D-01 0.907D+00
 RMSDP=3.49D-02 MaxDP=2.83D-01 DE=-4.85D+00 OVMax= 0.00D+00

 Cycle   3  Pass 1  IDiag  1:
 E= 0.457961107510812     Delta-E=       -1.553821740089 Rises=F Damp=F
 DIIS: error= 4.53D-02 at cycle   3 NSaved=   3.
 NSaved= 3 IEnMin= 3 EnMin= 0.457961107510812     IErMin= 3 ErrMin= 4.53D-02
 ErrMax= 4.53D-02 EMaxC= 1.00D-01 BMatC= 8.53D-02 BMatP= 2.55D-01
 IDIUse=3 WtCom= 5.47D-01 WtEn= 4.53D-01
 Coeff-Com:  0.217D+00-0.111D+01 0.189D+01
 Coeff-En:   0.000D+00 0.000D+00 0.100D+01
 Coeff:      0.119D+00-0.607D+00 0.149D+01
 RMSDP=2.22D-02 MaxDP=1.96D-01 DE=-1.55D+00 OVMax= 0.00D+00

 Cycle   4  Pass 1  IDiag  1:
 E=-0.165001932646192E-02 Delta-E=       -0.459611126837 Rises=F Damp=F
 DIIS: error= 1.45D-02 at cycle   4 NSaved=   4.
 NSaved= 4 IEnMin= 4 EnMin=-0.165001932646192E-02 IErMin= 4 ErrMin= 1.45D-02
 ErrMax= 1.45D-02 EMaxC= 1.00D-01 BMatC= 8.55D-03 BMatP= 8.53D-02
 IDIUse=3 WtCom= 8.55D-01 WtEn= 1.45D-01
 Coeff-Com: -0.608D-01 0.395D+00-0.103D+01 0.169D+01
 Coeff-En:   0.000D+00 0.000D+00 0.000D+00 0.100D+01
 Coeff:     -0.520D-01 0.337D+00-0.878D+00 0.159D+01
 RMSDP=8.02D-03 MaxDP=8.53D-02 DE=-4.60D-01 OVMax= 0.00D+00

 Cycle   5  Pass 1  IDiag  3:
 E=-0.512086296343170E-01 Delta-E=       -0.049558610308 Rises=F Damp=F
 DIIS: error= 3.02D-03 at cycle   5 NSaved=   5.
 NSaved= 5 IEnMin= 5 EnMin=-0.512086296343170E-01 IErMin= 5 ErrMin= 3.02D-03
 ErrMax= 3.02D-03 EMaxC= 1.00D-01 BMatC= 7.62D-04 BMatP= 8.55D-03
 IDIUse=3 WtCom= 9.70D-01 WtEn= 3.02D-02
 Coeff-Com:  0.219D-01-0.111D+00 0.340D+00-0.948D+00 0.170D+01
 Coeff-En:   0.000D+00 0.000D+00 0.000D+00 0.000D+00 0.100D+01
 Coeff:      0.212D-01-0.108D+00 0.329D+00-0.920D+00 0.168D+01
 Gap=     0.550 Goal=   None    Shift=    0.000
 RMSDP=3.13D-03 MaxDP=2.54D-02 DE=-4.96D-02 OVMax= 0.00D+00

 Cycle   6  Pass 1  IDiag  3:
 E=-0.567087313218622E-01 Delta-E=       -0.005500101688 Rises=F Damp=F
 DIIS: error= 7.56D-04 at cycle   6 NSaved=   6.
 NSaved= 6 IEnMin= 6 EnMin=-0.567087313218622E-01 IErMin= 6 ErrMin= 7.56D-04
 ErrMax= 7.56D-04 EMaxC= 1.00D-01 BMatC= 5.71D-05 BMatP= 7.62D-04
 IDIUse=3 WtCom= 9.92D-01 WtEn= 7.56D-03
 Coeff-Com: -0.636D-02 0.245D-01-0.982D-01 0.387D+00-0.982D+00 0.167D+01
 Coeff-En:   0.000D+00 0.000D+00 0.000D+00 0.000D+00 0.000D+00 0.100D+01
 Coeff:     -0.632D-02 0.243D-01-0.975D-01 0.384D+00-0.974D+00 0.167D+01
 Gap=     0.554 Goal=   None    Shift=    0.000
 RMSDP=9.02D-04 MaxDP=7.78D-03 DE=-5.50D-03 OVMax= 0.00D+00

 Cycle   7  Pass 1  IDiag  3:
 E=-0.571182837747983E-01 Delta-E=       -0.000409552453 Rises=F Damp=F
 DIIS: error= 1.76D-04 at cycle   7 NSaved=   7.
 NSaved= 7 IEnMin= 7 EnMin=-0.571182837747983E-01 IErMin= 7 ErrMin= 1.76D-04
 ErrMax= 1.76D-04 EMaxC= 1.00D-01 BMatC= 2.63D-06 BMatP= 5.71D-05
 IDIUse=3 WtCom= 9.98D-01 WtEn= 1.76D-03
 Coeff-Com:  0.101D-02-0.206D-02 0.203D-01-0.111D+00 0.316D+00-0.731D+00
 Coeff-Com:  0.151D+01
 Coeff-En:   0.000D+00 0.000D+00 0.000D+00 0.000D+00 0.000D+00 0.000D+00
 Coeff-En:   0.100D+01
 Coeff:      0.101D-02-0.206D-02 0.202D-01-0.110D+00 0.316D+00-0.730D+00
 Coeff:      0.151D+01
 Gap=     0.553 Goal=   None    Shift=    0.000
 RMSDP=1.84D-04 MaxDP=1.46D-03 DE=-4.10D-04 OVMax= 0.00D+00

 Cycle   8  Pass 1  IDiag  3:
 E=-0.571351814446928E-01 Delta-E=       -0.000016897670 Rises=F Damp=F
 DIIS: error= 4.28D-05 at cycle   8 NSaved=   8.
 NSaved= 8 IEnMin= 8 EnMin=-0.571351814446928E-01 IErMin= 8 ErrMin= 4.28D-05
 ErrMax= 4.28D-05 EMaxC= 1.00D-01 BMatC= 1.03D-07 BMatP= 2.63D-06
 IDIUse=1 WtCom= 1.00D+00 WtEn= 0.00D+00
 Coeff-Com: -0.215D-03 0.888D-03-0.676D-02 0.294D-01-0.753D-01 0.185D+00
 Coeff-Com: -0.526D+00 0.139D+01
 Coeff:     -0.215D-03 0.888D-03-0.676D-02 0.294D-01-0.753D-01 0.185D+00
 Coeff:     -0.526D+00 0.139D+01
 Gap=     0.553 Goal=   None    Shift=    0.000
 RMSDP=2.96D-05 MaxDP=1.92D-04 DE=-1.69D-05 OVMax= 0.00D+00

 Cycle   9  Pass 1  IDiag  3:
 E=-0.571357264219614E-01 Delta-E=       -0.000000544977 Rises=F Damp=F
 DIIS: error= 7.68D-06 at cycle   9 NSaved=   9.
 NSaved= 9 IEnMin= 9 EnMin=-0.571357264219614E-01 IErMin= 9 ErrMin= 7.68D-06
 ErrMax= 7.68D-06 EMaxC= 1.00D-01 BMatC= 4.16D-09 BMatP= 1.03D-07
 IDIUse=1 WtCom= 1.00D+00 WtEn= 0.00D+00
 Coeff-Com:  0.196D-04-0.258D-03 0.179D-02-0.608D-02 0.132D-01-0.368D-01
 Coeff-Com:  0.133D+00-0.528D+00 0.142D+01
 Coeff:      0.196D-04-0.258D-03 0.179D-02-0.608D-02 0.132D-01-0.368D-01
 Coeff:      0.133D+00-0.528D+00 0.142D+01
 Gap=     0.553 Goal=   None    Shift=    0.000
 RMSDP=5.92D-06 MaxDP=4.80D-05 DE=-5.45D-07 OVMax= 0.00D+00

 Cycle  10  Pass 1  IDiag  3:
 E=-0.571357479361723E-01 Delta-E=       -0.000000021514 Rises=F Damp=F
 DIIS: error= 2.28D-06 at cycle  10 NSaved=  10.
 NSaved=10 IEnMin=10 EnMin=-0.571357479361723E-01 IErMin=10 ErrMin= 2.28D-06
 ErrMax= 2.28D-06 EMaxC= 1.00D-01 BMatC= 2.17D-10 BMatP= 4.16D-09
 IDIUse=1 WtCom= 1.00D+00 WtEn= 0.00D+00
 Coeff-Com:  0.133D-05 0.103D-03-0.427D-03 0.623D-03-0.241D-04 0.179D-02
 Coeff-Com: -0.192D-01 0.134D+00-0.539D+00 0.142D+01
 Coeff:      0.133D-05 0.103D-03-0.427D-03 0.623D-03-0.241D-04 0.179D-02
 Coeff:     -0.192D-01 0.134D+00-0.539D+00 0.142D+01
 Gap=     0.553 Goal=   None    Shift=    0.000
 RMSDP=1.21D-06 MaxDP=9.91D-06 DE=-2.15D-08 OVMax= 0.00D+00

 Cycle  11  Pass 1  IDiag  3:
 E=-0.571357490596540E-01 Delta-E=       -0.000000001123 Rises=F Damp=F
 DIIS: error= 5.80D-07 at cycle  11 NSaved=  11.
 NSaved=11 IEnMin=11 EnMin=-0.571357490596540E-01 IErMin=11 ErrMin= 5.80D-07
 ErrMax= 5.80D-07 EMaxC= 1.00D-01 BMatC= 1.65D-11 BMatP= 2.17D-10
 IDIUse=1 WtCom= 1.00D+00 WtEn= 0.00D+00
 Coeff-Com: -0.307D-05-0.217D-04 0.746D-04 0.328D-04-0.585D-03 0.923D-03
 Coeff-Com:  0.152D-02-0.278D-01 0.122D+00-0.521D+00 0.143D+01
 Coeff:     -0.307D-05-0.217D-04 0.746D-04 0.328D-04-0.585D-03 0.923D-03
 Coeff:      0.152D-02-0.278D-01 0.122D+00-0.521D+00 0.143D+01
 Gap=     0.553 Goal=   None    Shift=    0.000
 RMSDP=3.89D-07 MaxDP=3.95D-06 DE=-1.12D-09 OVMax= 0.00D+00

 Cycle  12  Pass 1  IDiag  3:
 E=-0.571357491571121E-01 Delta-E=       -0.000000000097 Rises=F Damp=F
 DIIS: error= 1.56D-07 at cycle  12 NSaved=  12.
 NSaved=12 IEnMin=12 EnMin=-0.571357491571121E-01 IErMin=12 ErrMin= 1.56D-07
 ErrMax= 1.56D-07 EMaxC= 1.00D-01 BMatC= 1.16D-12 BMatP= 1.65D-11
 IDIUse=1 WtCom= 1.00D+00 WtEn= 0.00D+00
 Coeff-Com:  0.480D-06 0.491D-05-0.165D-04 0.763D-05 0.828D-04-0.144D-03
 Coeff-Com: -0.244D-03 0.456D-02-0.142D-01 0.846D-01-0.486D+00 0.141D+01
 Coeff:      0.480D-06 0.491D-05-0.165D-04 0.763D-05 0.828D-04-0.144D-03
 Coeff:     -0.244D-03 0.456D-02-0.142D-01 0.846D-01-0.486D+00 0.141D+01
 Gap=     0.553 Goal=   None    Shift=    0.000
 RMSDP=1.06D-07 MaxDP=1.08D-06 DE=-9.75D-11 OVMax= 0.00D+00

 Cycle  13  Pass 1  IDiag  3:
 E=-0.571357491640754E-01 Delta-E=       -0.000000000007 Rises=F Damp=F
 DIIS: error= 2.17D-08 at cycle  13 NSaved=  13.
 NSaved=13 IEnMin=13 EnMin=-0.571357491640754E-01 IErMin=13 ErrMin= 2.17D-08
 ErrMax= 2.17D-08 EMaxC= 1.00D-01 BMatC= 6.17D-14 BMatP= 1.16D-12
 IDIUse=1 WtCom= 1.00D+00 WtEn= 0.00D+00
 Coeff-Com: -0.559D-07-0.975D-07 0.610D-06-0.354D-05 0.168D-05 0.662D-06
 Coeff-Com:  0.780D-05-0.886D-04-0.244D-02-0.446D-03 0.110D+00-0.579D+00
 Coeff-Com:  0.147D+01
 Coeff:     -0.559D-07-0.975D-07 0.610D-06-0.354D-05 0.168D-05 0.662D-06
 Coeff:      0.780D-05-0.886D-04-0.244D-02-0.446D-03 0.110D+00-0.579D+00
 Coeff:      0.147D+01
 Gap=     0.553 Goal=   None    Shift=    0.000
 RMSDP=2.46D-08 MaxDP=2.61D-07 DE=-6.96D-12 OVMax= 0.00D+00

 Cycle  14  Pass 1  IDiag  3:
 E=-0.571357491643880E-01 Delta-E=        0.000000000000 Rises=F Damp=F
 DIIS: error= 4.99D-09 at cycle  14 NSaved=  14.
 NSaved=14 IEnMin=14 EnMin=-0.571357491643880E-01 IErMin=14 ErrMin= 4.99D-09
 ErrMax= 4.99D-09 EMaxC= 1.00D-01 BMatC= 2.53D-15 BMatP= 6.17D-14
 IDIUse=1 WtCom= 1.00D+00 WtEn= 0.00D+00
 Coeff-Com:  0.273D-08 0.122D-06-0.581D-06 0.270D-05-0.361D-05 0.669D-05
 Coeff-Com: -0.262D-04 0.114D-03 0.865D-03 0.218D-04-0.446D-01 0.250D+00
 Coeff-Com: -0.754D+00 0.155D+01
 Coeff:      0.273D-08 0.122D-06-0.581D-06 0.270D-05-0.361D-05 0.669D-05
 Coeff:     -0.262D-04 0.114D-03 0.865D-03 0.218D-04-0.446D-01 0.250D+00
 Coeff:     -0.754D+00 0.155D+01
 Gap=     0.553 Goal=   None    Shift=    0.000
 RMSDP=4.84D-09 MaxDP=4.21D-08 DE=-3.13D-13 OVMax= 0.00D+00

 Cycle  15  Pass 2  IDiag  1:
 RMSDP=4.84D-09 MaxDP=4.21D-08 DE=-3.13D-13 OVMax= 0.00D+00

 SCF Done:  E(RPM6) = -0.571357491644E-01 A.U. after   15 cycles
             Convg  =    0.4839D-08             -V/T =  0.9990
 KE=-5.638173404870D+01 PE=-2.630953853520D+02 EE= 1.482583667525D+02
 Leave Link  502 at Mon Sep 14 19:12:43 2015, MaxMem=  402653184 cpu:       0.4
 (Enter /share/apps/g09/l701.exe)
 Compute integral first derivatives.
 ... and contract with generalized density number  0.
 Leave Link  701 at Mon Sep 14 19:12:43 2015, MaxMem=  402653184 cpu:       0.1
 (Enter /share/apps/g09/l702.exe)
 L702 exits ... SP integral derivatives will be done elsewhere.
 Leave Link  702 at Mon Sep 14 19:12:46 2015, MaxMem=  402653184 cpu:       0.0
 (Enter /share/apps/g09/l703.exe)
 Compute integral first derivatives, UseDBF=F ICtDFT=           0.
 Integral derivatives from FoFDir, PRISM(SPDF).
 Calling FoFJK, ICntrl=      2127 FMM=F ISym2X=0 I1Cent= 0 IOpClX= 0 NMat=1 NMatS=1 NMatT=0.
 FoFCou: FMM=F IPFlag=           0 FMFlag=      100000 FMFlg1=         800
         NFxFlg=           0 DoJE=F BraDBF=F KetDBF=F FulRan=T
         Omega=  0.000000  0.000000  1.000000  0.000000  0.000000 ICntrl=    2127 IOpCl=  0
         NMat0=    1 NMatS0=    1 NMatT0=    0 NMatD0=    1 NMtDS0=    0 NMtDT0=    0
         I1Cent=           0 NGrid=           0.
 Symmetry not used in FoFCou.
 Leave Link  703 at Mon Sep 14 19:12:47 2015, MaxMem=  402653184 cpu:       0.1
 (Enter /share/apps/g09/l716.exe)
 Dipole        = 1.33729502D-05 7.17711954D-07 3.80645935D-02
 ***** Axes restored to original set *****
 -------------------------------------------------------------------
 Center     Atomic                   Forces (Hartrees/Bohr)
 Number     Number              X              Y              Z
 -------------------------------------------------------------------
      1        6          -0.000939672   -0.001446661    0.002136830
      2        1          -0.001246930    0.000348078   -0.000711788
      3        1           0.000118811   -0.000236567    0.001044251
      4        1           0.000907552   -0.000585060   -0.000970065
      5        6          -0.005876620    0.000414566    0.005254913
      6        1          -0.000623544   -0.000298043   -0.000057405
      7        6           0.007639166   -0.001227512   -0.001506644
      8        1           0.000413146    0.000386280   -0.000392029
      9        6           0.002208867   -0.001866189   -0.003079359
     10        1           0.000544063   -0.001078085   -0.000564727
     11        1          -0.001539821    0.000268954   -0.000052955
     12        1           0.000162403    0.000718959   -0.000836075
     13        6          -0.003432913    0.002427152    0.000495618
     14        1          -0.000842449   -0.000409132   -0.000603963
     15        1          -0.000595284    0.001105043    0.000456006
     16        1           0.000917863    0.000016264   -0.001265120
     17        6           0.002437376    0.000757747    0.001016668
     18        1           0.000741507   -0.000152844    0.000770221
     19        1           0.000221314    0.000127707   -0.001449715
     20        1          -0.001214834    0.000729344    0.000315337
 -------------------------------------------------------------------
 Cartesian Forces:  Max     0.007639166 RMS     0.001817003
 Leave Link  716 at Mon Sep 14 19:12:49 2015, MaxMem=  402653184 cpu:       0.0
 (Enter /share/apps/g09/l103.exe)

 GradGradGradGradGradGradGradGradGradGradGradGradGradGradGradGradGradGrad
 Berny optimization.
 Using GEDIIS/GDIIS optimizer.
 Internal  Forces:  Max     0.013037484 RMS     0.001658534
 Search for a local minimum.
 Step number   2 out of a maximum of  110
 All quantities printed in internal units (Hartrees-Bohrs-Radians)
 RMS Force = .16585D-02 SwitMx=.10000D-02 MixMth= 1
 Mixed Optimization -- RFO/linear search
 Update second derivatives using D2CorX and points    1    2
 DE= -3.40D-03 DEPred=-4.02D-03 R= 8.47D-01
 SS=  1.41D+00  RLast= 2.69D-01 DXNew= 5.0454D-01 8.0625D-01
 Trust test= 8.47D-01 RLast= 2.69D-01 DXMaxT set to 5.05D-01
 Use linear search instead of GDIIS.
     Eigenvalues ---    0.00230   0.00256   0.00257   0.00261   0.00262
     Eigenvalues ---    0.03379   0.03726   0.04652   0.04746   0.04849
     Eigenvalues ---    0.05064   0.05369   0.05372   0.05404   0.05419
     Eigenvalues ---    0.05436   0.05451   0.05451   0.05452   0.14918
     Eigenvalues ---    0.16000   0.16000   0.16000   0.16000   0.16000
     Eigenvalues ---    0.16000   0.16000   0.16000   0.16000   0.16000
     Eigenvalues ---    0.16023   0.16668   0.16775   0.17063   0.17243
     Eigenvalues ---    0.25387   0.28247   0.28652   0.28679   0.28687
     Eigenvalues ---    0.31944   0.31962   0.32153   0.32154   0.32158
     Eigenvalues ---    0.32173   0.32198   0.32207   0.32253   0.32257
     Eigenvalues ---    0.32266   0.32324   0.32346   0.373431000.00000
     Eigenvalues --- 1000.000001000.000001000.000001000.000001000.00000
     Eigenvalues --- 1000.000001000.000001000.000001000.000001000.00000
     Eigenvalues --- 1000.000001000.000001000.000001000.000001000.00000
     Eigenvalues --- 1000.000001000.000001000.000001000.000001000.00000
     Eigenvalues --- 1000.000001000.000001000.000001000.000001000.00000
     Eigenvalues --- 1000.000001000.000001000.000001000.000001000.00000
     Eigenvalues --- 1000.000001000.000001000.000001000.000001000.00000
     Eigenvalues --- 1000.000001000.000001000.000001000.000001000.00000
     Eigenvalues --- 1000.000001000.000001000.000001000.000001000.00000
[...]
 ! D10   D(1,5,7,8)            -48.0313         -DE/DX =    0.0                 !
 ! D11   D(1,5,7,9)             70.4595         -DE/DX =    0.0                 !
 ! D12   D(1,5,7,17)          -165.1555         -DE/DX =    0.0                 !
 ! D13   D(6,5,7,8)             69.0929         -DE/DX =    0.0                 !
 ! D14   D(6,5,7,9)           -172.4163         -DE/DX =    0.0                 !
 ! D15   D(6,5,7,17)           -48.0313         -DE/DX =    0.0                 !
 ! D16   D(13,5,7,8)          -172.4163         -DE/DX =    0.0                 !
 ! D17   D(13,5,7,9)           -53.9256         -DE/DX =    0.0                 !
 ! D18   D(13,5,7,17)           70.4595         -DE/DX =    0.0                 !
 ! D19   D(1,5,13,14)         -177.6429         -DE/DX =    0.0                 !
 ! D20   D(1,5,13,15)          -57.5207         -DE/DX =    0.0                 !
 ! D21   D(1,5,13,16)           62.362          -DE/DX =    0.0                 !
 ! D22   D(6,5,13,14)           65.0094         -DE/DX =    0.0                 !
 ! D23   D(6,5,13,15)         -174.8683         -DE/DX =    0.0                 !
 ! D24   D(6,5,13,16)          -54.9856         -DE/DX =    0.0                 !
 ! D25   D(7,5,13,14)          -53.1065         -DE/DX =    0.0                 !
 ! D26   D(7,5,13,15)           67.0158         -DE/DX =    0.0                 !
 ! D27   D(7,5,13,16)         -173.1015         -DE/DX =    0.0                 !
 ! D28   D(5,7,9,10)            67.0163         -DE/DX =    0.0                 !
 ! D29   D(5,7,9,11)          -173.101          -DE/DX =    0.0                 !
 ! D30   D(5,7,9,12)           -53.106          -DE/DX =    0.0                 !
 ! D31   D(8,7,9,10)          -174.8677         -DE/DX =    0.0                 !
 ! D32   D(8,7,9,11)           -54.9851         -DE/DX =    0.0                 !
 ! D33   D(8,7,9,12)            65.01           -DE/DX =    0.0                 !
 ! D34   D(17,7,9,10)          -57.5201         -DE/DX =    0.0                 !
 ! D35   D(17,7,9,11)           62.3626         -DE/DX =    0.0                 !
 ! D36   D(17,7,9,12)         -177.6424         -DE/DX =    0.0                 !
 ! D37   D(5,7,17,18)          -63.0154         -DE/DX =    0.0                 !
 ! D38   D(5,7,17,19)           57.2968         -DE/DX =    0.0                 !
 ! D39   D(5,7,17,20)          177.279          -DE/DX =    0.0                 !
 ! D40   D(8,7,17,18)         -179.7794         -DE/DX =    0.0                 !
 ! D41   D(8,7,17,19)          -59.4672         -DE/DX =    0.0                 !
 ! D42   D(8,7,17,20)           60.5151         -DE/DX =    0.0                 !
 ! D43   D(9,7,17,18)           62.8369         -DE/DX =    0.0                 !
 ! D44   D(9,7,17,19)         -176.8509         -DE/DX =    0.0                 !
 ! D45   D(9,7,17,20)          -56.8687         -DE/DX =    0.0                 !
 --------------------------------------------------------------------------------
 GradGradGradGradGradGradGradGradGradGradGradGradGradGradGradGradGradGrad

 Largest change from initial coordinates is atom   12       0.112 Angstoms.
 Leave Link  103 at Mon Sep 14 19:14:16 2015, MaxMem=  402653184 cpu:       0.0
 (Enter /share/apps/g09/l202.exe)
                          Input orientation:                          
 ---------------------------------------------------------------------
 Center     Atomic      Atomic             Coordinates (Angstroms)
 Number     Number       Type             X           Y           Z
 ---------------------------------------------------------------------
      1          6           0       -1.381896   -1.291025    0.445153
      2          1           0       -0.735548   -1.945977    1.037953
      3          1           0       -1.576304   -1.794663   -0.508105
      4          1           0       -2.339022   -1.209168    0.970821
      5          6           0       -0.745752    0.090304    0.235284
      6          1           0       -0.572416    0.542319    1.245628
      7          6           0        0.643736   -0.043537   -0.450449
      8          1           0        1.209993   -0.835330    0.104146
      9          6           0        0.548093   -0.478209   -1.917297
     10          1           0        0.083245    0.294383   -2.538996
     11          1           0        1.539758   -0.680593   -2.334763
     12          1           0       -0.049629   -1.389704   -2.023902
     13          6           0       -1.704808    1.009517   -0.529560
     14          1           0       -1.249326    1.986361   -0.723911
     15          1           0       -1.990712    0.581837   -1.496432
     16          1           0       -2.625699    1.179377    0.037667
     17          6           0        1.435473    1.266311   -0.331093
     18          1           0        0.933678    2.089793   -0.850927
     19          1           0        1.563212    1.565634    0.714004
     20          1           0        2.433924    1.165471   -0.769321
 ---------------------------------------------------------------------
                    Distance matrix (angstroms):
                    1          2          3          4          5
     1  C    0.000000
     2  H    1.094595   0.000000
     3  H    1.095513   1.766370   0.000000
     4  H    1.095042   1.765934   1.764020   0.000000
     5  C    1.535185   2.188794   2.189873   2.183610   0.000000
     6  H    2.158048   2.502271   3.089476   2.502823   1.120339
     7  C    2.541951   2.781554   2.828135   3.503648   1.555255
     8  H    2.653645   2.427069   3.009755   3.672382   2.167702
     9  C    3.157008   3.540561   2.869135   4.148609   2.575042
    10  H    3.683111   4.299325   3.353019   4.521820   2.902673
    11  H    4.078802   4.260684   3.779904   5.123594   3.524624
    12  H    2.807295   3.186672   2.189148   3.773894   2.789073
    13  C    2.519292   3.483031   2.807206   2.752441   1.532882
    14  H    3.482175   4.339517   3.801267   3.777692   2.183729
    15  H    2.765506   3.793203   2.606967   3.068608   2.188691
    16  H    2.795706   3.786961   3.200627   2.580330   2.181590
    17  C    3.883309   4.111740   4.297871   4.697849   2.541951
    18  H    4.297864   4.758321   4.637514   4.991239   2.828125
    19  H    4.111745   4.209590   4.758331   4.795092   2.781562
    20  H    4.697851   4.795091   4.991248   5.607853   3.503648
                    6          7          8          9         10
     6  H    0.000000
     7  C    2.167702   0.000000
     8  H    2.525447   1.120339   0.000000
     9  C    3.507294   1.532882   2.156821   0.000000
    10  H    3.848993   2.188691   3.087396   1.095214   0.000000
    11  H    4.333128   2.181590   2.465961   1.094823   1.764574
    12  H    3.833516   2.183729   2.534278   1.095198   1.766105
    13  C    2.156821   2.575042   3.507294   3.035573   2.783233
    14  H    2.534274   2.789077   3.833519   3.275513   2.816570
    15  H    3.087397   2.902669   3.848990   2.783227   2.338988
    16  H    2.465965   3.524625   4.333128   4.079513   3.841976
    17  C    2.653645   1.535185   2.158048   2.519292   2.765502
    18  H    3.009740   2.189874   3.089476   2.807215   2.606973
    19  H    2.427077   2.188794   2.502263   3.483031   3.793203
    20  H    3.672386   2.183610   2.502830   2.752434   3.068589
                   11         12         13         14         15
    11  H    0.000000
    12  H    1.767944   0.000000
    13  C    4.079515   3.275506   0.000000
    14  H    4.181684   3.811439   1.095198   0.000000
    15  H    3.841972   2.816559   1.095214   1.766105   0.000000
    16  H    5.141881   4.181672   1.094823   1.767944   1.764574
    17  C    2.795711   3.482175   3.157007   2.807298   3.683104
    18  H    3.200647   3.801271   2.869125   2.189141   3.353008
    19  H    3.786960   4.339517   3.540575   3.186688   4.299332
    20  H    2.580328   3.777688   4.148603   3.773890   4.521805
                   16         17         18         19         20
    16  H    0.000000
    17  C    4.078805   0.000000
    18  H    3.779896   1.095513   0.000000
    19  H    4.260704   1.094595   1.766370   0.000000
    20  H    5.123593   1.095042   1.764020   1.765934   0.000000
 Stoichiometry    C6H14
 Framework group  C1[X(C6H14)]
 Deg. of freedom    54
 Full point group                 C1      NOp   1
 Largest Abelian subgroup         C1      NOp   1
 Largest concise Abelian subgroup C1      NOp   1
                         Standard orientation:                         
 ---------------------------------------------------------------------
 Center     Atomic      Atomic             Coordinates (Angstroms)
 Number     Number       Type             X           Y           Z
 ---------------------------------------------------------------------
      1          6           0       -1.807222    0.709909   -0.569789
      2          1           0       -1.669466    1.281813   -1.492875
      3          1           0       -1.829741    1.424320    0.260426
      4          1           0       -2.793855    0.237423   -0.619078
      5          6           0       -0.700475   -0.337697   -0.384244
      6          1           0       -0.733603   -1.027763   -1.266214
      7          6           0        0.700475    0.337697   -0.384244
      8          1           0        0.733604    1.027763   -1.266214
      9          6           0        0.961932    1.174037    0.873493
     10          1           0        1.033544    0.547278    1.768779
     11          1           0        1.900379    1.731560    0.789089
     12          1           0        0.158818    1.899087    1.043111
     13          6           0       -0.961932   -1.174037    0.873494
     14          1           0       -0.158823   -1.899093    1.043106
     15          1           0       -1.033535   -0.547278    1.768781
     16          1           0       -1.900383   -1.731553    0.789093
     17          6           0        1.807222   -0.709909   -0.569789
     18          1           0        1.829729   -1.424332    0.260417
     19          1           0        1.669476   -1.281800   -1.492885
     20          1           0        2.793857   -0.237426   -0.619059
 ---------------------------------------------------------------------
 Rotational constants (GHZ):      4.2296430      2.5386665      2.2712659
 Leave Link  202 at Mon Sep 14 19:14:17 2015, MaxMem=  402653184 cpu:       0.0
 (Enter /share/apps/g09/l601.exe)
 Copying SCF densities to generalized density rwf, IOpCl= 0 IROHF=0.

 **********************************************************************

            Population analysis using the SCF density.

 **********************************************************************

 Orbital symmetries:
       Occupied  (A) (A) (A) (A) (A) (A) (A) (A) (A) (A) (A) (A)
                 (A) (A) (A) (A) (A) (A) (A)
       Virtual   (A) (A) (A) (A) (A) (A) (A) (A) (A) (A) (A) (A)
                 (A) (A) (A) (A) (A) (A) (A)
 The electronic state is 1-A.
 Alpha  occ. eigenvalues --   -1.06873  -0.96316  -0.89120  -0.87490  -0.77840
 Alpha  occ. eigenvalues --   -0.67231  -0.58717  -0.55602  -0.55043  -0.50800
 Alpha  occ. eigenvalues --   -0.49986  -0.48439  -0.47337  -0.47124  -0.44336
 Alpha  occ. eigenvalues --   -0.44155  -0.41172  -0.40672  -0.39711
 Alpha virt. eigenvalues --    0.15490   0.16131   0.16337   0.18177   0.18410
 Alpha virt. eigenvalues --    0.21686   0.21872   0.22303   0.22353   0.22449
 Alpha virt. eigenvalues --    0.22618   0.22701   0.23077   0.23589   0.23938
 Alpha virt. eigenvalues --    0.25409   0.25856   0.26525   0.26551
          Condensed to atoms (all electrons):
              1          2          3          4          5          6
     1  C    4.496856   0.000000   0.000000   0.000000   0.000000   0.000000
     2  H    0.000000   0.854073   0.000000   0.000000   0.000000   0.000000
     3  H    0.000000   0.000000   0.848725   0.000000   0.000000   0.000000
     4  H    0.000000   0.000000   0.000000   0.852075   0.000000   0.000000
     5  C    0.000000   0.000000   0.000000   0.000000   4.014436   0.000000
     6  H    0.000000   0.000000   0.000000   0.000000   0.000000   0.889653
     7  C    0.000000   0.000000   0.000000   0.000000   0.000000   0.000000
     8  H    0.000000   0.000000   0.000000   0.000000   0.000000   0.000000
     9  C    0.000000   0.000000   0.000000   0.000000   0.000000   0.000000
    10  H    0.000000   0.000000   0.000000   0.000000   0.000000   0.000000
    11  H    0.000000   0.000000   0.000000   0.000000   0.000000   0.000000
    12  H    0.000000   0.000000   0.000000   0.000000   0.000000   0.000000
    13  C    0.000000   0.000000   0.000000   0.000000   0.000000   0.000000
    14  H    0.000000   0.000000   0.000000   0.000000   0.000000   0.000000
    15  H    0.000000   0.000000   0.000000   0.000000   0.000000   0.000000
    16  H    0.000000   0.000000   0.000000   0.000000   0.000000   0.000000
    17  C    0.000000   0.000000   0.000000   0.000000   0.000000   0.000000
    18  H    0.000000   0.000000   0.000000   0.000000   0.000000   0.000000
    19  H    0.000000   0.000000   0.000000   0.000000   0.000000   0.000000
    20  H    0.000000   0.000000   0.000000   0.000000   0.000000   0.000000
              7          8          9         10         11         12
     1  C    0.000000   0.000000   0.000000   0.000000   0.000000   0.000000
     2  H    0.000000   0.000000   0.000000   0.000000   0.000000   0.000000
     3  H    0.000000   0.000000   0.000000   0.000000   0.000000   0.000000
     4  H    0.000000   0.000000   0.000000   0.000000   0.000000   0.000000
     5  C    0.000000   0.000000   0.000000   0.000000   0.000000   0.000000
     6  H    0.000000   0.000000   0.000000   0.000000   0.000000   0.000000
     7  C    4.014435   0.000000   0.000000   0.000000   0.000000   0.000000
     8  H    0.000000   0.889653   0.000000   0.000000   0.000000   0.000000
     9  C    0.000000   0.000000   4.486098   0.000000   0.000000   0.000000
    10  H    0.000000   0.000000   0.000000   0.849345   0.000000   0.000000
    11  H    0.000000   0.000000   0.000000   0.000000   0.856176   0.000000
    12  H    0.000000   0.000000   0.000000   0.000000   0.000000   0.852563
    13  C    0.000000   0.000000   0.000000   0.000000   0.000000   0.000000
    14  H    0.000000   0.000000   0.000000   0.000000   0.000000   0.000000
    15  H    0.000000   0.000000   0.000000   0.000000   0.000000   0.000000
    16  H    0.000000   0.000000   0.000000   0.000000   0.000000   0.000000
    17  C    0.000000   0.000000   0.000000   0.000000   0.000000   0.000000
    18  H    0.000000   0.000000   0.000000   0.000000   0.000000   0.000000
    19  H    0.000000   0.000000   0.000000   0.000000   0.000000   0.000000
    20  H    0.000000   0.000000   0.000000   0.000000   0.000000   0.000000
             13         14         15         16         17         18
     1  C    0.000000   0.000000   0.000000   0.000000   0.000000   0.000000
     2  H    0.000000   0.000000   0.000000   0.000000   0.000000   0.000000
     3  H    0.000000   0.000000   0.000000   0.000000   0.000000   0.000000
     4  H    0.000000   0.000000   0.000000   0.000000   0.000000   0.000000
     5  C    0.000000   0.000000   0.000000   0.000000   0.000000   0.000000
     6  H    0.000000   0.000000   0.000000   0.000000   0.000000   0.000000
     7  C    0.000000   0.000000   0.000000   0.000000   0.000000   0.000000
     8  H    0.000000   0.000000   0.000000   0.000000   0.000000   0.000000
     9  C    0.000000   0.000000   0.000000   0.000000   0.000000   0.000000
    10  H    0.000000   0.000000   0.000000   0.000000   0.000000   0.000000
    11  H    0.000000   0.000000   0.000000   0.000000   0.000000   0.000000
    12  H    0.000000   0.000000   0.000000   0.000000   0.000000   0.000000
    13  C    4.486098   0.000000   0.000000   0.000000   0.000000   0.000000
    14  H    0.000000   0.852563   0.000000   0.000000   0.000000   0.000000
    15  H    0.000000   0.000000   0.849345   0.000000   0.000000   0.000000
    16  H    0.000000   0.000000   0.000000   0.856176   0.000000   0.000000
    17  C    0.000000   0.000000   0.000000   0.000000   4.496857   0.000000
    18  H    0.000000   0.000000   0.000000   0.000000   0.000000   0.848725
    19  H    0.000000   0.000000   0.000000   0.000000   0.000000   0.000000
    20  H    0.000000   0.000000   0.000000   0.000000   0.000000   0.000000
             19         20
     1  C    0.000000   0.000000
     2  H    0.000000   0.000000
     3  H    0.000000   0.000000
     4  H    0.000000   0.000000
     5  C    0.000000   0.000000
     6  H    0.000000   0.000000
     7  C    0.000000   0.000000
     8  H    0.000000   0.000000
     9  C    0.000000   0.000000
    10  H    0.000000   0.000000
    11  H    0.000000   0.000000
    12  H    0.000000   0.000000
    13  C    0.000000   0.000000
    14  H    0.000000   0.000000
    15  H    0.000000   0.000000
    16  H    0.000000   0.000000
    17  C    0.000000   0.000000
    18  H    0.000000   0.000000
    19  H    0.854073   0.000000
    20  H    0.000000   0.852075
 Mulliken atomic charges:
              1
     1  C   -0.496856
     2  H    0.145927
     3  H    0.151275
     4  H    0.147925
     5  C   -0.014436
     6  H    0.110347
     7  C   -0.014435
     8  H    0.110347
     9  C   -0.486098
    10  H    0.150655
    11  H    0.143824
    12  H    0.147437
    13  C   -0.486098
    14  H    0.147437
    15  H    0.150655
    16  H    0.143824
    17  C   -0.496857
    18  H    0.151275
    19  H    0.145927
    20  H    0.147925
 Sum of Mulliken atomic charges =   0.00000
 Mulliken charges with hydrogens summed into heavy atoms:
              1
     1  C   -0.051729
     5  C    0.095911
     7  C    0.095911
     9  C   -0.044182
    13  C   -0.044182
    17  C   -0.051729
 Sum of Mulliken charges with hydrogens summed into heavy atoms =   0.00000
 Charge=              0.0000 electrons
 Dipole moment (field-independent basis, Debye):
    X=              0.0000    Y=              0.0000    Z=              0.1083  Tot=              0.1083
 N-N= 1.706563222271D+02 E-N=-2.620996887326D+02  KE=-5.636887591862D+01
 Leave Link  601 at Mon Sep 14 19:14:18 2015, MaxMem=  402653184 cpu:       0.1
 (Enter /share/apps/g09/l9999.exe)
 1\1\GINC-COMPUTE-0-11\FOpt\RPM6\ZDO\C6H14\HETANJIN\14-Sep-2015\0\\#p P
 M6 opt\\using PM6 to do opt and freq calc.\\0,1\C,-1.3818962677,-1.291
 0249518,0.4451533125\H,-0.7355482205,-1.9459767609,1.037952851\H,-1.57
 63041149,-1.7946634508,-0.5081052837\H,-2.3390218549,-1.2091676925,0.9
 708211868\C,-0.7457515732,0.0903036802,0.2352836923\H,-0.5724161787,0.
 5423192793,1.2456281797\C,0.6437361112,-0.0435373464,-0.4504492467\H,1
 .2099931425,-0.8353304482,0.1041457936\C,0.5480927644,-0.4782091824,-1
 .9172966059\H,0.0832446909,0.2943830467,-2.538996148\H,1.5397582951,-0
 .6805929506,-2.334762925\H,-0.0496287797,-1.3897044294,-2.0239017263\C
 ,-1.7048080323,1.0095173653,-0.5295597051\H,-1.2493258199,1.9863607602
 ,-0.7239107444\H,-1.9907117693,0.5818373723,-1.4964318308\H,-2.6256986
 009,1.179376859,0.0376669358\C,1.4354727373,1.266310626,-0.3310930418\
 H,0.9336779012,2.0897927394,-0.8509270268\H,1.5632119222,1.5656340118,
 0.7140036106\H,2.4339236475,1.1654714727,-0.769321278\\Version=EM64L-G
 09RevA.01\State=1-A\HF=-0.0576067\RMSD=4.573e-09\RMSF=2.688e-06\Dipole
 =-0.0178709,0.0082099,-0.0378135\PG=C01 [X(C6H14)]\\@


 HEAVEN'S NET CASTS WIDE.
 THOUGH ITS MESHES ARE COARSE, NOTHING SLIPS THROUGH.

                                          -- LAO-TSU
 Job cpu time:  0 days  0 hours  0 minutes 14.2 seconds.
 File lengths (MBytes):  RWF=      5 Int=      0 D2E=      0 Chk=      3 Scr=      1
 Normal termination of Gaussian 09 at Mon Sep 14 19:14:21 2015.
