 Entering Gaussian System, Link 0=/home/hetanjin/apps/g09D01/g09/g09
 Input=C6H14_5_r010_C13_2_opt_B3L.gjf
 Output=C6H14_5_r010_C13_2_opt_B3L.log
 Initial command:
 /home/hetanjin/apps/g09D01/g09/l1.exe "/state/partition1/Gau-7985.inp" -scrdir="/state/partition1/"
 Entering Link 1 = /home/hetanjin/apps/g09D01/g09/l1.exe PID=      7987.
  
 Copyright (c) 1988,1990,1992,1993,1995,1998,2003,2009,2013,
            Gaussian, Inc.  All Rights Reserved.
  
 This is part of the Gaussian(R) 09 program.  It is based on
 the Gaussian(R) 03 system (copyright 2003, Gaussian, Inc.),
 the Gaussian(R) 98 system (copyright 1998, Gaussian, Inc.),
 the Gaussian(R) 94 system (copyright 1995, Gaussian, Inc.),
 the Gaussian 92(TM) system (copyright 1992, Gaussian, Inc.),
 the Gaussian 90(TM) system (copyright 1990, Gaussian, Inc.),
 the Gaussian 88(TM) system (copyright 1988, Gaussian, Inc.),
 the Gaussian 86(TM) system (copyright 1986, Carnegie Mellon
 University), and the Gaussian 82(TM) system (copyright 1983,
 Carnegie Mellon University). Gaussian is a federally registered
 trademark of Gaussian, Inc.
  
 This software contains proprietary and confidential information,
 including trade secrets, belonging to Gaussian, Inc.
  
 This software is provided under written license and may be
 used, copied, transmitted, or stored only in accord with that
 written license.
  
 The following legend is applicable only to US Government
 contracts under FAR:
  
                    RESTRICTED RIGHTS LEGEND
  
 Use, reproduction and disclosure by the US Government is
 subject to restrictions as set forth in subparagraphs (a)
 and (c) of the Commercial Computer Software - Restricted
 Rights clause in FAR 52.227-19.
  
 Gaussian, Inc.
 340 Quinnipiac St., Bldg. 40, Wallingford CT 06492
  
  
 ---------------------------------------------------------------
 Warning -- This program may not be used in any manner that
 competes with the business of Gaussian, Inc. or will provide
 assistance to any competitor of Gaussian, Inc.  The licensee
 of this program is prohibited from giving any competitor of
 Gaussian, Inc. access to this program.  By using this program,
 the user acknowledges that Gaussian, Inc. is engaged in the
 business of creating and licensing software in the field of
 computational chemistry and represents and warrants to the
 licensee that it is not a competitor of Gaussian, Inc. and that
 it will not use this program in any manner prohibited above.
 ---------------------------------------------------------------
  

 Cite this work as:
 Gaussian 09, Revision D.01,
 M. J. Frisch, G. W. Trucks, H. B. Schlegel, G. E. Scuseria, 
 M. A. Robb, J. R. Cheeseman, G. Scalmani, V. Barone, B. Mennucci, 
 G. A. Petersson, H. Nakatsuji, M. Caricato, X. Li, H. P. Hratchian, 
 A. F. Izmaylov, J. Bloino, G. Zheng, J. L. Sonnenberg, M. Hada, 
 M. Ehara, K. Toyota, R. Fukuda, J. Hasegawa, M. Ishida, T. Nakajima, 
 Y. Honda, O. Kitao, H. Nakai, T. Vreven, J. A. Montgomery, Jr., 
 J. E. Peralta, F. Ogliaro, M. Bearpark, J. J. Heyd, E. Brothers, 
 K. N. Kudin, V. N. Staroverov, T. Keith, R. Kobayashi, J. Normand, 
 K. Raghavachari, A. Rendell, J. C. Burant, S. S. Iyengar, J. Tomasi, 
 M. Cossi, N. Rega, J. M. Millam, M. Klene, J. E. Knox, J. B. Cross, 
 V. Bakken, C. Adamo, J. Jaramillo, R. Gomperts, R. E. Stratmann, 
 O. Yazyev, A. J. Austin, R. Cammi, C. Pomelli, J. W. Ochterski, 
 R. L. Martin, K. Morokuma, V. G. Zakrzewski, G. A. Voth, 
 P. Salvador, J. J. Dannenberg, S. Dapprich, A. D. Daniels, 
 O. Farkas, J. B. Foresman, J. V. Ortiz, J. Cioslowski, 
 and D. J. Fox, Gaussian, Inc., Wallingford CT, 2013.
 
 ******************************************
 Gaussian 09:  ES64L-G09RevD.01 24-Apr-2013
                 7-Nov-2015 
 ******************************************
 %mem=6GB
 %nprocshared=4
 Will use up to    4 processors via shared memory.
 ----------------------------------------------
 #p B3LYP/6-31G(d) opt=tight int=ultrafine freq
 ----------------------------------------------
 1/7=10,14=-1,18=20,19=15,26=4,38=1/1,3;
 2/9=110,12=2,17=6,18=5,40=1/2;
 3/5=1,6=6,7=1,11=2,16=1,25=1,30=1,71=1,74=-5,75=-5/1,2,3;
 4//1;
 5/5=2,38=5/2;
 6/7=2,8=2,9=2,10=2,28=1/1;
 7//1,2,3,16;
 1/7=10,14=-1,18=20,19=15,26=4/3(2);
 2/9=110/2;
 99//99;
 2/9=110/2;
 3/5=1,6=6,7=1,11=2,16=1,25=1,30=1,71=1,74=-5,75=-5/1,2,3;
 4/5=5,16=3,69=1/1;
 5/5=2,38=5/2;
 7//1,2,3,16;
 1/7=10,14=-1,18=20,19=15,26=4/3(-5);
 2/9=110/2;
 6/7=2,8=2,9=2,10=2,19=2,28=1/1;
 99/9=1/99;
 Leave Link    1 at Sat Nov  7 02:13:47 2015, MaxMem=   805306368 cpu:         0.2
 (Enter /home/hetanjin/apps/g09D01/g09/l101.exe)
 ---------------------------------------------
 using B3LYP/6-31G(d) to do opt and freq calc.
 ---------------------------------------------
 Symbolic Z-matrix:
 Charge =  0 Multiplicity = 2
 C                     1.61803   0.98966  -0.00005 
 H                     1.59367   1.63643   0.88596 
 H                     1.59367   1.63635  -0.88611 
 H                     2.57832   0.45929  -0.00002 
 C                     0.43635  -0.0005    0. 
 C                    -0.87859   0.82391  -0.00003 
 H                    -0.86571   1.48649  -0.87756 
 H                    -0.86571   1.48655   0.87745 
 C                    -2.19348   0.03388  0. 
 H                    -2.28903  -0.60502   0.88496 
 H                    -3.04849   0.71981  -0.00001 
 H                    -2.28904  -0.60506  -0.88493 
 C                     0.5289   -0.88501  -1.25865 
 H                     0.44851  -0.28292  -2.17262 
 H                     1.4897   -1.41334  -1.29204 
 C                     0.52891  -0.8849    1.25873 
 H                     1.4897   -1.41324   1.29215 
 H                     0.44854  -0.28273   2.17265 
 H                    -0.26244  -1.64236   1.2854 
 
 NAtoms=     19 NQM=       19 NQMF=       0 NMMI=      0 NMMIF=      0
                NMic=       0 NMicF=      0.
                    Isotopes and Nuclear Properties:
 (Nuclear quadrupole moments (NQMom) in fm**2, nuclear magnetic moments (NMagM)
  in nuclear magnetons)

  Atom         1           2           3           4           5           6           7           8           9          10
 IAtWgt=          12           1           1           1          12          12           1           1          12           1
 AtmWgt=  12.0000000   1.0078250   1.0078250   1.0078250  12.0000000  12.0000000   1.0078250   1.0078250  12.0000000   1.0078250
 NucSpn=           0           1           1           1           0           0           1           1           0           1
 AtZEff=   0.0000000   0.0000000   0.0000000   0.0000000   0.0000000   0.0000000   0.0000000   0.0000000   0.0000000   0.0000000
 NQMom=    0.0000000   0.0000000   0.0000000   0.0000000   0.0000000   0.0000000   0.0000000   0.0000000   0.0000000   0.0000000
 NMagM=    0.0000000   2.7928460   2.7928460   2.7928460   0.0000000   0.0000000   2.7928460   2.7928460   0.0000000   2.7928460
 AtZNuc=   6.0000000   1.0000000   1.0000000   1.0000000   6.0000000   6.0000000   1.0000000   1.0000000   6.0000000   1.0000000

  Atom        11          12          13          14          15          16          17          18          19
 IAtWgt=           1           1          12           1           1          12           1           1           1
 AtmWgt=   1.0078250   1.0078250  12.0000000   1.0078250   1.0078250  12.0000000   1.0078250   1.0078250   1.0078250
 NucSpn=           1           1           0           1           1           0           1           1           1
 AtZEff=   0.0000000   0.0000000   0.0000000   0.0000000   0.0000000   0.0000000   0.0000000   0.0000000   0.0000000
 NQMom=    0.0000000   0.0000000   0.0000000   0.0000000   0.0000000   0.0000000   0.0000000   0.0000000   0.0000000
 NMagM=    2.7928460   2.7928460   0.0000000   2.7928460   2.7928460   0.0000000   2.7928460   2.7928460   2.7928460
 AtZNuc=   1.0000000   1.0000000   6.0000000   1.0000000   1.0000000   6.0000000   1.0000000   1.0000000   1.0000000
 Leave Link  101 at Sat Nov  7 02:13:47 2015, MaxMem=   805306368 cpu:         0.6
 (Enter /home/hetanjin/apps/g09D01/g09/l103.exe)

 GradGradGradGradGradGradGradGradGradGradGradGradGradGradGradGradGradGrad
 Berny optimization.
 Initialization pass.
                           ----------------------------
                           !    Initial Parameters    !
                           ! (Angstroms and Degrees)  !
 --------------------------                            --------------------------
 ! Name  Definition              Value          Derivative Info.                !
 --------------------------------------------------------------------------------
 ! R1    R(1,2)                  1.0972         estimate D2E/DX2                !
 ! R2    R(1,3)                  1.0972         estimate D2E/DX2                !
 ! R3    R(1,4)                  1.097          estimate D2E/DX2                !
 ! R4    R(1,5)                  1.5417         estimate D2E/DX2                !
 ! R5    R(5,6)                  1.552          estimate D2E/DX2                !
 ! R6    R(5,13)                 1.5411         estimate D2E/DX2                !
 ! R7    R(5,16)                 1.5411         estimate D2E/DX2                !
 ! R8    R(6,7)                  1.0996         estimate D2E/DX2                !
 ! R9    R(6,8)                  1.0996         estimate D2E/DX2                !
 ! R10   R(6,9)                  1.534          estimate D2E/DX2                !
 ! R11   R(9,10)                 1.0957         estimate D2E/DX2                !
 ! R12   R(9,11)                 1.0961         estimate D2E/DX2                !
 ! R13   R(9,12)                 1.0957         estimate D2E/DX2                !
 ! R14   R(13,14)                1.0974         estimate D2E/DX2                !
 ! R15   R(13,15)                1.097          estimate D2E/DX2                !
 ! R16   R(16,17)                1.097          estimate D2E/DX2                !
 ! R17   R(16,18)                1.0974         estimate D2E/DX2                !
 ! R18   R(16,19)                1.0958         estimate D2E/DX2                !
 ! A1    A(2,1,3)              107.7092         estimate D2E/DX2                !
 ! A2    A(2,1,4)              107.7219         estimate D2E/DX2                !
 ! A3    A(2,1,5)              111.195          estimate D2E/DX2                !
 ! A4    A(3,1,4)              107.722          estimate D2E/DX2                !
 ! A5    A(3,1,5)              111.195          estimate D2E/DX2                !
 ! A6    A(4,1,5)              111.1274         estimate D2E/DX2                !
 ! A7    A(1,5,6)              107.9534         estimate D2E/DX2                !
 ! A8    A(1,5,13)             108.8179         estimate D2E/DX2                !
 ! A9    A(1,5,16)             108.8179         estimate D2E/DX2                !
 ! A10   A(6,5,13)             110.8381         estimate D2E/DX2                !
 ! A11   A(6,5,16)             110.8381         estimate D2E/DX2                !
 ! A12   A(13,5,16)            109.5162         estimate D2E/DX2                !
 ! A13   A(5,6,7)              108.0687         estimate D2E/DX2                !
 ! A14   A(5,6,8)              108.0687         estimate D2E/DX2                !
 ! A15   A(5,6,9)              116.915          estimate D2E/DX2                !
 ! A16   A(7,6,8)              105.8765         estimate D2E/DX2                !
 ! A17   A(7,6,9)              108.6851         estimate D2E/DX2                !
 ! A18   A(8,6,9)              108.6852         estimate D2E/DX2                !
 ! A19   A(6,9,10)             112.0296         estimate D2E/DX2                !
 ! A20   A(6,9,11)             110.2629         estimate D2E/DX2                !
 ! A21   A(6,9,12)             112.0296         estimate D2E/DX2                !
 ! A22   A(10,9,11)            107.27           estimate D2E/DX2                !
 ! A23   A(10,9,12)            107.7399         estimate D2E/DX2                !
 ! A24   A(11,9,12)            107.27           estimate D2E/DX2                !
 ! A25   A(5,13,14)            111.1551         estimate D2E/DX2                !
 ! A26   A(5,13,15)            110.724          estimate D2E/DX2                !
 ! A27   A(14,13,15)           107.6407         estimate D2E/DX2                !
 ! A28   A(5,16,17)            110.7241         estimate D2E/DX2                !
 ! A29   A(5,16,18)            111.155          estimate D2E/DX2                !
 ! A30   A(5,16,19)            111.913          estimate D2E/DX2                !
 ! A31   A(17,16,18)           107.6408         estimate D2E/DX2                !
 ! A32   A(17,16,19)           107.3889         estimate D2E/DX2                !
 ! A33   A(18,16,19)           107.8276         estimate D2E/DX2                !
 ! D1    D(2,1,5,6)             60.0094         estimate D2E/DX2                !
 ! D2    D(2,1,5,13)          -179.6279         estimate D2E/DX2                !
 ! D3    D(2,1,5,16)           -60.3531         estimate D2E/DX2                !
 ! D4    D(3,1,5,6)            -60.01           estimate D2E/DX2                !
 ! D5    D(3,1,5,13)            60.3526         estimate D2E/DX2                !
 ! D6    D(3,1,5,16)           179.6274         estimate D2E/DX2                !
 ! D7    D(4,1,5,6)            179.9997         estimate D2E/DX2                !
 ! D8    D(4,1,5,13)           -59.6377         estimate D2E/DX2                !
 ! D9    D(4,1,5,16)            59.6371         estimate D2E/DX2                !
 ! D10   D(1,5,6,7)             57.0744         estimate D2E/DX2                !
 ! D11   D(1,5,6,8)            -57.0751         estimate D2E/DX2                !
 ! D12   D(1,5,6,9)            179.9996         estimate D2E/DX2                !
 ! D13   D(13,5,6,7)           -62.0124         estimate D2E/DX2                !
 ! D14   D(13,5,6,8)          -176.1619         estimate D2E/DX2                !
 ! D15   D(13,5,6,9)            60.9128         estimate D2E/DX2                !
 ! D16   D(16,5,6,7)           176.1612         estimate D2E/DX2                !
 ! D17   D(16,5,6,8)            62.0117         estimate D2E/DX2                !
 ! D18   D(16,5,6,9)           -60.9136         estimate D2E/DX2                !
 ! D19   D(1,5,13,14)          -62.1296         estimate D2E/DX2                !
 ! D20   D(1,5,13,15)           57.4635         estimate D2E/DX2                !
 ! D21   D(6,5,13,14)           56.435          estimate D2E/DX2                !
 ! D22   D(6,5,13,15)          176.0282         estimate D2E/DX2                !
 ! D23   D(16,5,13,14)         179.0325         estimate D2E/DX2                !
 ! D24   D(16,5,13,15)         -61.3744         estimate D2E/DX2                !
 ! D25   D(1,5,16,17)          -57.4641         estimate D2E/DX2                !
 ! D26   D(1,5,16,18)           62.129          estimate D2E/DX2                !
 ! D27   D(1,5,16,19)         -177.2401         estimate D2E/DX2                !
 ! D28   D(6,5,16,17)         -176.0287         estimate D2E/DX2                !
 ! D29   D(6,5,16,18)          -56.4356         estimate D2E/DX2                !
 ! D30   D(6,5,16,19)           64.1953         estimate D2E/DX2                !
 ! D31   D(13,5,16,17)          61.3738         estimate D2E/DX2                !
 ! D32   D(13,5,16,18)        -179.0331         estimate D2E/DX2                !
 ! D33   D(13,5,16,19)         -58.4022         estimate D2E/DX2                !
 ! D34   D(5,6,9,10)            60.6085         estimate D2E/DX2                !
 ! D35   D(5,6,9,11)           179.9992         estimate D2E/DX2                !
 ! D36   D(5,6,9,12)           -60.6101         estimate D2E/DX2                !
 ! D37   D(7,6,9,10)          -176.7844         estimate D2E/DX2                !
 ! D38   D(7,6,9,11)           -57.3938         estimate D2E/DX2                !
 ! D39   D(7,6,9,12)            61.9969         estimate D2E/DX2                !
 ! D40   D(8,6,9,10)           -61.9986         estimate D2E/DX2                !
 ! D41   D(8,6,9,11)            57.3921         estimate D2E/DX2                !
 ! D42   D(8,6,9,12)           176.7828         estimate D2E/DX2                !
 --------------------------------------------------------------------------------
 Trust Radius=3.00D-01 FncErr=1.00D-07 GrdErr=1.00D-06
 Number of steps in this run=    103 maximum allowed number of steps=    114.
 GradGradGradGradGradGradGradGradGradGradGradGradGradGradGradGradGradGrad

 Leave Link  103 at Sat Nov  7 02:13:47 2015, MaxMem=   805306368 cpu:         0.0
 (Enter /home/hetanjin/apps/g09D01/g09/l202.exe)
                          Input orientation:                          
 ---------------------------------------------------------------------
 Center     Atomic      Atomic             Coordinates (Angstroms)
 Number     Number       Type             X           Y           Z
 ---------------------------------------------------------------------
      1          6           0        1.618032    0.989661   -0.000046
      2          1           0        1.593672    1.636429    0.885962
      3          1           0        1.593672    1.636347   -0.886113
      4          1           0        2.578316    0.459293   -0.000021
      5          6           0        0.436353   -0.000500    0.000000
      6          6           0       -0.878586    0.823914   -0.000030
      7          1           0       -0.865713    1.486486   -0.877558
      8          1           0       -0.865712    1.486551    0.877447
      9          6           0       -2.193477    0.033880   -0.000001
     10          1           0       -2.289029   -0.605019    0.884964
     11          1           0       -3.048488    0.719808   -0.000012
     12          1           0       -2.289041   -0.605062   -0.884933
     13          6           0        0.528897   -0.885012   -1.258652
     14          1           0        0.448512   -0.282917   -2.172624
     15          1           0        1.489696   -1.413344   -1.292039
     16          6           0        0.528906   -0.884904    1.258727
     17          1           0        1.489700   -1.413241    1.292148
     18          1           0        0.448537   -0.282728    2.172647
     19          1           0       -0.262436   -1.642360    1.285396
 ---------------------------------------------------------------------
                    Distance matrix (angstroms):
                    1          2          3          4          5
     1  C    0.000000
     2  H    1.097229   0.000000
     3  H    1.097229   1.772075   0.000000
     4  H    1.097012   1.772044   1.772044   0.000000
     5  C    1.541682   2.191769   2.191769   2.190757   0.000000
     6  C    2.502114   2.749040   2.749045   3.476078   1.552006
     7  H    2.680644   3.030026   2.463961   3.699531   2.162547
     8  H    2.680649   2.463961   3.030042   3.699532   2.162546
     9  C    3.929519   4.206613   4.206613   4.790719   2.630055
    10  H    4.311771   4.483242   4.820353   5.060337   2.928534
    11  H    4.674316   4.814021   4.814028   5.632832   3.558505
    12  H    4.311773   4.820354   4.483233   5.060344   2.928545
    13  C    2.506931   3.477180   2.762206   2.755254   1.541146
    14  H    2.776207   3.788170   2.578774   3.131636   2.190936
    15  H    2.731327   3.749082   3.078344   2.522137   2.185183
    16  C    2.506930   2.762209   3.477179   2.755248   1.541146
    17  H    2.731332   3.078357   3.749082   2.522136   2.185183
    18  H    2.776200   2.578770   3.788165   3.131619   2.190935
    19  H    3.480812   3.788818   4.348621   3.760201   2.199148
                    6          7          8          9         10
     6  C    0.000000
     7  H    1.099647   0.000000
     8  H    1.099645   1.755005   0.000000
     9  C    1.533979   2.154792   2.154792   0.000000
    10  H    2.194177   3.083295   2.529931   1.095667   0.000000
    11  H    2.172398   2.474346   2.474336   1.096148   1.764972
    12  H    2.194176   2.529919   3.083293   1.095666   1.769897
    13  C    2.546677   2.777440   3.483126   3.136859   3.551646
    14  H    2.776046   2.556398   3.763128   3.435223   4.116640
    15  H    3.504764   3.758824   4.320186   4.162882   4.435256
    16  C    2.546677   3.483126   2.777433   3.136866   2.856360
    17  H    3.504763   4.320186   3.758821   4.162884   3.885591
    18  H    2.776047   3.763127   2.556392   3.435241   3.042411
    19  H    2.848591   3.851232   3.212545   2.861983   2.311601
                   11         12         13         14         15
    11  H    0.000000
    12  H    1.764972   0.000000
    13  C    4.117925   2.856364   0.000000
    14  H    4.237300   3.042388   1.097417   0.000000
    15  H    5.178299   3.885603   1.096989   1.771259   0.000000
    16  C    4.117921   3.551678   2.517379   3.484684   2.776468
    17  H    5.178294   4.435281   2.776463   3.790297   2.584187
    18  H    4.237300   4.116677   3.484683   4.345271   3.790297
    19  H    3.872234   3.145384   2.769831   3.783046   3.124994
                   16         17         18         19
    16  C    0.000000
    17  H    1.096988   0.000000
    18  H    1.097417   1.771259   0.000000
    19  H    1.095752   1.767066   1.772370   0.000000
 Stoichiometry    C6H13(2)
 Framework group  C1[X(C6H13)]
 Deg. of freedom    51
 Full point group                 C1      NOp   1
 Largest Abelian subgroup         C1      NOp   1
 Largest concise Abelian subgroup C1      NOp   1
                         Standard orientation:                         
 ---------------------------------------------------------------------
 Center     Atomic      Atomic             Coordinates (Angstroms)
 Number     Number       Type             X           Y           Z
 ---------------------------------------------------------------------
      1          6           0        1.605235   -0.640304   -0.727223
      2          1           0        1.570372   -0.384577   -1.793666
      3          1           0        1.581204   -1.734210   -0.645352
      4          1           0        2.569643   -0.297032   -0.332868
      5          6           0        0.431404    0.001877    0.038616
      6          6           0       -0.889956   -0.531783   -0.576152
      7          1           0       -0.876932   -1.629496   -0.512284
      8          1           0       -0.887659   -0.292854   -1.649524
      9          6           0       -2.198566   -0.019239    0.038607
     10          1           0       -2.294496    1.068835   -0.047287
     11          1           0       -3.058931   -0.463349   -0.475280
     12          1           0       -2.283690   -0.279164    1.099586
     13          6           0        0.538595   -0.383644    1.526909
     14          1           0        0.459064   -1.469884    1.661379
     15          1           0        1.503707   -0.067140    1.941358
     16          6           0        0.523216    1.533627   -0.104359
     17          1           0        1.487915    1.901018    0.266805
     18          1           0        0.432528    1.839533   -1.154370
     19          1           0       -0.262291    2.045119    0.463116
 ---------------------------------------------------------------------
 Rotational constants (GHZ):      4.4281458      2.5202697      2.4668028
 Leave Link  202 at Sat Nov  7 02:13:47 2015, MaxMem=   805306368 cpu:         0.0
 (Enter /home/hetanjin/apps/g09D01/g09/l301.exe)
 Standard basis: 6-31G(d) (6D, 7F)
 Ernie: Thresh=  0.10000D-02 Tol=  0.10000D-05 Strict=F.
 There are   116 symmetry adapted cartesian basis functions of A   symmetry.
 There are   116 symmetry adapted basis functions of A   symmetry.
   116 basis functions,   220 primitive gaussians,   116 cartesian basis functions
    25 alpha electrons       24 beta electrons
       nuclear repulsion energy       253.8956622474 Hartrees.
 IExCor=  402 DFT=T Ex+Corr=B3LYP ExCW=0 ScaHFX=  0.200000
 ScaDFX=  0.800000  0.720000  1.000000  0.810000 ScalE2=  1.000000  1.000000
 IRadAn=      5 IRanWt=     -1 IRanGd=            0 ICorTp=0 IEmpDi=  4
 NAtoms=   19 NActive=   19 NUniq=   19 SFac= 1.00D+00 NAtFMM=   60 NAOKFM=F Big=F
 Integral buffers will be    131072 words long.
 Raffenetti 2 integral format.
 Two-electron integral symmetry is turned on.
 Leave Link  301 at Sat Nov  7 02:13:47 2015, MaxMem=   805306368 cpu:         0.2
 (Enter /home/hetanjin/apps/g09D01/g09/l302.exe)
 NPDir=0 NMtPBC=     1 NCelOv=     1 NCel=       1 NClECP=     1 NCelD=      1
         NCelK=      1 NCelE2=     1 NClLst=     1 CellRange=     0.0.
 One-electron integrals computed using PRISM.
 NBasis=   116 RedAO= T EigKep=  3.83D-03  NBF=   116
 NBsUse=   116 1.00D-06 EigRej= -1.00D+00 NBFU=   116
 Precomputing XC quadrature grid using
 IXCGrd= 4 IRadAn=           5 IRanWt=          -1 IRanGd=           0 AccXCQ= 0.00D+00.
 Generated NRdTot=       0 NPtTot=           0 NUsed=           0 NTot=          32
 NSgBfM=   116   116   116   116   116 MxSgAt=    19 MxSgA2=    19.
 Leave Link  302 at Sat Nov  7 02:13:48 2015, MaxMem=   805306368 cpu:         1.5
 (Enter /home/hetanjin/apps/g09D01/g09/l303.exe)
 DipDrv:  MaxL=1.
 Leave Link  303 at Sat Nov  7 02:13:48 2015, MaxMem=   805306368 cpu:         0.1
 (Enter /home/hetanjin/apps/g09D01/g09/l401.exe)
 ExpMin= 1.61D-01 ExpMax= 3.05D+03 ExpMxC= 4.57D+02 IAcc=3 IRadAn=         5 AccDes= 0.00D+00
 Harris functional with IExCor=  402 and IRadAn=       5 diagonalized for initial guess.
 HarFok:  IExCor=  402 AccDes= 0.00D+00 IRadAn=         5 IDoV= 1 UseB2=F ITyADJ=14
 ICtDFT=  3500011 ScaDFX=  1.000000  1.000000  1.000000  1.000000
 FoFCou: FMM=F IPFlag=           0 FMFlag=      100000 FMFlg1=           0
         NFxFlg=           0 DoJE=T BraDBF=F KetDBF=T FulRan=T
         wScrn=  0.000000 ICntrl=     500 IOpCl=  0 I1Cent=   200000004 NGrid=           0
         NMat0=    1 NMatS0=      1 NMatT0=    0 NMatD0=    1 NMtDS0=    0 NMtDT0=    0
 Petite list used in FoFCou.
 Harris En= -236.440916720131    
 JPrj=0 DoOrth=F DoCkMO=F.
 Initial guess <Sx>= 0.0000 <Sy>= 0.0000 <Sz>= 0.5000 <S**2>= 0.7500 S= 0.5000
 Leave Link  401 at Sat Nov  7 02:13:50 2015, MaxMem=   805306368 cpu:         8.9
 (Enter /home/hetanjin/apps/g09D01/g09/l502.exe)
 UHF open shell SCF:
 Using DIIS extrapolation, IDIIS=  1040.
 Integral symmetry usage will be decided dynamically.
 Keep R1 and R2 ints in memory in canonical form, NReq=47059932.
 IVT=       60514 IEndB=       60514 NGot=   805306368 MDV=   759189273
 LenX=   759189273 LenY=   759175376
 Requested convergence on RMS density matrix=1.00D-08 within 128 cycles.
 Requested convergence on MAX density matrix=1.00D-06.
 Requested convergence on             energy=1.00D-06.
 No special actions if energy rises.
 FoFCou: FMM=F IPFlag=           0 FMFlag=           0 FMFlg1=           0
         NFxFlg=           0 DoJE=F BraDBF=F KetDBF=F FulRan=T
         wScrn=  0.000000 ICntrl=     600 IOpCl=  0 I1Cent=           0 NGrid=           0
         NMat0=    1 NMatS0=   6786 NMatT0=    0 NMatD0=    1 NMtDS0=    0 NMtDT0=    0
 Symmetry not used in FoFCou.
 Integral accuracy reduced to 1.0D-05 until final iterations.

 Cycle   1  Pass 0  IDiag  1:
 E= -236.145362223390    
 DIIS: error= 4.43D-02 at cycle   1 NSaved=   1.
 NSaved= 1 IEnMin= 1 EnMin= -236.145362223390     IErMin= 1 ErrMin= 4.43D-02
 ErrMax= 4.43D-02  0.00D+00 EMaxC= 1.00D-01 BMatC= 9.14D-01 BMatP= 9.14D-01
 IDIUse=3 WtCom= 5.57D-01 WtEn= 4.43D-01
 Coeff-Com:  0.100D+01
 Coeff-En:   0.100D+01
 Coeff:      0.100D+01
 Gap=     0.270 Goal=   None    Shift=    0.000
 Gap=     0.223 Goal=   None    Shift=    0.000
 GapD=    0.223 DampG=1.000 DampE=0.500 DampFc=0.5000 IDamp=-1.
 Damping current iteration by 5.00D-01
 RMSDP=9.73D-03 MaxDP=1.43D-01              OVMax= 1.77D-01

 Cycle   2  Pass 0  IDiag  1:
 E= -236.258283229960     Delta-E=       -0.112921006571 Rises=F Damp=T
 DIIS: error= 9.19D-03 at cycle   2 NSaved=   2.
 NSaved= 2 IEnMin= 2 EnMin= -236.258283229960     IErMin= 2 ErrMin= 9.19D-03
 ErrMax= 9.19D-03  0.00D+00 EMaxC= 1.00D-01 BMatC= 4.02D-02 BMatP= 9.14D-01
 IDIUse=3 WtCom= 9.08D-01 WtEn= 9.19D-02
 Coeff-Com:  0.764D-01 0.924D+00
 Coeff-En:   0.129D+00 0.871D+00
 Coeff:      0.812D-01 0.919D+00
 Gap=     0.310 Goal=   None    Shift=    0.000
 Gap=     0.263 Goal=   None    Shift=    0.000
 RMSDP=1.72D-03 MaxDP=2.49D-02 DE=-1.13D-01 OVMax= 1.03D-01

 Cycle   3  Pass 0  IDiag  1:
 E= -236.399376426656     Delta-E=       -0.141093196696 Rises=F Damp=F
 DIIS: error= 2.63D-03 at cycle   3 NSaved=   3.
 NSaved= 3 IEnMin= 3 EnMin= -236.399376426656     IErMin= 3 ErrMin= 2.63D-03
 ErrMax= 2.63D-03  0.00D+00 EMaxC= 1.00D-01 BMatC= 6.81D-03 BMatP= 4.02D-02
 IDIUse=3 WtCom= 9.74D-01 WtEn= 2.63D-02
 Coeff-Com:  0.166D-02 0.232D+00 0.767D+00
 Coeff-En:   0.000D+00 0.000D+00 0.100D+01
 Coeff:      0.162D-02 0.226D+00 0.773D+00
 Gap=     0.307 Goal=   None    Shift=    0.000
 Gap=     0.237 Goal=   None    Shift=    0.000
 RMSDP=6.34D-04 MaxDP=1.41D-02 DE=-1.41D-01 OVMax= 1.28D-02

 Cycle   4  Pass 0  IDiag  1:
 E= -236.400369447889     Delta-E=       -0.000993021232 Rises=F Damp=F
 DIIS: error= 1.64D-03 at cycle   4 NSaved=   4.
 NSaved= 4 IEnMin= 4 EnMin= -236.400369447889     IErMin= 4 ErrMin= 1.64D-03
 ErrMax= 1.64D-03  0.00D+00 EMaxC= 1.00D-01 BMatC= 3.09D-03 BMatP= 6.81D-03
 IDIUse=3 WtCom= 9.84D-01 WtEn= 1.64D-02
 Coeff-Com: -0.516D-02 0.331D-01 0.409D+00 0.563D+00
 Coeff-En:   0.000D+00 0.000D+00 0.294D+00 0.706D+00
 Coeff:     -0.507D-02 0.325D-01 0.407D+00 0.566D+00
 Gap=     0.305 Goal=   None    Shift=    0.000
 Gap=     0.244 Goal=   None    Shift=    0.000
 RMSDP=2.41D-04 MaxDP=6.49D-03 DE=-9.93D-04 OVMax= 7.32D-03

 Cycle   5  Pass 0  IDiag  1:
 E= -236.401103346684     Delta-E=       -0.000733898796 Rises=F Damp=F
 DIIS: error= 2.64D-04 at cycle   5 NSaved=   5.
 NSaved= 5 IEnMin= 5 EnMin= -236.401103346684     IErMin= 5 ErrMin= 2.64D-04
 ErrMax= 2.64D-04  0.00D+00 EMaxC= 1.00D-01 BMatC= 5.87D-05 BMatP= 3.09D-03
 IDIUse=3 WtCom= 9.97D-01 WtEn= 2.64D-03
 Coeff-Com: -0.133D-02-0.300D-02 0.875D-01 0.184D+00 0.733D+00
 Coeff-En:   0.000D+00 0.000D+00 0.000D+00 0.000D+00 0.100D+01
 Coeff:     -0.133D-02-0.299D-02 0.873D-01 0.184D+00 0.733D+00
 Gap=     0.305 Goal=   None    Shift=    0.000
 Gap=     0.244 Goal=   None    Shift=    0.000
 RMSDP=4.27D-05 MaxDP=9.26D-04 DE=-7.34D-04 OVMax= 9.45D-04

 Cycle   6  Pass 0  IDiag  1:
 E= -236.401118294639     Delta-E=       -0.000014947954 Rises=F Damp=F
 DIIS: error= 1.14D-04 at cycle   6 NSaved=   6.
 NSaved= 6 IEnMin= 6 EnMin= -236.401118294639     IErMin= 6 ErrMin= 1.14D-04
 ErrMax= 1.14D-04  0.00D+00 EMaxC= 1.00D-01 BMatC= 4.30D-06 BMatP= 5.87D-05
 IDIUse=3 WtCom= 9.99D-01 WtEn= 1.14D-03
 Coeff-Com: -0.115D-03-0.247D-02 0.882D-03 0.178D-01 0.194D+00 0.790D+00
 Coeff-En:   0.000D+00 0.000D+00 0.000D+00 0.000D+00 0.000D+00 0.100D+01
 Coeff:     -0.115D-03-0.247D-02 0.881D-03 0.178D-01 0.194D+00 0.790D+00
 Gap=     0.306 Goal=   None    Shift=    0.000
 Gap=     0.244 Goal=   None    Shift=    0.000
 RMSDP=1.56D-05 MaxDP=4.15D-04 DE=-1.49D-05 OVMax= 4.66D-04

 Cycle   7  Pass 0  IDiag  1:
 E= -236.401119674218     Delta-E=       -0.000001379579 Rises=F Damp=F
 DIIS: error= 4.38D-05 at cycle   7 NSaved=   7.
 NSaved= 7 IEnMin= 7 EnMin= -236.401119674218     IErMin= 7 ErrMin= 4.38D-05
 ErrMax= 4.38D-05  0.00D+00 EMaxC= 1.00D-01 BMatC= 1.47D-06 BMatP= 4.30D-06
 IDIUse=1 WtCom= 1.00D+00 WtEn= 0.00D+00
 Coeff-Com:  0.215D-03-0.359D-03-0.199D-01-0.347D-01-0.881D-01 0.361D+00
 Coeff-Com:  0.782D+00
 Coeff:      0.215D-03-0.359D-03-0.199D-01-0.347D-01-0.881D-01 0.361D+00
 Coeff:      0.782D+00
 Gap=     0.306 Goal=   None    Shift=    0.000
 Gap=     0.244 Goal=   None    Shift=    0.000
 RMSDP=7.27D-06 MaxDP=1.77D-04 DE=-1.38D-06 OVMax= 2.16D-04

 Initial convergence to 1.0D-05 achieved.  Increase integral accuracy.
 Cycle   8  Pass 1  IDiag  1:
 E= -236.401108493076     Delta-E=        0.000011181142 Rises=F Damp=F
 DIIS: error= 9.82D-06 at cycle   1 NSaved=   1.
 NSaved= 1 IEnMin= 1 EnMin= -236.401108493076     IErMin= 1 ErrMin= 9.82D-06
 ErrMax= 9.82D-06  0.00D+00 EMaxC= 1.00D-01 BMatC= 1.03D-07 BMatP= 1.03D-07
 IDIUse=1 WtCom= 1.00D+00 WtEn= 0.00D+00
 Coeff-Com:  0.100D+01
 Coeff:      0.100D+01
 Gap=     0.306 Goal=   None    Shift=    0.000
 Gap=     0.244 Goal=   None    Shift=    0.000
 RMSDP=7.27D-06 MaxDP=1.77D-04 DE= 1.12D-05 OVMax= 6.44D-05

 Cycle   9  Pass 1  IDiag  1:
 E= -236.401108508660     Delta-E=       -0.000000015584 Rises=F Damp=F
 DIIS: error= 8.75D-06 at cycle   2 NSaved=   2.
 NSaved= 2 IEnMin= 2 EnMin= -236.401108508660     IErMin= 2 ErrMin= 8.75D-06
 ErrMax= 8.75D-06  0.00D+00 EMaxC= 1.00D-01 BMatC= 8.72D-08 BMatP= 1.03D-07
 IDIUse=1 WtCom= 1.00D+00 WtEn= 0.00D+00
 Coeff-Com:  0.476D+00 0.524D+00
 Coeff:      0.476D+00 0.524D+00
 Gap=     0.306 Goal=   None    Shift=    0.000
 Gap=     0.244 Goal=   None    Shift=    0.000
 RMSDP=1.34D-06 MaxDP=3.18D-05 DE=-1.56D-08 OVMax= 3.43D-05

 Cycle  10  Pass 1  IDiag  1:
 E= -236.401108530346     Delta-E=       -0.000000021686 Rises=F Damp=F
 DIIS: error= 3.07D-06 at cycle   3 NSaved=   3.
 NSaved= 3 IEnMin= 3 EnMin= -236.401108530346     IErMin= 3 ErrMin= 3.07D-06
 ErrMax= 3.07D-06  0.00D+00 EMaxC= 1.00D-01 BMatC= 5.14D-09 BMatP= 8.72D-08
 IDIUse=1 WtCom= 1.00D+00 WtEn= 0.00D+00
 Coeff-Com:  0.943D-03 0.145D+00 0.854D+00
 Coeff:      0.943D-03 0.145D+00 0.854D+00
 Gap=     0.306 Goal=   None    Shift=    0.000
 Gap=     0.244 Goal=   None    Shift=    0.000
 RMSDP=5.07D-07 MaxDP=1.01D-05 DE=-2.17D-08 OVMax= 1.34D-05

 Cycle  11  Pass 1  IDiag  1:
 E= -236.401108532256     Delta-E=       -0.000000001910 Rises=F Damp=F
 DIIS: error= 1.30D-06 at cycle   4 NSaved=   4.
 NSaved= 4 IEnMin= 4 EnMin= -236.401108532256     IErMin= 4 ErrMin= 1.30D-06
 ErrMax= 1.30D-06  0.00D+00 EMaxC= 1.00D-01 BMatC= 9.00D-10 BMatP= 5.14D-09
 IDIUse=1 WtCom= 1.00D+00 WtEn= 0.00D+00
 Coeff-Com: -0.109D+00-0.775D-01 0.257D+00 0.930D+00
 Coeff:     -0.109D+00-0.775D-01 0.257D+00 0.930D+00
 Gap=     0.306 Goal=   None    Shift=    0.000
 Gap=     0.244 Goal=   None    Shift=    0.000
 RMSDP=2.67D-07 MaxDP=7.69D-06 DE=-1.91D-09 OVMax= 7.09D-06

 Cycle  12  Pass 1  IDiag  1:
 E= -236.401108532668     Delta-E=       -0.000000000412 Rises=F Damp=F
 DIIS: error= 2.71D-07 at cycle   5 NSaved=   5.
 NSaved= 5 IEnMin= 5 EnMin= -236.401108532668     IErMin= 5 ErrMin= 2.71D-07
 ErrMax= 2.71D-07  0.00D+00 EMaxC= 1.00D-01 BMatC= 5.17D-11 BMatP= 9.00D-10
 IDIUse=1 WtCom= 1.00D+00 WtEn= 0.00D+00
 Coeff-Com: -0.311D-01-0.313D-01 0.209D-01 0.257D+00 0.785D+00
 Coeff:     -0.311D-01-0.313D-01 0.209D-01 0.257D+00 0.785D+00
 Gap=     0.306 Goal=   None    Shift=    0.000
 Gap=     0.244 Goal=   None    Shift=    0.000
 RMSDP=5.12D-08 MaxDP=1.64D-06 DE=-4.12D-10 OVMax= 1.69D-06

 Cycle  13  Pass 1  IDiag  1:
 E= -236.401108532683     Delta-E=       -0.000000000016 Rises=F Damp=F
 DIIS: error= 1.23D-07 at cycle   6 NSaved=   6.
 NSaved= 6 IEnMin= 6 EnMin= -236.401108532683     IErMin= 6 ErrMin= 1.23D-07
 ErrMax= 1.23D-07  0.00D+00 EMaxC= 1.00D-01 BMatC= 1.68D-11 BMatP= 5.17D-11
 IDIUse=1 WtCom= 1.00D+00 WtEn= 0.00D+00
 Coeff-Com:  0.470D-03-0.429D-02-0.267D-01-0.659D-02 0.395D+00 0.642D+00
 Coeff:      0.470D-03-0.429D-02-0.267D-01-0.659D-02 0.395D+00 0.642D+00
 Gap=     0.306 Goal=   None    Shift=    0.000
 Gap=     0.244 Goal=   None    Shift=    0.000
 RMSDP=2.11D-08 MaxDP=6.54D-07 DE=-1.56D-11 OVMax= 5.92D-07

 Cycle  14  Pass 1  IDiag  1:
 E= -236.401108532687     Delta-E=       -0.000000000004 Rises=F Damp=F
 DIIS: error= 2.41D-08 at cycle   7 NSaved=   7.
 NSaved= 7 IEnMin= 7 EnMin= -236.401108532687     IErMin= 7 ErrMin= 2.41D-08
 ErrMax= 2.41D-08  0.00D+00 EMaxC= 1.00D-01 BMatC= 4.68D-13 BMatP= 1.68D-11
 IDIUse=1 WtCom= 1.00D+00 WtEn= 0.00D+00
 Coeff-Com:  0.161D-02 0.198D-03-0.913D-02-0.146D-01 0.812D-01 0.206D+00
 Coeff-Com:  0.734D+00
 Coeff:      0.161D-02 0.198D-03-0.913D-02-0.146D-01 0.812D-01 0.206D+00
 Coeff:      0.734D+00
 Gap=     0.306 Goal=   None    Shift=    0.000
 Gap=     0.244 Goal=   None    Shift=    0.000
 RMSDP=5.29D-09 MaxDP=1.18D-07 DE=-3.92D-12 OVMax= 9.89D-08

 SCF Done:  E(UB3LYP) =  -236.401108533     A.U. after   14 cycles
            NFock= 14  Conv=0.53D-08     -V/T= 2.0104
 <Sx>= 0.0000 <Sy>= 0.0000 <Sz>= 0.5000 <S**2>= 0.7527 S= 0.5013
 <L.S>= 0.000000000000E+00
 KE= 2.339733268925D+02 PE=-1.053346357246D+03 EE= 3.290762595734D+02
 Annihilation of the first spin contaminant:
 S**2 before annihilation     0.7527,   after     0.7500
 Leave Link  502 at Sat Nov  7 02:14:35 2015, MaxMem=   805306368 cpu:       174.6
 (Enter /home/hetanjin/apps/g09D01/g09/l601.exe)
 Copying SCF densities to generalized density rwf, IOpCl= 1 IROHF=0.

 **********************************************************************

            Population analysis using the SCF density.

 **********************************************************************

 Orbital symmetries:
 Alpha Orbitals:
       Occupied  (A) (A) (A) (A) (A) (A) (A) (A) (A) (A) (A) (A)
                 (A) (A) (A) (A) (A) (A) (A) (A) (A) (A) (A) (A)
                 (A)
       Virtual   (A) (A) (A) (A) (A) (A) (A) (A) (A) (A) (A) (A)
                 (A) (A) (A) (A) (A) (A) (A) (A) (A) (A) (A) (A)
                 (A) (A) (A) (A) (A) (A) (A) (A) (A) (A) (A) (A)
                 (A) (A) (A) (A) (A) (A) (A) (A) (A) (A) (A) (A)
                 (A) (A) (A) (A) (A) (A) (A) (A) (A) (A) (A) (A)
                 (A) (A) (A) (A) (A) (A) (A) (A) (A) (A) (A) (A)
                 (A) (A) (A) (A) (A) (A) (A) (A) (A) (A) (A) (A)
                 (A) (A) (A) (A) (A) (A) (A)
 Beta  Orbitals:
       Occupied  (A) (A) (A) (A) (A) (A) (A) (A) (A) (A) (A) (A)
                 (A) (A) (A) (A) (A) (A) (A) (A) (A) (A) (A) (A)
       Virtual   (A) (A) (A) (A) (A) (A) (A) (A) (A) (A) (A) (A)
                 (A) (A) (A) (A) (A) (A) (A) (A) (A) (A) (A) (A)
                 (A) (A) (A) (A) (A) (A) (A) (A) (A) (A) (A) (A)
                 (A) (A) (A) (A) (A) (A) (A) (A) (A) (A) (A) (A)
                 (A) (A) (A) (A) (A) (A) (A) (A) (A) (A) (A) (A)
                 (A) (A) (A) (A) (A) (A) (A) (A) (A) (A) (A) (A)
                 (A) (A) (A) (A) (A) (A) (A) (A) (A) (A) (A) (A)
                 (A) (A) (A) (A) (A) (A) (A) (A)
 The electronic state is 2-A.
 Alpha  occ. eigenvalues --  -10.19714 -10.19239 -10.17618 -10.17614 -10.16887
 Alpha  occ. eigenvalues --  -10.16850  -0.81994  -0.73185  -0.68161  -0.67084
 Alpha  occ. eigenvalues --   -0.61841  -0.52234  -0.45455  -0.44791  -0.43200
 Alpha  occ. eigenvalues --   -0.41128  -0.39389  -0.37816  -0.37479  -0.35664
 Alpha  occ. eigenvalues --   -0.34174  -0.32829  -0.31558  -0.30673  -0.22759
 Alpha virt. eigenvalues --    0.07821   0.12638   0.13304   0.13410   0.14384
 Alpha virt. eigenvalues --    0.15928   0.16720   0.17707   0.18762   0.19328
 Alpha virt. eigenvalues --    0.20406   0.21655   0.22522   0.23200   0.24912
 Alpha virt. eigenvalues --    0.25464   0.26027   0.27344   0.49154   0.50546
 Alpha virt. eigenvalues --    0.51805   0.52331   0.52662   0.57699   0.59442
 Alpha virt. eigenvalues --    0.61832   0.61998   0.63723   0.70515   0.71456
 Alpha virt. eigenvalues --    0.74325   0.76116   0.80113   0.84057   0.87420
 Alpha virt. eigenvalues --    0.88841   0.89346   0.90541   0.90758   0.91287
 Alpha virt. eigenvalues --    0.92491   0.92935   0.93659   0.95872   0.96539
 Alpha virt. eigenvalues --    0.97015   0.98268   0.99352   1.02003   1.03694
 Alpha virt. eigenvalues --    1.24455   1.34100   1.39629   1.40428   1.50387
 Alpha virt. eigenvalues --    1.59939   1.62524   1.67745   1.72024   1.72708
 Alpha virt. eigenvalues --    1.80159   1.83913   1.87172   1.92417   1.93489
 Alpha virt. eigenvalues --    1.95550   1.99435   2.09160   2.10214   2.11444
 Alpha virt. eigenvalues --    2.12416   2.16663   2.24247   2.24468   2.24917
 Alpha virt. eigenvalues --    2.26929   2.30361   2.35353   2.36555   2.48050
 Alpha virt. eigenvalues --    2.56420   2.68938   2.71317   2.73765   2.75940
 Alpha virt. eigenvalues --    4.11417   4.21199   4.27472   4.30837   4.44435
 Alpha virt. eigenvalues --    4.66739
  Beta  occ. eigenvalues --  -10.19738 -10.17801 -10.17607 -10.17503 -10.16868
  Beta  occ. eigenvalues --  -10.16842  -0.81506  -0.73010  -0.68022  -0.64782
  Beta  occ. eigenvalues --   -0.61610  -0.51732  -0.45203  -0.44502  -0.42882
  Beta  occ. eigenvalues --   -0.40783  -0.38973  -0.37633  -0.37025  -0.35589
  Beta  occ. eigenvalues --   -0.33979  -0.32120  -0.31206  -0.30495
  Beta virt. eigenvalues --   -0.06105   0.08005   0.12835   0.13506   0.13714
  Beta virt. eigenvalues --    0.14552   0.16262   0.16839   0.18046   0.18802
  Beta virt. eigenvalues --    0.19631   0.20899   0.21820   0.22890   0.23459
  Beta virt. eigenvalues --    0.25143   0.25666   0.26888   0.27606   0.49424
  Beta virt. eigenvalues --    0.50722   0.52126   0.52729   0.54638   0.59022
  Beta virt. eigenvalues --    0.60553   0.62354   0.63867   0.64312   0.70993
  Beta virt. eigenvalues --    0.71637   0.74611   0.76195   0.80751   0.84574
  Beta virt. eigenvalues --    0.87723   0.89144   0.89495   0.90690   0.91109
  Beta virt. eigenvalues --    0.91904   0.92774   0.93524   0.94004   0.96280
  Beta virt. eigenvalues --    0.97085   0.97657   0.98312   0.99648   1.02210
  Beta virt. eigenvalues --    1.03843   1.25644   1.34784   1.40333   1.41095
  Beta virt. eigenvalues --    1.50609   1.60187   1.62823   1.68872   1.72569
  Beta virt. eigenvalues --    1.74132   1.80523   1.86594   1.87381   1.92848
  Beta virt. eigenvalues --    1.93928   1.96713   2.02168   2.09795   2.10870
  Beta virt. eigenvalues --    2.12968   2.13251   2.18634   2.24709   2.25198
  Beta virt. eigenvalues --    2.25706   2.27805   2.30814   2.35538   2.36681
  Beta virt. eigenvalues --    2.48697   2.57101   2.69191   2.72105   2.74227
  Beta virt. eigenvalues --    2.76092   4.12432   4.22921   4.28220   4.31111
  Beta virt. eigenvalues --    4.44517   4.66908
          Condensed to atoms (all electrons):
               1          2          3          4          5          6
     1  C    5.169595   0.362551   0.364981   0.363109   0.377690  -0.057070
     2  H    0.362551   0.575077  -0.030192  -0.030039  -0.027604  -0.005065
     3  H    0.364981  -0.030192   0.579544  -0.030498  -0.029704  -0.005345
     4  H    0.363109  -0.030039  -0.030498   0.580976  -0.028643   0.005435
     5  C    0.377690  -0.027604  -0.029704  -0.028643   4.752635   0.392285
     6  C   -0.057070  -0.005065  -0.005345   0.005435   0.392285   5.020887
     7  H   -0.005383  -0.000230   0.005340  -0.000044  -0.036065   0.367249
     8  H   -0.005166   0.004974  -0.000257  -0.000047  -0.035264   0.366100
     9  C    0.004636  -0.000010  -0.000007  -0.000161  -0.037773   0.372188
    10  H    0.000051  -0.000002   0.000003   0.000001  -0.005873  -0.033743
    11  H   -0.000128  -0.000006  -0.000003   0.000002   0.004197  -0.027672
    12  H    0.000120  -0.000002  -0.000005   0.000001  -0.005672  -0.033606
    13  C   -0.061122   0.006030  -0.004342  -0.004317   0.384707  -0.056659
    14  H   -0.001631  -0.000171   0.004156  -0.000181  -0.038541  -0.006388
    15  H   -0.002640  -0.000131  -0.000213   0.004586  -0.037891   0.005659
    16  C   -0.061029  -0.004858   0.005953  -0.004866   0.380700  -0.058067
    17  H   -0.005622  -0.000163  -0.000029   0.004476  -0.029458   0.005431
    18  H   -0.004415   0.003714  -0.000068  -0.000143  -0.029880  -0.004858
    19  H    0.005572  -0.000056  -0.000190  -0.000058  -0.028132  -0.005595
               7          8          9         10         11         12
     1  C   -0.005383  -0.005166   0.004636   0.000051  -0.000128   0.000120
     2  H   -0.000230   0.004974  -0.000010  -0.000002  -0.000006  -0.000002
     3  H    0.005340  -0.000257  -0.000007   0.000003  -0.000003  -0.000005
     4  H   -0.000044  -0.000047  -0.000161   0.000001   0.000002   0.000001
     5  C   -0.036065  -0.035264  -0.037773  -0.005873   0.004197  -0.005672
     6  C    0.367249   0.366100   0.372188  -0.033743  -0.027672  -0.033606
     7  H    0.620918  -0.038170  -0.039471   0.005216  -0.003377  -0.004086
     8  H   -0.038170   0.622828  -0.040240  -0.004095  -0.003194   0.005170
     9  C   -0.039471  -0.040240   5.073405   0.377457   0.370358   0.377338
    10  H    0.005216  -0.004095   0.377457   0.573510  -0.031696  -0.031721
    11  H   -0.003377  -0.003194   0.370358  -0.031696   0.582916  -0.031398
    12  H   -0.004086   0.005170   0.377338  -0.031721  -0.031398   0.564771
    13  C   -0.006845   0.005934  -0.003827  -0.000356   0.000081   0.008355
    14  H    0.004736  -0.000069  -0.000179   0.000050  -0.000032   0.000063
    15  H   -0.000065  -0.000216   0.000081  -0.000017   0.000001  -0.000162
    16  C    0.006236  -0.006929  -0.005188   0.003424   0.000067  -0.000476
    17  H   -0.000184  -0.000078   0.000094  -0.000112   0.000000  -0.000022
    18  H   -0.000040   0.004826  -0.000243   0.000280  -0.000027   0.000057
    19  H   -0.000044  -0.000057   0.001931   0.002693  -0.000060   0.000409
              13         14         15         16         17         18
     1  C   -0.061122  -0.001631  -0.002640  -0.061029  -0.005622  -0.004415
     2  H    0.006030  -0.000171  -0.000131  -0.004858  -0.000163   0.003714
     3  H   -0.004342   0.004156  -0.000213   0.005953  -0.000029  -0.000068
     4  H   -0.004317  -0.000181   0.004586  -0.004866   0.004476  -0.000143
     5  C    0.384707  -0.038541  -0.037891   0.380700  -0.029458  -0.029880
     6  C   -0.056659  -0.006388   0.005659  -0.058067   0.005431  -0.004858
     7  H   -0.006845   0.004736  -0.000065   0.006236  -0.000184  -0.000040
     8  H    0.005934  -0.000069  -0.000216  -0.006929  -0.000078   0.004826
     9  C   -0.003827  -0.000179   0.000081  -0.005188   0.000094  -0.000243
    10  H   -0.000356   0.000050  -0.000017   0.003424  -0.000112   0.000280
    11  H    0.000081  -0.000032   0.000001   0.000067   0.000000  -0.000027
    12  H    0.008355   0.000063  -0.000162  -0.000476  -0.000022   0.000057
    13  C    5.385638   0.347131   0.347969  -0.062102  -0.004602   0.005529
    14  H    0.347131   0.603326  -0.044831   0.005883  -0.000067  -0.000212
    15  H    0.347969  -0.044831   0.602722  -0.006113   0.003949  -0.000087
    16  C   -0.062102   0.005883  -0.006113   5.150619   0.366597   0.364104
    17  H   -0.004602  -0.000067   0.003949   0.366597   0.584952  -0.031286
    18  H    0.005529  -0.000212  -0.000087   0.364104  -0.031286   0.589037
    19  H   -0.001726   0.000005  -0.000119   0.369596  -0.030192  -0.031124
              19
     1  C    0.005572
     2  H   -0.000056
     3  H   -0.000190
     4  H   -0.000058
     5  C   -0.028132
     6  C   -0.005595
     7  H   -0.000044
     8  H   -0.000057
     9  C    0.001931
    10  H    0.002693
    11  H   -0.000060
    12  H    0.000409
    13  C   -0.001726
    14  H    0.000005
    15  H   -0.000119
    16  C    0.369596
    17  H   -0.030192
    18  H   -0.031124
    19  H    0.567866
          Atomic-Atomic Spin Densities.
               1          2          3          4          5          6
     1  C    0.079020  -0.015320  -0.001296  -0.001334   0.015106  -0.005839
     2  H   -0.015320   0.031789   0.000643   0.000648  -0.003162   0.001244
     3  H   -0.001296   0.000643  -0.002108   0.000352   0.000171   0.000132
     4  H   -0.001334   0.000648   0.000352  -0.002040   0.000230   0.000052
     5  C    0.015106  -0.003162   0.000171   0.000230  -0.032574   0.002775
     6  C   -0.005839   0.001244   0.000132   0.000052   0.002775   0.010870
     7  H   -0.000388   0.000100  -0.000002   0.000003   0.000372  -0.000013
     8  H    0.000229  -0.000203   0.000006   0.000003   0.000283   0.000817
     9  C    0.000377  -0.000095  -0.000009  -0.000002   0.000229  -0.002133
    10  H    0.000006  -0.000002   0.000000   0.000000   0.000029  -0.000174
    11  H    0.000015  -0.000003  -0.000001   0.000000  -0.000027  -0.000146
    12  H    0.000071  -0.000005  -0.000002   0.000000  -0.000499  -0.000160
    13  C   -0.029535   0.002647   0.000870   0.000845  -0.030257  -0.006805
    14  H   -0.002424   0.000146   0.000089   0.000064   0.001552   0.001121
    15  H   -0.002499   0.000156   0.000066   0.000116   0.001807   0.000178
    16  C   -0.004641   0.000912   0.000026   0.000089   0.004915   0.003121
    17  H   -0.000239   0.000061   0.000001  -0.000005   0.000426   0.000007
    18  H    0.001147  -0.000756  -0.000004  -0.000024   0.000288  -0.000358
    19  H    0.000468  -0.000089  -0.000003  -0.000012  -0.000486  -0.000692
               7          8          9         10         11         12
     1  C   -0.000388   0.000229   0.000377   0.000006   0.000015   0.000071
     2  H    0.000100  -0.000203  -0.000095  -0.000002  -0.000003  -0.000005
     3  H   -0.000002   0.000006  -0.000009   0.000000  -0.000001  -0.000002
     4  H    0.000003   0.000003  -0.000002   0.000000   0.000000   0.000000
     5  C    0.000372   0.000283   0.000229   0.000029  -0.000027  -0.000499
     6  C   -0.000013   0.000817  -0.002133  -0.000174  -0.000146  -0.000160
     7  H   -0.000639   0.000245  -0.000067  -0.000009  -0.000038   0.000015
     8  H    0.000245  -0.003110   0.000332   0.000021  -0.000011  -0.000065
     9  C   -0.000067   0.000332   0.008876  -0.000161  -0.000682  -0.000385
    10  H   -0.000009   0.000021  -0.000161  -0.000015   0.000046   0.000240
    11  H   -0.000038  -0.000011  -0.000682   0.000046   0.000830   0.000169
    12  H    0.000015  -0.000065  -0.000385   0.000240   0.000169  -0.002552
    13  C   -0.000006   0.000092  -0.000622   0.000091   0.000109   0.002863
    14  H    0.000066  -0.000018   0.000047  -0.000001  -0.000008  -0.000223
    15  H    0.000010   0.000008  -0.000025  -0.000002  -0.000001  -0.000022
    16  C    0.000014   0.000099  -0.000684  -0.000064  -0.000025  -0.000117
    17  H    0.000000   0.000006  -0.000004   0.000000   0.000000   0.000000
    18  H    0.000002  -0.000217   0.000131   0.000011   0.000003   0.000004
    19  H   -0.000007   0.000026   0.000155   0.000052   0.000016   0.000089
              13         14         15         16         17         18
     1  C   -0.029535  -0.002424  -0.002499  -0.004641  -0.000239   0.001147
     2  H    0.002647   0.000146   0.000156   0.000912   0.000061  -0.000756
     3  H    0.000870   0.000089   0.000066   0.000026   0.000001  -0.000004
     4  H    0.000845   0.000064   0.000116   0.000089  -0.000005  -0.000024
     5  C   -0.030257   0.001552   0.001807   0.004915   0.000426   0.000288
     6  C   -0.006805   0.001121   0.000178   0.003121   0.000007  -0.000358
     7  H   -0.000006   0.000066   0.000010   0.000014   0.000000   0.000002
     8  H    0.000092  -0.000018   0.000008   0.000099   0.000006  -0.000217
     9  C   -0.000622   0.000047  -0.000025  -0.000684  -0.000004   0.000131
    10  H    0.000091  -0.000001  -0.000002  -0.000064   0.000000   0.000011
    11  H    0.000109  -0.000008  -0.000001  -0.000025   0.000000   0.000003
    12  H    0.002863  -0.000223  -0.000022  -0.000117   0.000000   0.000004
    13  C    1.123993  -0.011362  -0.011658  -0.007888  -0.000061   0.000129
    14  H   -0.011362  -0.025197   0.006186   0.000135   0.000008  -0.000002
    15  H   -0.011658   0.006186  -0.025834   0.001056   0.000009  -0.000046
    16  C   -0.007888   0.000135   0.001056   0.012890  -0.000043  -0.000817
    17  H   -0.000061   0.000008   0.000009  -0.000043  -0.000657   0.000055
    18  H    0.000129  -0.000002  -0.000046  -0.000817   0.000055  -0.000795
    19  H    0.003238  -0.000063  -0.000214  -0.003219  -0.000002   0.000911
              19
     1  C    0.000468
     2  H   -0.000089
     3  H   -0.000003
     4  H   -0.000012
     5  C   -0.000486
     6  C   -0.000692
     7  H   -0.000007
     8  H    0.000026
     9  C    0.000155
    10  H    0.000052
    11  H    0.000016
    12  H    0.000089
    13  C    0.003238
    14  H   -0.000063
    15  H   -0.000214
    16  C   -0.003219
    17  H   -0.000002
    18  H    0.000911
    19  H    0.000810
 Mulliken charges and spin densities:
               1          2
     1  C   -0.444100   0.032927
     2  H    0.146183   0.018711
     3  H    0.140876  -0.001066
     4  H    0.140410  -0.001017
     5  C    0.078286  -0.038825
     6  C   -0.241167   0.003998
     7  H    0.124309  -0.000342
     8  H    0.123952  -0.001457
     9  C   -0.450388   0.005279
    10  H    0.144928   0.000068
    11  H    0.139969   0.000247
    12  H    0.150866  -0.000578
    13  C   -0.285476   1.036683
    14  H    0.126952  -0.029882
    15  H    0.127519  -0.030707
    16  C   -0.443552   0.005759
    17  H    0.136315  -0.000437
    18  H    0.134837  -0.000336
    19  H    0.149280   0.000977
 Sum of Mulliken charges =   0.00000   1.00000
 Mulliken charges and spin densities with hydrogens summed into heavy atoms:
               1          2
     1  C   -0.016631   0.049554
     5  C    0.078286  -0.038825
     6  C    0.007094   0.002199
     9  C   -0.014624   0.005016
    13  C   -0.031005   0.976094
    16  C   -0.023120   0.005962
 Electronic spatial extent (au):  <R**2>=            688.1750
 Charge=              0.0000 electrons
 Dipole moment (field-independent basis, Debye):
    X=              0.3692    Y=             -0.2057    Z=             -0.4836  Tot=              0.6422
 Quadrupole moment (field-independent basis, Debye-Ang):
   XX=            -40.5363   YY=            -40.5750   ZZ=            -41.9506
   XY=             -0.0098   XZ=              0.6281   YZ=             -0.3314
 Traceless Quadrupole moment (field-independent basis, Debye-Ang):
   XX=              0.4844   YY=              0.4456   ZZ=             -0.9300
   XY=             -0.0098   XZ=              0.6281   YZ=             -0.3314
 Octapole moment (field-independent basis, Debye-Ang**2):
  XXX=              1.5068  YYY=             -2.0481  ZZZ=             -5.7465  XYY=             -0.6066
  XXY=              0.5061  XXZ=              0.7796  XZZ=              0.7036  YZZ=              0.2186
  YYZ=              0.5039  XYZ=             -0.1567
 Hexadecapole moment (field-independent basis, Debye-Ang**3):
 XXXX=           -495.9882 YYYY=           -237.5761 ZZZZ=           -227.2728 XXXY=              5.2169
 XXXZ=              6.1078 YYYX=             -2.8983 YYYZ=             -0.2621 ZZZX=             -0.2955
 ZZZY=             -1.7998 XXYY=           -122.4184 XXZZ=           -118.2646 YYZZ=            -76.8280
 XXYZ=              1.0437 YYXZ=              0.4222 ZZXY=              0.4392
 N-N= 2.538956622474D+02 E-N=-1.053346363372D+03  KE= 2.339733268925D+02
                          Isotropic Fermi Contact Couplings
        Atom                 a.u.       MegaHertz       Gauss      10(-4) cm-1
     1  C(13)              0.05070      56.99645      20.33775      19.01197
     2  H(1)               0.00702      31.39542      11.20266      10.47238
     3  H(1)              -0.00023      -1.04443      -0.37268      -0.34838
     4  H(1)              -0.00023      -1.01177      -0.36102      -0.33749
     5  C(13)             -0.01061     -11.92413      -4.25483      -3.97746
     6  C(13)              0.00396       4.45238       1.58872       1.48515
     7  H(1)              -0.00019      -0.84973      -0.30320      -0.28344
     8  H(1)              -0.00043      -1.93971      -0.69214      -0.64702
     9  C(13)              0.00065       0.73199       0.26119       0.24416
    10  H(1)               0.00001       0.05540       0.01977       0.01848
    11  H(1)               0.00006       0.25872       0.09232       0.08630
    12  H(1)               0.00069       3.10642       1.10845       1.03619
    13  C(13)              0.30089     338.25412     120.69748     112.82943
    14  H(1)              -0.00396     -17.70125      -6.31625      -5.90450
    15  H(1)              -0.00435     -19.42307      -6.93063      -6.47884
    16  C(13)              0.00808       9.08748       3.24264       3.03126
    17  H(1)              -0.00021      -0.93095      -0.33219      -0.31053
    18  H(1)              -0.00008      -0.37943      -0.13539      -0.12657
    19  H(1)              -0.00022      -1.00071      -0.35708      -0.33380
 --------------------------------------------------------
       Center         ----  Spin Dipole Couplings  ----
                      3XX-RR        3YY-RR        3ZZ-RR
 --------------------------------------------------------
     1   Atom        0.004925     -0.024243      0.019318
     2   Atom       -0.003582     -0.004574      0.008157
     3   Atom       -0.006025      0.003769      0.002256
     4   Atom        0.008986     -0.008612     -0.000374
     5   Atom       -0.017187     -0.021782      0.038969
     6   Atom       -0.000856     -0.007658      0.008514
     7   Atom       -0.001579     -0.001772      0.003351
     8   Atom       -0.001192     -0.003667      0.004859
     9   Atom        0.001717     -0.008103      0.006387
    10   Atom        0.002265     -0.001657     -0.000608
    11   Atom        0.002580     -0.002425     -0.000155
    12   Atom        0.012530     -0.008438     -0.004092
    13   Atom        0.288934     -0.201411     -0.087523
    14   Atom       -0.028624      0.071069     -0.042444
    15   Atom        0.056179     -0.034054     -0.022126
    16   Atom       -0.009554      0.007451      0.002103
    17   Atom       -0.002745      0.004678     -0.001933
    18   Atom       -0.003415      0.000565      0.002849
    19   Atom       -0.006374      0.008425     -0.002051
 --------------------------------------------------------
                        XY            XZ            YZ
 --------------------------------------------------------
     1   Atom       -0.014858     -0.042675      0.018181
     2   Atom       -0.001111     -0.001791     -0.001742
     3   Atom       -0.005179     -0.005072      0.006974
     4   Atom        0.001459     -0.006881     -0.000415
     5   Atom       -0.003218     -0.016405      0.001046
     6   Atom        0.003879      0.010960      0.004334
     7   Atom        0.003579      0.005167      0.005902
     8   Atom       -0.000091      0.003242      0.000142
     9   Atom       -0.000416      0.005637     -0.001888
    10   Atom       -0.003066      0.004076     -0.002168
    11   Atom        0.000627      0.003020      0.000354
    12   Atom        0.000637      0.005981     -0.000402
    13   Atom       -0.461784     -0.550144      0.331648
    14   Atom        0.002319     -0.022978     -0.009478
    15   Atom        0.019825      0.026384      0.031182
    16   Atom        0.004922     -0.004219     -0.015411
    17   Atom        0.005370     -0.003364     -0.005705
    18   Atom       -0.000312     -0.000126     -0.004662
    19   Atom       -0.004290      0.001186     -0.007864
 --------------------------------------------------------


 ---------------------------------------------------------------------------------
              Anisotropic Spin Dipole Couplings in Principal Axis System
 ---------------------------------------------------------------------------------

       Atom             a.u.   MegaHertz   Gauss  10(-4) cm-1        Axes

              Baa    -0.0314    -4.208    -1.502    -1.404  0.5943 -0.4545  0.6635
     1 C(13)  Bbb    -0.0304    -4.086    -1.458    -1.363  0.5098  0.8510  0.1263
              Bcc     0.0618     8.294     2.959     2.766 -0.6220  0.2632  0.7374
 
              Baa    -0.0057    -3.055    -1.090    -1.019  0.5638  0.8074  0.1740
     2 H(1)   Bbb    -0.0029    -1.539    -0.549    -0.513  0.8150 -0.5780  0.0410
              Bcc     0.0086     4.594     1.639     1.532 -0.1337 -0.1187  0.9839
 
              Baa    -0.0088    -4.710    -1.681    -1.571  0.9318  0.2256  0.2844
     3 H(1)   Bbb    -0.0040    -2.126    -0.759    -0.709 -0.0545 -0.6876  0.7240
              Bcc     0.0128     6.836     2.439     2.280 -0.3589  0.6901  0.6284
 
              Baa    -0.0087    -4.661    -1.663    -1.555 -0.0922  0.9954 -0.0266
     4 H(1)   Bbb    -0.0040    -2.131    -0.760    -0.711  0.4615  0.0664  0.8847
              Bcc     0.0127     6.792     2.424     2.266  0.8823  0.0694 -0.4655
 
              Baa    -0.0246    -3.296    -1.176    -1.100  0.6751  0.7196  0.1625
     5 C(13)  Bbb    -0.0189    -2.536    -0.905    -0.846 -0.6894  0.6938 -0.2080
              Bcc     0.0435     5.832     2.081     1.945 -0.2624  0.0284  0.9645
 
              Baa    -0.0095    -1.273    -0.454    -0.425 -0.5310  0.8386  0.1214
     6 C(13)  Bbb    -0.0076    -1.020    -0.364    -0.340  0.6506  0.4953 -0.5757
              Bcc     0.0171     2.293     0.818     0.765  0.5429  0.2267  0.8086
 
              Baa    -0.0057    -3.025    -1.079    -1.009 -0.1515  0.8646 -0.4790
     7 H(1)   Bbb    -0.0048    -2.575    -0.919    -0.859  0.8740 -0.1092 -0.4735
              Bcc     0.0105     5.599     1.998     1.868  0.4617  0.4904  0.7391
 
              Baa    -0.0037    -1.967    -0.702    -0.656  0.1136  0.9917 -0.0596
     8 H(1)   Bbb    -0.0026    -1.378    -0.492    -0.460  0.9101 -0.1279 -0.3941
              Bcc     0.0063     3.345     1.194     1.116  0.3984  0.0094  0.9172
 
              Baa    -0.0084    -1.121    -0.400    -0.374 -0.0382  0.9892  0.1413
     9 C(13)  Bbb    -0.0020    -0.265    -0.094    -0.088  0.8354  0.1092 -0.5387
              Bcc     0.0103     1.386     0.495     0.462  0.5483 -0.0974  0.8306
 
              Baa    -0.0035    -1.864    -0.665    -0.622 -0.5811 -0.0096  0.8138
    10 H(1)   Bbb    -0.0033    -1.772    -0.632    -0.591  0.3247  0.9142  0.2426
              Bcc     0.0068     3.636     1.297     1.213  0.7463 -0.4052  0.5281
 
              Baa    -0.0025    -1.335    -0.476    -0.445 -0.1412  0.9894  0.0323
    11 H(1)   Bbb    -0.0021    -1.120    -0.400    -0.373 -0.5297 -0.1031  0.8419
              Bcc     0.0046     2.455     0.876     0.819  0.8364  0.1018  0.5386
 
              Baa    -0.0086    -4.577    -1.633    -1.527 -0.0871  0.9752  0.2037
    12 H(1)   Bbb    -0.0059    -3.142    -1.121    -1.048 -0.2943 -0.2205  0.9299
              Bcc     0.0145     7.720     2.755     2.575  0.9517  0.0211  0.3062
 
              Baa    -0.4815   -64.609   -23.054   -21.551  0.3029 -0.4773  0.8249
    13 C(13)  Bbb    -0.4789   -64.265   -22.931   -21.436  0.6120  0.7609  0.2155
              Bcc     0.9604   128.874    45.985    42.988  0.7305 -0.4396 -0.5226
 
              Baa    -0.0598   -31.921   -11.390   -10.648  0.5900  0.0479  0.8060
    14 H(1)   Bbb    -0.0122    -6.516    -2.325    -2.173  0.8062 -0.0890 -0.5849
              Bcc     0.0720    38.437    13.715    12.821  0.0437  0.9949 -0.0911
 
              Baa    -0.0599   -31.939   -11.396   -10.654  0.0155  0.7654 -0.6433
    15 H(1)   Bbb    -0.0122    -6.520    -2.327    -2.175 -0.4339  0.5848  0.6854
              Bcc     0.0721    38.459    13.723    12.828  0.9008  0.2685  0.3412
 
              Baa    -0.0109    -1.468    -0.524    -0.490  0.7789  0.2671  0.5675
    16 C(13)  Bbb    -0.0108    -1.452    -0.518    -0.484 -0.5935  0.6063  0.5293
              Bcc     0.0218     2.920     1.042     0.974  0.2027  0.7490 -0.6308
 
              Baa    -0.0058    -3.076    -1.098    -1.026  0.8463 -0.1571  0.5091
    17 H(1)   Bbb    -0.0051    -2.742    -0.978    -0.915 -0.3266  0.6020  0.7286
              Bcc     0.0109     5.818     2.076     1.941  0.4209  0.7829 -0.4582
 
              Baa    -0.0036    -1.929    -0.688    -0.643  0.8505  0.4186  0.3184
    18 H(1)   Bbb    -0.0029    -1.543    -0.551    -0.515 -0.5259  0.6659  0.5291
              Bcc     0.0065     3.472     1.239     1.158  0.0095 -0.6175  0.7865
 
              Baa    -0.0079    -4.207    -1.501    -1.403  0.8424  0.3972  0.3642
    19 H(1)   Bbb    -0.0057    -3.040    -1.085    -1.014 -0.4950  0.3030  0.8143
              Bcc     0.0136     7.247     2.586     2.417 -0.2131  0.8663 -0.4519
 

 ---------------------------------------------------------------------------------

 No NMR shielding tensors so no spin-rotation constants.
 Leave Link  601 at Sat Nov  7 02:14:36 2015, MaxMem=   805306368 cpu:         1.0
 (Enter /home/hetanjin/apps/g09D01/g09/l701.exe)
 Compute integral first derivatives.
 ... and contract with generalized density number  0.
 Leave Link  701 at Sat Nov  7 02:14:36 2015, MaxMem=   805306368 cpu:         0.6
 (Enter /home/hetanjin/apps/g09D01/g09/l702.exe)
 L702 exits ... SP integral derivatives will be done elsewhere.
 Leave Link  702 at Sat Nov  7 02:14:36 2015, MaxMem=   805306368 cpu:         0.1
 (Enter /home/hetanjin/apps/g09D01/g09/l703.exe)
 Compute integral first derivatives, UseDBF=F ICtDFT=           0.
 Integral derivatives from FoFJK, PRISM(SPDF).
 Calling FoFJK, ICntrl=      2127 FMM=F ISym2X=0 I1Cent= 0 IOpClX= 1 NMat=1 NMatS=1 NMatT=0.
 FoFJK:  IHMeth= 1 ICntrl=    2127 DoSepK=F KAlg= 0 I1Cent=   0 FoldK=F
 IRaf=         0 NMat=   1 IRICut=       1 DoRegI=T DoRafI=F ISym2E= 0.
 FoFCou: FMM=F IPFlag=           0 FMFlag=      100000 FMFlg1=         800
         NFxFlg=           0 DoJE=F BraDBF=F KetDBF=F FulRan=T
         wScrn=  0.000000 ICntrl=    2127 IOpCl=  1 I1Cent=           0 NGrid=           0
         NMat0=    1 NMatS0=      1 NMatT0=    0 NMatD0=    1 NMtDS0=    0 NMtDT0=    0
 Symmetry not used in FoFCou.
 Leave Link  703 at Sat Nov  7 02:14:45 2015, MaxMem=   805306368 cpu:        35.8
 (Enter /home/hetanjin/apps/g09D01/g09/l716.exe)
 Dipole        = 1.45256105D-01-8.09150685D-02-1.90244344D-01
 ***** Axes restored to original set *****
 -------------------------------------------------------------------
 Center     Atomic                   Forces (Hartrees/Bohr)
 Number     Number              X              Y              Z
 -------------------------------------------------------------------
      1        6           0.004248734   -0.000487569   -0.005008138
      2        1          -0.001234741   -0.000664865    0.000635393
      3        1           0.000155919    0.000164525    0.000360431
      4        1           0.000031219    0.000378690    0.000190951
      5        6          -0.014612295   -0.013217906   -0.001894619
      6        6          -0.000572809    0.000873043    0.000336895
      7        1           0.000074341   -0.000005846   -0.000083694
      8        1           0.000082542    0.000180690   -0.000089762
      9        6           0.000272394   -0.000357562   -0.000110955
     10        1           0.000093616    0.000030644   -0.000095927
     11        1           0.000033515    0.000237295    0.000180765
     12        1           0.001374988   -0.000594000   -0.000235830
     13        6           0.029206029    0.033864121    0.007215671
     14        1          -0.012097330   -0.007320255   -0.003338106
     15        1          -0.007543167   -0.012914592    0.000659783
     16        6          -0.000146684   -0.000880995    0.001710818
     17        1           0.000001238   -0.000012929   -0.000062176
     18        1           0.000160543    0.000211182    0.000014570
     19        1           0.000471947    0.000516330   -0.000386070
 -------------------------------------------------------------------
 Cartesian Forces:  Max     0.033864121 RMS     0.007173638
 Leave Link  716 at Sat Nov  7 02:14:45 2015, MaxMem=   805306368 cpu:         0.0
 (Enter /home/hetanjin/apps/g09D01/g09/l103.exe)

 GradGradGradGradGradGradGradGradGradGradGradGradGradGradGradGradGradGrad
 Berny optimization.
 FormGI is forming the generalized inverse of G from B-inverse, IUseBI=4.
 Internal  Forces:  Max     0.014126261 RMS     0.003317029
 Search for a local minimum.
 Step number   1 out of a maximum of  103
 All quantities printed in internal units (Hartrees-Bohrs-Radians)
 RMS Force = .33170D-02 SwitMx=.10000D-02 MixMth= 1
 Mixed Optimization -- RFO/linear search
 Second derivative matrix not updated -- first step.
 ITU=  0
     Eigenvalues ---    0.00230   0.00230   0.00230   0.00230   0.00316
     Eigenvalues ---    0.03068   0.03611   0.04674   0.04701   0.05073
     Eigenvalues ---    0.05293   0.05319   0.05397   0.05404   0.05446
     Eigenvalues ---    0.05447   0.05522   0.09014   0.12691   0.14837
     Eigenvalues ---    0.15122   0.16000   0.16000   0.16000   0.16000
     Eigenvalues ---    0.16000   0.16000   0.16000   0.16000   0.16000
     Eigenvalues ---    0.16000   0.16000   0.21977   0.27481   0.28370
     Eigenvalues ---    0.28418   0.28418   0.29059   0.33721   0.33721
     Eigenvalues ---    0.33969   0.33969   0.33990   0.33990   0.34015
     Eigenvalues ---    0.34017   0.34017   0.34112   0.34156   0.34166
     Eigenvalues ---    0.34166
 RFO step:  Lambda=-1.38090236D-02 EMin= 2.30000000D-03
 Linear search not attempted -- first point.
 Iteration  1 RMS(Cart)=  0.05280446 RMS(Int)=  0.00879448
 Iteration  2 RMS(Cart)=  0.00730518 RMS(Int)=  0.00567962
 Iteration  3 RMS(Cart)=  0.00010387 RMS(Int)=  0.00567909
 Iteration  4 RMS(Cart)=  0.00000223 RMS(Int)=  0.00567909
 Iteration  5 RMS(Cart)=  0.00000007 RMS(Int)=  0.00567909
 ITry= 1 IFail=0 DXMaxC= 2.35D-01 DCOld= 1.00D+10 DXMaxT= 3.00D-01 DXLimC= 3.00D+00 Rises=F
 Variable       Old X    -DE/DX   Delta X   Delta X   Delta X     New X
                                 (Linear)    (Quad)   (Total)
    R1        2.07346   0.00015   0.00000   0.00042   0.00042   2.07388
    R2        2.07346  -0.00020   0.00000  -0.00056  -0.00056   2.07290
    R3        2.07305  -0.00016   0.00000  -0.00044  -0.00044   2.07261
    R4        2.91336   0.00206   0.00000   0.00693   0.00693   2.92029
    R5        2.93287  -0.00096   0.00000  -0.00332  -0.00332   2.92955
    R6        2.91234  -0.01095   0.00000  -0.03676  -0.03676   2.87558
    R7        2.91234   0.00117   0.00000   0.00392   0.00392   2.91626
    R8        2.07803   0.00006   0.00000   0.00018   0.00018   2.07821
    R9        2.07803   0.00004   0.00000   0.00011   0.00011   2.07814
   R10        2.89880  -0.00117   0.00000  -0.00384  -0.00384   2.89496
   R11        2.07051  -0.00010   0.00000  -0.00029  -0.00029   2.07022
   R12        2.07142   0.00012   0.00000   0.00035   0.00035   2.07177
   R13        2.07051   0.00042   0.00000   0.00117   0.00117   2.07168
   R14        2.07382  -0.00035   0.00000  -0.00099  -0.00099   2.07283
   R15        2.07301  -0.00041   0.00000  -0.00115  -0.00115   2.07186
   R16        2.07301   0.00001   0.00000   0.00002   0.00002   2.07302
   R17        2.07382   0.00012   0.00000   0.00033   0.00033   2.07415
   R18        2.07067  -0.00071   0.00000  -0.00199  -0.00199   2.06868
    A1        1.87988   0.00063   0.00000   0.00171   0.00172   1.88160
    A2        1.88010   0.00058   0.00000   0.00116   0.00116   1.88126
    A3        1.94072  -0.00253   0.00000  -0.01674  -0.01674   1.92398
    A4        1.88010  -0.00031   0.00000   0.00229   0.00224   1.88234
    A5        1.94072   0.00083   0.00000   0.00592   0.00590   1.94661
    A6        1.93954   0.00086   0.00000   0.00596   0.00593   1.94547
    A7        1.88414   0.00155   0.00000   0.00932   0.00923   1.89337
    A8        1.89923  -0.00229   0.00000  -0.02295  -0.02293   1.87630
    A9        1.89923   0.00015   0.00000   0.00339   0.00337   1.90260
   A10        1.93449  -0.00031   0.00000  -0.00404  -0.00406   1.93043
   A11        1.93449  -0.00065   0.00000   0.00418   0.00413   1.93862
   A12        1.91142   0.00151   0.00000   0.00959   0.00959   1.92101
   A13        1.88615   0.00094   0.00000  -0.00047  -0.00055   1.88560
   A14        1.88616   0.00139   0.00000   0.00866   0.00871   1.89487
   A15        2.04055  -0.00395   0.00000  -0.01801  -0.01802   2.02253
   A16        1.84789  -0.00060   0.00000   0.00142   0.00140   1.84929
   A17        1.89691   0.00107   0.00000   0.00082   0.00072   1.89764
   A18        1.89691   0.00141   0.00000   0.00923   0.00927   1.90619
   A19        1.95529   0.00012   0.00000  -0.00028  -0.00030   1.95498
   A20        1.92445   0.00014   0.00000   0.00248   0.00249   1.92694
   A21        1.95528  -0.00158   0.00000  -0.00985  -0.00986   1.94542
   A22        1.87221   0.00007   0.00000   0.00180   0.00180   1.87401
   A23        1.88042   0.00038   0.00000  -0.00087  -0.00090   1.87951
   A24        1.87221   0.00099   0.00000   0.00746   0.00747   1.87969
   A25        1.94002   0.01365   0.00000   0.14456   0.11694   2.05696
   A26        1.93250   0.01413   0.00000   0.14781   0.12014   2.05264
   A27        1.87869  -0.00081   0.00000   0.12204   0.08699   1.96567
   A28        1.93250   0.00001   0.00000  -0.00018  -0.00018   1.93232
   A29        1.94002  -0.00009   0.00000  -0.00027  -0.00027   1.93975
   A30        1.95325  -0.00044   0.00000  -0.00258  -0.00258   1.95067
   A31        1.87869   0.00005   0.00000   0.00037   0.00037   1.87906
   A32        1.87429   0.00015   0.00000   0.00037   0.00037   1.87466
   A33        1.88195   0.00035   0.00000   0.00247   0.00247   1.88442
    D1        1.04736   0.00037   0.00000   0.00968   0.00971   1.05707
    D2       -3.13510  -0.00042   0.00000  -0.00293  -0.00295  -3.13805
    D3       -1.05336   0.00015   0.00000  -0.00274  -0.00275  -1.05611
    D4       -1.04737   0.00071   0.00000   0.01479   0.01483  -1.03254
    D5        1.05335  -0.00007   0.00000   0.00218   0.00217   1.05552
    D6        3.13509   0.00050   0.00000   0.00236   0.00238   3.13747
    D7        3.14159  -0.00002   0.00000   0.00393   0.00394  -3.13766
    D8       -1.04087  -0.00081   0.00000  -0.00868  -0.00873  -1.04960
    D9        1.04086  -0.00024   0.00000  -0.00850  -0.00852   1.03234
   D10        0.99614  -0.00066   0.00000  -0.01246  -0.01250   0.98363
   D11       -0.99615  -0.00113   0.00000  -0.01824  -0.01827  -1.01442
   D12        3.14159  -0.00130   0.00000  -0.02467  -0.02468   3.11691
   D13       -1.08232   0.00136   0.00000   0.01212   0.01211  -1.07021
   D14       -3.07460   0.00089   0.00000   0.00634   0.00634  -3.06827
   D15        1.06313   0.00072   0.00000  -0.00009  -0.00007   1.06306
   D16        3.07459   0.00011   0.00000  -0.00016  -0.00015   3.07445
   D17        1.08231  -0.00036   0.00000  -0.00594  -0.00592   1.07639
   D18       -1.06314  -0.00053   0.00000  -0.01237  -0.01232  -1.07546
   D19       -1.08437  -0.00869   0.00000  -0.16416  -0.17060  -1.25496
   D20        1.00293   0.00856   0.00000   0.18137   0.18766   1.19058
   D21        0.98498  -0.00839   0.00000  -0.16936  -0.17566   0.80932
   D22        3.07227   0.00886   0.00000   0.17617   0.18259  -3.02832
   D23        3.12471  -0.00840   0.00000  -0.16028  -0.16662   2.95809
   D24       -1.07118   0.00885   0.00000   0.18526   0.19164  -0.87955
   D25       -1.00294   0.00108   0.00000   0.01041   0.01040  -0.99254
   D26        1.08436   0.00109   0.00000   0.01058   0.01057   1.09492
   D27       -3.09342   0.00117   0.00000   0.01177   0.01176  -3.08166
   D28       -3.07228  -0.00052   0.00000  -0.00559  -0.00556  -3.07784
   D29       -0.98499  -0.00051   0.00000  -0.00542  -0.00539  -0.99038
   D30        1.12042  -0.00043   0.00000  -0.00422  -0.00420   1.11622
   D31        1.07117  -0.00072   0.00000  -0.00978  -0.00980   1.06137
   D32       -3.12472  -0.00071   0.00000  -0.00961  -0.00963  -3.13435
   D33       -1.01931  -0.00063   0.00000  -0.00842  -0.00843  -1.02775
   D34        1.05782   0.00017   0.00000   0.01104   0.01103   1.06885
   D35        3.14158   0.00042   0.00000   0.01480   0.01478  -3.12682
   D36       -1.05785   0.00073   0.00000   0.01945   0.01942  -1.03842
   D37       -3.08547  -0.00056   0.00000  -0.00199  -0.00198  -3.08745
   D38       -1.00171  -0.00031   0.00000   0.00176   0.00177  -0.99994
   D39        1.08205   0.00000   0.00000   0.00642   0.00641   1.08846
   D40       -1.08208   0.00003   0.00000   0.00499   0.00501  -1.07707
   D41        1.00168   0.00028   0.00000   0.00875   0.00877   1.01045
   D42        3.08544   0.00059   0.00000   0.01340   0.01341   3.09885
         Item               Value     Threshold  Converged?
 Maximum Force            0.014126     0.000015     NO 
 RMS     Force            0.003317     0.000010     NO 
 Maximum Displacement     0.234737     0.000060     NO 
 RMS     Displacement     0.051342     0.000040     NO 
 Predicted change in Energy=-9.921479D-03
 Lowest energy point so far.  Saving SCF results.
 GradGradGradGradGradGradGradGradGradGradGradGradGradGradGradGradGradGrad

 Leave Link  103 at Sat Nov  7 02:14:45 2015, MaxMem=   805306368 cpu:         0.1
 (Enter /home/hetanjin/apps/g09D01/g09/l202.exe)
                          Input orientation:                          
 ---------------------------------------------------------------------
 Center     Atomic      Atomic             Coordinates (Angstroms)
 Number     Number       Type             X           Y           Z
 ---------------------------------------------------------------------
      1          6           0        1.632519    1.009771    0.014106
      2          1           0        1.601043    1.642935    0.909937
      3          1           0        1.609170    1.668115   -0.862991
      4          1           0        2.593034    0.480310    0.011587
      5          6           0        0.442973    0.023319    0.014704
      6          6           0       -0.873858    0.841384    0.012518
      7          1           0       -0.856758    1.511866   -0.859030
      8          1           0       -0.881441    1.495131    0.896772
      9          6           0       -2.168970    0.023824   -0.021229
     10          1           0       -2.267421   -0.625794    0.855384
     11          1           0       -3.040509    0.688774   -0.035448
     12          1           0       -2.219505   -0.610978   -0.913596
     13          6           0        0.549683   -0.823131   -1.245331
     14          1           0        0.324294   -0.343367   -2.205645
     15          1           0        1.384522   -1.530606   -1.312961
     16          6           0        0.535843   -0.875439    1.265758
     17          1           0        1.497526   -1.402455    1.294380
     18          1           0        0.453365   -0.282800    2.185912
     19          1           0       -0.253699   -1.633579    1.280435
 ---------------------------------------------------------------------
                    Distance matrix (angstroms):
                    1          2          3          4          5
     1  C    0.000000
     2  H    1.097452   0.000000
     3  H    1.096933   1.773126   0.000000
     4  H    1.096779   1.772787   1.773064   0.000000
     5  C    1.545351   2.183055   2.199027   2.198093   0.000000
     6  C    2.512027   2.751905   2.759606   3.485644   1.550251
     7  H    2.685324   3.031042   2.470876   3.704477   2.160668
     8  H    2.708258   2.486915   3.054477   3.726310   2.167567
     9  C    3.927423   4.207326   4.205543   4.783946   2.612190
    10  H    4.311885   4.484989   4.821077   5.055639   2.911069
    11  H    4.684302   4.831996   4.823220   5.637595   3.546828
    12  H    4.280834   4.796039   4.455960   5.020698   2.890131
    13  C    2.473509   3.439771   2.734045   2.730217   1.521694
    14  H    2.910279   3.909263   2.738555   3.277459   2.253550
    15  H    2.876826   3.880660   3.238017   2.694200   2.250309
    16  C    2.514627   2.757439   3.486154   2.764605   1.543220
    17  H    2.734257   3.071305   3.754346   2.527944   2.186889
    18  H    2.788886   2.579483   3.799706   3.144552   2.192706
    19  H    3.485499   3.783237   4.354967   3.765952   2.198349
[...]
 037925,0.00024138,0.00027744,0.00012746,-0.00036069,0.27253487,0.11294
 893,-0.11089371,-0.00073253,0.01498523,-0.00868500,0.00118636,0.017162
 05,-0.00964661,-0.00158148,-0.12109037,0.11898945,0.00194959,-0.000918
 57,-0.04947905,0.02523390,-0.01311876,0.00085203,-0.02410867,0.0122979
 8,0.00095643,-0.00166955,0.00109417,0.04835815,-0.11569072,-0.04221513
 ,-0.00965039,-0.00088220,0.00050157,0.00089525,0.00036475,0.00144939,0
 .00033621,-0.02118605,-0.01925730,-0.00130359,0.42375236,-0.03167937,-
 0.10265131,-0.00447877,-0.01461638,-0.01306133,0.00031300,-0.01437498,
 -0.01386641,-0.00142141,0.01159928,0.01001210,0.00050520,-0.02803834,0
 .46268063,0.00575345,0.00747541,-0.07114624,-0.02100670,-0.01797951,-0
 .00160036,0.01977398,0.01599438,0.00055831,-0.00039932,0.00015265,-0.0
 0180071,-0.00042126,0.00266027,0.49972299,-0.03551812,0.00957622,-0.00
 023027,0.00128293,0.00160668,0.00062646,0.00135514,0.00155484,-0.00049
 069,-0.00332328,-0.00252576,-0.00015056,-0.12740457,0.03168090,-0.0009
 8368,0.44429742,-0.01773460,0.01033712,0.00048240,-0.00072719,0.000243
 34,-0.00006166,-0.00102315,0.00026709,-0.00005400,-0.00522696,-0.00312
 096,-0.00027400,0.03993173,-0.09703161,0.00329825,0.01982252,0.5250667
 9,-0.00081006,0.00116630,0.00173367,-0.00111435,0.00016387,-0.00025007
 ,0.00126526,0.00009497,-0.00012504,-0.00023821,-0.00008464,-0.00034816
 ,0.00333812,0.00116475,-0.07947177,-0.00176535,0.00130962,0.59711162,0
 .00115045,0.00120103,-0.00123650,-0.00011313,-0.00005463,-0.00001802,-
 0.00050982,-0.00039715,0.00046993,0.00033391,-0.00012817,0.00025941,-0
 .00223841,0.01705332,-0.02291708,-0.04704967,-0.00135427,0.00240104,0.
 05868907,-0.00144021,0.00039947,-0.00024302,0.00007275,0.00004455,-0.0
 0012426,0.00031736,0.00078212,-0.00024603,-0.00008205,0.00000562,-0.00
 036919,0.00131276,-0.01304393,0.01569359,-0.00137470,-0.13970756,0.118
 89331,0.00206886,0.15126893,0.00046718,-0.00001947,-0.00020132,0.00000
 394,0.00011612,-0.00002541,-0.00058271,-0.00038322,0.00048594,-0.00008
 511,-0.00031609,0.00029582,0.00025660,-0.00013876,-0.00146590,0.001560
 87,0.11903782,-0.21127859,-0.00233427,-0.13255219,0.22739010,0.0011478
 1,0.00105375,0.00110567,-0.00062440,-0.00043300,-0.00055717,-0.0000880
 1,-0.00009311,0.00001979,0.00037890,-0.00013344,-0.00024993,-0.0034443
 0,0.01563949,0.02328474,-0.04789636,0.00106405,0.00102184,-0.00037853,
 0.00003408,0.00003400,0.05795237,-0.00163773,0.00034408,0.00019475,0.0
 0030741,0.00081814,0.00034131,0.00009215,0.00006656,0.00013573,-0.0001
 0989,0.00000011,0.00038624,0.00185858,-0.01173715,-0.01588985,0.001308
 35,-0.13518997,-0.11785177,-0.00022953,0.01271785,0.01624663,-0.000313
 24,0.14647653,-0.00052020,0.00000731,-0.00007798,0.00052671,0.00035642
 ,0.00054496,0.00002853,-0.00010663,-0.00008706,0.00007759,0.00033097,0
 .00031614,-0.00075833,0.00042378,-0.00137510,0.00188440,-0.11805220,-0
 .21598921,0.00037823,-0.01552409,-0.02195786,-0.00139460,0.13148951,0.
 23286446,-0.00320200,0.00354596,0.00007238,0.00009505,-0.00006315,-0.0
 0025034,0.00014195,-0.00007616,0.00024391,-0.00070743,-0.00117746,-0.0
 0006310,-0.02550831,-0.01248500,-0.00070090,-0.15629817,-0.05330118,-0
 .00124353,-0.00271860,-0.00149750,0.00016027,-0.00096524,-0.00092956,0
 .00011594,0.50418131,0.00371694,-0.00276636,-0.00015756,0.00005413,0.0
 0002454,0.00029884,0.00012133,0.00006705,-0.00025183,0.00158908,0.0012
 0034,0.00008328,0.01149092,0.01445030,0.00007413,-0.05065876,-0.119301
 10,-0.00157684,-0.01832989,-0.01172977,-0.00109077,-0.01797008,-0.0117
 4391,0.00077118,-0.04631895,0.55032803,-0.00012198,0.00005380,-0.00039
 455,0.00020710,0.00026032,0.00034291,-0.00026522,-0.00029470,0.0002484
 7,-0.00003679,-0.00004130,0.00073704,-0.00007562,0.00007831,-0.0004392
 6,-0.00194458,-0.00090156,-0.08256827,0.02431849,0.01554309,0.00144270
 ,-0.02424008,-0.01552501,0.00075107,-0.00408615,-0.00191924,0.57549170
 ,-0.00000659,0.00002879,-0.00018270,0.00001306,-0.00003673,0.00001048,
 0.00018496,0.00020463,-0.00014383,-0.00009147,0.00011599,-0.00011387,0
 .00115355,-0.00036152,0.00085585,-0.00165590,-0.01591357,0.02535337,-0
 .00488201,-0.00343998,-0.00024619,0.00128087,0.00077380,-0.00045011,-0
 .05134267,-0.01282490,0.02002346,0.05471533,-0.00003090,0.00006874,0.0
 0014758,0.00002062,-0.00002347,-0.00000720,0.00006595,0.00008485,-0.00
 011168,-0.00010767,0.00003880,-0.00007720,0.00069014,-0.00005449,-0.00
 014397,-0.00149760,-0.01105035,0.01559137,-0.00378434,-0.00125158,-0.0
 0057418,0.00061574,0.00028700,-0.00015272,-0.01318640,-0.12787045,0.11
 858215,0.01629835,0.13749581,0.00017863,-0.00015410,0.00011750,0.00000
 135,0.00002015,-0.00000864,-0.00002754,-0.00008003,0.00004350,0.000107
 77,0.00003899,-0.00001152,-0.00018373,0.00075551,-0.00028968,0.0006338
 9,-0.00157196,0.00217557,-0.00064800,-0.00047105,0.00161363,0.00056380
 ,0.00011732,0.00093297,0.02086635,0.11886801,-0.23217211,-0.02131802,-
 0.13258111,0.24954375,-0.00129762,0.00139319,0.00005017,0.00003188,-0.
 00002240,-0.00008549,0.00001136,-0.00003024,0.00007842,-0.00057359,-0.
 00046150,-0.00002592,-0.00215057,-0.00519502,-0.00006733,-0.02243588,0
 .01805497,-0.00138677,0.00108875,0.00016777,0.00069519,0.00087325,-0.0
 0000926,-0.00058035,-0.21375386,0.12652865,-0.01395161,0.00327536,-0.0
 0228558,-0.00056024,0.23373521,-0.00090784,0.00062169,0.00004090,0.000
 05517,0.00002652,-0.00003067,0.00002689,0.00001680,0.00002206,-0.00034
 476,-0.00022683,-0.00000556,-0.00257773,-0.00255284,-0.00004517,-0.017
 69302,0.01273940,-0.00109360,0.00072610,0.00103539,-0.00002494,0.00083
 528,0.00071276,-0.00003358,0.12730664,-0.14482301,0.01044207,0.0136774
 9,-0.01116112,0.00007715,-0.13693104,0.15577835,-0.00011040,-0.0001332
 3,0.00024987,0.00003953,0.00005824,-0.00000103,-0.00000983,-0.00003717
 ,-0.00000453,0.00002665,-0.00000965,0.00001135,0.00018687,0.00020608,0
 .00014090,-0.00012449,0.00035609,-0.00113045,0.00031029,-0.00037311,0.
 00023476,-0.00013721,0.00032435,-0.00004525,-0.01415571,0.01045824,-0.
 05079184,-0.02339521,0.01706022,-0.00120684,0.01512529,-0.01200220,0.0
 4930315,-0.00013141,-0.00018803,0.00024996,0.00020219,0.00025281,0.000
 21230,0.00002185,-0.00001401,-0.00004140,-0.00003213,0.00012126,0.0001
 0164,0.00178493,0.00009083,-0.00073427,0.00013872,-0.01825754,-0.02454
 599,0.00102160,0.00070240,0.00049157,-0.00497559,-0.00361388,0.0001166
 8,-0.04845748,0.00030266,-0.00034050,-0.00092870,0.00194258,0.00154032
 ,0.00080808,0.01529060,0.02221070,0.05123415,-0.00008745,-0.00004452,0
 .00003779,0.00013201,0.00010270,0.00010707,0.00000582,-0.00004106,-0.0
 0001604,-0.00007920,0.00004990,0.00006381,0.00088102,0.00039939,0.0002
 0157,-0.00026832,-0.01181192,-0.01488843,0.00056161,0.00011991,0.00018
 791,-0.00353595,-0.00123180,0.00051609,-0.00007465,-0.14878169,-0.1260
 7523,0.00012351,0.01324749,0.01507961,-0.00063668,-0.01226470,-0.01580
 372,0.00298528,0.15984278,-0.00023778,0.00008534,0.00007613,0.00006611
 ,0.00007013,0.00003290,0.00003190,0.00001491,-0.00002238,-0.00008829,-
 0.00002071,-0.00000729,0.00021394,-0.00071886,-0.00009191,-0.00116304,
 0.00035004,0.00040042,-0.00052095,-0.00005756,0.00066638,0.00022459,0.
 00005138,0.00153879,-0.00066335,-0.12597423,-0.21326133,0.00053068,-0.
 01767578,-0.02097552,0.00080800,0.00284092,0.00295392,0.00025953,0.140
 44915,0.22888315,0.00070839,-0.01228469,-0.01716837,-0.00215808,-0.003
 88499,-0.00149856,0.00034441,0.00086962,0.00009725,0.00123619,-0.00046
 040,-0.00050431,-0.05364050,0.02317176,0.00267386,-0.00436713,0.016878
 18,0.02168532,0.00059709,-0.00026386,0.00025757,-0.00396869,0.00300538
 ,0.00058150,-0.00108972,0.00071622,0.00038665,0.00000630,-0.00009285,0
 .00006188,0.00011507,0.00049816,0.00038232,-0.00024936,0.00021674,0.00
 075890,0.20318581,-0.00624803,-0.01977032,-0.02022599,-0.00270399,-0.0
 0262517,-0.00165029,0.00096169,0.00091791,-0.00105662,0.00135091,0.001
 29468,0.00069624,0.02251891,-0.11253453,-0.05948631,0.00729012,-0.0177
 3818,-0.01847962,-0.00075732,0.00062712,-0.00103063,0.00360408,-0.0016
 9060,-0.00051825,-0.00121144,0.00065296,-0.00016594,0.00019102,-0.0000
 0298,-0.00007315,-0.00042429,-0.00000724,0.00017307,0.00036373,0.00033
 858,0.00039446,-0.22476851,0.48868005,-0.00907764,-0.01350540,-0.00703
 531,0.00016904,-0.00016605,0.00053534,0.00102015,0.00141853,0.00086258
 ,0.00110355,0.00061177,-0.00012438,0.00023082,-0.05687407,-0.17243580,
 0.00748588,-0.00717520,-0.00142290,-0.00091306,0.00158588,0.00063349,-
 0.00127973,0.00131308,0.00075570,-0.00019958,0.00102100,0.00033971,0.0
 0000211,-0.00017601,-0.00010649,-0.00059204,-0.00032849,-0.00003211,-0
 .00010198,-0.00046645,-0.00016022,0.07821771,-0.00889991,0.54594776,0.
 00002234,0.00066601,0.00092077,0.00017684,0.00015442,0.00018939,-0.000
 00080,-0.00036394,0.00000686,-0.00006105,-0.00002592,-0.00014310,0.001
 85834,0.00060873,0.00127591,0.00070454,-0.00096063,0.00081109,0.000222
 72,0.00004054,-0.00004528,-0.00009549,-0.00010606,-0.00019272,0.000064
 45,0.00008349,0.00018033,0.00003587,-0.00000585,-0.00007495,-0.0000153
 4,-0.00008446,-0.00009539,-0.00040349,-0.00007538,0.00013087,-0.041550
 55,0.04802985,-0.07083474,0.03893559,0.00046040,0.00079544,0.00029044,
 0.00008477,-0.00004932,0.00019874,-0.00010589,-0.00020977,0.00023611,-
 0.00014705,-0.00011229,-0.00007623,-0.00464620,0.00927021,-0.01403988,
 -0.00017121,0.00127044,-0.00027996,-0.00002529,-0.00023213,0.00028069,
 -0.00025015,0.00000631,0.00016819,0.00019534,0.00008971,0.00022504,-0.
 00005594,-0.00006389,-0.00004102,0.00002474,-0.00004354,-0.00007837,-0
 .00020666,-0.00007543,-0.00004802,0.05206101,-0.09311233,0.09821632,-0
 .05264122,0.08852350,0.00054539,0.00072801,-0.00008313,-0.00007982,-0.
 00032355,0.00009765,-0.00034340,-0.00060897,0.00027828,-0.00000785,-0.
 00004963,0.00000871,-0.00544541,0.01393889,-0.01435912,-0.00128629,0.0
 0145058,0.00034872,0.00050831,-0.00097992,0.00039210,-0.00001353,-0.00
 015739,0.00040277,0.00021882,-0.00035820,-0.00015199,-0.00018131,0.000
 00803,0.00019816,0.00010222,0.00010373,0.00012744,0.00034955,0.0003178
 4,0.00002237,-0.07616116,0.09533134,-0.27599452,0.07971533,-0.10352733
 ,0.28914992,-0.00055487,0.00048396,0.00083910,0.00005208,0.00028790,-0
 .00003435,0.00001428,-0.00013687,-0.00011277,-0.00014600,0.00002684,-0
 .00008366,0.00238815,-0.00110818,-0.00142587,-0.00030187,0.00085638,0.
 00050277,0.00006638,-0.00021332,-0.00000691,-0.00015319,0.00017447,0.0
 0025007,0.00011986,0.00017898,0.00019549,-0.00007138,0.,0.00011291,-0.
 00001323,-0.00005661,0.00000562,0.00001483,0.00007185,-0.00017048,-0.1
 0066871,0.15290337,-0.00564698,-0.00072444,0.00525199,0.00183483,0.099
 84051,0.00039252,0.00034749,0.00038878,-0.00021762,0.00010143,-0.00015
 838,0.00002805,0.00002751,-0.00007778,-0.00063105,-0.00012550,-0.00015
 528,0.00991348,-0.00761368,0.00406127,-0.00187042,-0.00066787,-0.00278
 361,-0.00019117,0.00021834,0.00011622,0.00089041,-0.00033148,-0.000134
 37,-0.00025669,-0.00015775,0.00005765,0.00005803,0.00004794,-0.0000584
 5,0.00009259,0.00006149,0.00001469,-0.00001014,0.00006510,0.00008058,0
 .14612997,-0.25460054,-0.00478076,0.00510649,-0.00501738,-0.00230805,-
 0.15858321,0.26631083,0.00086144,0.00005121,-0.00071104,-0.00039736,-0
 .00020035,-0.00007510,-0.00008990,-0.00010327,0.00001516,-0.00037772,0
 .00001700,0.00015292,0.01321173,-0.01810892,0.00373372,-0.00094297,-0.
 00212239,-0.00409734,-0.00000352,-0.00031716,0.00022748,0.00135428,-0.
 00103890,0.00009895,-0.00015265,-0.00021335,0.00008350,0.00003343,0.00
 005571,0.00000887,0.00009448,0.00008554,0.00001022,0.00020928,0.000213
 50,0.00001245,-0.00498647,-0.00450815,-0.05576545,-0.01320782,0.021279
 94,0.00369002,0.00389642,0.00529393,0.05094675,-0.00114597,-0.01848973
 ,0.02073112,0.00077209,0.00079104,0.00023511,-0.00408360,-0.00421711,0
 .00062997,0.00051006,-0.00051087,0.00089530,-0.07812785,0.00584282,-0.
 00335302,-0.00282955,0.01886901,-0.02411980,-0.00531627,0.00361958,-0.
 00072081,0.00083967,-0.00080864,-0.00020176,0.00034795,0.00067378,-0.0
 0037553,-0.00074239,0.00045965,-0.00018652,0.00023356,-0.00013383,-0.0
 0008305,-0.00016429,-0.00013972,-0.00032927,0.00026247,-0.00180732,0.0
 0024476,0.00039247,0.00045687,0.00041355,0.00036840,-0.00021916,0.0010
 0145,0.58097487,-0.00400056,-0.01996989,0.02198625,0.00094030,0.000638
 16,0.00076795,-0.00288608,-0.00294591,0.00008044,0.00158043,0.00126853
 ,-0.00047012,0.00416103,-0.10974490,0.04268824,0.00593567,-0.01334141,
 0.01468830,0.00235802,-0.00096075,-0.00013533,-0.00069962,0.00021145,0
 .00061018,0.00057835,0.00061788,-0.00129000,-0.00009333,-0.00007882,0.
 00112621,-0.00046226,-0.00058082,0.00040856,0.00011888,0.00011269,-0.0
 0001612,-0.00262513,0.01087543,-0.01193430,-0.00034239,-0.00198533,-0.
 00461598,0.00037497,0.00068738,-0.00102764,0.00907589,0.54226156,0.002
 82051,0.00563012,-0.00154541,-0.00061655,-0.00123363,0.00055656,-0.000
 89340,-0.00135113,0.00078485,-0.00064211,-0.00057917,0.00005455,0.0002
 9100,0.04653663,-0.13672996,-0.00544232,0.00386898,-0.00157801,0.00111
 478,-0.00163300,0.00096145,0.00093292,-0.00145501,0.00066096,0.0000962
 7,-0.00059766,0.00007643,-0.00014202,0.00024889,0.00005926,0.00044356,
 0.00017199,0.00014497,-0.00003715,0.00007873,-0.00001269,-0.00288727,0
 .01334768,-0.03532387,0.00082264,-0.00181702,-0.00311074,-0.00065929,0
 .00128135,0.00182910,-0.00881606,0.05796681,0.50177723,0.00066801,-0.0
 0083058,0.00056152,-0.00002827,-0.00001774,-0.00007174,0.00026056,-0.0
 0007279,-0.00013386,0.00061570,0.00021443,0.00005555,-0.00235015,0.000
 37498,0.00012653,0.00098519,-0.00046382,-0.00072119,-0.00006823,0.0002
 0999,-0.00009749,0.00004097,-0.00007365,0.00012077,0.00002167,0.000072
 03,0.00036391,0.00031163,0.00013510,-0.00028858,-0.00001711,0.00013916
 ,-0.00015454,-0.00000630,-0.00002166,-0.00006884,0.00021494,0.00040177
 ,0.00063412,0.00014660,-0.00032710,-0.00015144,0.00013759,-0.00045078,
 -0.00059330,-0.25404967,0.10708429,-0.00324581,0.27502106,0.00156235,0
 .00036529,-0.00072573,0.00000571,-0.00013753,0.00001411,-0.00028508,0.
 00037395,-0.00014860,-0.00091445,-0.00013104,0.00039128,0.01767396,-0.
 01066778,-0.00020942,-0.00132226,-0.00198904,0.00412922,0.00141422,-0.
 00065031,0.00039768,-0.00032102,0.00035338,-0.00002028,-0.00067950,-0.
 00011094,0.00025866,0.00017001,0.00017159,-0.00040040,0.00010358,0.000
 18583,-0.00018244,0.00008965,0.00003564,0.00006265,-0.00051343,0.00027
 991,-0.00118543,-0.00013090,0.00002448,0.00002832,-0.00003718,0.000459
 05,0.00015010,0.10634041,-0.10420408,0.00071447,-0.11799240,0.11165909
 ,-0.00096467,-0.00086173,0.00084416,0.00019354,0.00001307,-0.00002371,
 -0.00004944,-0.00037489,-0.00003637,0.00058624,0.00011238,0.00012679,-
 0.02461537,0.01270110,-0.00113022,0.00103938,0.00242576,-0.00467533,-0
 .00146631,0.00114497,0.00013190,0.00002008,0.00029462,0.00020265,0.000
 49686,0.00027208,-0.00002891,-0.00011164,-0.00023910,0.00009049,-0.000
 05533,-0.00006986,0.00006131,-0.00001984,-0.00006581,0.00002344,-0.000
 69865,0.00099245,0.00141944,0.00017297,-0.00021564,0.00024602,0.000204
 78,-0.00062348,-0.00031115,-0.00251743,0.00027992,-0.04868961,0.003038
 19,-0.00400389,0.05126889,-0.00016010,0.00040274,0.00083857,0.00019170
 ,-0.00034807,0.00009378,-0.00010081,-0.00002742,-0.00020821,-0.0000093
 9,0.00005995,0.00011483,-0.00096568,-0.00088524,-0.00243292,0.00031523
 ,-0.00061405,-0.00096076,-0.00001819,-0.00003808,0.00016361,0.00012194
 ,0.00023941,0.00004423,-0.00000017,0.00006971,-0.00007942,-0.00010341,
 -0.00019075,-0.00000266,-0.00001873,0.00002806,0.00006890,0.00009563,0
 .00000615,0.00017197,0.00041043,0.00044822,-0.00022297,0.00031918,-0.0
 0014574,-0.00010928,-0.00001429,-0.00022664,-0.00015035,-0.05195099,0.
 01172907,0.01942737,-0.00149983,0.01587837,0.02576512,0.05022130,0.000
 27205,0.00112483,0.00032272,-0.00003464,-0.00009247,-0.00010336,0.0002
 0530,0.00023569,-0.00015509,-0.00009899,-0.00009421,-0.00003883,-0.002
 52546,0.01033388,0.01694500,-0.00020973,0.00116169,0.00027843,-0.00028
 739,0.00017125,-0.00013818,-0.00004024,-0.00005360,-0.00024277,-0.0000
 1323,0.00007488,-0.00012983,-0.00002188,-0.00012589,-0.00005748,-0.000
 00009,0.00005377,-0.00000270,-0.00003706,-0.00007931,0.00011649,0.0008
 6644,-0.00205214,0.00267144,-0.00001619,0.00086394,0.00094907,-0.00033
 773,0.00008993,0.00025189,0.01210540,-0.12559930,-0.11816205,0.0001556
 5,-0.00845562,-0.01195987,-0.01382753,0.13440625,-0.00064355,-0.001660
 66,0.00075667,0.00054915,0.00104172,0.00050775,-0.00020261,0.00018913,
 0.00044071,0.00002409,0.00010882,-0.00000727,0.00280823,-0.01508252,-0
 .02243422,0.00088513,-0.00164382,0.00042557,0.00017482,0.00016982,0.00
 046745,-0.00059420,0.00099304,0.00047319,-0.00029932,0.00019190,-0.000
 03593,-0.00016340,-0.00015820,-0.00009439,-0.00008102,-0.00001139,0.00
 003502,0.00021544,0.00006010,0.00015885,-0.00131602,0.00462087,-0.0037
 9312,0.00031154,-0.00074406,-0.00142810,0.00002026,0.00003779,0.000315
 23,0.01967743,-0.11719318,-0.23025809,0.00035995,0.00085409,0.00133506
 ,-0.02118436,0.12797263,0.25247454,0.00031140,0.00001514,0.00053219,-0
 .00005384,0.00009205,-0.00014238,0.00027887,-0.00012358,-0.00017822,0.
 00048560,0.00013652,-0.00019397,0.00228722,0.00268194,0.00069802,0.000
 00132,0.00010011,0.00052719,0.00012288,-0.00019639,0.00002797,-0.00004
 597,0.00007189,-0.00002659,-0.00092858,0.00050464,-0.00015796,-0.00115
 241,0.00095379,-0.00077667,0.00010339,0.00014574,-0.00009032,0.0000267
 7,-0.00006499,0.00004550,0.00061166,-0.00014277,-0.00023942,-0.0000278
 1,0.00018735,0.00009148,-0.00035409,0.00004533,0.00023955,-0.18629097,
 -0.13282752,-0.00256707,-0.02040437,-0.02104203,-0.00101849,0.00316617
 ,0.00384529,-0.00054158,0.20186275,0.00118760,-0.00212630,0.00419151,0
 .00039176,0.00047688,-0.00002233,-0.00126322,-0.00067363,0.00023629,-0
 .00014909,0.00017663,-0.00001446,-0.01312334,-0.01258655,-0.00145066,-
 0.00118352,-0.00013592,-0.00044169,0.00015601,0.00018546,0.00002068,0.
 00005296,-0.00001564,0.00011126,-0.00035544,-0.00022072,0.00084171,0.0
 0110624,0.00024083,-0.00059419,0.00009288,0.00042812,-0.00043696,0.000
 06664,0.00001626,-0.00000478,0.00048038,0.00046738,-0.00134595,0.00006
 340,0.00005739,0.00007321,-0.00013763,0.00009773,0.00024131,-0.1319080
 7,-0.17726188,-0.00301698,0.01146311,0.01243812,0.00017793,-0.01255816
 ,-0.01196357,0.00025391,0.14561749,0.19039941,-0.00116567,0.00268264,-
 0.00488156,-0.00014115,0.00025854,0.00022206,0.00127542,0.00154521,0.0
 0023770,-0.00015084,-0.00023792,-0.00009154,0.02068491,0.01753978,0.00
 061435,0.00040821,-0.00072275,0.00073956,0.00012242,-0.00014007,-0.000
 01412,-0.00009526,0.00002998,-0.00001015,-0.00045619,0.00010102,0.0003
 3065,-0.00036107,0.00020320,0.00008148,-0.00001126,-0.00013891,-0.0000
 6088,-0.00013584,0.00000253,-0.00023747,0.00011785,0.00053872,0.001700
 15,0.00005629,-0.00002794,0.00016543,0.00027806,-0.00025212,-0.0001642
 8,-0.00312546,-0.00392018,-0.04965699,0.00026626,-0.00012439,-0.000854
 86,-0.02133746,-0.01851752,0.00066107,0.00377078,0.00118018,0.05121941
 \\0.00000059,0.00000041,0.00000069,-0.00000012,-0.00000056,0.00000016,
 0.00000007,0.00000008,0.00000035,0.00000014,-0.00000023,0.00000015,-0.
 00000096,0.00000054,0.00000066,0.00000076,-0.00000031,0.00000042,-0.00
 000015,0.00000035,0.00000016,-0.00000013,-0.00000009,0.00000021,-0.000
 00016,0.00000021,-0.00000012,-0.00000003,-0.00000004,-0.00000023,0.000
 00016,0.00000027,-0.00000010,-0.00000007,0.00000024,-0.00000043,0.0000
 0054,-0.00000076,-0.00000167,-0.00000007,0.00000079,0.00000027,-0.0000
 0004,0.00000030,0.00000020,-0.00000006,0.00000010,-0.00000023,-0.00000
 003,-0.00000044,-0.00000014,-0.00000019,-0.00000053,-0.00000006,-0.000
 00025,-0.00000033,-0.00000030\\\@


 The chemist is a guest at the physicist's table and
 frequently dines well.
                   -- Richard Bersohn
 Job cpu time:       0 days  0 hours 30 minutes 13.3 seconds.
 File lengths (MBytes):  RWF=     64 Int=      0 D2E=      0 Chk=      3 Scr=      1
 Normal termination of Gaussian 09 at Sat Nov  7 02:31:26 2015.
