 Entering Gaussian System, Link 0=/share/apps/g09/g09
 Input=C6H14_2_02_1_opt_B3L.gjf
 Output=C6H14_2_02_1_opt_B3L.log
 Initial command:
 /share/apps/g09/l1.exe /state/partition1/Gau-7015.inp -scrdir=/state/partition1/
 Entering Link 1 = /share/apps/g09/l1.exe PID=      7016.
  
 Copyright (c) 1988,1990,1992,1993,1995,1998,2003,2009, Gaussian, Inc.
                  All Rights Reserved.
  
 This is part of the Gaussian(R) 09 program.  It is based on
 the Gaussian(R) 03 system (copyright 2003, Gaussian, Inc.),
 the Gaussian(R) 98 system (copyright 1998, Gaussian, Inc.),
 the Gaussian(R) 94 system (copyright 1995, Gaussian, Inc.),
 the Gaussian 92(TM) system (copyright 1992, Gaussian, Inc.),
 the Gaussian 90(TM) system (copyright 1990, Gaussian, Inc.),
 the Gaussian 88(TM) system (copyright 1988, Gaussian, Inc.),
 the Gaussian 86(TM) system (copyright 1986, Carnegie Mellon
 University), and the Gaussian 82(TM) system (copyright 1983,
 Carnegie Mellon University). Gaussian is a federally registered
 trademark of Gaussian, Inc.
  
 This software contains proprietary and confidential information,
 including trade secrets, belonging to Gaussian, Inc.
  
 This software is provided under written license and may be
 used, copied, transmitted, or stored only in accord with that
 written license.
  
 The following legend is applicable only to US Government
 contracts under FAR:
  
                    RESTRICTED RIGHTS LEGEND
  
 Use, reproduction and disclosure by the US Government is
 subject to restrictions as set forth in subparagraphs (a)
 and (c) of the Commercial Computer Software - Restricted
 Rights clause in FAR 52.227-19.
  
 Gaussian, Inc.
 340 Quinnipiac St., Bldg. 40, Wallingford CT 06492
  
  
 ---------------------------------------------------------------
 Warning -- This program may not be used in any manner that
 competes with the business of Gaussian, Inc. or will provide
 assistance to any competitor of Gaussian, Inc.  The licensee
 of this program is prohibited from giving any competitor of
 Gaussian, Inc. access to this program.  By using this program,
 the user acknowledges that Gaussian, Inc. is engaged in the
 business of creating and licensing software in the field of
 computational chemistry and represents and warrants to the
 licensee that it is not a competitor of Gaussian, Inc. and that
 it will not use this program in any manner prohibited above.
 ---------------------------------------------------------------
  

 Cite this work as:
 Gaussian 09, Revision A.01,
 M. J. Frisch, G. W. Trucks, H. B. Schlegel, G. E. Scuseria, 
 M. A. Robb, J. R. Cheeseman, G. Scalmani, V. Barone, B. Mennucci, 
 G. A. Petersson, H. Nakatsuji, M. Caricato, X. Li, H. P. Hratchian, 
 A. F. Izmaylov, J. Bloino, G. Zheng, J. L. Sonnenberg, M. Hada, 
 M. Ehara, K. Toyota, R. Fukuda, J. Hasegawa, M. Ishida, T. Nakajima, 
 Y. Honda, O. Kitao, H. Nakai, T. Vreven, J. A. Montgomery, Jr., 
 J. E. Peralta, F. Ogliaro, M. Bearpark, J. J. Heyd, E. Brothers, 
 K. N. Kudin, V. N. Staroverov, R. Kobayashi, J. Normand, 
 K. Raghavachari, A. Rendell, J. C. Burant, S. S. Iyengar, J. Tomasi, 
 M. Cossi, N. Rega, J. M. Millam, M. Klene, J. E. Knox, J. B. Cross, 
 V. Bakken, C. Adamo, J. Jaramillo, R. Gomperts, R. E. Stratmann, 
 O. Yazyev, A. J. Austin, R. Cammi, C. Pomelli, J. W. Ochterski, 
 R. L. Martin, K. Morokuma, V. G. Zakrzewski, G. A. Voth, 
 P. Salvador, J. J. Dannenberg, S. Dapprich, A. D. Daniels, 
 O. Farkas, J. B. Foresman, J. V. Ortiz, J. Cioslowski, 
 and D. J. Fox, Gaussian, Inc., Wallingford CT, 2009.
 
 ******************************************
 Gaussian 09:  EM64L-G09RevA.01  8-May-2009
                18-Sep-2015 
 ******************************************
 %mem=3GB
 %nprocshared=2
 Will use up to    2 processors via shared memory.
 -----------------------------------------
 #p B3LYP/6-31G(d) opt=tight int=ultrafine
 -----------------------------------------
 1/7=10,14=-1,18=20,19=15,26=3,38=1/1,3;
 2/9=110,12=2,17=6,18=5,40=1/2;
 3/5=1,6=6,7=1,11=2,16=1,25=1,30=1,71=1,74=-5,75=-5/1,2,3;
 4//1;
 5/5=2,38=5/2;
 6/7=2,8=2,9=2,10=2,28=1/1;
 7//1,2,3,16;
 1/7=10,14=-1,18=20,19=15/3(2);
 2/9=110/2;
 99//99;
 2/9=110/2;
 3/5=1,6=6,7=1,11=2,16=1,25=1,30=1,71=1,74=-5,75=-5/1,2,3;
 4/5=5,16=3/1;
 5/5=2,38=5/2;
 7//1,2,3,16;
 1/7=10,14=-1,18=20,19=15/3(-5);
 2/9=110/2;
 6/7=2,8=2,9=2,10=2,19=2,28=1/1;
 99/9=1/99;
 Leave Link    1 at Fri Sep 18 13:22:46 2015, MaxMem=  402653184 cpu:       0.1
 (Enter /share/apps/g09/l101.exe)
 ---------------------------------------------
 using B3LYP/6-31G(d) to do opt and freq calc.
 ---------------------------------------------
 Symbolic Z-matrix:
 Charge =  0 Multiplicity = 1
 C                     2.15016  -1.02873   0.01565 
 H                     1.932    -2.01195  -0.41352 
 H                     2.25276  -1.15665   1.09844 
 H                     3.1255   -0.71222  -0.36869 
 C                     1.05745  -0.00773  -0.33275 
 H                     0.98356   0.05724  -1.44704 
 C                    -0.3037   -0.4787    0.22229 
 H                    -0.31054  -0.39229   1.32484 
 H                    -0.43682  -1.55666   0.00888 
 C                    -1.48037   0.30733  -0.37144 
 H                    -1.4685    0.22563  -1.47588 
 H                    -1.36375   1.38591  -0.14651 
 C                    -2.82099  -0.18824   0.16734 
 H                    -2.87888  -0.08853   1.25711 
 H                    -3.65409   0.38097  -0.25936 
 H                    -2.98715  -1.24426  -0.07345 
 C                     1.4331    1.37829   0.20748 
 H                     0.67045   2.12365  -0.04248 
 H                     1.53802   1.37135   1.29758 
 H                     2.38344   1.72451  -0.21132 
 
 NAtoms=     20 NQM=     20 NQMF=      0 NMic=      0 NMicF=      0 NTot=     20.
                    Isotopes and Nuclear Properties:
 (Nuclear quadrupole moments (NQMom) in fm**2, nuclear magnetic moments (NMagM)
  in nuclear magnetons)

  Atom         1           2           3           4           5           6           7           8           9          10
 IAtWgt=          12           1           1           1          12           1          12           1           1          12
 AtmWgt=  12.0000000   1.0078250   1.0078250   1.0078250  12.0000000   1.0078250  12.0000000   1.0078250   1.0078250  12.0000000
 NucSpn=           0           1           1           1           0           1           0           1           1           0
 AtZEff=   0.0000000   0.0000000   0.0000000   0.0000000   0.0000000   0.0000000   0.0000000   0.0000000   0.0000000   0.0000000
 NQMom=    0.0000000   0.0000000   0.0000000   0.0000000   0.0000000   0.0000000   0.0000000   0.0000000   0.0000000   0.0000000
 NMagM=    0.0000000   2.7928460   2.7928460   2.7928460   0.0000000   2.7928460   0.0000000   2.7928460   2.7928460   0.0000000

  Atom        11          12          13          14          15          16          17          18          19          20
 IAtWgt=           1           1          12           1           1           1          12           1           1           1
 AtmWgt=   1.0078250   1.0078250  12.0000000   1.0078250   1.0078250   1.0078250  12.0000000   1.0078250   1.0078250   1.0078250
 NucSpn=           1           1           0           1           1           1           0           1           1           1
 AtZEff=   0.0000000   0.0000000   0.0000000   0.0000000   0.0000000   0.0000000   0.0000000   0.0000000   0.0000000   0.0000000
 NQMom=    0.0000000   0.0000000   0.0000000   0.0000000   0.0000000   0.0000000   0.0000000   0.0000000   0.0000000   0.0000000
 NMagM=    2.7928460   2.7928460   0.0000000   2.7928460   2.7928460   2.7928460   0.0000000   2.7928460   2.7928460   2.7928460
 Leave Link  101 at Fri Sep 18 13:22:46 2015, MaxMem=  402653184 cpu:       0.2
 (Enter /share/apps/g09/l103.exe)

 GradGradGradGradGradGradGradGradGradGradGradGradGradGradGradGradGradGrad
 Berny optimization.
 Initialization pass.
                           ----------------------------
                           !    Initial Parameters    !
                           ! (Angstroms and Degrees)  !
 --------------------------                            --------------------------
 ! Name  Definition              Value          Derivative Info.                !
 --------------------------------------------------------------------------------
 ! R1    R(1,2)                  1.0948         estimate D2E/DX2                !
 ! R2    R(1,3)                  1.0951         estimate D2E/DX2                !
 ! R3    R(1,4)                  1.0951         estimate D2E/DX2                !
 ! R4    R(1,5)                  1.5355         estimate D2E/DX2                !
 ! R5    R(5,6)                  1.1186         estimate D2E/DX2                !
 ! R6    R(5,7)                  1.5436         estimate D2E/DX2                !
 ! R7    R(5,17)                 1.5343         estimate D2E/DX2                !
 ! R8    R(7,8)                  1.106          estimate D2E/DX2                !
 ! R9    R(7,9)                  1.1069         estimate D2E/DX2                !
 ! R10   R(7,10)                 1.5346         estimate D2E/DX2                !
 ! R11   R(10,11)                1.1075         estimate D2E/DX2                !
 ! R12   R(10,12)                1.1079         estimate D2E/DX2                !
 ! R13   R(10,13)                1.5275         estimate D2E/DX2                !
 ! R14   R(13,14)                1.0959         estimate D2E/DX2                !
 ! R15   R(13,15)                1.0955         estimate D2E/DX2                !
 ! R16   R(13,16)                1.0958         estimate D2E/DX2                !
 ! R17   R(17,18)                1.0953         estimate D2E/DX2                !
 ! R18   R(17,19)                1.0952         estimate D2E/DX2                !
 ! R19   R(17,20)                1.0947         estimate D2E/DX2                !
 ! A1    A(2,1,3)              107.5395         estimate D2E/DX2                !
 ! A2    A(2,1,4)              107.427          estimate D2E/DX2                !
 ! A3    A(2,1,5)              111.4945         estimate D2E/DX2                !
 ! A4    A(3,1,4)              107.298          estimate D2E/DX2                !
 ! A5    A(3,1,5)              111.6333         estimate D2E/DX2                !
 ! A6    A(4,1,5)              111.2228         estimate D2E/DX2                !
 ! A7    A(1,5,6)              108.1579         estimate D2E/DX2                !
 ! A8    A(1,5,7)              110.063          estimate D2E/DX2                !
 ! A9    A(1,5,17)             110.2761         estimate D2E/DX2                !
 ! A10   A(6,5,7)              108.5216         estimate D2E/DX2                !
 ! A11   A(6,5,17)             108.3275         estimate D2E/DX2                !
 ! A12   A(7,5,17)             111.403          estimate D2E/DX2                !
 ! A13   A(5,7,8)              109.8821         estimate D2E/DX2                !
 ! A14   A(5,7,9)              109.5035         estimate D2E/DX2                !
 ! A15   A(5,7,10)             112.38           estimate D2E/DX2                !
 ! A16   A(8,7,9)              105.5186         estimate D2E/DX2                !
 ! A17   A(8,7,10)             109.9346         estimate D2E/DX2                !
 ! A18   A(9,7,10)             109.3905         estimate D2E/DX2                !
 ! A19   A(7,10,11)            109.866          estimate D2E/DX2                !
 ! A20   A(7,10,12)            109.8391         estimate D2E/DX2                !
 ! A21   A(7,10,13)            111.7358         estimate D2E/DX2                !
 ! A22   A(11,10,12)           105.8511         estimate D2E/DX2                !
 ! A23   A(11,10,13)           109.7081         estimate D2E/DX2                !
 ! A24   A(12,10,13)           109.6707         estimate D2E/DX2                !
 ! A25   A(10,13,14)           111.569          estimate D2E/DX2                !
 ! A26   A(10,13,15)           111.192          estimate D2E/DX2                !
 ! A27   A(10,13,16)           111.6072         estimate D2E/DX2                !
 ! A28   A(14,13,15)           107.4508         estimate D2E/DX2                !
 ! A29   A(14,13,16)           107.3494         estimate D2E/DX2                !
 ! A30   A(15,13,16)           107.4464         estimate D2E/DX2                !
 ! A31   A(5,17,18)            111.3406         estimate D2E/DX2                !
 ! A32   A(5,17,19)            111.6056         estimate D2E/DX2                !
 ! A33   A(5,17,20)            111.3179         estimate D2E/DX2                !
 ! A34   A(18,17,19)           107.3481         estimate D2E/DX2                !
 ! A35   A(18,17,20)           107.5742         estimate D2E/DX2                !
 ! A36   A(19,17,20)           107.4359         estimate D2E/DX2                !
 ! D1    D(2,1,5,6)            -58.2155         estimate D2E/DX2                !
 ! D2    D(2,1,5,7)             60.1886         estimate D2E/DX2                !
 ! D3    D(2,1,5,17)          -176.5067         estimate D2E/DX2                !
 ! D4    D(3,1,5,6)           -178.5211         estimate D2E/DX2                !
 ! D5    D(3,1,5,7)            -60.117          estimate D2E/DX2                !
 ! D6    D(3,1,5,17)            63.1877         estimate D2E/DX2                !
 ! D7    D(4,1,5,6)             61.6668         estimate D2E/DX2                !
 ! D8    D(4,1,5,7)           -179.9291         estimate D2E/DX2                !
 ! D9    D(4,1,5,17)           -56.6244         estimate D2E/DX2                !
 ! D10   D(1,5,7,8)             71.0739         estimate D2E/DX2                !
 ! D11   D(1,5,7,9)            -44.3885         estimate D2E/DX2                !
 ! D12   D(1,5,7,10)          -166.1743         estimate D2E/DX2                !
 ! D13   D(6,5,7,8)           -170.746          estimate D2E/DX2                !
 ! D14   D(6,5,7,9)             73.7917         estimate D2E/DX2                !
 ! D15   D(6,5,7,10)           -47.9941         estimate D2E/DX2                !
 ! D16   D(17,5,7,8)           -51.5696         estimate D2E/DX2                !
 ! D17   D(17,5,7,9)          -167.032          estimate D2E/DX2                !
 ! D18   D(17,5,7,10)           71.1822         estimate D2E/DX2                !
 ! D19   D(1,5,17,18)          179.2897         estimate D2E/DX2                !
 ! D20   D(1,5,17,19)          -60.7731         estimate D2E/DX2                !
 ! D21   D(1,5,17,20)           59.2603         estimate D2E/DX2                !
 ! D22   D(6,5,17,18)           61.1026         estimate D2E/DX2                !
 ! D23   D(6,5,17,19)         -178.9603         estimate D2E/DX2                !
 ! D24   D(6,5,17,20)          -58.9269         estimate D2E/DX2                !
 ! D25   D(7,5,17,18)          -58.1893         estimate D2E/DX2                !
 ! D26   D(7,5,17,19)           61.7478         estimate D2E/DX2                !
 ! D27   D(7,5,17,20)         -178.2188         estimate D2E/DX2                !
 ! D28   D(5,7,10,11)           56.9004         estimate D2E/DX2                !
 ! D29   D(5,7,10,12)          -59.1466         estimate D2E/DX2                !
 ! D30   D(5,7,10,13)          178.9101         estimate D2E/DX2                !
 ! D31   D(8,7,10,11)          179.6227         estimate D2E/DX2                !
 ! D32   D(8,7,10,12)           63.5757         estimate D2E/DX2                !
 ! D33   D(8,7,10,13)          -58.3677         estimate D2E/DX2                !
 ! D34   D(9,7,10,11)          -64.9497         estimate D2E/DX2                !
 ! D35   D(9,7,10,12)          179.0033         estimate D2E/DX2                !
 ! D36   D(9,7,10,13)           57.0599         estimate D2E/DX2                !
 ! D37   D(7,10,13,14)          59.8578         estimate D2E/DX2                !
 ! D38   D(7,10,13,15)         179.7996         estimate D2E/DX2                !
 ! D39   D(7,10,13,16)         -60.2385         estimate D2E/DX2                !
 ! D40   D(11,10,13,14)       -178.0418         estimate D2E/DX2                !
 ! D41   D(11,10,13,15)        -58.1001         estimate D2E/DX2                !
 ! D42   D(11,10,13,16)         61.8619         estimate D2E/DX2                !
 ! D43   D(12,10,13,14)        -62.1824         estimate D2E/DX2                !
 ! D44   D(12,10,13,15)         57.7594         estimate D2E/DX2                !
 ! D45   D(12,10,13,16)        177.7214         estimate D2E/DX2                !
 --------------------------------------------------------------------------------
 Trust Radius=3.00D-01 FncErr=1.00D-07 GrdErr=1.00D-06
 Number of steps in this run= 110 maximum allowed number of steps= 120.
 GradGradGradGradGradGradGradGradGradGradGradGradGradGradGradGradGradGrad

 Leave Link  103 at Fri Sep 18 13:22:46 2015, MaxMem=  402653184 cpu:       0.0
 (Enter /share/apps/g09/l202.exe)
                          Input orientation:                          
 ---------------------------------------------------------------------
 Center     Atomic      Atomic             Coordinates (Angstroms)
 Number     Number       Type             X           Y           Z
 ---------------------------------------------------------------------
      1          6           0        2.150165   -1.028734    0.015649
      2          1           0        1.931998   -2.011946   -0.413515
      3          1           0        2.252757   -1.156654    1.098444
      4          1           0        3.125501   -0.712223   -0.368691
      5          6           0        1.057451   -0.007729   -0.332751
      6          1           0        0.983562    0.057242   -1.447037
      7          6           0       -0.303697   -0.478702    0.222287
      8          1           0       -0.310536   -0.392286    1.324837
      9          1           0       -0.436821   -1.556664    0.008878
     10          6           0       -1.480369    0.307327   -0.371443
     11          1           0       -1.468496    0.225630   -1.475880
     12          1           0       -1.363745    1.385914   -0.146507
     13          6           0       -2.820985   -0.188237    0.167341
     14          1           0       -2.878876   -0.088528    1.257110
     15          1           0       -3.654093    0.380969   -0.259357
     16          1           0       -2.987152   -1.244259   -0.073454
     17          6           0        1.433101    1.378291    0.207482
     18          1           0        0.670449    2.123645   -0.042479
     19          1           0        1.538018    1.371354    1.297579
     20          1           0        2.383438    1.724507   -0.211322
 ---------------------------------------------------------------------
                    Distance matrix (angstroms):
                    1          2          3          4          5
     1  C    0.000000
     2  H    1.094753   0.000000
     3  H    1.095141   1.766474   0.000000
     4  H    1.095069   1.765145   1.763997   0.000000
     5  C    1.535532   2.188205   2.190229   2.185048   0.000000
     6  H    2.163275   2.499848   3.092551   2.518493   1.118622
     7  C    2.523227   2.784495   2.786167   3.487576   1.543569
     8  H    2.859036   3.267128   2.684396   3.844053   2.183316
     9  H    2.640313   2.448877   2.929333   3.680459   2.179165
    10  C    3.887888   4.126142   4.270836   4.717365   2.557594
    11  H    4.110085   4.206985   4.731340   4.817701   2.782375
    12  H    4.266659   4.741167   4.592781   4.960330   2.799842
    13  C    5.043984   5.123881   5.248585   5.993545   3.914708
    14  H    5.264643   5.443807   5.244018   6.251781   4.246040
    15  H    5.979323   6.078998   6.252902   6.868036   4.728120
    16  H    5.142608   4.990293   5.370071   6.142862   4.237341
    17  C    2.518879   3.482563   2.809198   2.750717   1.534280
    18  H    3.482877   4.339618   3.816512   3.765082   2.185585
    19  H    2.788995   3.811795   2.634641   3.104489   2.188787
    20  H    2.772412   3.769053   3.167594   2.552073   2.184863
                    6          7          8          9         10
     6  H    0.000000
     7  C    2.175067   0.000000
     8  H    3.091933   1.105953   0.000000
     9  H    2.596511   1.106918   1.761667   0.000000
    10  C    2.700074   1.534573   2.176082   2.169815   0.000000
    11  H    2.458002   2.176376   3.093009   2.538785   1.107518
    12  H    2.994428   2.176351   2.536947   3.089029   1.107947
    13  C    4.140176   2.534586   2.771964   2.753532   1.527456
    14  H    4.717212   2.802613   2.587127   3.110810   2.182821
    15  H    4.798252   3.492301   3.779810   3.765264   2.177857
    16  H    4.398546   2.806149   3.137730   2.570713   2.183257
    17  C    2.164414   2.542658   2.724646   3.485687   3.157598
    18  H    2.518103   2.791285   3.026845   3.843613   2.834298
    19  H    3.093094   2.823274   2.555058   3.759525   3.609494
    20  H    2.503281   3.501834   3.754743   4.332255   4.118621
                   11         12         13         14         15
    11  H    0.000000
    12  H    1.767615   0.000000
    13  C    2.168107   2.167948   0.000000
    14  H    3.091456   2.537665   1.095851   0.000000
    15  H    2.506171   2.503666   1.095507   1.766652   0.000000
    16  H    2.536472   3.091698   1.095799   1.765740   1.766561
    17  C    3.547055   2.819169   4.533527   4.674016   5.205010
    18  H    3.198779   2.166337   4.192724   4.379538   4.667507
    19  H    4.247809   3.241269   4.765571   4.652080   5.510257
    20  H    4.322399   3.763008   5.557697   5.756330   6.185401
                   16         17         18         19         20
    16  H    0.000000
    17  C    5.147361   0.000000
    18  H    4.972100   1.095295   0.000000
    19  H    5.403548   1.095156   1.764759   0.000000
    20  H    6.138063   1.094716   1.766961   1.765286   0.000000
 Stoichiometry    C6H14
 Framework group  C1[X(C6H14)]
 Deg. of freedom    54
 Full point group                 C1      NOp   1
 Largest Abelian subgroup         C1      NOp   1
 Largest concise Abelian subgroup C1      NOp   1
                         Standard orientation:                         
 ---------------------------------------------------------------------
 Center     Atomic      Atomic             Coordinates (Angstroms)
 Number     Number       Type             X           Y           Z
 ---------------------------------------------------------------------
      1          6           0        2.150165   -1.028734    0.015649
      2          1           0        1.931998   -2.011946   -0.413515
      3          1           0        2.252757   -1.156654    1.098444
      4          1           0        3.125501   -0.712223   -0.368691
      5          6           0        1.057451   -0.007729   -0.332751
      6          1           0        0.983562    0.057242   -1.447037
      7          6           0       -0.303697   -0.478702    0.222287
      8          1           0       -0.310536   -0.392286    1.324837
      9          1           0       -0.436821   -1.556664    0.008878
     10          6           0       -1.480369    0.307327   -0.371443
     11          1           0       -1.468496    0.225630   -1.475880
     12          1           0       -1.363745    1.385914   -0.146507
     13          6           0       -2.820985   -0.188237    0.167341
     14          1           0       -2.878876   -0.088528    1.257110
     15          1           0       -3.654093    0.380969   -0.259357
     16          1           0       -2.987152   -1.244259   -0.073454
     17          6           0        1.433101    1.378291    0.207482
     18          1           0        0.670449    2.123645   -0.042479
     19          1           0        1.538018    1.371354    1.297579
     20          1           0        2.383438    1.724507   -0.211322
 ---------------------------------------------------------------------
 Rotational constants (GHZ):      6.5681217      1.7114035      1.4806402
 Leave Link  202 at Fri Sep 18 13:22:46 2015, MaxMem=  402653184 cpu:       0.0
 (Enter /share/apps/g09/l301.exe)
 Standard basis: 6-31G(d) (6D, 7F)
 Ernie: Thresh=  0.10000D-02 Tol=  0.10000D-05 Strict=F.
 There are   118 symmetry adapted basis functions of A   symmetry.
 Integral buffers will be    131072 words long.
 Raffenetti 2 integral format.
 Two-electron integral symmetry is turned on.
   118 basis functions,   224 primitive gaussians,   118 cartesian basis functions
    25 alpha electrons       25 beta electrons
       nuclear repulsion energy       253.1775658998 Hartrees.
 IExCor=  402 DFT=T Ex+Corr=B3LYP ExCW=0 ScaHFX=  0.200000
 ScaDFX=  0.800000  0.720000  1.000000  0.810000 ScalE2=  1.000000  1.000000
 IRadAn=      5 IRanWt=     -1 IRanGd=            0 ICorTp=0
 NAtoms=   20 NActive=   20 NUniq=   20 SFac= 7.50D-01 NAtFMM=   80 NAOKFM=F Big=F
 Leave Link  301 at Fri Sep 18 13:22:47 2015, MaxMem=  402653184 cpu:       0.1
 (Enter /share/apps/g09/l302.exe)
 NPDir=0 NMtPBC=     1 NCelOv=     1 NCel=       1 NClECP=     1 NCelD=      1
         NCelK=      1 NCelE2=     1 NClLst=     1 CellRange=     0.0.
 One-electron integrals computed using PRISM.
 NBasis=   118 RedAO= T  NBF=   118
 NBsUse=   118 1.00D-06 NBFU=   118
 Precomputing XC quadrature grid using
 IXCGrd= 2 IRadAn=           5 IRanWt=          -1 IRanGd=           0 AccXCQ= 1.00D-10.
 NRdTot=    1649 NPtTot=      440934 NUsed=      452750 NTot=      452782
 NSgBfM=   118   118   118   118   118 NAtAll=    20    20.
 Leave Link  302 at Fri Sep 18 13:22:47 2015, MaxMem=  402653184 cpu:       1.2
 (Enter /share/apps/g09/l303.exe)
 DipDrv:  MaxL=1.
 Leave Link  303 at Fri Sep 18 13:22:47 2015, MaxMem=  402653184 cpu:       0.1
 (Enter /share/apps/g09/l401.exe)
 Harris functional with IExCor=  402 diagonalized for initial guess.
 ExpMin= 1.61D-01 ExpMax= 3.05D+03 ExpMxC= 4.57D+02 IAcc=3 IRadAn=         5 AccDes= 0.00D+00
 HarFok:  IExCor=  402 AccDes= 0.00D+00 IRadAn=         5 IDoV= 1
 ScaDFX=  1.000000  1.000000  1.000000  1.000000
 FoFCou: FMM=F IPFlag=           0 FMFlag=      100000 FMFlg1=           0
         NFxFlg=           0 DoJE=T BraDBF=F KetDBF=T FulRan=T
         Omega=  0.000000  0.000000  1.000000  0.000000  0.000000 ICntrl=     500 IOpCl=  0
         NMat0=    1 NMatS0=    1 NMatT0=    0 NMatD0=    1 NMtDS0=    0 NMtDT0=    0
         I1Cent=           4 NGrid=           0.
 Petite list used in FoFCou.
 Harris En= -237.179729425790    
 Initial guess orbital symmetries:
       Occupied  (A) (A) (A) (A) (A) (A) (A) (A) (A) (A) (A) (A)
                 (A) (A) (A) (A) (A) (A) (A) (A) (A) (A) (A) (A)
                 (A)
       Virtual   (A) (A) (A) (A) (A) (A) (A) (A) (A) (A) (A) (A)
                 (A) (A) (A) (A) (A) (A) (A) (A) (A) (A) (A) (A)
                 (A) (A) (A) (A) (A) (A) (A) (A) (A) (A) (A) (A)
                 (A) (A) (A) (A) (A) (A) (A) (A) (A) (A) (A) (A)
                 (A) (A) (A) (A) (A) (A) (A) (A) (A) (A) (A) (A)
                 (A) (A) (A) (A) (A) (A) (A) (A) (A) (A) (A) (A)
                 (A) (A) (A) (A) (A) (A) (A) (A) (A) (A) (A) (A)
                 (A) (A) (A) (A) (A) (A) (A) (A) (A)
 The electronic state of the initial guess is 1-A.
 Leave Link  401 at Fri Sep 18 13:22:52 2015, MaxMem=  402653184 cpu:      10.3
 (Enter /share/apps/g09/l502.exe)
 Closed shell SCF:
 Requested convergence on RMS density matrix=1.00D-08 within 128 cycles.
 Requested convergence on MAX density matrix=1.00D-06.
 Requested convergence on             energy=1.00D-06.
 No special actions if energy rises.
 Using DIIS extrapolation, IDIIS=  1040.
 Integral symmetry usage will be decided dynamically.
       452557 words used for storage of precomputed grid.
 Keep R1 ints in memory in canonical form, NReq=26106612.
 IEnd=      514101 IEndB=      514101 NGot=   402653184 MDV=   377519007
 LenX=   377519007 LenY=   377504642
 Symmetry not used in FoFDir.
 MinBra= 0 MaxBra= 2 Meth= 1.
 IRaf=       0 NMat=   1 IRICut=       1 DoRegI=T DoRafI=F ISym2E= 0 JSym2E=0.
 Integral accuracy reduced to 1.0D-05 until final iterations.

 Cycle   1  Pass 0  IDiag  1:
 E= -236.791583765654    
 DIIS: error= 5.61D-02 at cycle   1 NSaved=   1.
 NSaved= 1 IEnMin= 1 EnMin= -236.791583765654     IErMin= 1 ErrMin= 5.61D-02
 ErrMax= 5.61D-02 EMaxC= 1.00D-01 BMatC= 2.58D-01 BMatP= 2.58D-01
 IDIUse=3 WtCom= 4.39D-01 WtEn= 5.61D-01
 Coeff-Com:  0.100D+01
 Coeff-En:   0.100D+01
 Coeff:      0.100D+01
 Gap=     0.358 Goal=   None    Shift=    0.000
 GapD=    0.358 DampG=1.000 DampE=0.500 DampFc=0.5000 IDamp=-1.
 Damping current iteration by 5.00D-01
 RMSDP=1.02D-02 MaxDP=1.44D-01              OVMax= 1.87D-01

 Cycle   2  Pass 0  IDiag  1:
 E= -236.920492196323     Delta-E=       -0.128908430669 Rises=F Damp=T
 DIIS: error= 9.57D-03 at cycle   2 NSaved=   2.
 NSaved= 2 IEnMin= 2 EnMin= -236.920492196323     IErMin= 2 ErrMin= 9.57D-03
 ErrMax= 9.57D-03 EMaxC= 1.00D-01 BMatC= 9.58D-03 BMatP= 2.58D-01
 IDIUse=3 WtCom= 9.04D-01 WtEn= 9.57D-02
 Coeff-Com:  0.839D-01 0.916D+00
 Coeff-En:   0.138D+00 0.862D+00
 Coeff:      0.891D-01 0.911D+00
 Gap=     0.394 Goal=   None    Shift=    0.000
 RMSDP=1.59D-03 MaxDP=2.34D-02 DE=-1.29D-01 OVMax= 1.02D-01

 Cycle   3  Pass 0  IDiag  1:
 E= -237.082695397071     Delta-E=       -0.162203200748 Rises=F Damp=F
 DIIS: error= 2.25D-03 at cycle   3 NSaved=   3.
 NSaved= 3 IEnMin= 3 EnMin= -237.082695397071     IErMin= 3 ErrMin= 2.25D-03
 ErrMax= 2.25D-03 EMaxC= 1.00D-01 BMatC= 8.30D-04 BMatP= 9.58D-03
 IDIUse=3 WtCom= 9.78D-01 WtEn= 2.25D-02
 Coeff-Com:  0.786D-02 0.165D+00 0.827D+00
 Coeff-En:   0.000D+00 0.000D+00 0.100D+01
 Coeff:      0.769D-02 0.161D+00 0.831D+00
 Gap=     0.386 Goal=   None    Shift=    0.000
 RMSDP=4.61D-04 MaxDP=7.86D-03 DE=-1.62D-01 OVMax= 7.91D-03

 Cycle   4  Pass 0  IDiag  1:
 E= -237.083109302606     Delta-E=       -0.000413905535 Rises=F Damp=F
 DIIS: error= 1.77D-03 at cycle   4 NSaved=   4.
 NSaved= 4 IEnMin= 4 EnMin= -237.083109302606     IErMin= 4 ErrMin= 1.77D-03
 ErrMax= 1.77D-03 EMaxC= 1.00D-01 BMatC= 4.31D-04 BMatP= 8.30D-04
 IDIUse=3 WtCom= 9.82D-01 WtEn= 1.77D-02
 Coeff-Com:  0.308D-03 0.267D-01 0.421D+00 0.552D+00
 Coeff-En:   0.000D+00 0.000D+00 0.326D+00 0.674D+00
 Coeff:      0.303D-03 0.263D-01 0.419D+00 0.554D+00
 Gap=     0.388 Goal=   None    Shift=    0.000
 RMSDP=1.90D-04 MaxDP=3.94D-03 DE=-4.14D-04 OVMax= 4.20D-03

 Cycle   5  Pass 0  IDiag  1:
 E= -237.083518716034     Delta-E=       -0.000409413428 Rises=F Damp=F
 DIIS: error= 2.12D-04 at cycle   5 NSaved=   5.
 NSaved= 5 IEnMin= 5 EnMin= -237.083518716034     IErMin= 5 ErrMin= 2.12D-04
 ErrMax= 2.12D-04 EMaxC= 1.00D-01 BMatC= 1.37D-05 BMatP= 4.31D-04
 IDIUse=3 WtCom= 9.98D-01 WtEn= 2.12D-03
 Coeff-Com:  0.203D-03-0.144D-02 0.108D+00 0.218D+00 0.675D+00
 Coeff-En:   0.000D+00 0.000D+00 0.000D+00 0.000D+00 0.100D+01
 Coeff:      0.202D-03-0.144D-02 0.108D+00 0.218D+00 0.676D+00
 Gap=     0.387 Goal=   None    Shift=    0.000
 RMSDP=3.22D-05 MaxDP=5.75D-04 DE=-4.09D-04 OVMax= 6.65D-04

 Cycle   6  Pass 0  IDiag  1:
 E= -237.083531483076     Delta-E=       -0.000012767042 Rises=F Damp=F
 DIIS: error= 3.05D-05 at cycle   6 NSaved=   6.
 NSaved= 6 IEnMin= 6 EnMin= -237.083531483076     IErMin= 6 ErrMin= 3.05D-05
 ErrMax= 3.05D-05 EMaxC= 1.00D-01 BMatC= 2.67D-07 BMatP= 1.37D-05
 IDIUse=1 WtCom= 1.00D+00 WtEn= 0.00D+00
 Coeff-Com:  0.168D-03-0.117D-02 0.311D-01 0.686D-01 0.251D+00 0.650D+00
 Coeff:      0.168D-03-0.117D-02 0.311D-01 0.686D-01 0.251D+00 0.650D+00
 Gap=     0.388 Goal=   None    Shift=    0.000
 RMSDP=6.51D-06 MaxDP=1.00D-04 DE=-1.28D-05 OVMax= 1.70D-04

 Initial convergence to 1.0D-05 achieved.  Increase integral accuracy.
 Cycle   7  Pass 1  IDiag  1:
 E= -237.083519144555     Delta-E=        0.000012338521 Rises=F Damp=F
 DIIS: error= 6.90D-06 at cycle   1 NSaved=   1.
 NSaved= 1 IEnMin= 1 EnMin= -237.083519144555     IErMin= 1 ErrMin= 6.90D-06
 ErrMax= 6.90D-06 EMaxC= 1.00D-01 BMatC= 1.69D-08 BMatP= 1.69D-08
 IDIUse=1 WtCom= 1.00D+00 WtEn= 0.00D+00
 Coeff-Com:  0.100D+01
 Coeff:      0.100D+01
 Gap=     0.388 Goal=   None    Shift=    0.000
 RMSDP=6.51D-06 MaxDP=1.00D-04 DE= 1.23D-05 OVMax= 5.03D-05

 Cycle   8  Pass 1  IDiag  1:
 E= -237.083519141114     Delta-E=        0.000000003441 Rises=F Damp=F
 DIIS: error= 8.26D-06 at cycle   2 NSaved=   2.
 NSaved= 2 IEnMin= 1 EnMin= -237.083519144555     IErMin= 1 ErrMin= 6.90D-06
 ErrMax= 8.26D-06 EMaxC= 1.00D-01 BMatC= 2.15D-08 BMatP= 1.69D-08
 IDIUse=1 WtCom= 1.00D+00 WtEn= 0.00D+00
 Coeff-Com:  0.531D+00 0.469D+00
 Coeff:      0.531D+00 0.469D+00
 Gap=     0.388 Goal=   None    Shift=    0.000
 RMSDP=1.18D-06 MaxDP=2.92D-05 DE= 3.44D-09 OVMax= 2.90D-05

 Cycle   9  Pass 1  IDiag  1:
 E= -237.083519162297     Delta-E=       -0.000000021184 Rises=F Damp=F
 DIIS: error= 7.92D-07 at cycle   3 NSaved=   3.
 NSaved= 3 IEnMin= 3 EnMin= -237.083519162297     IErMin= 3 ErrMin= 7.92D-07
 ErrMax= 7.92D-07 EMaxC= 1.00D-01 BMatC= 1.17D-10 BMatP= 1.69D-08
 IDIUse=1 WtCom= 1.00D+00 WtEn= 0.00D+00
 Coeff-Com:  0.435D-01 0.845D-01 0.872D+00
 Coeff:      0.435D-01 0.845D-01 0.872D+00
 Gap=     0.388 Goal=   None    Shift=    0.000
 RMSDP=1.38D-07 MaxDP=2.02D-06 DE=-2.12D-08 OVMax= 2.97D-06

 Cycle  10  Pass 1  IDiag  1:
 E= -237.083519162395     Delta-E=       -0.000000000098 Rises=F Damp=F
 DIIS: error= 4.99D-07 at cycle   4 NSaved=   4.
 NSaved= 4 IEnMin= 4 EnMin= -237.083519162395     IErMin= 4 ErrMin= 4.99D-07
 ErrMax= 4.99D-07 EMaxC= 1.00D-01 BMatC= 2.37D-11 BMatP= 1.17D-10
 IDIUse=1 WtCom= 1.00D+00 WtEn= 0.00D+00
 Coeff-Com: -0.715D-02 0.143D-01 0.383D+00 0.610D+00
 Coeff:     -0.715D-02 0.143D-01 0.383D+00 0.610D+00
 Gap=     0.388 Goal=   None    Shift=    0.000
 RMSDP=5.02D-08 MaxDP=1.31D-06 DE=-9.75D-11 OVMax= 1.32D-06

 Cycle  11  Pass 1  IDiag  1:
 E= -237.083519162418     Delta-E=       -0.000000000023 Rises=F Damp=F
 DIIS: error= 1.16D-07 at cycle   5 NSaved=   5.
 NSaved= 5 IEnMin= 5 EnMin= -237.083519162418     IErMin= 5 ErrMin= 1.16D-07
 ErrMax= 1.16D-07 EMaxC= 1.00D-01 BMatC= 1.79D-12 BMatP= 2.37D-11
 IDIUse=1 WtCom= 1.00D+00 WtEn= 0.00D+00
 Coeff-Com: -0.588D-02 0.186D-02 0.129D+00 0.293D+00 0.582D+00
 Coeff:     -0.588D-02 0.186D-02 0.129D+00 0.293D+00 0.582D+00
 Gap=     0.388 Goal=   None    Shift=    0.000
 RMSDP=1.23D-08 MaxDP=2.81D-07 DE=-2.31D-11 OVMax= 2.83D-07

 Cycle  12  Pass 1  IDiag  1:
 E= -237.083519162418     Delta-E=        0.000000000000 Rises=F Damp=F
 DIIS: error= 1.12D-08 at cycle   6 NSaved=   6.
 NSaved= 6 IEnMin= 6 EnMin= -237.083519162418     IErMin= 6 ErrMin= 1.12D-08
 ErrMax= 1.12D-08 EMaxC= 1.00D-01 BMatC= 2.55D-14 BMatP= 1.79D-12
 IDIUse=1 WtCom= 1.00D+00 WtEn= 0.00D+00
 Coeff-Com: -0.162D-02 0.101D-03 0.271D-01 0.713D-01 0.182D+00 0.721D+00
 Coeff:     -0.162D-02 0.101D-03 0.271D-01 0.713D-01 0.182D+00 0.721D+00
 Gap=     0.388 Goal=   None    Shift=    0.000
 RMSDP=2.24D-09 MaxDP=2.82D-08 DE=-1.14D-13 OVMax= 4.37D-08

 SCF Done:  E(RB3LYP) =  -237.083519162     A.U. after   12 cycles
             Convg  =    0.2241D-08             -V/T =  2.0105
 KE= 2.346115072302D+02 PE=-1.053267338031D+03 EE= 3.283947457389D+02
 Leave Link  502 at Fri Sep 18 13:23:43 2015, MaxMem=  402653184 cpu:     100.8
 (Enter /share/apps/g09/l601.exe)
 Copying SCF densities to generalized density rwf, IOpCl= 0 IROHF=0.

 **********************************************************************

            Population analysis using the SCF density.

 **********************************************************************

 Orbital symmetries:
       Occupied  (A) (A) (A) (A) (A) (A) (A) (A) (A) (A) (A) (A)
                 (A) (A) (A) (A) (A) (A) (A) (A) (A) (A) (A) (A)
                 (A)
       Virtual   (A) (A) (A) (A) (A) (A) (A) (A) (A) (A) (A) (A)
                 (A) (A) (A) (A) (A) (A) (A) (A) (A) (A) (A) (A)
                 (A) (A) (A) (A) (A) (A) (A) (A) (A) (A) (A) (A)
                 (A) (A) (A) (A) (A) (A) (A) (A) (A) (A) (A) (A)
                 (A) (A) (A) (A) (A) (A) (A) (A) (A) (A) (A) (A)
                 (A) (A) (A) (A) (A) (A) (A) (A) (A) (A) (A) (A)
                 (A) (A) (A) (A) (A) (A) (A) (A) (A) (A) (A) (A)
                 (A) (A) (A) (A) (A) (A) (A) (A) (A)
 The electronic state is 1-A.
 Alpha  occ. eigenvalues --  -10.18444 -10.17708 -10.17368 -10.16888 -10.16746
 Alpha  occ. eigenvalues --  -10.16672  -0.80608  -0.75489  -0.67670  -0.66845
 Alpha  occ. eigenvalues --   -0.58556  -0.55230  -0.46415  -0.44011  -0.43431
 Alpha  occ. eigenvalues --   -0.41129  -0.39190  -0.37819  -0.37452  -0.35782
 Alpha  occ. eigenvalues --   -0.34396  -0.32934  -0.31745  -0.31134  -0.29970
 Alpha virt. eigenvalues --    0.08784   0.11074   0.11946   0.12653   0.15240
 Alpha virt. eigenvalues --    0.15863   0.16530   0.16971   0.17851   0.18550
 Alpha virt. eigenvalues --    0.19454   0.19894   0.21310   0.23126   0.23983
 Alpha virt. eigenvalues --    0.25226   0.26718   0.27633   0.29033   0.50010
 Alpha virt. eigenvalues --    0.51479   0.52095   0.52556   0.53657   0.56051
 Alpha virt. eigenvalues --    0.58731   0.63115   0.65449   0.68398   0.69578
 Alpha virt. eigenvalues --    0.71960   0.73268   0.74493   0.80420   0.81705
 Alpha virt. eigenvalues --    0.85131   0.86456   0.88406   0.89972   0.90237
 Alpha virt. eigenvalues --    0.90876   0.91787   0.92020   0.93949   0.95346
 Alpha virt. eigenvalues --    0.96904   0.97123   0.97448   0.99827   1.01859
 Alpha virt. eigenvalues --    1.03880   1.11135   1.27502   1.41222   1.43162
 Alpha virt. eigenvalues --    1.45045   1.45909   1.55408   1.63084   1.69367
 Alpha virt. eigenvalues --    1.73870   1.79666   1.83266   1.84577   1.90061
 Alpha virt. eigenvalues --    1.92398   1.97287   1.97990   1.99974   2.01951
 Alpha virt. eigenvalues --    2.03528   2.10394   2.13600   2.21973   2.23946
 Alpha virt. eigenvalues --    2.25122   2.26484   2.33198   2.36131   2.38356
 Alpha virt. eigenvalues --    2.45243   2.51164   2.53504   2.58411   2.68466
 Alpha virt. eigenvalues --    2.76357   2.81348   4.12871   4.21704   4.29296
 Alpha virt. eigenvalues --    4.33745   4.47116   4.59911
          Condensed to atoms (all electrons):
              1          2          3          4          5          6
     1  C    5.113268   0.369780   0.372288   0.367296   0.376506  -0.045383
     2  H    0.369780   0.581866  -0.032002  -0.030859  -0.029303  -0.003394
     3  H    0.372288  -0.032002   0.583806  -0.032562  -0.032509   0.005587
     4  H    0.367296  -0.030859  -0.032562   0.586621  -0.029213  -0.003086
     5  C    0.376506  -0.029303  -0.032509  -0.029213   4.837605   0.379601
     6  H   -0.045383  -0.003394   0.005587  -0.003086   0.379601   0.642866
     7  C   -0.047599  -0.004606  -0.005881   0.004947   0.385349  -0.048758
     8  H   -0.002810  -0.000214   0.003950  -0.000134  -0.035170   0.005939
     9  H   -0.005212   0.005261  -0.000224   0.000080  -0.037704  -0.001969
    10  C    0.004131   0.000006   0.000055  -0.000157  -0.035380  -0.005917
    11  H    0.000097  -0.000002   0.000007  -0.000002  -0.004363   0.006426
    12  H    0.000056   0.000000   0.000000   0.000005  -0.004247  -0.000275
    13  C   -0.000159  -0.000004   0.000002   0.000002   0.003900   0.000118
    14  H    0.000001   0.000000  -0.000001   0.000000   0.000071   0.000008
    15  H    0.000002   0.000000   0.000000   0.000000  -0.000143  -0.000001
    16  H   -0.000004  -0.000001   0.000001   0.000000   0.000012   0.000005
    17  C   -0.054909   0.005341  -0.005412  -0.003828   0.381106  -0.047103
    18  H    0.005390  -0.000194  -0.000040  -0.000050  -0.031555  -0.003003
    19  H   -0.005471  -0.000018   0.004844  -0.000215  -0.033399   0.005632
    20  H   -0.004207  -0.000044  -0.000214   0.004235  -0.029335  -0.003368
              7          8          9         10         11         12
     1  C   -0.047599  -0.002810  -0.005212   0.004131   0.000097   0.000056
     2  H   -0.004606  -0.000214   0.005261   0.000006  -0.000002   0.000000
     3  H   -0.005881   0.003950  -0.000224   0.000055   0.000007   0.000000
     4  H    0.004947  -0.000134   0.000080  -0.000157  -0.000002   0.000005
     5  C    0.385349  -0.035170  -0.037704  -0.035380  -0.004363  -0.004247
     6  H   -0.048758   0.005939  -0.001969  -0.005917   0.006426  -0.000275
     7  C    5.019145   0.365005   0.368907   0.385221  -0.039918  -0.039319
     8  H    0.365005   0.620462  -0.040499  -0.038991   0.005675  -0.005300
     9  H    0.368907  -0.040499   0.620662  -0.039773  -0.005089   0.005659
    10  C    0.385221  -0.038991  -0.039773   4.962599   0.376536   0.375992
    11  H   -0.039918   0.005675  -0.005089   0.376536   0.612335  -0.040349
    12  H   -0.039319  -0.005300   0.005659   0.375992  -0.040349   0.607471
    13  C   -0.045485  -0.002923  -0.003375   0.368882  -0.038256  -0.037027
    14  H   -0.004579   0.004800  -0.000399  -0.034499   0.005179  -0.004495
    15  H    0.004377  -0.000031  -0.000011  -0.028240  -0.002637  -0.002612
    16  H   -0.004714  -0.000396   0.005059  -0.034398  -0.004579   0.005075
    17  C   -0.048084  -0.008791   0.005501  -0.005509  -0.000281   0.001229
    18  H   -0.004731   0.000056  -0.000038   0.001349   0.000308   0.004967
    19  H   -0.006249   0.005694   0.000021  -0.000098   0.000041   0.000234
    20  H    0.004972   0.000023  -0.000174   0.000109  -0.000026  -0.000137
             13         14         15         16         17         18
     1  C   -0.000159   0.000001   0.000002  -0.000004  -0.054909   0.005390
     2  H   -0.000004   0.000000   0.000000  -0.000001   0.005341  -0.000194
     3  H    0.000002  -0.000001   0.000000   0.000001  -0.005412  -0.000040
     4  H    0.000002   0.000000   0.000000   0.000000  -0.003828  -0.000050
     5  C    0.003900   0.000071  -0.000143   0.000012   0.381106  -0.031555
     6  H    0.000118   0.000008  -0.000001   0.000005  -0.047103  -0.003003
     7  C   -0.045485  -0.004579   0.004377  -0.004714  -0.048084  -0.004731
     8  H   -0.002923   0.004800  -0.000031  -0.000396  -0.008791   0.000056
     9  H   -0.003375  -0.000399  -0.000011   0.005059   0.005501  -0.000038
    10  C    0.368882  -0.034499  -0.028240  -0.034398  -0.005509   0.001349
    11  H   -0.038256   0.005179  -0.002637  -0.004579  -0.000281   0.000308
    12  H   -0.037027  -0.004495  -0.002612   0.005075   0.001229   0.004967
    13  C    5.069466   0.378062   0.370246   0.377973   0.000155  -0.000167
    14  H    0.378062   0.579657  -0.031466  -0.033396  -0.000005   0.000013
    15  H    0.370246  -0.031466   0.582835  -0.031669   0.000004   0.000008
    16  H    0.377973  -0.033396  -0.031669   0.579971  -0.000003   0.000001
    17  C    0.000155  -0.000005   0.000004  -0.000003   5.114163   0.369801
    18  H   -0.000167   0.000013   0.000008   0.000001   0.369801   0.576695
    19  H   -0.000019  -0.000002   0.000000   0.000001   0.372345  -0.032261
    20  H    0.000000   0.000000   0.000000   0.000000   0.369367  -0.029760
             19         20
     1  C   -0.005471  -0.004207
     2  H   -0.000018  -0.000044
     3  H    0.004844  -0.000214
     4  H   -0.000215   0.004235
     5  C   -0.033399  -0.029335
     6  H    0.005632  -0.003368
     7  C   -0.006249   0.004972
     8  H    0.005694   0.000023
     9  H    0.000021  -0.000174
    10  C   -0.000098   0.000109
    11  H    0.000041  -0.000026
    12  H    0.000234  -0.000137
    13  C   -0.000019   0.000000
    14  H   -0.000002   0.000000
    15  H    0.000000   0.000000
    16  H    0.000001   0.000000
    17  C    0.372345   0.369367
    18  H   -0.032261  -0.029760
    19  H    0.582340  -0.032094
    20  H   -0.032094   0.581327
 Mulliken atomic charges:
              1
     1  C   -0.443063
     2  H    0.138385
     3  H    0.138306
     4  H    0.136923
     5  C   -0.061829
     6  H    0.116074
     7  C   -0.238000
     8  H    0.123653
     9  H    0.123313
    10  C   -0.251918
    11  H    0.128897
    12  H    0.133076
    13  C   -0.441393
    14  H    0.141053
    15  H    0.139340
    16  H    0.141062
    17  C   -0.445087
    18  H    0.143212
    19  H    0.138674
    20  H    0.139325
 Sum of Mulliken atomic charges =   0.00000
 Mulliken charges with hydrogens summed into heavy atoms:
              1
     1  C   -0.029450
     5  C    0.054244
     7  C    0.008965
    10  C    0.010054
    13  C   -0.019938
    17  C   -0.023876
 Sum of Mulliken charges with hydrogens summed into heavy atoms =   0.00000
 Electronic spatial extent (au):  <R**2>=            899.0534
 Charge=              0.0000 electrons
 Dipole moment (field-independent basis, Debye):
    X=             -0.0141    Y=              0.0284    Z=             -0.0511  Tot=              0.0601
 Quadrupole moment (field-independent basis, Debye-Ang):
   XX=            -42.3270   YY=            -41.7023   ZZ=            -41.1322
   XY=              0.0340   XZ=              0.0098   YZ=              0.1260
 Traceless Quadrupole moment (field-independent basis, Debye-Ang):
   XX=             -0.6065   YY=              0.0182   ZZ=              0.5883
   XY=              0.0340   XZ=              0.0098   YZ=              0.1260
 Octapole moment (field-independent basis, Debye-Ang**2):
  XXX=              1.8137  YYY=             -1.0250  ZZZ=              0.8930  XYY=             -1.5350
  XXY=              1.7506  XXZ=             -1.4330  XZZ=              0.1097  YZZ=             -0.0160
  YYZ=             -0.9187  XYZ=             -0.3430
 Hexadecapole moment (field-independent basis, Debye-Ang**3):
 XXXX=           -903.4498 YYYY=           -246.1779 ZZZZ=           -101.1471 XXXY=              1.4096
 XXXZ=             -0.1252 YYYX=             -0.4131 YYYZ=              1.0903 ZZZX=              0.6103
 ZZZY=              0.2433 XXYY=           -192.2063 XXZZ=           -166.0126 YYZZ=            -59.9517
 XXYZ=             -0.9414 YYXZ=             -0.2589 ZZXY=             -0.3498
 N-N= 2.531775658998D+02 E-N=-1.053267339256D+03  KE= 2.346115072302D+02
 No NMR shielding tensors so no spin-rotation constants.
 Leave Link  601 at Fri Sep 18 13:23:43 2015, MaxMem=  402653184 cpu:       0.3
 (Enter /share/apps/g09/l701.exe)
 Compute integral first derivatives.
 ... and contract with generalized density number  0.
 Leave Link  701 at Fri Sep 18 13:23:43 2015, MaxMem=  402653184 cpu:       0.3
 (Enter /share/apps/g09/l702.exe)
 L702 exits ... SP integral derivatives will be done elsewhere.
 Leave Link  702 at Fri Sep 18 13:23:43 2015, MaxMem=  402653184 cpu:       0.0
 (Enter /share/apps/g09/l703.exe)
 Compute integral first derivatives, UseDBF=F ICtDFT=           0.
 Integral derivatives from FoFDir, PRISM(SPDF).
 Calling FoFJK, ICntrl=      2127 FMM=F ISym2X=0 I1Cent= 0 IOpClX= 0 NMat=1 NMatS=1 NMatT=0.
 FoFCou: FMM=F IPFlag=           0 FMFlag=      100000 FMFlg1=         800
         NFxFlg=           0 DoJE=F BraDBF=F KetDBF=F FulRan=T
         Omega=  0.000000  0.000000  1.000000  0.000000  0.000000 ICntrl=    2127 IOpCl=  0
         NMat0=    1 NMatS0=    1 NMatT0=    0 NMatD0=    1 NMtDS0=    0 NMtDT0=    0
         I1Cent=           0 NGrid=           0.
 Symmetry not used in FoFCou.
 Leave Link  703 at Fri Sep 18 13:23:55 2015, MaxMem=  402653184 cpu:      23.9
 (Enter /share/apps/g09/l716.exe)
 Dipole        =-5.52851274D-03 1.11563759D-02-2.01155168D-02
 ***** Axes restored to original set *****
 -------------------------------------------------------------------
 Center     Atomic                   Forces (Hartrees/Bohr)
 Number     Number              X              Y              Z
 -------------------------------------------------------------------
      1        6           0.002332413    0.000410435   -0.003665315
      2        1          -0.000778786   -0.001171201   -0.000410036
      3        1          -0.000943346    0.000661354    0.001884597
      4        1           0.001430513    0.000367076   -0.000350601
      5        6           0.002277113   -0.004496079   -0.000072406
      6        1           0.000033062   -0.001049875    0.010824426
      7        6           0.000977936    0.000724599   -0.005937383
      8        1           0.000744014    0.000913211   -0.003608404
      9        1           0.000013323    0.004639011   -0.000634171
     10        6          -0.001217130    0.001619257    0.001071335
     11        1           0.000622950   -0.000587958    0.005359253
     12        1          -0.001669906   -0.006451110   -0.000887376
     13        6          -0.004698846    0.002448101   -0.001409961
     14        1           0.000615619    0.000301371    0.000777378
     15        1          -0.001187596    0.000022230    0.000087592
     16        1           0.000663101   -0.000832658   -0.000468236
     17        6          -0.001239173    0.002792173   -0.003513832
     18        1           0.001002958    0.001113632   -0.000041705
     19        1          -0.000028164   -0.001704303    0.001737679
     20        1           0.001049946    0.000280735   -0.000742833
 -------------------------------------------------------------------
 Cartesian Forces:  Max     0.010824426 RMS     0.002551154
 Leave Link  716 at Fri Sep 18 13:23:55 2015, MaxMem=  402653184 cpu:       0.1
 (Enter /share/apps/g09/l103.exe)

 GradGradGradGradGradGradGradGradGradGradGradGradGradGradGradGradGradGrad
 Berny optimization.
 Internal  Forces:  Max     0.011977152 RMS     0.002390731
 Search for a local minimum.
 Step number   1 out of a maximum of  110
 All quantities printed in internal units (Hartrees-Bohrs-Radians)
 RMS Force = .23907D-02 SwitMx=.10000D-02 MixMth= 1
 Mixed Optimization -- RFO/linear search
 Second derivative matrix not updated -- first step.
     Eigenvalues ---    0.00230   0.00296   0.00309   0.00312   0.00403
     Eigenvalues ---    0.03435   0.03574   0.03596   0.04640   0.04740
     Eigenvalues ---    0.04810   0.04823   0.05369   0.05399   0.05418
     Eigenvalues ---    0.05421   0.05444   0.05485   0.08214   0.08288
     Eigenvalues ---    0.12116   0.12182   0.16000   0.16000   0.16000
     Eigenvalues ---    0.16000   0.16000   0.16000   0.16000   0.16000
     Eigenvalues ---    0.16000   0.16460   0.16704   0.21856   0.21858
     Eigenvalues ---    0.28205   0.28918   0.29005   0.29032   0.29660
     Eigenvalues ---    0.31704   0.32818   0.32864   0.32929   0.33032
     Eigenvalues ---    0.34145   0.34151   0.34184   0.34208   0.34224
     Eigenvalues ---    0.34225   0.34233   0.34269   0.342731000.00000
     Eigenvalues --- 1000.000001000.000001000.000001000.000001000.00000
     Eigenvalues --- 1000.000001000.000001000.000001000.000001000.00000
     Eigenvalues --- 1000.000001000.000001000.000001000.000001000.00000
     Eigenvalues --- 1000.000001000.000001000.000001000.000001000.00000
     Eigenvalues --- 1000.000001000.000001000.000001000.000001000.00000
     Eigenvalues --- 1000.000001000.000001000.000001000.000001000.00000
     Eigenvalues --- 1000.000001000.000001000.000001000.000001000.00000
     Eigenvalues --- 1000.000001000.000001000.000001000.000001000.00000
     Eigenvalues --- 1000.000001000.000001000.000001000.000001000.00000
 RFO step:  Lambda=-2.61192436D-03 EMin= 2.30000000D-03
 Linear search not attempted -- first point.
 Iteration  1 RMS(Cart)=  0.03830394 RMS(Int)=  0.00045319
 Iteration  2 RMS(Cart)=  0.00065858 RMS(Int)=  0.00009776
 Iteration  3 RMS(Cart)=  0.00000034 RMS(Int)=  0.00009776
 Variable       Old X    -DE/DX   Delta X   Delta X   Delta X     New X
                                 (Linear)    (Quad)   (Total)
    R1        2.06878   0.00137   0.00000   0.00396   0.00396   2.07274
    R2        2.06952   0.00170   0.00000   0.00492   0.00492   2.07444
    R3        2.06938   0.00150   0.00000   0.00436   0.00436   2.07374
    R4        2.90173   0.00070   0.00000   0.00239   0.00239   2.90412
    R5        2.11389  -0.01085   0.00000  -0.03393  -0.03393   2.07996
    R6        2.91692   0.00164   0.00000   0.00578   0.00578   2.92270
    R7        2.89937   0.00153   0.00000   0.00524   0.00524   2.90460
    R8        2.08995  -0.00353   0.00000  -0.01060  -0.01060   2.07934
    R9        2.09177  -0.00440   0.00000  -0.01325  -0.01325   2.07852
   R10        2.89992   0.00173   0.00000   0.00592   0.00592   2.90584
   R11        2.09291  -0.00529   0.00000  -0.01598  -0.01598   2.07692
   R12        2.09372  -0.00664   0.00000  -0.02006  -0.02006   2.07366
   R13        2.88647   0.00306   0.00000   0.01022   0.01022   2.89669
   R14        2.07086   0.00077   0.00000   0.00223   0.00223   2.07309
   R15        2.07021   0.00088   0.00000   0.00256   0.00256   2.07276
   R16        2.07076   0.00081   0.00000   0.00234   0.00234   2.07310
   R17        2.06981   0.00007   0.00000   0.00020   0.00020   2.07001
   R18        2.06955   0.00174   0.00000   0.00504   0.00504   2.07458
   R19        2.06871   0.00128   0.00000   0.00372   0.00372   2.07243
    A1        1.87692   0.00086   0.00000   0.00163   0.00157   1.87848
    A2        1.87496   0.00019   0.00000   0.00542   0.00541   1.88036
    A3        1.94595  -0.00025   0.00000  -0.00129  -0.00134   1.94461
    A4        1.87270   0.00064   0.00000   0.00343   0.00346   1.87616
    A5        1.94837  -0.00211   0.00000  -0.01523  -0.01525   1.93312
    A6        1.94120   0.00078   0.00000   0.00678   0.00678   1.94799
    A7        1.88771  -0.00002   0.00000  -0.01239  -0.01232   1.87539
    A8        1.92096   0.00109   0.00000   0.01653   0.01624   1.93720
    A9        1.92468  -0.00141   0.00000   0.00244   0.00192   1.92660
   A10        1.89406  -0.00151   0.00000  -0.02045  -0.02027   1.87379
   A11        1.89067  -0.00016   0.00000  -0.01035  -0.01023   1.88044
   A12        1.94435   0.00192   0.00000   0.02230   0.02209   1.96644
   A13        1.91781  -0.00425   0.00000  -0.01851  -0.01862   1.89918
   A14        1.91120  -0.00337   0.00000  -0.01348  -0.01338   1.89781
   A15        1.96140   0.01198   0.00000   0.05648   0.05658   2.01798
   A16        1.84165   0.00261   0.00000   0.00398   0.00364   1.84529
   A17        1.91872  -0.00338   0.00000  -0.01152  -0.01152   1.90720
   A18        1.90922  -0.00426   0.00000  -0.02058  -0.02058   1.88864
   A19        1.91752  -0.00269   0.00000  -0.01672  -0.01668   1.90085
   A20        1.91705  -0.00091   0.00000   0.00229   0.00229   1.91934
   A21        1.95016   0.00583   0.00000   0.02745   0.02746   1.97762
   A22        1.84745   0.00129   0.00000   0.00219   0.00213   1.84958
   A23        1.91477  -0.00128   0.00000  -0.00569  -0.00559   1.90917
   A24        1.91411  -0.00253   0.00000  -0.01108  -0.01122   1.90289
   A25        1.94725  -0.00104   0.00000  -0.00740  -0.00743   1.93982
   A26        1.94067   0.00162   0.00000   0.01200   0.01202   1.95269
   A27        1.94791  -0.00127   0.00000  -0.00890  -0.00892   1.93899
   A28        1.87537  -0.00009   0.00000   0.00144   0.00145   1.87682
   A29        1.87360   0.00082   0.00000   0.00128   0.00120   1.87480
   A30        1.87529   0.00001   0.00000   0.00190   0.00193   1.87722
   A31        1.94326   0.00246   0.00000   0.01775   0.01779   1.96105
   A32        1.94789  -0.00269   0.00000  -0.01758  -0.01760   1.93029
   A33        1.94286  -0.00037   0.00000  -0.00388  -0.00395   1.93892
   A34        1.87358   0.00045   0.00000   0.00568   0.00576   1.87934
   A35        1.87752  -0.00089   0.00000  -0.00347  -0.00348   1.87404
   A36        1.87511   0.00109   0.00000   0.00175   0.00164   1.87675
    D1       -1.01605  -0.00033   0.00000  -0.00889  -0.00886  -1.02491
    D2        1.05049  -0.00154   0.00000  -0.03151  -0.03150   1.01899
    D3       -3.08062   0.00068   0.00000   0.00962   0.00962  -3.07100
    D4       -3.11578   0.00019   0.00000   0.00040   0.00040  -3.11539
    D5       -1.04924  -0.00101   0.00000  -0.02222  -0.02224  -1.07148
    D6        1.10283   0.00121   0.00000   0.01892   0.01888   1.12171
    D7        1.07629   0.00027   0.00000   0.00171   0.00174   1.07803
    D8       -3.14036  -0.00094   0.00000  -0.02091  -0.02090   3.12193
    D9       -0.98828   0.00128   0.00000   0.02022   0.02022  -0.96806
   D10        1.24047  -0.00057   0.00000  -0.00616  -0.00593   1.23454
   D11       -0.77473   0.00060   0.00000   0.00717   0.00727  -0.76745
   D12       -2.90029   0.00034   0.00000   0.00491   0.00500  -2.89529
   D13       -2.98008  -0.00086   0.00000  -0.02379  -0.02369  -3.00376
   D14        1.28791   0.00031   0.00000  -0.01046  -0.01048   1.27743
   D15       -0.83766   0.00005   0.00000  -0.01272  -0.01275  -0.85041
   D16       -0.90006  -0.00085   0.00000  -0.03610  -0.03617  -0.93623
   D17       -2.91526   0.00031   0.00000  -0.02278  -0.02297  -2.93822
   D18        1.24236   0.00006   0.00000  -0.02503  -0.02524   1.21713
   D19        3.12920  -0.00101   0.00000  -0.03432  -0.03431   3.09488
   D20       -1.06069  -0.00059   0.00000  -0.02692  -0.02699  -1.08768
   D21        1.03429  -0.00130   0.00000  -0.03929  -0.03928   0.99500
   D22        1.06644  -0.00008   0.00000  -0.01454  -0.01452   1.05192
   D23       -3.12345   0.00033   0.00000  -0.00714  -0.00720  -3.13065
   D24       -1.02847  -0.00037   0.00000  -0.01951  -0.01949  -1.04796
   D25       -1.01560   0.00072   0.00000   0.00382   0.00388  -1.01172
   D26        1.07770   0.00113   0.00000   0.01122   0.01120   1.08890
   D27       -3.11050   0.00043   0.00000  -0.00115  -0.00109  -3.11160
   D28        0.99310  -0.00026   0.00000  -0.01100  -0.01104   0.98206
   D29       -1.03230   0.00025   0.00000  -0.00530  -0.00535  -1.03765
   D30        3.12257   0.00017   0.00000  -0.01132  -0.01148   3.11108
   D31        3.13501   0.00017   0.00000  -0.00383  -0.00381   3.13120
   D32        1.10960   0.00068   0.00000   0.00186   0.00189   1.11149
   D33       -1.01871   0.00060   0.00000  -0.00416  -0.00425  -1.02296
   D34       -1.13359  -0.00101   0.00000  -0.01722  -0.01708  -1.15067
   D35        3.12420  -0.00049   0.00000  -0.01153  -0.01139   3.11281
   D36        0.99588  -0.00057   0.00000  -0.01755  -0.01752   0.97836
   D37        1.04472   0.00020   0.00000   0.00404   0.00403   1.04875
   D38        3.13809   0.00048   0.00000   0.00903   0.00899  -3.13610
   D39       -1.05136   0.00074   0.00000   0.01360   0.01354  -1.03782
   D40       -3.10742  -0.00018   0.00000  -0.00267  -0.00265  -3.11006
   D41       -1.01404   0.00010   0.00000   0.00232   0.00231  -1.01172
   D42        1.07969   0.00036   0.00000   0.00689   0.00686   1.08655
   D43       -1.08529  -0.00081   0.00000  -0.00960  -0.00954  -1.09483
   D44        1.00809  -0.00052   0.00000  -0.00462  -0.00458   1.00351
   D45        3.10182  -0.00026   0.00000  -0.00004  -0.00003   3.10179
         Item               Value     Threshold  Converged?
 Maximum Force            0.011977     0.000015     NO 
 RMS     Force            0.002391     0.000010     NO 
 Maximum Displacement     0.144399     0.000060     NO 
 RMS     Displacement     0.038383     0.000040     NO 
 Predicted change in Energy=-1.337149D-03
 GradGradGradGradGradGradGradGradGradGradGradGradGradGradGradGradGradGrad

 Leave Link  103 at Fri Sep 18 13:23:55 2015, MaxMem=  402653184 cpu:       0.1
 (Enter /share/apps/g09/l202.exe)
                          Input orientation:                          
 ---------------------------------------------------------------------
 Center     Atomic      Atomic             Coordinates (Angstroms)
 Number     Number       Type             X           Y           Z
 ---------------------------------------------------------------------
      1          6           0        2.160932   -1.032124    0.021846
      2          1           0        1.925005   -2.016517   -0.400513
      3          1           0        2.255976   -1.150915    1.108999
      4          1           0        3.142596   -0.729341   -0.364020
      5          6           0        1.075221    0.000253   -0.320459
      6          1           0        1.007051    0.056172   -1.417588
      7          6           0       -0.306625   -0.453854    0.205227
      8          1           0       -0.309878   -0.381589    1.303188
      9          1           0       -0.438261   -1.521596   -0.023673
     10          6           0       -1.516219    0.310927   -0.357383
     11          1           0       -1.501201    0.243921   -1.454296
     12          1           0       -1.428664    1.378431   -0.118831
     13          6           0       -2.859731   -0.209525    0.165855
     14          1           0       -2.918234   -0.125838    1.258125
     15          1           0       -3.705719    0.348201   -0.254084
     16          1           0       -3.000484   -1.266863   -0.090496
     17          6           0        1.477355    1.391216    0.195327
     18          1           0        0.746862    2.162247   -0.072619
     19          1           0        1.570060    1.385560    1.289214
     20          1           0        2.445628    1.700151   -0.216646
 ---------------------------------------------------------------------
                    Distance matrix (angstroms):
                    1          2          3          4          5
     1  C    0.000000
     2  H    1.096849   0.000000
     3  H    1.097746   1.771281   0.000000
     4  H    1.097376   1.772197   1.770199   0.000000
     5  C    1.536796   2.189955   2.182365   2.192770   0.000000
     6  H    2.141916   2.484577   3.066026   2.507506   1.100667
     7  C    2.541036   2.790880   2.805284   3.506716   1.546627
     8  H    2.858310   3.251198   2.685736   3.849687   2.168071
     9  H    2.645271   2.443764   2.946059   3.683211   2.166733
    10  C    3.933071   4.154622   4.303105   4.773548   2.610258
    11  H    4.149519   4.237798   4.757355   4.868345   2.825405
    12  H    4.326172   4.780388   4.634838   5.039765   2.865217
    13  C    5.089644   5.145843   5.286416   6.048050   3.970436
    14  H    5.305438   5.457354   5.276881   6.303112   4.295988
    15  H    6.033161   6.108878   6.296598   6.933440   4.794045
    16  H    5.167973   4.991847   5.392829   6.172615   4.274323
    17  C    2.523876   3.488275   2.811312   2.753662   1.537051
    18  H    3.494642   4.354033   3.827621   3.766395   2.200787
    19  H    2.792947   3.815140   2.633755   3.111086   2.180594
    20  H    2.757401   3.757456   3.149901   2.531780   2.185966
                    6          7          8          9         10
     6  H    0.000000
     7  C    2.149279   0.000000
     8  H    3.054269   1.100341   0.000000
     9  H    2.553680   1.099908   1.754040   0.000000
    10  C    2.748787   1.537706   2.166179   2.152092   0.000000
    11  H    2.515537   2.160537   3.068262   2.508700   1.099061
    12  H    3.060694   2.172845   2.524181   3.065959   1.097331
    13  C    4.186872   2.565073   2.797300   2.760610   1.532865
    14  H    4.753991   2.834906   2.621252   3.121124   2.183180
    15  H    4.863047   3.522513   3.806497   3.771672   2.192252
    16  H    4.424018   2.829367   3.156806   2.575721   2.182589
    17  C    2.145931   2.566508   2.750344   3.493139   3.230170
    18  H    2.512407   2.833904   3.079065   3.870091   2.937688
    19  H    3.067740   2.842607   2.580151   3.769427   3.659404
    20  H    2.492877   3.520314   3.773109   4.328246   4.200713
                   11         12         13         14         15
    11  H    0.000000
    12  H    1.753807   0.000000
    13  C    2.162431   2.156526   0.000000
    14  H    3.082520   2.525401   1.097032   0.000000
    15  H    2.512227   2.502928   1.096860   1.769638   0.000000
    16  H    2.527899   3.077174   1.097037   1.768469   1.769901
    17  C    3.592956   2.922979   4.623155   4.769926   5.306044
    18  H    3.262329   2.312880   4.323157   4.520966   4.811358
    19  H    4.273503   3.312852   4.840381   4.736040   5.593901
    20  H    4.385185   3.888858   5.651550   5.854930   6.298273
                   16         17         18         19         20
    16  H    0.000000
    17  C    5.215182   0.000000
    18  H    5.079539   1.095401   0.000000
    19  H    5.461577   1.097823   1.770730   0.000000
    20  H    6.203163   1.096684   1.766376   1.770085   0.000000
 Stoichiometry    C6H14
 Framework group  C1[X(C6H14)]
 Deg. of freedom    54
 Full point group                 C1      NOp   1
 Largest Abelian subgroup         C1      NOp   1
 Largest concise Abelian subgroup C1      NOp   1
                         Standard orientation:                         
 ---------------------------------------------------------------------
 Center     Atomic      Atomic             Coordinates (Angstroms)
 Number     Number       Type             X           Y           Z
 ---------------------------------------------------------------------
      1          6           0        2.152753   -1.052546    0.017978
      2          1           0        1.908469   -2.033864   -0.406780
      3          1           0        2.247307   -1.174903    1.104779
      4          1           0        3.136719   -0.756934   -0.367584
      5          6           0        1.075492   -0.010322   -0.321165
      6          1           0        1.007284    0.048969   -1.418115
      7          6           0       -0.309834   -0.454288    0.204023
      8          1           0       -0.311983   -0.384808    1.302166
      9          1           0       -0.450434   -1.520312   -0.027541
     10          6           0       -1.513298    0.321943   -0.356050
     11          1           0       -1.499340    0.257621   -1.453138
     12          1           0       -1.416775    1.388069   -0.114813
     13          6           0       -2.860843   -0.188679    0.166502
     14          1           0       -2.918147   -0.107304    1.259011
     15          1           0       -3.702365    0.377121   -0.251603
     16          1           0       -3.010485   -1.244153   -0.092481
     17          6           0        1.489394    1.375932    0.197979
     18          1           0        0.765203    2.153681   -0.067644
     19          1           0        1.582551    1.366708    1.291804
     20          1           0        2.460009    1.677873   -0.213668
 ---------------------------------------------------------------------
 Rotational constants (GHZ):      6.5827576      1.6686499      1.4443937
 Leave Link  202 at Fri Sep 18 13:23:55 2015, MaxMem=  402653184 cpu:       0.0
 (Enter /share/apps/g09/l301.exe)
 Standard basis: 6-31G(d) (6D, 7F)
 Ernie: Thresh=  0.10000D-02 Tol=  0.10000D-05 Strict=F.
 There are   118 symmetry adapted basis functions of A   symmetry.
 Integral buffers will be    131072 words long.
 Raffenetti 2 integral format.
 Two-electron integral symmetry is turned on.
   118 basis functions,   224 primitive gaussians,   118 cartesian basis functions
    25 alpha electrons       25 beta electrons
       nuclear repulsion energy       251.9588229307 Hartrees.
 IExCor=  402 DFT=T Ex+Corr=B3LYP ExCW=0 ScaHFX=  0.200000
 ScaDFX=  0.800000  0.720000  1.000000  0.810000 ScalE2=  1.000000  1.000000
 IRadAn=      5 IRanWt=     -1 IRanGd=            0 ICorTp=0
 NAtoms=   20 NActive=   20 NUniq=   20 SFac= 7.50D-01 NAtFMM=   80 NAOKFM=F Big=F
 Leave Link  301 at Fri Sep 18 13:23:55 2015, MaxMem=  402653184 cpu:       0.1
 (Enter /share/apps/g09/l302.exe)
 NPDir=0 NMtPBC=     1 NCelOv=     1 NCel=       1 NClECP=     1 NCelD=      1
         NCelK=      1 NCelE2=     1 NClLst=     1 CellRange=     0.0.
 One-electron integrals computed using PRISM.
 NBasis=   118 RedAO= T  NBF=   118
 NBsUse=   118 1.00D-06 NBFU=   118
 Precomputing XC quadrature grid using
 IXCGrd= 2 IRadAn=           5 IRanWt=          -1 IRanGd=           0 AccXCQ= 1.00D-10.
 NRdTot=    1649 NPtTot=      440934 NUsed=      452750 NTot=      452782
 NSgBfM=   118   118   118   118   118 NAtAll=    20    20.
 Leave Link  302 at Fri Sep 18 13:23:56 2015, MaxMem=  402653184 cpu:       1.2
 (Enter /share/apps/g09/l303.exe)
 DipDrv:  MaxL=1.
 Leave Link  303 at Fri Sep 18 13:23:56 2015, MaxMem=  402653184 cpu:       0.1
 (Enter /share/apps/g09/l401.exe)
 Initial guess read from the read-write file.
 B after Tr=     0.000000    0.000000    0.000000
         Rot=    1.000000    0.000000    0.000000    0.000000 Ang=   0.00 deg.
 Guess basis will be translated and rotated to current coordinates.
 Initial guess orbital symmetries:
       Occupied  (A) (A) (A) (A) (A) (A) (A) (A) (A) (A) (A) (A)
                 (A) (A) (A) (A) (A) (A) (A) (A) (A) (A) (A) (A)
                 (A)
       Virtual   (A) (A) (A) (A) (A) (A) (A) (A) (A) (A) (A) (A)
                 (A) (A) (A) (A) (A) (A) (A) (A) (A) (A) (A) (A)
                 (A) (A) (A) (A) (A) (A) (A) (A) (A) (A) (A) (A)
                 (A) (A) (A) (A) (A) (A) (A) (A) (A) (A) (A) (A)
                 (A) (A) (A) (A) (A) (A) (A) (A) (A) (A) (A) (A)
                 (A) (A) (A) (A) (A) (A) (A) (A) (A) (A) (A) (A)
                 (A) (A) (A) (A) (A) (A) (A) (A) (A) (A) (A) (A)
                 (A) (A) (A) (A) (A) (A) (A) (A) (A)
 The electronic state of the initial guess is 1-A.
 Generating alternative initial guess.
 Harris functional with IExCor=  402 diagonalized for initial guess.
 ExpMin= 1.61D-01 ExpMax= 3.05D+03 ExpMxC= 4.57D+02 IAcc=3 IRadAn=         5 AccDes= 0.00D+00
 HarFok:  IExCor=  402 AccDes= 0.00D+00 IRadAn=         5 IDoV= 1
 ScaDFX=  1.000000  1.000000  1.000000  1.000000
 FoFCou: FMM=F IPFlag=           0 FMFlag=      100000 FMFlg1=           0
         NFxFlg=           0 DoJE=T BraDBF=F KetDBF=T FulRan=T
         Omega=  0.000000  0.000000  1.000000  0.000000  0.000000 ICntrl=     500 IOpCl=  0
         NMat0=    1 NMatS0=    1 NMatT0=    0 NMatD0=    1 NMtDS0=    0 NMtDT0=    0
         I1Cent=           4 NGrid=           0.
 Petite list used in FoFCou.
 Harris En= -237.181985116675    
 Leave Link  401 at Fri Sep 18 13:24:01 2015, MaxMem=  402653184 cpu:      10.3
 (Enter /share/apps/g09/l502.exe)
 Closed shell SCF:
 Requested convergence on RMS density matrix=1.00D-08 within 128 cycles.
 Requested convergence on MAX density matrix=1.00D-06.
 Requested convergence on             energy=1.00D-06.
 No special actions if energy rises.
 Using DIIS extrapolation, IDIIS=  1040.
 Integral symmetry usage will be decided dynamically.
       452557 words used for storage of precomputed grid.
 Keep R1 ints in memory in canonical form, NReq=26106612.
 IEnd=      514101 IEndB=      514101 NGot=   402653184 MDV=   377519007
 LenX=   377519007 LenY=   377504642
 Symmetry not used in FoFDir.
 MinBra= 0 MaxBra= 2 Meth= 1.
 IRaf=       0 NMat=   1 IRICut=       1 DoRegI=T DoRafI=F ISym2E= 0 JSym2E=0.
 Integral accuracy reduced to 1.0D-05 until final iterations.

 Cycle   1  Pass 0  IDiag  1:
 E= -237.083331433320    
 DIIS: error= 1.53D-03 at cycle   1 NSaved=   1.
 NSaved= 1 IEnMin= 1 EnMin= -237.083331433320     IErMin= 1 ErrMin= 1.53D-03
 ErrMax= 1.53D-03 EMaxC= 1.00D-01 BMatC= 6.63D-04 BMatP= 6.63D-04
 IDIUse=3 WtCom= 9.85D-01 WtEn= 1.53D-02
 Coeff-Com:  0.100D+01
 Coeff-En:   0.100D+01
 Coeff:      0.100D+01
 Gap=     0.394 Goal=   None    Shift=    0.000
 GapD=    0.394 DampG=1.000 DampE=1.000 DampFc=1.0000 IDamp=-1.
 RMSDP=3.35D-04 MaxDP=5.02D-03              OVMax= 8.81D-03

 Cycle   2  Pass 0  IDiag  1:
 E= -237.084539869715     Delta-E=       -0.001208436394 Rises=F Damp=F
 DIIS: error= 2.83D-04 at cycle   2 NSaved=   2.
 NSaved= 2 IEnMin= 2 EnMin= -237.084539869715     IErMin= 2 ErrMin= 2.83D-04
 ErrMax= 2.83D-04 EMaxC= 1.00D-01 BMatC= 2.55D-05 BMatP= 6.63D-04
 IDIUse=3 WtCom= 9.97D-01 WtEn= 2.83D-03
 Coeff-Com:  0.432D-02 0.996D+00
 Coeff-En:   0.000D+00 0.100D+01
 Coeff:      0.431D-02 0.996D+00
 Gap=     0.392 Goal=   None    Shift=    0.000
 RMSDP=9.40D-05 MaxDP=1.62D-03 DE=-1.21D-03 OVMax= 2.24D-03

 Cycle   3  Pass 0  IDiag  1:
 E= -237.084542827444     Delta-E=       -0.000002957730 Rises=F Damp=F
 DIIS: error= 3.16D-04 at cycle   3 NSaved=   3.
 NSaved= 3 IEnMin= 3 EnMin= -237.084542827444     IErMin= 2 ErrMin= 2.83D-04
 ErrMax= 3.16D-04 EMaxC= 1.00D-01 BMatC= 2.91D-05 BMatP= 2.55D-05
 IDIUse=3 WtCom= 3.60D-01 WtEn= 6.40D-01
 Coeff-Com: -0.338D-01 0.535D+00 0.499D+00
 Coeff-En:   0.000D+00 0.472D+00 0.528D+00
 Coeff:     -0.122D-01 0.494D+00 0.518D+00
 Gap=     0.393 Goal=   None    Shift=    0.000
 RMSDP=5.18D-05 MaxDP=9.47D-04 DE=-2.96D-06 OVMax= 1.06D-03

 Cycle   4  Pass 0  IDiag  1:
 E= -237.084571082950     Delta-E=       -0.000028255505 Rises=F Damp=F
 DIIS: error= 5.61D-05 at cycle   4 NSaved=   4.
 NSaved= 4 IEnMin= 4 EnMin= -237.084571082950     IErMin= 4 ErrMin= 5.61D-05
 ErrMax= 5.61D-05 EMaxC= 1.00D-01 BMatC= 7.85D-07 BMatP= 2.55D-05
 IDIUse=1 WtCom= 1.00D+00 WtEn= 0.00D+00
 Coeff-Com: -0.117D-01 0.108D+00 0.199D+00 0.705D+00
 Coeff:     -0.117D-01 0.108D+00 0.199D+00 0.705D+00
 Gap=     0.393 Goal=   None    Shift=    0.000
 RMSDP=8.49D-06 MaxDP=1.26D-04 DE=-2.83D-05 OVMax= 1.70D-04

 Initial convergence to 1.0D-05 achieved.  Increase integral accuracy.
 Cycle   5  Pass 1  IDiag  1:
 E= -237.084556371707     Delta-E=        0.000014711243 Rises=F Damp=F
 DIIS: error= 9.37D-06 at cycle   1 NSaved=   1.
 NSaved= 1 IEnMin= 1 EnMin= -237.084556371707     IErMin= 1 ErrMin= 9.37D-06
 ErrMax= 9.37D-06 EMaxC= 1.00D-01 BMatC= 1.92D-08 BMatP= 1.92D-08
 IDIUse=1 WtCom= 1.00D+00 WtEn= 0.00D+00
 Coeff-Com:  0.100D+01
 Coeff:      0.100D+01
 Gap=     0.393 Goal=   None    Shift=    0.000
 RMSDP=8.49D-06 MaxDP=1.26D-04 DE= 1.47D-05 OVMax= 6.21D-05

 Cycle   6  Pass 1  IDiag  1:
 E= -237.084556370051     Delta-E=        0.000000001656 Rises=F Damp=F
 DIIS: error= 8.36D-06 at cycle   2 NSaved=   2.
 NSaved= 2 IEnMin= 1 EnMin= -237.084556371707     IErMin= 2 ErrMin= 8.36D-06
 ErrMax= 8.36D-06 EMaxC= 1.00D-01 BMatC= 2.25D-08 BMatP= 1.92D-08
 IDIUse=1 WtCom= 1.00D+00 WtEn= 0.00D+00
 Coeff-Com:  0.521D+00 0.479D+00
 Coeff:      0.521D+00 0.479D+00
 Gap=     0.393 Goal=   None    Shift=    0.000
 RMSDP=1.29D-06 MaxDP=3.28D-05 DE= 1.66D-09 OVMax= 3.10D-05

 Cycle   7  Pass 1  IDiag  1:
 E= -237.084556391870     Delta-E=       -0.000000021819 Rises=F Damp=F
 DIIS: error= 8.44D-07 at cycle   3 NSaved=   3.
 NSaved= 3 IEnMin= 3 EnMin= -237.084556391870     IErMin= 3 ErrMin= 8.44D-07
 ErrMax= 8.44D-07 EMaxC= 1.00D-01 BMatC= 2.64D-10 BMatP= 1.92D-08
 IDIUse=1 WtCom= 1.00D+00 WtEn= 0.00D+00
 Coeff-Com:  0.952D-01 0.137D+00 0.768D+00
 Coeff:      0.952D-01 0.137D+00 0.768D+00
 Gap=     0.393 Goal=   None    Shift=    0.000
 RMSDP=2.11D-07 MaxDP=3.24D-06 DE=-2.18D-08 OVMax= 3.98D-06

 Cycle   8  Pass 1  IDiag  1:
 E= -237.084556392113     Delta-E=       -0.000000000243 Rises=F Damp=F
 DIIS: error= 3.60D-07 at cycle   4 NSaved=   4.
 NSaved= 4 IEnMin= 4 EnMin= -237.084556392113     IErMin= 4 ErrMin= 3.60D-07
 ErrMax= 3.60D-07 EMaxC= 1.00D-01 BMatC= 3.00D-11 BMatP= 2.64D-10
 IDIUse=1 WtCom= 1.00D+00 WtEn= 0.00D+00
 Coeff-Com: -0.662D-02 0.109D-01 0.285D+00 0.711D+00
 Coeff:     -0.662D-02 0.109D-01 0.285D+00 0.711D+00
 Gap=     0.393 Goal=   None    Shift=    0.000
 RMSDP=6.30D-08 MaxDP=1.15D-06 DE=-2.43D-10 OVMax= 1.42D-06

 Cycle   9  Pass 1  IDiag  1:
 E= -237.084556392143     Delta-E=       -0.000000000029 Rises=F Damp=F
 DIIS: error= 1.14D-07 at cycle   5 NSaved=   5.
 NSaved= 5 IEnMin= 5 EnMin= -237.084556392143     IErMin= 5 ErrMin= 1.14D-07
 ErrMax= 1.14D-07 EMaxC= 1.00D-01 BMatC= 2.79D-12 BMatP= 3.00D-11
 IDIUse=1 WtCom= 1.00D+00 WtEn= 0.00D+00
 Coeff-Com: -0.723D-02 0.108D-04 0.117D+00 0.363D+00 0.528D+00
 Coeff:     -0.723D-02 0.108D-04 0.117D+00 0.363D+00 0.528D+00
 Gap=     0.393 Goal=   None    Shift=    0.000
 RMSDP=1.42D-08 MaxDP=3.41D-07 DE=-2.94D-11 OVMax= 3.46D-07

 Cycle  10  Pass 1  IDiag  1:
 E= -237.084556392144     Delta-E=       -0.000000000002 Rises=F Damp=F
 DIIS: error= 1.18D-08 at cycle   6 NSaved=   6.
 NSaved= 6 IEnMin= 6 EnMin= -237.084556392144     IErMin= 6 ErrMin= 1.18D-08
 ErrMax= 1.18D-08 EMaxC= 1.00D-01 BMatC= 2.83D-14 BMatP= 2.79D-12
 IDIUse=1 WtCom= 1.00D+00 WtEn= 0.00D+00
 Coeff-Com: -0.136D-02-0.620D-03 0.148D-01 0.558D-01 0.134D+00 0.797D+00
 Coeff:     -0.136D-02-0.620D-03 0.148D-01 0.558D-01 0.134D+00 0.797D+00
 Gap=     0.393 Goal=   None    Shift=    0.000
 RMSDP=2.11D-09 MaxDP=2.74D-08 DE=-1.88D-12 OVMax= 3.87D-08

 SCF Done:  E(RB3LYP) =  -237.084556392     A.U. after   10 cycles
             Convg  =    0.2114D-08             -V/T =  2.0105
 KE= 2.346131904058D+02 PE=-1.050821837050D+03 EE= 3.271652673210D+02
 Leave Link  502 at Fri Sep 18 13:24:47 2015, MaxMem=  402653184 cpu:      92.1
 (Enter /share/apps/g09/l701.exe)
 Compute integral first derivatives.
 ... and contract with generalized density number  0.
 Leave Link  701 at Fri Sep 18 13:24:47 2015, MaxMem=  402653184 cpu:       0.3
 (Enter /share/apps/g09/l702.exe)
 L702 exits ... SP integral derivatives will be done elsewhere.
 Leave Link  702 at Fri Sep 18 13:24:47 2015, MaxMem=  402653184 cpu:       0.0
 (Enter /share/apps/g09/l703.exe)
 Compute integral first derivatives, UseDBF=F ICtDFT=           0.
 Integral derivatives from FoFDir, PRISM(SPDF).
 Calling FoFJK, ICntrl=      2127 FMM=F ISym2X=0 I1Cent= 0 IOpClX= 0 NMat=1 NMatS=1 NMatT=0.
 FoFCou: FMM=F IPFlag=           0 FMFlag=      100000 FMFlg1=         800
         NFxFlg=           0 DoJE=F BraDBF=F KetDBF=F FulRan=T
         Omega=  0.000000  0.000000  1.000000  0.000000  0.000000 ICntrl=    2127 IOpCl=  0
         NMat0=    1 NMatS0=    1 NMatT0=    0 NMatD0=    1 NMtDS0=    0 NMtDT0=    0
         I1Cent=           0 NGrid=           0.
 Symmetry not used in FoFCou.
 Leave Link  703 at Fri Sep 18 13:24:59 2015, MaxMem=  402653184 cpu:      24.0
 (Enter /share/apps/g09/l716.exe)
 Dipole        =-6.95021798D-03 1.04082984D-02-3.16318000D-02
 ***** Axes restored to original set *****
 -------------------------------------------------------------------
 Center     Atomic                   Forces (Hartrees/Bohr)
 Number     Number              X              Y              Z
 -------------------------------------------------------------------
      1        6          -0.000535420   -0.000315155    0.000734660
      2        1          -0.000134129    0.000155724    0.000147241
      3        1           0.000208948   -0.000224930    0.000280847
      4        1          -0.000732518    0.000378365   -0.000005384
      5        6          -0.001140231    0.000124965   -0.001562975
      6        1          -0.000072559    0.000054538   -0.000609281
      7        6           0.000303166   -0.000107874    0.000414054
      8        1          -0.000009013   -0.000069748    0.000684591
      9        1           0.000291953   -0.000107785   -0.000407003
     10        6           0.001439206    0.001069090   -0.000498831
     11        1          -0.000116244   -0.000061464   -0.000351789
     12        1           0.000166417    0.000533946    0.000207218
     13        6           0.000331592   -0.000917728    0.000577005
     14        1           0.000031712   -0.000037827    0.000097241
     15        1           0.001001850    0.000201875   -0.000236734
     16        1          -0.000061092   -0.000156077    0.000074780
     17        6          -0.000536278   -0.000115966    0.000320994
     18        1          -0.000412383   -0.000227936   -0.000113924
     19        1           0.000001568    0.000167390    0.000306844
     20        1          -0.000026545   -0.000343402   -0.000059552
 -------------------------------------------------------------------
 Cartesian Forces:  Max     0.001562975 RMS     0.000487617
 Leave Link  716 at Fri Sep 18 13:24:59 2015, MaxMem=  402653184 cpu:       0.0
 (Enter /share/apps/g09/l103.exe)

 GradGradGradGradGradGradGradGradGradGradGradGradGradGradGradGradGradGrad
 Berny optimization.
[...]
 Number     Number       Type             X           Y           Z
 ---------------------------------------------------------------------
      1          6           0        2.161517   -1.029359    0.063013
      2          1           0        1.931349   -2.034958   -0.309058
      3          1           0        2.254767   -1.092329    1.155286
      4          1           0        3.140675   -0.739212   -0.336483
      5          6           0        1.073986   -0.020852   -0.337038
      6          1           0        1.022260   -0.002431   -1.437144
      7          6           0       -0.303405   -0.475432    0.185515
      8          1           0       -0.287938   -0.468636    1.286765
      9          1           0       -0.458084   -1.524760   -0.106848
     10          6           0       -1.500578    0.348088   -0.309362
     11          1           0       -1.487176    0.380255   -1.408495
     12          1           0       -1.406580    1.388558    0.027452
     13          6           0       -2.845112   -0.212732    0.166869
     14          1           0       -2.901183   -0.230790    1.262389
     15          1           0       -3.683513    0.391111   -0.199016
     16          1           0       -2.994442   -1.240221   -0.187455
     17          6           0        1.449201    1.390785    0.139958
     18          1           0        0.731018    2.145511   -0.197847
     19          1           0        1.488546    1.433787    1.236729
     20          1           0        2.436362    1.682534   -0.238060
 ---------------------------------------------------------------------
                    Distance matrix (angstroms):
                    1          2          3          4          5
     1  C    0.000000
     2  H    1.096651   0.000000
     3  H    1.098053   1.771285   0.000000
     4  H    1.096601   1.772620   1.770565   0.000000
     5  C    1.536182   2.189173   2.183882   2.187978   0.000000
     6  H    2.145451   2.496033   3.070446   2.498396   1.101475
     7  C    2.529365   2.769630   2.804507   3.493387   1.541723
     8  H    2.794962   3.150437   2.621379   3.803096   2.166122
     9  H    2.671439   2.451649   3.023167   3.690649   2.159159
    10  C    3.930263   4.178161   4.280492   4.766990   2.601011
    11  H    4.179152   4.327624   4.769026   4.880514   2.805076
    12  H    4.310326   4.793273   4.564238   5.033625   2.876194
    13  C    5.073855   5.134354   5.268721   6.029942   3.956017
    14  H    5.263758   5.392387   5.228531   6.270481   4.290013
    15  H    6.020862   6.117564   6.268804   6.918531   4.777296
    16  H    5.166344   4.990973   5.420242   6.157344   4.249864
    17  C    2.523967   3.488523   2.801014   2.761334   1.536564
    18  H    3.492017   4.350803   3.825753   3.761289   2.197756
    19  H    2.810265   3.823313   2.641020   3.150627   2.182791
    20  H    2.742363   3.752310   3.110347   2.524004   2.183436
                    6          7          8          9         10
     6  H    0.000000
     7  C    2.148055   0.000000
     8  H    3.058373   1.101380   0.000000
     9  H    2.505711   1.100224   1.756846   0.000000
    10  C    2.785582   1.535028   2.164522   2.152990   0.000000
    11  H    2.538609   2.162032   3.069726   2.526341   1.099686
    12  H    3.158980   2.171736   2.507270   3.066774   1.097660
    13  C    4.192093   2.555314   2.803354   2.737561   1.532673
    14  H    4.767916   2.822757   2.624160   3.085110   2.183391
    15  H    4.881817   3.510540   3.804818   3.752659   2.186146
    16  H    4.384944   2.822355   3.177079   2.553541   2.183854
    17  C    2.147226   2.560560   2.791105   3.492714   3.160744
    18  H    2.496865   2.843649   3.174289   3.859163   2.867610
    19  H    3.070789   2.821570   2.603385   3.787819   3.536100
    20  H    2.505314   3.513198   3.791364   4.322242   4.157563
                   11         12         13         14         15
    11  H    0.000000
    12  H    1.756449   0.000000
    13  C    2.162730   2.157068   0.000000
    14  H    3.083248   2.526103   1.097102   0.000000
    15  H    2.507360   2.496120   1.096091   1.770454   0.000000
    16  H    2.527595   3.078632   1.097078   1.769094   1.770931
    17  C    3.470041   2.857997   4.584006   4.776526   5.240134
    18  H    3.082561   2.278829   4.299190   4.579518   4.750369
    19  H    4.118502   3.137858   4.757753   4.694805   5.467973
    20  H    4.296510   3.863305   5.625831   5.865284   6.254772
                   16         17         18         19         20
    16  H    0.000000
    17  C    5.174491   0.000000
    18  H    5.034118   1.095222   0.000000
    19  H    5.410712   1.098319   1.771556   0.000000
    20  H    6.167552   1.096587   1.767531   1.770660   0.000000
 Stoichiometry    C6H14
 Framework group  C1[X(C6H14)]
 Deg. of freedom    54
 Full point group                 C1      NOp   1
 Largest Abelian subgroup         C1      NOp   1
 Largest concise Abelian subgroup C1      NOp   1
                         Standard orientation:                         
 ---------------------------------------------------------------------
 Center     Atomic      Atomic             Coordinates (Angstroms)
 Number     Number       Type             X           Y           Z
 ---------------------------------------------------------------------
      1          6           0        2.158795   -1.038263    0.033292
      2          1           0        1.927533   -2.029220   -0.375566
      3          1           0        2.247999   -1.140772    1.122904
      4          1           0        3.140067   -0.736397   -0.352086
      5          6           0        1.075128   -0.013246   -0.333942
      6          1           0        1.027368    0.044919   -1.432842
      7          6           0       -0.305207   -0.482861    0.167105
      8          1           0       -0.293649   -0.515776    1.267932
      9          1           0       -0.461370   -1.520582   -0.163410
     10          6           0       -1.498622    0.360983   -0.301937
     11          1           0       -1.481225    0.432686   -1.399145
     12          1           0       -1.403319    1.388404    0.072469
     13          6           0       -2.846191   -0.213217    0.149104
     14          1           0       -2.906210   -0.270582    1.243060
     15          1           0       -3.681826    0.405537   -0.197700
     16          1           0       -2.996731   -1.226895   -0.242527
     17          6           0        1.452040    1.379337    0.194906
     18          1           0        0.736885    2.147560   -0.117982
     19          1           0        1.487579    1.382705    1.292645
     20          1           0        2.441242    1.682010   -0.168923
 ---------------------------------------------------------------------
 Rotational constants (GHZ):      6.5879108      1.6911747      1.4550940
 Leave Link  202 at Fri Sep 18 13:30:59 2015, MaxMem=  402653184 cpu:       0.0
 (Enter /share/apps/g09/l601.exe)
 Copying SCF densities to generalized density rwf, IOpCl= 0 IROHF=0.

 **********************************************************************

            Population analysis using the SCF density.

 **********************************************************************

 Orbital symmetries:
       Occupied  (A) (A) (A) (A) (A) (A) (A) (A) (A) (A) (A) (A)
                 (A) (A) (A) (A) (A) (A) (A) (A) (A) (A) (A) (A)
                 (A)
       Virtual   (A) (A) (A) (A) (A) (A) (A) (A) (A) (A) (A) (A)
                 (A) (A) (A) (A) (A) (A) (A) (A) (A) (A) (A) (A)
                 (A) (A) (A) (A) (A) (A) (A) (A) (A) (A) (A) (A)
                 (A) (A) (A) (A) (A) (A) (A) (A) (A) (A) (A) (A)
                 (A) (A) (A) (A) (A) (A) (A) (A) (A) (A) (A) (A)
                 (A) (A) (A) (A) (A) (A) (A) (A) (A) (A) (A) (A)
                 (A) (A) (A) (A) (A) (A) (A) (A) (A) (A) (A) (A)
                 (A) (A) (A) (A) (A) (A) (A) (A) (A)
 The electronic state is 1-A.
 Alpha  occ. eigenvalues --  -10.18306 -10.17579 -10.17248 -10.17016 -10.16811
 Alpha  occ. eigenvalues --  -10.16807  -0.80550  -0.75519  -0.67622  -0.66928
 Alpha  occ. eigenvalues --   -0.58798  -0.55159  -0.46603  -0.43950  -0.43383
 Alpha  occ. eigenvalues --   -0.41205  -0.39201  -0.37763  -0.37395  -0.35934
 Alpha  occ. eigenvalues --   -0.34337  -0.32923  -0.31443  -0.31140  -0.30443
 Alpha virt. eigenvalues --    0.08741   0.11080   0.12371   0.13037   0.14994
 Alpha virt. eigenvalues --    0.15863   0.16481   0.16976   0.17946   0.18665
 Alpha virt. eigenvalues --    0.19452   0.19896   0.21712   0.22067   0.23745
 Alpha virt. eigenvalues --    0.25193   0.26766   0.27449   0.28676   0.49576
 Alpha virt. eigenvalues --    0.51288   0.52154   0.52458   0.53654   0.56101
 Alpha virt. eigenvalues --    0.58369   0.63044   0.65726   0.67819   0.69164
 Alpha virt. eigenvalues --    0.71855   0.72962   0.74503   0.80756   0.81554
 Alpha virt. eigenvalues --    0.85669   0.86929   0.88637   0.89956   0.90311
 Alpha virt. eigenvalues --    0.90745   0.91670   0.92244   0.94296   0.95320
 Alpha virt. eigenvalues --    0.96873   0.97032   0.97265   0.99825   1.01114
 Alpha virt. eigenvalues --    1.03465   1.10294   1.27673   1.40877   1.43317
 Alpha virt. eigenvalues --    1.44495   1.46320   1.54728   1.61229   1.69301
 Alpha virt. eigenvalues --    1.73430   1.79055   1.83996   1.84509   1.90995
 Alpha virt. eigenvalues --    1.93431   1.96612   1.98400   2.00311   2.02073
 Alpha virt. eigenvalues --    2.04075   2.10154   2.13958   2.21127   2.24167
 Alpha virt. eigenvalues --    2.24914   2.26279   2.33379   2.35715   2.37870
 Alpha virt. eigenvalues --    2.44820   2.51816   2.53302   2.59267   2.68782
 Alpha virt. eigenvalues --    2.76851   2.80168   4.12369   4.21512   4.29138
 Alpha virt. eigenvalues --    4.33815   4.46880   4.59381
          Condensed to atoms (all electrons):
              1          2          3          4          5          6
     1  C    5.110815   0.369584   0.371719   0.367917   0.378414  -0.046102
     2  H    0.369584   0.581106  -0.031666  -0.030317  -0.029741  -0.003363
     3  H    0.371719  -0.031666   0.584710  -0.032057  -0.033979   0.005883
     4  H    0.367917  -0.030317  -0.032057   0.583153  -0.028425  -0.003399
     5  C    0.378414  -0.029741  -0.033979  -0.028425   4.835251   0.378603
     6  H   -0.046102  -0.003363   0.005883  -0.003399   0.378603   0.644457
     7  C   -0.046623  -0.004267  -0.006029   0.004712   0.390288  -0.048846
     8  H   -0.003959  -0.000270   0.004853  -0.000087  -0.037614   0.006606
     9  H   -0.004833   0.005335  -0.000290   0.000028  -0.037478  -0.003561
    10  C    0.004018   0.000005   0.000017  -0.000140  -0.032835  -0.005555
    11  H    0.000073  -0.000004   0.000009   0.000000  -0.003612   0.006222
    12  H    0.000013   0.000001   0.000001   0.000003  -0.004634  -0.000271
    13  C   -0.000134  -0.000003   0.000000   0.000002   0.003568   0.000029
    14  H    0.000001   0.000000  -0.000001   0.000000   0.000058   0.000009
    15  H    0.000002   0.000000   0.000000   0.000000  -0.000125   0.000000
    16  H   -0.000005   0.000000   0.000000   0.000000  -0.000018   0.000002
    17  C   -0.054445   0.005296  -0.005522  -0.003693   0.381062  -0.048679
    18  H    0.005128  -0.000185  -0.000039  -0.000044  -0.028897  -0.003391
    19  H   -0.005203  -0.000048   0.004876  -0.000224  -0.034898   0.005950
    20  H   -0.004492  -0.000017  -0.000224   0.004380  -0.029931  -0.003206
              7          8          9         10         11         12
     1  C   -0.046623  -0.003959  -0.004833   0.004018   0.000073   0.000013
     2  H   -0.004267  -0.000270   0.005335   0.000005  -0.000004   0.000001
     3  H   -0.006029   0.004853  -0.000290   0.000017   0.000009   0.000001
     4  H    0.004712  -0.000087   0.000028  -0.000140   0.000000   0.000003
     5  C    0.390288  -0.037614  -0.037478  -0.032835  -0.003612  -0.004634
     6  H   -0.048846   0.006606  -0.003561  -0.005555   0.006222  -0.000271
     7  C    5.008724   0.364738   0.369089   0.386831  -0.041861  -0.037773
     8  H    0.364738   0.624736  -0.039715  -0.040480   0.006068  -0.005719
     9  H    0.369089  -0.039715   0.622469  -0.042146  -0.004893   0.005893
    10  C    0.386831  -0.040480  -0.042146   4.959539   0.376321   0.376776
    11  H   -0.041861   0.006068  -0.004893   0.376321   0.614100  -0.040389
    12  H   -0.037773  -0.005719   0.005893   0.376776  -0.040389   0.605784
    13  C   -0.041780  -0.002828  -0.003862   0.370578  -0.038732  -0.038322
    14  H   -0.004280   0.004676  -0.000400  -0.034884   0.005277  -0.004533
    15  H    0.004067  -0.000049   0.000010  -0.027665  -0.002690  -0.002525
    16  H   -0.004672  -0.000377   0.005454  -0.034734  -0.004552   0.005196
    17  C   -0.048076  -0.008231   0.005678  -0.004321  -0.000693   0.002419
    18  H   -0.004641  -0.000021  -0.000043   0.001971   0.000458   0.003140
    19  H   -0.005902   0.005728  -0.000009  -0.000361   0.000079   0.000306
    20  H    0.004903  -0.000037  -0.000170   0.000107  -0.000031  -0.000090
             13         14         15         16         17         18
     1  C   -0.000134   0.000001   0.000002  -0.000005  -0.054445   0.005128
     2  H   -0.000003   0.000000   0.000000   0.000000   0.005296  -0.000185
     3  H    0.000000  -0.000001   0.000000   0.000000  -0.005522  -0.000039
     4  H    0.000002   0.000000   0.000000   0.000000  -0.003693  -0.000044
     5  C    0.003568   0.000058  -0.000125  -0.000018   0.381062  -0.028897
     6  H    0.000029   0.000009   0.000000   0.000002  -0.048679  -0.003391
     7  C   -0.041780  -0.004280   0.004067  -0.004672  -0.048076  -0.004641
     8  H   -0.002828   0.004676  -0.000049  -0.000377  -0.008231  -0.000021
     9  H   -0.003862  -0.000400   0.000010   0.005454   0.005678  -0.000043
    10  C    0.370578  -0.034884  -0.027665  -0.034734  -0.004321   0.001971
    11  H   -0.038732   0.005277  -0.002690  -0.004552  -0.000693   0.000458
    12  H   -0.038322  -0.004533  -0.002525   0.005196   0.002419   0.003140
    13  C    5.067195   0.377401   0.371479   0.377164   0.000148  -0.000095
    14  H    0.377401   0.579810  -0.031432  -0.032918  -0.000012   0.000008
    15  H    0.371479  -0.031432   0.579526  -0.031361   0.000004   0.000005
    16  H    0.377164  -0.032918  -0.031361   0.580020   0.000001   0.000001
    17  C    0.000148  -0.000012   0.000004   0.000001   5.111822   0.370417
    18  H   -0.000095   0.000008   0.000005   0.000001   0.370417   0.574228
    19  H   -0.000026   0.000001   0.000000   0.000000   0.371278  -0.031812
    20  H    0.000000   0.000000   0.000000   0.000000   0.369989  -0.030421
             19         20
     1  C   -0.005203  -0.004492
     2  H   -0.000048  -0.000017
     3  H    0.004876  -0.000224
     4  H   -0.000224   0.004380
     5  C   -0.034898  -0.029931
     6  H    0.005950  -0.003206
     7  C   -0.005902   0.004903
     8  H    0.005728  -0.000037
     9  H   -0.000009  -0.000170
    10  C   -0.000361   0.000107
    11  H    0.000079  -0.000031
    12  H    0.000306  -0.000090
    13  C   -0.000026   0.000000
    14  H    0.000001   0.000000
    15  H    0.000000   0.000000
    16  H    0.000000   0.000000
    17  C    0.371278   0.369989
    18  H   -0.031812  -0.030421
    19  H    0.585226  -0.031867
    20  H   -0.031867   0.582316
 Mulliken atomic charges:
              1
     1  C   -0.441887
     2  H    0.138554
     3  H    0.137739
     4  H    0.138191
     5  C   -0.065054
     6  H    0.118611
     7  C   -0.238599
     8  H    0.121984
     9  H    0.123447
    10  C   -0.253042
    11  H    0.128850
    12  H    0.134725
    13  C   -0.441782
    14  H    0.141218
    15  H    0.140753
    16  H    0.140799
    17  C   -0.444441
    18  H    0.144235
    19  H    0.136908
    20  H    0.138793
 Sum of Mulliken atomic charges =   0.00000
 Mulliken charges with hydrogens summed into heavy atoms:
              1
     1  C   -0.027404
     5  C    0.053556
     7  C    0.006832
    10  C    0.010533
    13  C   -0.019012
    17  C   -0.024506
 Sum of Mulliken charges with hydrogens summed into heavy atoms =   0.00000
 Electronic spatial extent (au):  <R**2>=            908.5782
 Charge=              0.0000 electrons
 Dipole moment (field-independent basis, Debye):
    X=             -0.0159    Y=              0.0332    Z=             -0.0783  Tot=              0.0865
 Quadrupole moment (field-independent basis, Debye-Ang):
   XX=            -42.1059   YY=            -41.7336   ZZ=            -41.1457
   XY=             -0.0422   XZ=             -0.0428   YZ=              0.1559
 Traceless Quadrupole moment (field-independent basis, Debye-Ang):
   XX=             -0.4442   YY=             -0.0719   ZZ=              0.5161
   XY=             -0.0422   XZ=             -0.0428   YZ=              0.1559
 Octapole moment (field-independent basis, Debye-Ang**2):
  XXX=              1.6513  YYY=             -0.7607  ZZZ=              0.8673  XYY=             -1.5386
  XXY=              1.9151  XXZ=             -1.5382  XZZ=             -0.0305  YZZ=             -0.1064
  YYZ=             -1.1230  XYZ=             -0.3640
 Hexadecapole moment (field-independent basis, Debye-Ang**3):
 XXXX=           -914.3419 YYYY=           -249.7485 ZZZZ=            -96.9424 XXXY=              0.0646
 XXXZ=             -1.0079 YYYX=             -0.8577 YYYZ=              1.4659 ZZZX=              0.3751
 ZZZY=             -0.2617 XXYY=           -195.5504 XXZZ=           -168.0240 YYZZ=            -59.5353
 XXYZ=             -0.6110 YYXZ=             -0.2301 ZZXY=             -0.1374
 N-N= 2.525618140095D+02 E-N=-1.052042916681D+03  KE= 2.346282007332D+02
 No NMR shielding tensors so no spin-rotation constants.
 Leave Link  601 at Fri Sep 18 13:30:59 2015, MaxMem=  402653184 cpu:       0.3
 (Enter /share/apps/g09/l9999.exe)
 1\1\GINC-COMPUTE-0-3\FOpt\RB3LYP\6-31G(d)\C6H14\HETANJIN\18-Sep-2015\0
 \\#p B3LYP/6-31G(d) opt=tight int=ultrafine\\using B3LYP/6-31G(d) to d
 o opt and freq calc.\\0,1\C,2.1615174185,-1.0293592609,0.0630133068\H,
 1.9313489213,-2.0349577507,-0.3090581091\H,2.254766931,-1.0923288705,1
 .1552859051\H,3.1406753718,-0.7392117362,-0.3364829382\C,1.0739855742,
 -0.0208515865,-0.3370384308\H,1.022259671,-0.0024314942,-1.4371435858\
 C,-0.3034052796,-0.4754319238,0.1855151126\H,-0.2879381918,-0.46863615
 47,1.2867654608\H,-0.4580841347,-1.5247603926,-0.1068480872\C,-1.50057
 8094,0.3480879966,-0.3093616512\H,-1.4871756224,0.3802553243,-1.408495
 2509\H,-1.4065797019,1.3885582073,0.027451908\C,-2.8451119606,-0.21273
 19031,0.1668694974\H,-2.9011832001,-0.2307902917,1.2623887936\H,-3.683
 5130759,0.3911110964,-0.1990161341\H,-2.9944419511,-1.2402212704,-0.18
 74550489\C,1.4492011525,1.3907845264,0.1399581003\H,0.7310179197,2.145
 5114564,-0.1978469685\H,1.4885458887,1.4337866322,1.236729425\H,2.4363
 623634,1.6825343957,-0.2380603047\\Version=EM64L-G09RevA.01\State=1-A\
 HF=-237.0847399\RMSD=6.631e-09\RMSF=8.511e-07\Dipole=-0.0064102,0.0119
 421,-0.0312208\Quadrupole=-0.3302895,-0.044683,0.3749726,-0.0327294,-0
 .0284662,0.1313644\PG=C01 [X(C6H14)]\\@


      HUMANKIND PERIODICALLY GOES THROUGH A SPEEDUP OF ITS AFFAIRS, 
      THEREBY EXPERIENCING THE RACE BETWEEN THE RENEWABLE VITALITY
      OF THE LIVING, AND THE BECKONING VITIATION OF DECADENCE.
      IN THIS PERIODIC RACE, ANY PAUSE BECOMES A LUXURY.
      ONLY THEN CAN ONE REFLECT THAT ALL IS PERMITTED;
      ALL IS POSSIBLE.

                              -- THE APOCRYPHA OF MUAD'DIB
                                 CHILDREN OF DUNE, BY FRANK HERBERT
 Job cpu time:  0 days  0 hours 16 minutes 23.7 seconds.
 File lengths (MBytes):  RWF=     15 Int=      0 D2E=      0 Chk=      2 Scr=      1
 Normal termination of Gaussian 09 at Fri Sep 18 13:31:00 2015.
