 Entering Gaussian System, Link 0=/home/hetanjin/apps/g09D01/g09/g09
 Input=C6H14_5_r013_C9_2_opt_B3L.gjf
 Output=C6H14_5_r013_C9_2_opt_B3L.log
 Initial command:
 /home/hetanjin/apps/g09D01/g09/l1.exe "/state/partition1/Gau-6586.inp" -scrdir="/state/partition1/"
 Entering Link 1 = /home/hetanjin/apps/g09D01/g09/l1.exe PID=      6587.
  
 Copyright (c) 1988,1990,1992,1993,1995,1998,2003,2009,2013,
            Gaussian, Inc.  All Rights Reserved.
  
 This is part of the Gaussian(R) 09 program.  It is based on
 the Gaussian(R) 03 system (copyright 2003, Gaussian, Inc.),
 the Gaussian(R) 98 system (copyright 1998, Gaussian, Inc.),
 the Gaussian(R) 94 system (copyright 1995, Gaussian, Inc.),
 the Gaussian 92(TM) system (copyright 1992, Gaussian, Inc.),
 the Gaussian 90(TM) system (copyright 1990, Gaussian, Inc.),
 the Gaussian 88(TM) system (copyright 1988, Gaussian, Inc.),
 the Gaussian 86(TM) system (copyright 1986, Carnegie Mellon
 University), and the Gaussian 82(TM) system (copyright 1983,
 Carnegie Mellon University). Gaussian is a federally registered
 trademark of Gaussian, Inc.
  
 This software contains proprietary and confidential information,
 including trade secrets, belonging to Gaussian, Inc.
  
 This software is provided under written license and may be
 used, copied, transmitted, or stored only in accord with that
 written license.
  
 The following legend is applicable only to US Government
 contracts under FAR:
  
                    RESTRICTED RIGHTS LEGEND
  
 Use, reproduction and disclosure by the US Government is
 subject to restrictions as set forth in subparagraphs (a)
 and (c) of the Commercial Computer Software - Restricted
 Rights clause in FAR 52.227-19.
  
 Gaussian, Inc.
 340 Quinnipiac St., Bldg. 40, Wallingford CT 06492
  
  
 ---------------------------------------------------------------
 Warning -- This program may not be used in any manner that
 competes with the business of Gaussian, Inc. or will provide
 assistance to any competitor of Gaussian, Inc.  The licensee
 of this program is prohibited from giving any competitor of
 Gaussian, Inc. access to this program.  By using this program,
 the user acknowledges that Gaussian, Inc. is engaged in the
 business of creating and licensing software in the field of
 computational chemistry and represents and warrants to the
 licensee that it is not a competitor of Gaussian, Inc. and that
 it will not use this program in any manner prohibited above.
 ---------------------------------------------------------------
  

 Cite this work as:
 Gaussian 09, Revision D.01,
 M. J. Frisch, G. W. Trucks, H. B. Schlegel, G. E. Scuseria, 
 M. A. Robb, J. R. Cheeseman, G. Scalmani, V. Barone, B. Mennucci, 
 G. A. Petersson, H. Nakatsuji, M. Caricato, X. Li, H. P. Hratchian, 
 A. F. Izmaylov, J. Bloino, G. Zheng, J. L. Sonnenberg, M. Hada, 
 M. Ehara, K. Toyota, R. Fukuda, J. Hasegawa, M. Ishida, T. Nakajima, 
 Y. Honda, O. Kitao, H. Nakai, T. Vreven, J. A. Montgomery, Jr., 
 J. E. Peralta, F. Ogliaro, M. Bearpark, J. J. Heyd, E. Brothers, 
 K. N. Kudin, V. N. Staroverov, T. Keith, R. Kobayashi, J. Normand, 
 K. Raghavachari, A. Rendell, J. C. Burant, S. S. Iyengar, J. Tomasi, 
 M. Cossi, N. Rega, J. M. Millam, M. Klene, J. E. Knox, J. B. Cross, 
 V. Bakken, C. Adamo, J. Jaramillo, R. Gomperts, R. E. Stratmann, 
 O. Yazyev, A. J. Austin, R. Cammi, C. Pomelli, J. W. Ochterski, 
 R. L. Martin, K. Morokuma, V. G. Zakrzewski, G. A. Voth, 
 P. Salvador, J. J. Dannenberg, S. Dapprich, A. D. Daniels, 
 O. Farkas, J. B. Foresman, J. V. Ortiz, J. Cioslowski, 
 and D. J. Fox, Gaussian, Inc., Wallingford CT, 2013.
 
 ******************************************
 Gaussian 09:  ES64L-G09RevD.01 24-Apr-2013
                 7-Nov-2015 
 ******************************************
 %mem=6GB
 %nprocshared=4
 Will use up to    4 processors via shared memory.
 ----------------------------------------------
 #p B3LYP/6-31G(d) opt=tight int=ultrafine freq
 ----------------------------------------------
 1/7=10,14=-1,18=20,19=15,26=4,38=1/1,3;
 2/9=110,12=2,17=6,18=5,40=1/2;
 3/5=1,6=6,7=1,11=2,16=1,25=1,30=1,71=1,74=-5,75=-5/1,2,3;
 4//1;
 5/5=2,38=5/2;
 6/7=2,8=2,9=2,10=2,28=1/1;
 7//1,2,3,16;
 1/7=10,14=-1,18=20,19=15,26=4/3(2);
 2/9=110/2;
 99//99;
 2/9=110/2;
 3/5=1,6=6,7=1,11=2,16=1,25=1,30=1,71=1,74=-5,75=-5/1,2,3;
 4/5=5,16=3,69=1/1;
 5/5=2,38=5/2;
 7//1,2,3,16;
 1/7=10,14=-1,18=20,19=15,26=4/3(-5);
 2/9=110/2;
 6/7=2,8=2,9=2,10=2,19=2,28=1/1;
 99/9=1/99;
 Leave Link    1 at Sat Nov  7 02:15:17 2015, MaxMem=   805306368 cpu:         0.2
 (Enter /home/hetanjin/apps/g09D01/g09/l101.exe)
 ---------------------------------------------
 using B3LYP/6-31G(d) to do opt and freq calc.
 ---------------------------------------------
 Symbolic Z-matrix:
 Charge =  0 Multiplicity = 2
 C                     1.61803   0.98966  -0.00005 
 H                     1.59367   1.63643   0.88596 
 H                     1.59367   1.63635  -0.88611 
 H                     2.57832   0.45929  -0.00002 
 C                     0.43635  -0.0005    0. 
 C                    -0.87859   0.82391  -0.00003 
 H                    -0.86571   1.48649  -0.87756 
 H                    -0.86571   1.48655   0.87745 
 C                    -2.19348   0.03388  0. 
 H                    -2.28903  -0.60502   0.88496 
 H                    -3.04849   0.71981  -0.00001 
 C                     0.5289   -0.88501  -1.25865 
 H                    -0.26244  -1.64248  -1.28525 
 H                     0.44851  -0.28292  -2.17262 
 H                     1.4897   -1.41334  -1.29204 
 C                     0.52891  -0.8849    1.25873 
 H                     1.4897   -1.41324   1.29215 
 H                     0.44854  -0.28273   2.17265 
 H                    -0.26244  -1.64236   1.2854 
 
 NAtoms=     19 NQM=       19 NQMF=       0 NMMI=      0 NMMIF=      0
                NMic=       0 NMicF=      0.
                    Isotopes and Nuclear Properties:
 (Nuclear quadrupole moments (NQMom) in fm**2, nuclear magnetic moments (NMagM)
  in nuclear magnetons)

  Atom         1           2           3           4           5           6           7           8           9          10
 IAtWgt=          12           1           1           1          12          12           1           1          12           1
 AtmWgt=  12.0000000   1.0078250   1.0078250   1.0078250  12.0000000  12.0000000   1.0078250   1.0078250  12.0000000   1.0078250
 NucSpn=           0           1           1           1           0           0           1           1           0           1
 AtZEff=   0.0000000   0.0000000   0.0000000   0.0000000   0.0000000   0.0000000   0.0000000   0.0000000   0.0000000   0.0000000
 NQMom=    0.0000000   0.0000000   0.0000000   0.0000000   0.0000000   0.0000000   0.0000000   0.0000000   0.0000000   0.0000000
 NMagM=    0.0000000   2.7928460   2.7928460   2.7928460   0.0000000   0.0000000   2.7928460   2.7928460   0.0000000   2.7928460
 AtZNuc=   6.0000000   1.0000000   1.0000000   1.0000000   6.0000000   6.0000000   1.0000000   1.0000000   6.0000000   1.0000000

  Atom        11          12          13          14          15          16          17          18          19
 IAtWgt=           1          12           1           1           1          12           1           1           1
 AtmWgt=   1.0078250  12.0000000   1.0078250   1.0078250   1.0078250  12.0000000   1.0078250   1.0078250   1.0078250
 NucSpn=           1           0           1           1           1           0           1           1           1
 AtZEff=   0.0000000   0.0000000   0.0000000   0.0000000   0.0000000   0.0000000   0.0000000   0.0000000   0.0000000
 NQMom=    0.0000000   0.0000000   0.0000000   0.0000000   0.0000000   0.0000000   0.0000000   0.0000000   0.0000000
 NMagM=    2.7928460   0.0000000   2.7928460   2.7928460   2.7928460   0.0000000   2.7928460   2.7928460   2.7928460
 AtZNuc=   1.0000000   6.0000000   1.0000000   1.0000000   1.0000000   6.0000000   1.0000000   1.0000000   1.0000000
 Leave Link  101 at Sat Nov  7 02:15:17 2015, MaxMem=   805306368 cpu:         0.8
 (Enter /home/hetanjin/apps/g09D01/g09/l103.exe)

 GradGradGradGradGradGradGradGradGradGradGradGradGradGradGradGradGradGrad
 Berny optimization.
 Initialization pass.
                           ----------------------------
                           !    Initial Parameters    !
                           ! (Angstroms and Degrees)  !
 --------------------------                            --------------------------
 ! Name  Definition              Value          Derivative Info.                !
 --------------------------------------------------------------------------------
 ! R1    R(1,2)                  1.0972         estimate D2E/DX2                !
 ! R2    R(1,3)                  1.0972         estimate D2E/DX2                !
 ! R3    R(1,4)                  1.097          estimate D2E/DX2                !
 ! R4    R(1,5)                  1.5417         estimate D2E/DX2                !
 ! R5    R(5,6)                  1.552          estimate D2E/DX2                !
 ! R6    R(5,12)                 1.5411         estimate D2E/DX2                !
 ! R7    R(5,16)                 1.5411         estimate D2E/DX2                !
 ! R8    R(6,7)                  1.0996         estimate D2E/DX2                !
 ! R9    R(6,8)                  1.0996         estimate D2E/DX2                !
 ! R10   R(6,9)                  1.534          estimate D2E/DX2                !
 ! R11   R(9,10)                 1.0957         estimate D2E/DX2                !
 ! R12   R(9,11)                 1.0961         estimate D2E/DX2                !
 ! R13   R(12,13)                1.0958         estimate D2E/DX2                !
 ! R14   R(12,14)                1.0974         estimate D2E/DX2                !
 ! R15   R(12,15)                1.097          estimate D2E/DX2                !
 ! R16   R(16,17)                1.097          estimate D2E/DX2                !
 ! R17   R(16,18)                1.0974         estimate D2E/DX2                !
 ! R18   R(16,19)                1.0958         estimate D2E/DX2                !
 ! A1    A(2,1,3)              107.7092         estimate D2E/DX2                !
 ! A2    A(2,1,4)              107.7219         estimate D2E/DX2                !
 ! A3    A(2,1,5)              111.195          estimate D2E/DX2                !
 ! A4    A(3,1,4)              107.722          estimate D2E/DX2                !
 ! A5    A(3,1,5)              111.195          estimate D2E/DX2                !
 ! A6    A(4,1,5)              111.1274         estimate D2E/DX2                !
 ! A7    A(1,5,6)              107.9534         estimate D2E/DX2                !
 ! A8    A(1,5,12)             108.8179         estimate D2E/DX2                !
 ! A9    A(1,5,16)             108.8179         estimate D2E/DX2                !
 ! A10   A(6,5,12)             110.8381         estimate D2E/DX2                !
 ! A11   A(6,5,16)             110.8381         estimate D2E/DX2                !
 ! A12   A(12,5,16)            109.5162         estimate D2E/DX2                !
 ! A13   A(5,6,7)              108.0687         estimate D2E/DX2                !
 ! A14   A(5,6,8)              108.0687         estimate D2E/DX2                !
 ! A15   A(5,6,9)              116.915          estimate D2E/DX2                !
 ! A16   A(7,6,8)              105.8765         estimate D2E/DX2                !
 ! A17   A(7,6,9)              108.6851         estimate D2E/DX2                !
 ! A18   A(8,6,9)              108.6852         estimate D2E/DX2                !
 ! A19   A(6,9,10)             112.0296         estimate D2E/DX2                !
 ! A20   A(6,9,11)             110.2629         estimate D2E/DX2                !
 ! A21   A(10,9,11)            107.27           estimate D2E/DX2                !
 ! A22   A(5,12,13)            111.913          estimate D2E/DX2                !
 ! A23   A(5,12,14)            111.1551         estimate D2E/DX2                !
 ! A24   A(5,12,15)            110.724          estimate D2E/DX2                !
 ! A25   A(13,12,14)           107.8276         estimate D2E/DX2                !
 ! A26   A(13,12,15)           107.389          estimate D2E/DX2                !
 ! A27   A(14,12,15)           107.6407         estimate D2E/DX2                !
 ! A28   A(5,16,17)            110.7241         estimate D2E/DX2                !
 ! A29   A(5,16,18)            111.155          estimate D2E/DX2                !
 ! A30   A(5,16,19)            111.913          estimate D2E/DX2                !
 ! A31   A(17,16,18)           107.6408         estimate D2E/DX2                !
 ! A32   A(17,16,19)           107.3889         estimate D2E/DX2                !
 ! A33   A(18,16,19)           107.8276         estimate D2E/DX2                !
 ! D1    D(2,1,5,6)             60.0094         estimate D2E/DX2                !
 ! D2    D(2,1,5,12)          -179.6279         estimate D2E/DX2                !
 ! D3    D(2,1,5,16)           -60.3531         estimate D2E/DX2                !
 ! D4    D(3,1,5,6)            -60.01           estimate D2E/DX2                !
 ! D5    D(3,1,5,12)            60.3526         estimate D2E/DX2                !
 ! D6    D(3,1,5,16)           179.6274         estimate D2E/DX2                !
 ! D7    D(4,1,5,6)            179.9997         estimate D2E/DX2                !
 ! D8    D(4,1,5,12)           -59.6377         estimate D2E/DX2                !
 ! D9    D(4,1,5,16)            59.6371         estimate D2E/DX2                !
 ! D10   D(1,5,6,7)             57.0744         estimate D2E/DX2                !
 ! D11   D(1,5,6,8)            -57.0751         estimate D2E/DX2                !
 ! D12   D(1,5,6,9)            179.9996         estimate D2E/DX2                !
 ! D13   D(12,5,6,7)           -62.0124         estimate D2E/DX2                !
 ! D14   D(12,5,6,8)          -176.1619         estimate D2E/DX2                !
 ! D15   D(12,5,6,9)            60.9128         estimate D2E/DX2                !
 ! D16   D(16,5,6,7)           176.1612         estimate D2E/DX2                !
 ! D17   D(16,5,6,8)            62.0117         estimate D2E/DX2                !
 ! D18   D(16,5,6,9)           -60.9136         estimate D2E/DX2                !
 ! D19   D(1,5,12,13)          177.2395         estimate D2E/DX2                !
 ! D20   D(1,5,12,14)          -62.1296         estimate D2E/DX2                !
 ! D21   D(1,5,12,15)           57.4635         estimate D2E/DX2                !
 ! D22   D(6,5,12,13)          -64.1959         estimate D2E/DX2                !
 ! D23   D(6,5,12,14)           56.435          estimate D2E/DX2                !
 ! D24   D(6,5,12,15)          176.0282         estimate D2E/DX2                !
 ! D25   D(16,5,12,13)          58.4016         estimate D2E/DX2                !
 ! D26   D(16,5,12,14)         179.0325         estimate D2E/DX2                !
 ! D27   D(16,5,12,15)         -61.3744         estimate D2E/DX2                !
 ! D28   D(1,5,16,17)          -57.4641         estimate D2E/DX2                !
 ! D29   D(1,5,16,18)           62.129          estimate D2E/DX2                !
 ! D30   D(1,5,16,19)         -177.2401         estimate D2E/DX2                !
 ! D31   D(6,5,16,17)         -176.0287         estimate D2E/DX2                !
 ! D32   D(6,5,16,18)          -56.4356         estimate D2E/DX2                !
 ! D33   D(6,5,16,19)           64.1953         estimate D2E/DX2                !
 ! D34   D(12,5,16,17)          61.3738         estimate D2E/DX2                !
 ! D35   D(12,5,16,18)        -179.0331         estimate D2E/DX2                !
 ! D36   D(12,5,16,19)         -58.4022         estimate D2E/DX2                !
 ! D37   D(5,6,9,10)            60.6085         estimate D2E/DX2                !
 ! D38   D(5,6,9,11)           179.9992         estimate D2E/DX2                !
 ! D39   D(7,6,9,10)          -176.7844         estimate D2E/DX2                !
 ! D40   D(7,6,9,11)           -57.3938         estimate D2E/DX2                !
 ! D41   D(8,6,9,10)           -61.9986         estimate D2E/DX2                !
 ! D42   D(8,6,9,11)            57.3921         estimate D2E/DX2                !
 --------------------------------------------------------------------------------
 Trust Radius=3.00D-01 FncErr=1.00D-07 GrdErr=1.00D-06
 Number of steps in this run=    103 maximum allowed number of steps=    114.
 GradGradGradGradGradGradGradGradGradGradGradGradGradGradGradGradGradGrad

 Leave Link  103 at Sat Nov  7 02:15:17 2015, MaxMem=   805306368 cpu:         0.0
 (Enter /home/hetanjin/apps/g09D01/g09/l202.exe)
                          Input orientation:                          
 ---------------------------------------------------------------------
 Center     Atomic      Atomic             Coordinates (Angstroms)
 Number     Number       Type             X           Y           Z
 ---------------------------------------------------------------------
      1          6           0        1.618032    0.989661   -0.000046
      2          1           0        1.593672    1.636429    0.885962
      3          1           0        1.593672    1.636347   -0.886113
      4          1           0        2.578316    0.459293   -0.000021
      5          6           0        0.436353   -0.000500    0.000000
      6          6           0       -0.878586    0.823914   -0.000030
      7          1           0       -0.865713    1.486486   -0.877558
      8          1           0       -0.865712    1.486551    0.877447
      9          6           0       -2.193477    0.033880   -0.000001
     10          1           0       -2.289029   -0.605019    0.884964
     11          1           0       -3.048488    0.719808   -0.000012
     12          6           0        0.528897   -0.885012   -1.258652
     13          1           0       -0.262439   -1.642476   -1.285245
     14          1           0        0.448512   -0.282917   -2.172624
     15          1           0        1.489696   -1.413344   -1.292039
     16          6           0        0.528906   -0.884904    1.258727
     17          1           0        1.489700   -1.413241    1.292148
     18          1           0        0.448537   -0.282728    2.172647
     19          1           0       -0.262436   -1.642360    1.285396
 ---------------------------------------------------------------------
                    Distance matrix (angstroms):
                    1          2          3          4          5
     1  C    0.000000
     2  H    1.097229   0.000000
     3  H    1.097229   1.772075   0.000000
     4  H    1.097012   1.772044   1.772044   0.000000
     5  C    1.541682   2.191769   2.191769   2.190757   0.000000
     6  C    2.502114   2.749040   2.749045   3.476078   1.552006
     7  H    2.680644   3.030026   2.463961   3.699531   2.162547
     8  H    2.680649   2.463961   3.030042   3.699532   2.162546
     9  C    3.929519   4.206613   4.206613   4.790719   2.630055
    10  H    4.311771   4.483242   4.820353   5.060337   2.928534
    11  H    4.674316   4.814021   4.814028   5.632832   3.558505
    12  C    2.506931   3.477180   2.762206   2.755254   1.541146
    13  H    3.480812   4.348621   3.788817   3.760202   2.199148
    14  H    2.776207   3.788170   2.578774   3.131636   2.190936
    15  H    2.731327   3.749082   3.078344   2.522137   2.185183
    16  C    2.506930   2.762209   3.477179   2.755248   1.541146
    17  H    2.731332   3.078357   3.749082   2.522136   2.185183
    18  H    2.776200   2.578770   3.788165   3.131619   2.190935
    19  H    3.480812   3.788818   4.348621   3.760201   2.199148
                    6          7          8          9         10
     6  C    0.000000
     7  H    1.099647   0.000000
     8  H    1.099645   1.755005   0.000000
     9  C    1.533979   2.154792   2.154792   0.000000
    10  H    2.194177   3.083295   2.529931   1.095667   0.000000
    11  H    2.172398   2.474346   2.474336   1.096148   1.764972
    12  C    2.546677   2.777440   3.483126   3.136859   3.551646
    13  H    2.848595   3.212562   3.851232   2.861980   3.145344
    14  H    2.776046   2.556398   3.763128   3.435223   4.116640
    15  H    3.504764   3.758824   4.320186   4.162882   4.435256
    16  C    2.546677   3.483126   2.777433   3.136866   2.856360
    17  H    3.504763   4.320186   3.758821   4.162884   3.885591
    18  H    2.776047   3.763127   2.556392   3.435241   3.042411
    19  H    2.848591   3.851232   3.212545   2.861983   2.311601
                   11         12         13         14         15
    11  H    0.000000
    12  C    4.117925   0.000000
    13  H    3.872245   1.095752   0.000000
    14  H    4.237300   1.097417   1.772369   0.000000
    15  H    5.178299   1.096989   1.767067   1.771259   0.000000
    16  C    4.117921   2.517379   2.769826   3.484684   2.776468
    17  H    5.178294   2.776463   3.124979   3.790297   2.584187
    18  H    4.237300   3.484683   3.783044   4.345271   3.790297
    19  H    3.872234   2.769831   2.570641   3.783046   3.124994
                   16         17         18         19
    16  C    0.000000
    17  H    1.096988   0.000000
    18  H    1.097417   1.771259   0.000000
    19  H    1.095752   1.767066   1.772370   0.000000
 Stoichiometry    C6H13(2)
 Framework group  C1[X(C6H13)]
 Deg. of freedom    51
 Full point group                 C1      NOp   1
 Largest Abelian subgroup         C1      NOp   1
 Largest concise Abelian subgroup C1      NOp   1
                         Standard orientation:                         
 ---------------------------------------------------------------------
 Center     Atomic      Atomic             Coordinates (Angstroms)
 Number     Number       Type             X           Y           Z
 ---------------------------------------------------------------------
      1          6           0        1.540901   -0.883900   -0.518508
      2          1           0        1.459153   -1.045231   -1.600729
      3          1           0        1.535562   -1.867869   -0.033030
      4          1           0        2.515626   -0.420214   -0.322701
      5          6           0        0.390264    0.000537    0.001675
      6          6           0       -0.947368   -0.721344   -0.311939
      7          1           0       -0.916364   -1.715653    0.156688
      8          1           0       -0.992036   -0.900925   -1.395902
      9          6           0       -2.236980   -0.013322    0.122454
     10          1           0       -2.351573    0.963995   -0.359423
     11          1           0       -3.111200   -0.615442   -0.150918
     12          6           0        0.563234    0.198996    1.520170
     13          1           0       -0.203361    0.862509    1.935806
     14          1           0        0.504476   -0.758081    2.053907
     15          1           0        1.539854    0.645364    1.744565
     16          6           0        0.454697    1.367628   -0.706872
     17          1           0        1.428432    1.845017   -0.541576
     18          1           0        0.317139    1.259103   -1.790212
     19          1           0       -0.314201    2.055862   -0.338357
 ---------------------------------------------------------------------
 Rotational constants (GHZ):      4.3080578      2.5488993      2.5278574
 Leave Link  202 at Sat Nov  7 02:15:17 2015, MaxMem=   805306368 cpu:         0.0
 (Enter /home/hetanjin/apps/g09D01/g09/l301.exe)
 Standard basis: 6-31G(d) (6D, 7F)
 Ernie: Thresh=  0.10000D-02 Tol=  0.10000D-05 Strict=F.
 There are   116 symmetry adapted cartesian basis functions of A   symmetry.
 There are   116 symmetry adapted basis functions of A   symmetry.
   116 basis functions,   220 primitive gaussians,   116 cartesian basis functions
    25 alpha electrons       24 beta electrons
       nuclear repulsion energy       254.4325590254 Hartrees.
 IExCor=  402 DFT=T Ex+Corr=B3LYP ExCW=0 ScaHFX=  0.200000
 ScaDFX=  0.800000  0.720000  1.000000  0.810000 ScalE2=  1.000000  1.000000
 IRadAn=      5 IRanWt=     -1 IRanGd=            0 ICorTp=0 IEmpDi=  4
 NAtoms=   19 NActive=   19 NUniq=   19 SFac= 1.00D+00 NAtFMM=   60 NAOKFM=F Big=F
 Integral buffers will be    131072 words long.
 Raffenetti 2 integral format.
 Two-electron integral symmetry is turned on.
 Leave Link  301 at Sat Nov  7 02:15:17 2015, MaxMem=   805306368 cpu:         0.1
 (Enter /home/hetanjin/apps/g09D01/g09/l302.exe)
 NPDir=0 NMtPBC=     1 NCelOv=     1 NCel=       1 NClECP=     1 NCelD=      1
         NCelK=      1 NCelE2=     1 NClLst=     1 CellRange=     0.0.
 One-electron integrals computed using PRISM.
 NBasis=   116 RedAO= T EigKep=  3.83D-03  NBF=   116
 NBsUse=   116 1.00D-06 EigRej= -1.00D+00 NBFU=   116
 Precomputing XC quadrature grid using
 IXCGrd= 4 IRadAn=           5 IRanWt=          -1 IRanGd=           0 AccXCQ= 0.00D+00.
 Generated NRdTot=       0 NPtTot=           0 NUsed=           0 NTot=          32
 NSgBfM=   116   116   116   116   116 MxSgAt=    19 MxSgA2=    19.
 Leave Link  302 at Sat Nov  7 02:15:18 2015, MaxMem=   805306368 cpu:         1.7
 (Enter /home/hetanjin/apps/g09D01/g09/l303.exe)
 DipDrv:  MaxL=1.
 Leave Link  303 at Sat Nov  7 02:15:18 2015, MaxMem=   805306368 cpu:         0.1
 (Enter /home/hetanjin/apps/g09D01/g09/l401.exe)
 ExpMin= 1.61D-01 ExpMax= 3.05D+03 ExpMxC= 4.57D+02 IAcc=3 IRadAn=         5 AccDes= 0.00D+00
 Harris functional with IExCor=  402 and IRadAn=       5 diagonalized for initial guess.
 HarFok:  IExCor=  402 AccDes= 0.00D+00 IRadAn=         5 IDoV= 1 UseB2=F ITyADJ=14
 ICtDFT=  3500011 ScaDFX=  1.000000  1.000000  1.000000  1.000000
 FoFCou: FMM=F IPFlag=           0 FMFlag=      100000 FMFlg1=           0
         NFxFlg=           0 DoJE=T BraDBF=F KetDBF=T FulRan=T
         wScrn=  0.000000 ICntrl=     500 IOpCl=  0 I1Cent=   200000004 NGrid=           0
         NMat0=    1 NMatS0=      1 NMatT0=    0 NMatD0=    1 NMtDS0=    0 NMtDT0=    0
 Petite list used in FoFCou.
 Harris En= -236.441378348239    
 JPrj=0 DoOrth=F DoCkMO=F.
 Initial guess <Sx>= 0.0000 <Sy>= 0.0000 <Sz>= 0.5000 <S**2>= 0.7500 S= 0.5000
 Leave Link  401 at Sat Nov  7 02:15:20 2015, MaxMem=   805306368 cpu:         9.0
 (Enter /home/hetanjin/apps/g09D01/g09/l502.exe)
 UHF open shell SCF:
 Using DIIS extrapolation, IDIIS=  1040.
 Integral symmetry usage will be decided dynamically.
 Keep R1 and R2 ints in memory in canonical form, NReq=47059932.
 IVT=       60514 IEndB=       60514 NGot=   805306368 MDV=   759189273
 LenX=   759189273 LenY=   759175376
 Requested convergence on RMS density matrix=1.00D-08 within 128 cycles.
 Requested convergence on MAX density matrix=1.00D-06.
 Requested convergence on             energy=1.00D-06.
 No special actions if energy rises.
 FoFCou: FMM=F IPFlag=           0 FMFlag=           0 FMFlg1=           0
         NFxFlg=           0 DoJE=F BraDBF=F KetDBF=F FulRan=T
         wScrn=  0.000000 ICntrl=     600 IOpCl=  0 I1Cent=           0 NGrid=           0
         NMat0=    1 NMatS0=   6786 NMatT0=    0 NMatD0=    1 NMtDS0=    0 NMtDT0=    0
 Symmetry not used in FoFCou.
 Integral accuracy reduced to 1.0D-05 until final iterations.

 Cycle   1  Pass 0  IDiag  1:
 E= -236.142782361053    
 DIIS: error= 5.07D-02 at cycle   1 NSaved=   1.
 NSaved= 1 IEnMin= 1 EnMin= -236.142782361053     IErMin= 1 ErrMin= 5.07D-02
 ErrMax= 5.07D-02  0.00D+00 EMaxC= 1.00D-01 BMatC= 9.26D-01 BMatP= 9.26D-01
 IDIUse=3 WtCom= 4.93D-01 WtEn= 5.07D-01
 Coeff-Com:  0.100D+01
 Coeff-En:   0.100D+01
 Coeff:      0.100D+01
 Gap=     0.279 Goal=   None    Shift=    0.000
 Gap=     0.222 Goal=   None    Shift=    0.000
 GapD=    0.222 DampG=1.000 DampE=0.500 DampFc=0.5000 IDamp=-1.
 Damping current iteration by 5.00D-01
 RMSDP=9.89D-03 MaxDP=1.44D-01              OVMax= 1.80D-01

 Cycle   2  Pass 0  IDiag  1:
 E= -236.256874215000     Delta-E=       -0.114091853948 Rises=F Damp=T
 DIIS: error= 9.41D-03 at cycle   2 NSaved=   2.
 NSaved= 2 IEnMin= 2 EnMin= -236.256874215000     IErMin= 2 ErrMin= 9.41D-03
 ErrMax= 9.41D-03  0.00D+00 EMaxC= 1.00D-01 BMatC= 4.00D-02 BMatP= 9.26D-01
 IDIUse=3 WtCom= 9.06D-01 WtEn= 9.41D-02
 Coeff-Com:  0.770D-01 0.923D+00
 Coeff-En:   0.132D+00 0.868D+00
 Coeff:      0.821D-01 0.918D+00
 Gap=     0.302 Goal=   None    Shift=    0.000
 Gap=     0.260 Goal=   None    Shift=    0.000
 RMSDP=1.80D-03 MaxDP=2.68D-02 DE=-1.14D-01 OVMax= 1.09D-01

 Cycle   3  Pass 0  IDiag  1:
 E= -236.399676073895     Delta-E=       -0.142801858895 Rises=F Damp=F
 DIIS: error= 3.67D-03 at cycle   3 NSaved=   3.
 NSaved= 3 IEnMin= 3 EnMin= -236.399676073895     IErMin= 3 ErrMin= 3.67D-03
 ErrMax= 3.67D-03  0.00D+00 EMaxC= 1.00D-01 BMatC= 6.84D-03 BMatP= 4.00D-02
 IDIUse=3 WtCom= 9.63D-01 WtEn= 3.67D-02
 Coeff-Com:  0.275D-02 0.231D+00 0.766D+00
 Coeff-En:   0.000D+00 0.000D+00 0.100D+01
 Coeff:      0.264D-02 0.222D+00 0.775D+00
 Gap=     0.308 Goal=   None    Shift=    0.000
 Gap=     0.239 Goal=   None    Shift=    0.000
 RMSDP=6.68D-04 MaxDP=1.74D-02 DE=-1.43D-01 OVMax= 1.39D-02

 Cycle   4  Pass 0  IDiag  1:
 E= -236.400604563715     Delta-E=       -0.000928489819 Rises=F Damp=F
 DIIS: error= 2.28D-03 at cycle   4 NSaved=   4.
 NSaved= 4 IEnMin= 4 EnMin= -236.400604563715     IErMin= 4 ErrMin= 2.28D-03
 ErrMax= 2.28D-03  0.00D+00 EMaxC= 1.00D-01 BMatC= 3.45D-03 BMatP= 6.84D-03
 IDIUse=3 WtCom= 9.77D-01 WtEn= 2.28D-02
 Coeff-Com: -0.475D-02 0.306D-01 0.420D+00 0.554D+00
 Coeff-En:   0.000D+00 0.000D+00 0.321D+00 0.679D+00
 Coeff:     -0.464D-02 0.299D-01 0.418D+00 0.557D+00
 Gap=     0.305 Goal=   None    Shift=    0.000
 Gap=     0.246 Goal=   None    Shift=    0.000
 RMSDP=2.58D-04 MaxDP=6.27D-03 DE=-9.28D-04 OVMax= 6.82D-03

 Cycle   5  Pass 0  IDiag  1:
 E= -236.401426634181     Delta-E=       -0.000822070467 Rises=F Damp=F
 DIIS: error= 2.28D-04 at cycle   5 NSaved=   5.
 NSaved= 5 IEnMin= 5 EnMin= -236.401426634181     IErMin= 5 ErrMin= 2.28D-04
 ErrMax= 2.28D-04  0.00D+00 EMaxC= 1.00D-01 BMatC= 4.56D-05 BMatP= 3.45D-03
 IDIUse=3 WtCom= 9.98D-01 WtEn= 2.28D-03
 Coeff-Com: -0.932D-03-0.417D-02 0.809D-01 0.162D+00 0.762D+00
 Coeff-En:   0.000D+00 0.000D+00 0.000D+00 0.000D+00 0.100D+01
 Coeff:     -0.930D-03-0.416D-02 0.807D-01 0.162D+00 0.763D+00
 Gap=     0.305 Goal=   None    Shift=    0.000
 Gap=     0.246 Goal=   None    Shift=    0.000
 RMSDP=3.70D-05 MaxDP=7.79D-04 DE=-8.22D-04 OVMax= 8.92D-04

 Cycle   6  Pass 0  IDiag  1:
 E= -236.401438891471     Delta-E=       -0.000012257290 Rises=F Damp=F
 DIIS: error= 7.09D-05 at cycle   6 NSaved=   6.
 NSaved= 6 IEnMin= 6 EnMin= -236.401438891471     IErMin= 6 ErrMin= 7.09D-05
 ErrMax= 7.09D-05  0.00D+00 EMaxC= 1.00D-01 BMatC= 2.15D-06 BMatP= 4.56D-05
 IDIUse=1 WtCom= 1.00D+00 WtEn= 0.00D+00
 Coeff-Com:  0.155D-03-0.187D-02-0.136D-01-0.142D-01 0.605D-01 0.969D+00
 Coeff:      0.155D-03-0.187D-02-0.136D-01-0.142D-01 0.605D-01 0.969D+00
 Gap=     0.306 Goal=   None    Shift=    0.000
 Gap=     0.246 Goal=   None    Shift=    0.000
 RMSDP=1.30D-05 MaxDP=4.48D-04 DE=-1.23D-05 OVMax= 3.92D-04

 Cycle   7  Pass 0  IDiag  1:
 E= -236.401439849030     Delta-E=       -0.000000957559 Rises=F Damp=F
 DIIS: error= 3.17D-05 at cycle   7 NSaved=   7.
 NSaved= 7 IEnMin= 7 EnMin= -236.401439849030     IErMin= 7 ErrMin= 3.17D-05
 ErrMax= 3.17D-05  0.00D+00 EMaxC= 1.00D-01 BMatC= 9.18D-07 BMatP= 2.15D-06
 IDIUse=1 WtCom= 1.00D+00 WtEn= 0.00D+00
 Coeff-Com:  0.198D-03-0.848D-04-0.192D-01-0.329D-01-0.102D+00 0.430D+00
 Coeff-Com:  0.724D+00
 Coeff:      0.198D-03-0.848D-04-0.192D-01-0.329D-01-0.102D+00 0.430D+00
 Coeff:      0.724D+00
 Gap=     0.306 Goal=   None    Shift=    0.000
 Gap=     0.247 Goal=   None    Shift=    0.000
 RMSDP=5.78D-06 MaxDP=1.89D-04 DE=-9.58D-07 OVMax= 1.63D-04

 Initial convergence to 1.0D-05 achieved.  Increase integral accuracy.
 Cycle   8  Pass 1  IDiag  1:
 E= -236.401438177141     Delta-E=        0.000001671889 Rises=F Damp=F
 DIIS: error= 1.12D-05 at cycle   1 NSaved=   1.
 NSaved= 1 IEnMin= 1 EnMin= -236.401438177141     IErMin= 1 ErrMin= 1.12D-05
 ErrMax= 1.12D-05  0.00D+00 EMaxC= 1.00D-01 BMatC= 9.89D-08 BMatP= 9.89D-08
 IDIUse=1 WtCom= 1.00D+00 WtEn= 0.00D+00
 Coeff-Com:  0.100D+01
 Coeff:      0.100D+01
 Gap=     0.306 Goal=   None    Shift=    0.000
 Gap=     0.247 Goal=   None    Shift=    0.000
 RMSDP=5.78D-06 MaxDP=1.89D-04 DE= 1.67D-06 OVMax= 5.19D-05

 Cycle   9  Pass 1  IDiag  1:
 E= -236.401438192078     Delta-E=       -0.000000014937 Rises=F Damp=F
 DIIS: error= 1.29D-05 at cycle   2 NSaved=   2.
 NSaved= 2 IEnMin= 2 EnMin= -236.401438192078     IErMin= 1 ErrMin= 1.12D-05
 ErrMax= 1.29D-05  0.00D+00 EMaxC= 1.00D-01 BMatC= 8.21D-08 BMatP= 9.89D-08
 IDIUse=1 WtCom= 1.00D+00 WtEn= 0.00D+00
 Coeff-Com:  0.472D+00 0.528D+00
 Coeff:      0.472D+00 0.528D+00
 Gap=     0.306 Goal=   None    Shift=    0.000
 Gap=     0.247 Goal=   None    Shift=    0.000
 RMSDP=1.18D-06 MaxDP=2.76D-05 DE=-1.49D-08 OVMax= 3.06D-05

 Cycle  10  Pass 1  IDiag  1:
 E= -236.401438212115     Delta-E=       -0.000000020037 Rises=F Damp=F
 DIIS: error= 1.99D-06 at cycle   3 NSaved=   3.
 NSaved= 3 IEnMin= 3 EnMin= -236.401438212115     IErMin= 3 ErrMin= 1.99D-06
 ErrMax= 1.99D-06  0.00D+00 EMaxC= 1.00D-01 BMatC= 3.52D-09 BMatP= 8.21D-08
 IDIUse=1 WtCom= 1.00D+00 WtEn= 0.00D+00
 Coeff-Com: -0.361D-01 0.110D+00 0.926D+00
 Coeff:     -0.361D-01 0.110D+00 0.926D+00
 Gap=     0.306 Goal=   None    Shift=    0.000
 Gap=     0.247 Goal=   None    Shift=    0.000
 RMSDP=4.51D-07 MaxDP=9.63D-06 DE=-2.00D-08 OVMax= 1.23D-05

 Cycle  11  Pass 1  IDiag  1:
 E= -236.401438213458     Delta-E=       -0.000000001343 Rises=F Damp=F
 DIIS: error= 9.40D-07 at cycle   4 NSaved=   4.
 NSaved= 4 IEnMin= 4 EnMin= -236.401438213458     IErMin= 4 ErrMin= 9.40D-07
 ErrMax= 9.40D-07  0.00D+00 EMaxC= 1.00D-01 BMatC= 5.87D-10 BMatP= 3.52D-09
 IDIUse=1 WtCom= 1.00D+00 WtEn= 0.00D+00
 Coeff-Com: -0.657D-01-0.288D-01 0.292D+00 0.803D+00
 Coeff:     -0.657D-01-0.288D-01 0.292D+00 0.803D+00
 Gap=     0.306 Goal=   None    Shift=    0.000
 Gap=     0.247 Goal=   None    Shift=    0.000
 RMSDP=1.98D-07 MaxDP=4.94D-06 DE=-1.34D-09 OVMax= 5.05D-06

 Cycle  12  Pass 1  IDiag  1:
 E= -236.401438213695     Delta-E=       -0.000000000237 Rises=F Damp=F
 DIIS: error= 3.58D-07 at cycle   5 NSaved=   5.
 NSaved= 5 IEnMin= 5 EnMin= -236.401438213695     IErMin= 5 ErrMin= 3.58D-07
 ErrMax= 3.58D-07  0.00D+00 EMaxC= 1.00D-01 BMatC= 6.73D-11 BMatP= 5.87D-10
 IDIUse=1 WtCom= 1.00D+00 WtEn= 0.00D+00
 Coeff-Com: -0.111D-01-0.216D-01-0.641D-01 0.182D+00 0.915D+00
 Coeff:     -0.111D-01-0.216D-01-0.641D-01 0.182D+00 0.915D+00
 Gap=     0.306 Goal=   None    Shift=    0.000
 Gap=     0.247 Goal=   None    Shift=    0.000
 RMSDP=6.77D-08 MaxDP=2.82D-06 DE=-2.37D-10 OVMax= 2.30D-06

 Cycle  13  Pass 1  IDiag  1:
 E= -236.401438213719     Delta-E=       -0.000000000024 Rises=F Damp=F
 DIIS: error= 1.98D-07 at cycle   6 NSaved=   6.
 NSaved= 6 IEnMin= 6 EnMin= -236.401438213719     IErMin= 6 ErrMin= 1.98D-07
 ErrMax= 1.98D-07  0.00D+00 EMaxC= 1.00D-01 BMatC= 1.96D-11 BMatP= 6.73D-11
 IDIUse=1 WtCom= 1.00D+00 WtEn= 0.00D+00
 Coeff-Com:  0.406D-02-0.619D-02-0.746D-01-0.249D-01 0.450D+00 0.652D+00
 Coeff:      0.406D-02-0.619D-02-0.746D-01-0.249D-01 0.450D+00 0.652D+00
 Gap=     0.306 Goal=   None    Shift=    0.000
 Gap=     0.247 Goal=   None    Shift=    0.000
 RMSDP=2.30D-08 MaxDP=9.68D-07 DE=-2.44D-11 OVMax= 8.19D-07

 Cycle  14  Pass 1  IDiag  1:
 E= -236.401438213727     Delta-E=       -0.000000000008 Rises=F Damp=F
 DIIS: error= 1.47D-08 at cycle   7 NSaved=   7.
 NSaved= 7 IEnMin= 7 EnMin= -236.401438213727     IErMin= 7 ErrMin= 1.47D-08
 ErrMax= 1.47D-08  0.00D+00 EMaxC= 1.00D-01 BMatC= 1.36D-13 BMatP= 1.96D-11
 IDIUse=1 WtCom= 1.00D+00 WtEn= 0.00D+00
 Coeff-Com:  0.995D-03-0.527D-03-0.118D-01-0.811D-02 0.550D-01 0.115D+00
 Coeff-Com:  0.849D+00
 Coeff:      0.995D-03-0.527D-03-0.118D-01-0.811D-02 0.550D-01 0.115D+00
 Coeff:      0.849D+00
 Gap=     0.306 Goal=   None    Shift=    0.000
 Gap=     0.247 Goal=   None    Shift=    0.000
 RMSDP=2.70D-09 MaxDP=7.68D-08 DE=-7.96D-12 OVMax= 8.42D-08

 SCF Done:  E(UB3LYP) =  -236.401438214     A.U. after   14 cycles
            NFock= 14  Conv=0.27D-08     -V/T= 2.0104
 <Sx>= 0.0000 <Sy>= 0.0000 <Sz>= 0.5000 <S**2>= 0.7527 S= 0.5013
 <L.S>= 0.000000000000E+00
 KE= 2.339689117664D+02 PE=-1.054426353843D+03 EE= 3.296234448376D+02
 Annihilation of the first spin contaminant:
 S**2 before annihilation     0.7527,   after     0.7500
 Leave Link  502 at Sat Nov  7 02:16:05 2015, MaxMem=   805306368 cpu:       170.3
 (Enter /home/hetanjin/apps/g09D01/g09/l601.exe)
 Copying SCF densities to generalized density rwf, IOpCl= 1 IROHF=0.

 **********************************************************************

            Population analysis using the SCF density.

 **********************************************************************

 Orbital symmetries:
 Alpha Orbitals:
       Occupied  (A) (A) (A) (A) (A) (A) (A) (A) (A) (A) (A) (A)
                 (A) (A) (A) (A) (A) (A) (A) (A) (A) (A) (A) (A)
                 (A)
       Virtual   (A) (A) (A) (A) (A) (A) (A) (A) (A) (A) (A) (A)
                 (A) (A) (A) (A) (A) (A) (A) (A) (A) (A) (A) (A)
                 (A) (A) (A) (A) (A) (A) (A) (A) (A) (A) (A) (A)
                 (A) (A) (A) (A) (A) (A) (A) (A) (A) (A) (A) (A)
                 (A) (A) (A) (A) (A) (A) (A) (A) (A) (A) (A) (A)
                 (A) (A) (A) (A) (A) (A) (A) (A) (A) (A) (A) (A)
                 (A) (A) (A) (A) (A) (A) (A) (A) (A) (A) (A) (A)
                 (A) (A) (A) (A) (A) (A) (A)
 Beta  Orbitals:
       Occupied  (A) (A) (A) (A) (A) (A) (A) (A) (A) (A) (A) (A)
                 (A) (A) (A) (A) (A) (A) (A) (A) (A) (A) (A) (A)
       Virtual   (A) (A) (A) (A) (A) (A) (A) (A) (A) (A) (A) (A)
                 (A) (A) (A) (A) (A) (A) (A) (A) (A) (A) (A) (A)
                 (A) (A) (A) (A) (A) (A) (A) (A) (A) (A) (A) (A)
                 (A) (A) (A) (A) (A) (A) (A) (A) (A) (A) (A) (A)
                 (A) (A) (A) (A) (A) (A) (A) (A) (A) (A) (A) (A)
                 (A) (A) (A) (A) (A) (A) (A) (A) (A) (A) (A) (A)
                 (A) (A) (A) (A) (A) (A) (A) (A) (A) (A) (A) (A)
                 (A) (A) (A) (A) (A) (A) (A) (A)
 The electronic state is 2-A.
 Alpha  occ. eigenvalues --  -10.19536 -10.19336 -10.18253 -10.16885 -10.16877
 Alpha  occ. eigenvalues --  -10.16652  -0.81858  -0.73122  -0.67930  -0.67739
 Alpha  occ. eigenvalues --   -0.61274  -0.52310  -0.45514  -0.44956  -0.43210
 Alpha  occ. eigenvalues --   -0.41013  -0.39695  -0.37833  -0.36529  -0.35936
 Alpha  occ. eigenvalues --   -0.35410  -0.31900  -0.31266  -0.30852  -0.22820
 Alpha virt. eigenvalues --    0.07753   0.12498   0.13539   0.13622   0.14356
 Alpha virt. eigenvalues --    0.15583   0.16190   0.17657   0.18806   0.19700
 Alpha virt. eigenvalues --    0.20462   0.22215   0.22454   0.23073   0.24844
 Alpha virt. eigenvalues --    0.25894   0.26134   0.27127   0.49451   0.50528
 Alpha virt. eigenvalues --    0.50904   0.51694   0.52255   0.58726   0.59915
 Alpha virt. eigenvalues --    0.61850   0.63133   0.67114   0.69864   0.71678
 Alpha virt. eigenvalues --    0.74895   0.75505   0.81884   0.85837   0.86734
 Alpha virt. eigenvalues --    0.88113   0.89000   0.90844   0.91002   0.91209
 Alpha virt. eigenvalues --    0.92410   0.93273   0.95174   0.95372   0.95706
 Alpha virt. eigenvalues --    0.97080   0.98045   0.98551   1.00767   1.01537
 Alpha virt. eigenvalues --    1.16563   1.38933   1.40354   1.48628   1.50878
 Alpha virt. eigenvalues --    1.53714   1.62125   1.67693   1.72816   1.73141
 Alpha virt. eigenvalues --    1.79993   1.83561   1.87230   1.87956   1.92822
 Alpha virt. eigenvalues --    1.94374   2.03738   2.09360   2.10226   2.11366
 Alpha virt. eigenvalues --    2.12441   2.21012   2.24940   2.25311   2.25771
 Alpha virt. eigenvalues --    2.27264   2.27743   2.30370   2.35182   2.48732
 Alpha virt. eigenvalues --    2.58104   2.68912   2.71613   2.73844   2.76009
 Alpha virt. eigenvalues --    4.09597   4.20472   4.31249   4.31385   4.41545
 Alpha virt. eigenvalues --    4.67454
  Beta  occ. eigenvalues --  -10.19320 -10.18281 -10.18093 -10.16886 -10.16879
  Beta  occ. eigenvalues --  -10.16643  -0.81660  -0.71679  -0.67922  -0.67711
  Beta  occ. eigenvalues --   -0.59527  -0.51993  -0.45271  -0.44542  -0.43048
  Beta  occ. eigenvalues --   -0.40431  -0.39367  -0.37433  -0.36066  -0.35908
  Beta  occ. eigenvalues --   -0.35012  -0.31703  -0.31078  -0.30630
  Beta virt. eigenvalues --   -0.05976   0.07957   0.13005   0.13598   0.13759
  Beta virt. eigenvalues --    0.14537   0.15911   0.16278   0.17787   0.19338
  Beta virt. eigenvalues --    0.19994   0.20813   0.22279   0.22553   0.23205
  Beta virt. eigenvalues --    0.24920   0.26169   0.26566   0.28043   0.49775
  Beta virt. eigenvalues --    0.51071   0.51423   0.52307   0.52888   0.59767
  Beta virt. eigenvalues --    0.61625   0.63219   0.64382   0.67629   0.70278
  Beta virt. eigenvalues --    0.72410   0.75012   0.75876   0.82374   0.86466
  Beta virt. eigenvalues --    0.86958   0.88282   0.89603   0.91015   0.91229
  Beta virt. eigenvalues --    0.91457   0.92635   0.93448   0.95260   0.95719
  Beta virt. eigenvalues --    0.95807   0.97911   0.98333   0.98888   1.01070
  Beta virt. eigenvalues --    1.02061   1.18047   1.39449   1.40696   1.48748
  Beta virt. eigenvalues --    1.50933   1.54784   1.63620   1.68416   1.72933
  Beta virt. eigenvalues --    1.73161   1.80329   1.86765   1.87630   1.89808
  Beta virt. eigenvalues --    1.93373   1.96607   2.06179   2.09395   2.10288
  Beta virt. eigenvalues --    2.11671   2.13509   2.22805   2.25010   2.25384
  Beta virt. eigenvalues --    2.26289   2.27294   2.28448   2.31188   2.36799
  Beta virt. eigenvalues --    2.49538   2.58160   2.69427   2.71652   2.74223
  Beta virt. eigenvalues --    2.76385   4.11546   4.21664   4.31257   4.31393
  Beta virt. eigenvalues --    4.42147   4.67500
          Condensed to atoms (all electrons):
               1          2          3          4          5          6
     1  C    5.157469   0.365289   0.366072   0.364849   0.384494  -0.057287
     2  H    0.365289   0.586948  -0.031140  -0.030576  -0.029572  -0.005428
     3  H    0.366072  -0.031140   0.583403  -0.030470  -0.029385  -0.005308
     4  H    0.364849  -0.030576  -0.030470   0.582266  -0.027754   0.005389
     5  C    0.384494  -0.029572  -0.029385  -0.027754   4.718849   0.387945
     6  C   -0.057287  -0.005428  -0.005308   0.005389   0.387945   5.067003
     7  H   -0.005254  -0.000258   0.005305  -0.000051  -0.035606   0.364600
     8  H   -0.005016   0.005329  -0.000254  -0.000044  -0.035650   0.356328
     9  C    0.004537  -0.000010  -0.000006  -0.000145  -0.037738   0.367367
    10  H    0.000048  -0.000003   0.000003   0.000002  -0.006968  -0.044123
    11  H   -0.000167  -0.000002  -0.000003   0.000002   0.004236  -0.035560
    12  C   -0.062623   0.005896  -0.004888  -0.004838   0.390866  -0.058556
    13  H    0.005629  -0.000191  -0.000053  -0.000041  -0.028025  -0.005834
    14  H   -0.004616  -0.000067   0.003968  -0.000140  -0.029124  -0.005192
    15  H   -0.005551  -0.000013  -0.000175   0.004441  -0.030489   0.005675
    16  C   -0.061898  -0.004994   0.005898  -0.004955   0.387027  -0.058156
    17  H   -0.005816  -0.000145  -0.000022   0.004410  -0.028921   0.005515
    18  H   -0.004644   0.003997  -0.000069  -0.000134  -0.030154  -0.004762
    19  H    0.005718  -0.000050  -0.000194  -0.000056  -0.028082  -0.005206
               7          8          9         10         11         12
     1  C   -0.005254  -0.005016   0.004537   0.000048  -0.000167  -0.062623
     2  H   -0.000258   0.005329  -0.000010  -0.000003  -0.000002   0.005896
     3  H    0.005305  -0.000254  -0.000006   0.000003  -0.000003  -0.004888
     4  H   -0.000051  -0.000044  -0.000145   0.000002   0.000002  -0.004838
     5  C   -0.035606  -0.035650  -0.037738  -0.006968   0.004236   0.390866
     6  C    0.364600   0.356328   0.367367  -0.044123  -0.035560  -0.058556
     7  H    0.608790  -0.036982  -0.039613   0.005283  -0.004568  -0.006618
     8  H   -0.036982   0.613579  -0.039026  -0.001769  -0.000729   0.006295
     9  C   -0.039613  -0.039026   5.323451   0.360827   0.353125  -0.003043
    10  H    0.005283  -0.001769   0.360827   0.588948  -0.045393  -0.000385
    11  H   -0.004568  -0.000729   0.353125  -0.045393   0.596383   0.000116
    12  C   -0.006618   0.006295  -0.003043  -0.000385   0.000116   5.142695
    13  H   -0.000140   0.000027   0.006918   0.000001  -0.000105   0.367681
    14  H    0.004588  -0.000043  -0.000023   0.000048  -0.000026   0.366105
    15  H   -0.000095  -0.000175   0.000054  -0.000022   0.000001   0.367180
    16  C    0.006189  -0.006836  -0.005649   0.003523   0.000095  -0.063189
    17  H   -0.000178  -0.000083   0.000077  -0.000117   0.000000  -0.004365
    18  H   -0.000036   0.004707  -0.000305   0.000289  -0.000026   0.005769
    19  H   -0.000063  -0.000062   0.002175   0.002632  -0.000092  -0.004818
              13         14         15         16         17         18
     1  C    0.005629  -0.004616  -0.005551  -0.061898  -0.005816  -0.004644
     2  H   -0.000191  -0.000067  -0.000013  -0.004994  -0.000145   0.003997
     3  H   -0.000053   0.003968  -0.000175   0.005898  -0.000022  -0.000069
     4  H   -0.000041  -0.000140   0.004441  -0.004955   0.004410  -0.000134
     5  C   -0.028025  -0.029124  -0.030489   0.387027  -0.028921  -0.030154
     6  C   -0.005834  -0.005192   0.005675  -0.058156   0.005515  -0.004762
     7  H   -0.000140   0.004588  -0.000095   0.006189  -0.000178  -0.000036
     8  H    0.000027  -0.000043  -0.000175  -0.006836  -0.000083   0.004707
     9  C    0.006918  -0.000023   0.000054  -0.005649   0.000077  -0.000305
    10  H    0.000001   0.000048  -0.000022   0.003523  -0.000117   0.000289
    11  H   -0.000105  -0.000026   0.000001   0.000095   0.000000  -0.000026
    12  C    0.367681   0.366105   0.367180  -0.063189  -0.004365   0.005769
    13  H    0.568828  -0.029629  -0.031159  -0.004855  -0.000214  -0.000020
    14  H   -0.029629   0.583803  -0.031252   0.005750  -0.000066  -0.000196
    15  H   -0.031159  -0.031252   0.587499  -0.004870   0.003836  -0.000061
    16  C   -0.004855   0.005750  -0.004870   5.153315   0.367555   0.365460
    17  H   -0.000214  -0.000066   0.003836   0.367555   0.581375  -0.030812
    18  H   -0.000020  -0.000196  -0.000061   0.365460  -0.030812   0.588177
    19  H    0.003961  -0.000032  -0.000161   0.367197  -0.030668  -0.031468
              19
     1  C    0.005718
     2  H   -0.000050
     3  H   -0.000194
     4  H   -0.000056
     5  C   -0.028082
     6  C   -0.005206
     7  H   -0.000063
     8  H   -0.000062
     9  C    0.002175
    10  H    0.002632
    11  H   -0.000092
    12  C   -0.004818
    13  H    0.003961
    14  H   -0.000032
    15  H   -0.000161
    16  C    0.367197
    17  H   -0.030668
    18  H   -0.031468
    19  H    0.575602
          Atomic-Atomic Spin Densities.
               1          2          3          4          5          6
     1  C   -0.001480  -0.000291   0.000068   0.000399  -0.000952   0.000386
     2  H   -0.000291   0.000032   0.000015   0.000030  -0.000403   0.000254
     3  H    0.000068   0.000015  -0.000036   0.000001   0.000032  -0.000009
     4  H    0.000399   0.000030   0.000001  -0.000772  -0.000074  -0.000046
     5  C   -0.000952  -0.000403   0.000032  -0.000074   0.019494   0.004522
     6  C    0.000386   0.000254  -0.000009  -0.000046   0.004522  -0.039076
     7  H   -0.000342  -0.000084   0.000024  -0.000013   0.004466   0.003414
     8  H    0.000598   0.000692  -0.000050   0.000015  -0.008470   0.013973
     9  C    0.000129  -0.000044  -0.000002  -0.000004  -0.006839  -0.035410
    10  H   -0.000025  -0.000004   0.000000   0.000000   0.001011   0.002551
    11  H   -0.000001  -0.000002   0.000001   0.000000   0.000168   0.002404
    12  C    0.001310   0.000107  -0.000039   0.000069  -0.006850   0.000045
    13  H   -0.000018   0.000004   0.000001   0.000003  -0.000225  -0.000729
    14  H    0.000052   0.000001  -0.000005   0.000001  -0.000173   0.000006
    15  H    0.000038   0.000006   0.000000   0.000002  -0.000107  -0.000089
    16  C    0.000331  -0.000122  -0.000003  -0.000049   0.000697   0.000142
    17  H    0.000022  -0.000023   0.000001  -0.000015  -0.000220  -0.000038
    18  H   -0.000036   0.000046  -0.000001   0.000004   0.000088   0.000085
    19  H   -0.000029   0.000006   0.000000   0.000005   0.000038  -0.000134
               7          8          9         10         11         12
     1  C   -0.000342   0.000598   0.000129  -0.000025  -0.000001   0.001310
     2  H   -0.000084   0.000692  -0.000044  -0.000004  -0.000002   0.000107
     3  H    0.000024  -0.000050  -0.000002   0.000000   0.000001  -0.000039
     4  H   -0.000013   0.000015  -0.000004   0.000000   0.000000   0.000069
     5  C    0.004466  -0.008470  -0.006839   0.001011   0.000168  -0.006850
     6  C    0.003414   0.013973  -0.035410   0.002551   0.002404   0.000045
     7  H    0.010234  -0.007008  -0.004437   0.000165   0.001205  -0.001004
     8  H   -0.007008   0.081078  -0.024656  -0.002552  -0.002674   0.000920
     9  C   -0.004437  -0.024656   1.130664  -0.013311  -0.011951   0.001077
    10  H    0.000165  -0.002552  -0.013311  -0.022366   0.006218  -0.000049
    11  H    0.001205  -0.002674  -0.011951   0.006218  -0.027198  -0.000055
    12  C   -0.001004   0.000920   0.001077  -0.000049  -0.000055   0.012658
    13  H   -0.000103   0.000092   0.002906  -0.000173  -0.000026   0.000019
    14  H   -0.000031   0.000006   0.000090  -0.000002  -0.000001  -0.000047
    15  H   -0.000021   0.000015   0.000089  -0.000004  -0.000001  -0.000164
    16  C    0.000134  -0.001837   0.000189   0.000728   0.000046  -0.000700
    17  H    0.000004  -0.000053  -0.000011   0.000005   0.000001  -0.000060
    18  H   -0.000016   0.000525  -0.000185  -0.000094  -0.000007   0.000044
    19  H   -0.000018   0.000214   0.000233  -0.000486  -0.000004   0.000072
              13         14         15         16         17         18
     1  C   -0.000018   0.000052   0.000038   0.000331   0.000022  -0.000036
     2  H    0.000004   0.000001   0.000006  -0.000122  -0.000023   0.000046
     3  H    0.000001  -0.000005   0.000000  -0.000003   0.000001  -0.000001
     4  H    0.000003   0.000001   0.000002  -0.000049  -0.000015   0.000004
     5  C   -0.000225  -0.000173  -0.000107   0.000697  -0.000220   0.000088
     6  C   -0.000729   0.000006  -0.000089   0.000142  -0.000038   0.000085
     7  H   -0.000103  -0.000031  -0.000021   0.000134   0.000004  -0.000016
     8  H    0.000092   0.000006   0.000015  -0.001837  -0.000053   0.000525
     9  C    0.002906   0.000090   0.000089   0.000189  -0.000011  -0.000185
    10  H   -0.000173  -0.000002  -0.000004   0.000728   0.000005  -0.000094
    11  H   -0.000026  -0.000001  -0.000001   0.000046   0.000001  -0.000007
    12  C    0.000019  -0.000047  -0.000164  -0.000700  -0.000060   0.000044
    13  H   -0.002708   0.000209   0.000018   0.000005  -0.000039   0.000010
    14  H    0.000209  -0.000193   0.000007  -0.000013  -0.000001   0.000000
    15  H    0.000018   0.000007  -0.000023  -0.000050  -0.000043   0.000006
    16  C    0.000005  -0.000013  -0.000050   0.000450   0.000566  -0.000689
    17  H   -0.000039  -0.000001  -0.000043   0.000566   0.000428  -0.000166
    18  H    0.000010   0.000000   0.000006  -0.000689  -0.000166   0.000394
    19  H    0.000041   0.000001   0.000018  -0.000420  -0.000191   0.000182
              19
     1  C   -0.000029
     2  H    0.000006
     3  H    0.000000
     4  H    0.000005
     5  C    0.000038
     6  C   -0.000134
     7  H   -0.000018
     8  H    0.000214
     9  C    0.000233
    10  H   -0.000486
    11  H   -0.000004
    12  C    0.000072
    13  H    0.000041
    14  H    0.000001
    15  H    0.000018
    16  C   -0.000420
    17  H   -0.000191
    18  H    0.000182
    19  H    0.000414
 Mulliken charges and spin densities:
               1          2
     1  C   -0.441233   0.000158
     2  H    0.134991   0.000222
     3  H    0.137317  -0.000002
     4  H    0.137847  -0.000445
     5  C    0.104050   0.006203
     6  C   -0.274409  -0.047748
     7  H    0.134706   0.006570
     8  H    0.140402   0.050829
     9  C   -0.292973   1.038527
    10  H    0.137177  -0.028388
    11  H    0.132714  -0.031876
    12  C   -0.439281   0.007353
    13  H    0.147223  -0.000713
    14  H    0.136146  -0.000090
    15  H    0.135336  -0.000303
    16  C   -0.446609  -0.000595
    17  H    0.138639   0.000166
    18  H    0.134287   0.000190
    19  H    0.143668  -0.000057
 Sum of Mulliken charges =   0.00000   1.00000
 Mulliken charges and spin densities with hydrogens summed into heavy atoms:
               1          2
     1  C   -0.031078  -0.000067
     5  C    0.104050   0.006203
     6  C    0.000700   0.009650
     9  C   -0.023082   0.978263
    12  C   -0.020576   0.006247
    16  C   -0.030014  -0.000296
 Electronic spatial extent (au):  <R**2>=            681.1886
 Charge=              0.0000 electrons
 Dipole moment (field-independent basis, Debye):
    X=              0.1417    Y=             -0.1487    Z=             -0.5891  Tot=              0.6238
 Quadrupole moment (field-independent basis, Debye-Ang):
   XX=            -41.3353   YY=            -40.6290   ZZ=            -41.3583
   XY=              0.4680   XZ=              1.5541   YZ=             -0.0523
 Traceless Quadrupole moment (field-independent basis, Debye-Ang):
   XX=             -0.2278   YY=              0.4785   ZZ=             -0.2507
   XY=              0.4680   XZ=              1.5541   YZ=             -0.0523
 Octapole moment (field-independent basis, Debye-Ang**2):
  XXX=              2.2809  YYY=             -1.0970  ZZZ=             -3.1267  XYY=             -0.7832
  XXY=              0.5782  XXZ=             -3.0517  XZZ=              0.8279  YZZ=             -0.7477
  YYZ=              1.1651  XYZ=              0.0143
 Hexadecapole moment (field-independent basis, Debye-Ang**3):
 XXXX=           -474.5670 YYYY=           -239.5189 ZZZZ=           -232.8838 XXXY=              8.5929
 XXXZ=             12.6017 YYYX=             -0.9333 YYYZ=             -0.9947 ZZZX=              1.3066
 ZZZY=              0.5836 XXYY=           -117.7439 XXZZ=           -122.8174 YYZZ=            -78.9883
 XXYZ=             -0.1096 YYXZ=              1.6128 ZZXY=             -0.3194
 N-N= 2.544325590254D+02 E-N=-1.054426355479D+03  KE= 2.339689117664D+02
                          Isotropic Fermi Contact Couplings
        Atom                 a.u.       MegaHertz       Gauss      10(-4) cm-1
     1  C(13)             -0.00088      -0.99168      -0.35385      -0.33079
     2  H(1)               0.00004       0.18106       0.06461       0.06040
     3  H(1)               0.00003       0.12607       0.04498       0.04205
     4  H(1)              -0.00016      -0.70225      -0.25058      -0.23424
     5  C(13)              0.00615       6.91356       2.46693       2.30612
     6  C(13)             -0.01194     -13.42406      -4.79004      -4.47779
     7  H(1)               0.00452      20.21699       7.21392       6.74366
     8  H(1)               0.02700     120.66875      43.05761      40.25076
     9  C(13)              0.30729     345.45720     123.26771     115.23212
    10  H(1)              -0.00330     -14.74624      -5.26183      -4.91882
    11  H(1)              -0.00494     -22.07028      -7.87522      -7.36185
    12  C(13)             -0.00025      -0.28408      -0.10137      -0.09476
    13  H(1)               0.00066       2.93898       1.04870       0.98034
    14  H(1)              -0.00002      -0.07499      -0.02676      -0.02501
    15  H(1)              -0.00011      -0.47771      -0.17046      -0.15935
    16  C(13)             -0.00058      -0.65353      -0.23320      -0.21799
    17  H(1)               0.00007       0.32081       0.11447       0.10701
    18  H(1)               0.00006       0.25583       0.09128       0.08533
    19  H(1)               0.00005       0.21120       0.07536       0.07045
 --------------------------------------------------------
       Center         ----  Spin Dipole Couplings  ----
                      3XX-RR        3YY-RR        3ZZ-RR
 --------------------------------------------------------
     1   Atom        0.003426     -0.002534     -0.000892
     2   Atom        0.003221     -0.002110     -0.001110
     3   Atom        0.002677     -0.000958     -0.001720
     4   Atom        0.002575     -0.001447     -0.001129
     5   Atom        0.016627     -0.007242     -0.009386
     6   Atom        0.004809     -0.017335      0.012527
     7   Atom       -0.000688      0.009669     -0.008980
     8   Atom        0.000014     -0.006992      0.006978
     9   Atom       -0.480046     -0.456056      0.936103
    10   Atom       -0.058608      0.052183      0.006425
    11   Atom        0.024190     -0.019111     -0.005079
    12   Atom        0.008634     -0.005709     -0.002925
    13   Atom        0.007722     -0.005643     -0.002080
    14   Atom        0.004048     -0.002878     -0.001170
    15   Atom        0.003775     -0.002187     -0.001587
    16   Atom        0.004046     -0.001729     -0.002318
    17   Atom        0.002220     -0.000690     -0.001530
    18   Atom        0.001527     -0.001166     -0.000361
    19   Atom        0.001227      0.002591     -0.003818
 --------------------------------------------------------
                        XY            XZ            YZ
 --------------------------------------------------------
     1   Atom       -0.000799     -0.000470      0.000026
     2   Atom       -0.001071     -0.001862      0.000633
     3   Atom       -0.002308     -0.000143      0.000203
     4   Atom       -0.000267     -0.000425      0.000100
     5   Atom        0.005486     -0.001183      0.001425
     6   Atom       -0.015848     -0.028059      0.015126
     7   Atom       -0.014921     -0.001393      0.001716
     8   Atom       -0.006353     -0.005744      0.006636
     9   Atom        0.002734      0.004471      0.178132
    10   Atom       -0.011545      0.005213     -0.034626
    11   Atom        0.058027      0.017329      0.017634
    12   Atom       -0.003013     -0.000041      0.004132
    13   Atom        0.004158      0.008881      0.004074
    14   Atom       -0.002422      0.004462     -0.001500
    15   Atom        0.001172      0.001904      0.000677
    16   Atom        0.004643     -0.003025     -0.001269
    17   Atom        0.002243     -0.001002     -0.000484
    18   Atom        0.002872     -0.003658     -0.001909
    19   Atom        0.007409     -0.002582     -0.002653
 --------------------------------------------------------


 ---------------------------------------------------------------------------------
              Anisotropic Spin Dipole Couplings in Principal Axis System
 ---------------------------------------------------------------------------------

       Atom             a.u.   MegaHertz   Gauss  10(-4) cm-1        Axes

              Baa    -0.0026    -0.354    -0.126    -0.118  0.1321  0.9910  0.0206
     1 C(13)  Bbb    -0.0009    -0.126    -0.045    -0.042  0.1007 -0.0341  0.9943
              Bcc     0.0036     0.481     0.171     0.160  0.9861 -0.1293 -0.1043
 
              Baa    -0.0024    -1.294    -0.462    -0.432  0.0539  0.9273 -0.3703
     2 H(1)   Bbb    -0.0017    -0.920    -0.328    -0.307  0.3938  0.3211  0.8613
              Bcc     0.0042     2.215     0.790     0.739  0.9176 -0.1922 -0.3479
 
              Baa    -0.0021    -1.129    -0.403    -0.376  0.4071  0.8637 -0.2972
     3 H(1)   Bbb    -0.0017    -0.902    -0.322    -0.301  0.1638  0.2511  0.9540
              Bcc     0.0038     2.031     0.725     0.677  0.8986 -0.4370 -0.0393
 
              Baa    -0.0015    -0.790    -0.282    -0.264  0.0401  0.9729 -0.2277
     4 H(1)   Bbb    -0.0012    -0.619    -0.221    -0.207  0.1258  0.2212  0.9671
              Bcc     0.0026     1.410     0.503     0.470  0.9912 -0.0674 -0.1135
 
              Baa    -0.0106    -1.428    -0.510    -0.476  0.1514 -0.5798  0.8005
     5 C(13)  Bbb    -0.0072    -0.968    -0.345    -0.323 -0.1513  0.7867  0.5985
              Bcc     0.0179     2.396     0.855     0.799  0.9768  0.2118 -0.0314
 
              Baa    -0.0256    -3.437    -1.226    -1.146  0.4344  0.8999 -0.0373
     6 C(13)  Bbb    -0.0191    -2.558    -0.913    -0.853  0.6460 -0.2825  0.7091
              Bcc     0.0447     5.995     2.139     2.000 -0.6276  0.3322  0.7041
 
              Baa    -0.0113    -6.036    -2.154    -2.013  0.8157  0.5748  0.0643
     7 H(1)   Bbb    -0.0091    -4.875    -1.739    -1.626 -0.0093 -0.0982  0.9951
              Bcc     0.0204    10.911     3.893     3.639 -0.5784  0.8124  0.0747
 
              Baa    -0.0113    -6.036    -2.154    -2.013  0.4009  0.8943 -0.1986
     8 H(1)   Bbb    -0.0027    -1.452    -0.518    -0.484  0.7705 -0.2119  0.6012
              Bcc     0.0140     7.488     2.672     2.498 -0.4956  0.3940  0.7740
 
              Baa    -0.4816   -64.622   -23.059   -21.556  0.8195 -0.5689  0.0689
     9 C(13)  Bbb    -0.4770   -64.006   -22.839   -21.350  0.5730  0.8129 -0.1043
              Bcc     0.9585   128.628    45.898    42.906  0.0033  0.1249  0.9922
 
              Baa    -0.0598   -31.931   -11.394   -10.651  0.9952  0.0934 -0.0295
    10 H(1)   Bbb    -0.0122    -6.500    -2.319    -2.168 -0.0181  0.4712  0.8819
              Bcc     0.0720    38.431    13.713    12.819 -0.0963  0.8771 -0.4706
 
              Baa    -0.0598   -31.916   -11.388   -10.646 -0.5531  0.8281 -0.0917
    11 H(1)   Bbb    -0.0123    -6.570    -2.344    -2.192 -0.2996 -0.0950  0.9493
              Bcc     0.0721    38.486    13.733    12.838  0.7774  0.5525  0.3007
 
              Baa    -0.0090    -1.210    -0.432    -0.404  0.1387  0.8200 -0.5553
    12 C(13)  Bbb    -0.0003    -0.039    -0.014    -0.013  0.1827  0.5299  0.8281
              Bcc     0.0093     1.249     0.446     0.417  0.9733 -0.2163 -0.0763
 
              Baa    -0.0086    -4.600    -1.641    -1.534 -0.2150 -0.6708  0.7098
    13 H(1)   Bbb    -0.0059    -3.165    -1.130    -1.056 -0.5302  0.6905  0.4920
              Bcc     0.0146     7.765     2.771     2.590  0.8201  0.2706  0.5042
 
              Baa    -0.0038    -2.026    -0.723    -0.676 -0.2716  0.5610  0.7820
    14 H(1)   Bbb    -0.0036    -1.921    -0.686    -0.641  0.4790  0.7836 -0.3957
              Bcc     0.0074     3.947     1.408     1.316  0.8347 -0.2671  0.4815
 
              Baa    -0.0026    -1.403    -0.501    -0.468  0.0186  0.8223 -0.5687
    15 H(1)   Bbb    -0.0020    -1.072    -0.383    -0.358 -0.3600  0.5362  0.7635
              Bcc     0.0046     2.475     0.883     0.826  0.9328  0.1905  0.3060
 
              Baa    -0.0044    -0.593    -0.212    -0.198 -0.5387  0.7875 -0.2994
    16 C(13)  Bbb    -0.0033    -0.439    -0.156    -0.146  0.1084  0.4172  0.9023
              Bcc     0.0077     1.032     0.368     0.344  0.8355  0.4536 -0.3101
 
              Baa    -0.0019    -1.027    -0.367    -0.343 -0.5092  0.8054 -0.3036
    17 H(1)   Bbb    -0.0017    -0.934    -0.333    -0.311  0.0269  0.3674  0.9297
              Bcc     0.0037     1.961     0.700     0.654  0.8603  0.4652 -0.2088
 
              Baa    -0.0033    -1.761    -0.628    -0.587  0.6918 -0.3839  0.6115
    18 H(1)   Bbb    -0.0027    -1.446    -0.516    -0.482 -0.0561  0.8158  0.5756
              Bcc     0.0060     3.207     1.144     1.070  0.7199  0.4325 -0.5429
 
              Baa    -0.0055    -2.961    -1.057    -0.988  0.7548 -0.6396  0.1455
    19 H(1)   Bbb    -0.0048    -2.545    -0.908    -0.849  0.0582  0.2862  0.9564
              Bcc     0.0103     5.505     1.964     1.836  0.6534  0.7134 -0.2533
 

 ---------------------------------------------------------------------------------

 No NMR shielding tensors so no spin-rotation constants.
 Leave Link  601 at Sat Nov  7 02:16:05 2015, MaxMem=   805306368 cpu:         1.5
 (Enter /home/hetanjin/apps/g09D01/g09/l701.exe)
 Compute integral first derivatives.
 ... and contract with generalized density number  0.
 Leave Link  701 at Sat Nov  7 02:16:05 2015, MaxMem=   805306368 cpu:         0.6
 (Enter /home/hetanjin/apps/g09D01/g09/l702.exe)
 L702 exits ... SP integral derivatives will be done elsewhere.
 Leave Link  702 at Sat Nov  7 02:16:05 2015, MaxMem=   805306368 cpu:         0.0
 (Enter /home/hetanjin/apps/g09D01/g09/l703.exe)
 Compute integral first derivatives, UseDBF=F ICtDFT=           0.
 Integral derivatives from FoFJK, PRISM(SPDF).
 Calling FoFJK, ICntrl=      2127 FMM=F ISym2X=0 I1Cent= 0 IOpClX= 1 NMat=1 NMatS=1 NMatT=0.
 FoFJK:  IHMeth= 1 ICntrl=    2127 DoSepK=F KAlg= 0 I1Cent=   0 FoldK=F
 IRaf=         0 NMat=   1 IRICut=       1 DoRegI=T DoRafI=F ISym2E= 0.
 FoFCou: FMM=F IPFlag=           0 FMFlag=      100000 FMFlg1=         800
         NFxFlg=           0 DoJE=F BraDBF=F KetDBF=F FulRan=T
         wScrn=  0.000000 ICntrl=    2127 IOpCl=  1 I1Cent=           0 NGrid=           0
         NMat0=    1 NMatS0=      1 NMatT0=    0 NMatD0=    1 NMtDS0=    0 NMtDT0=    0
 Symmetry not used in FoFCou.
 Leave Link  703 at Sat Nov  7 02:16:14 2015, MaxMem=   805306368 cpu:        34.9
 (Enter /home/hetanjin/apps/g09D01/g09/l716.exe)
 Dipole        = 5.57339857D-02-5.85061507D-02-2.31755203D-01
 ***** Axes restored to original set *****
 -------------------------------------------------------------------
 Center     Atomic                   Forces (Hartrees/Bohr)
 Number     Number              X              Y              Z
 -------------------------------------------------------------------
      1        6           0.000053005    0.000177952    0.000189560
      2        1           0.000195840    0.000127480    0.000098207
      3        1           0.000010146   -0.000038921   -0.000008141
      4        1          -0.000149979    0.000041315    0.000036876
      5        6           0.001633879   -0.000226139    0.000631096
      6        6          -0.005109927   -0.014978059   -0.016580748
      7        1           0.000321886    0.001168712    0.000516219
      8        1          -0.002707510    0.001032106    0.003046260
      9        6           0.011706413    0.029169538    0.034244533
     10        1          -0.000211504   -0.011894340   -0.009137740
     11        1          -0.003823488   -0.005782853   -0.013485679
     12        6          -0.000528792    0.000082955   -0.000292836
     13        1          -0.001272942    0.000792038    0.000364613
     14        1          -0.000116676   -0.000105633    0.000159581
     15        1           0.000271889    0.000227727    0.000146514
     16        6          -0.000355738    0.000073912    0.000099909
     17        1          -0.000099860    0.000102350   -0.000062492
     18        1           0.000143727    0.000014232    0.000197521
     19        1           0.000039632    0.000015627   -0.000163252
 -------------------------------------------------------------------
 Cartesian Forces:  Max     0.034244533 RMS     0.007453722
 Leave Link  716 at Sat Nov  7 02:16:14 2015, MaxMem=   805306368 cpu:         0.1
 (Enter /home/hetanjin/apps/g09D01/g09/l103.exe)

 GradGradGradGradGradGradGradGradGradGradGradGradGradGradGradGradGradGrad
 Berny optimization.
 FormGI is forming the generalized inverse of G from B-inverse, IUseBI=4.
 Internal  Forces:  Max     0.014068113 RMS     0.003373946
 Search for a local minimum.
 Step number   1 out of a maximum of  103
 All quantities printed in internal units (Hartrees-Bohrs-Radians)
 RMS Force = .33739D-02 SwitMx=.10000D-02 MixMth= 1
 Mixed Optimization -- RFO/linear search
 Second derivative matrix not updated -- first step.
 ITU=  0
     Eigenvalues ---    0.00230   0.00230   0.00230   0.00230   0.00316
     Eigenvalues ---    0.03500   0.03655   0.04397   0.04896   0.04922
     Eigenvalues ---    0.05229   0.05319   0.05319   0.05397   0.05404
     Eigenvalues ---    0.05447   0.05447   0.09922   0.13242   0.14244
     Eigenvalues ---    0.14513   0.16000   0.16000   0.16000   0.16000
     Eigenvalues ---    0.16000   0.16000   0.16000   0.16000   0.16000
     Eigenvalues ---    0.16000   0.16000   0.22005   0.27481   0.28370
     Eigenvalues ---    0.28418   0.28418   0.29059   0.33721   0.33721
     Eigenvalues ---    0.33969   0.33969   0.33990   0.33990   0.34015
     Eigenvalues ---    0.34017   0.34017   0.34112   0.34156   0.34156
     Eigenvalues ---    0.34166
 RFO step:  Lambda=-1.40980681D-02 EMin= 2.30000000D-03
 Linear search not attempted -- first point.
 Iteration  1 RMS(Cart)=  0.05225134 RMS(Int)=  0.00881233
 Iteration  2 RMS(Cart)=  0.00711647 RMS(Int)=  0.00570464
 Iteration  3 RMS(Cart)=  0.00010216 RMS(Int)=  0.00570410
 Iteration  4 RMS(Cart)=  0.00000210 RMS(Int)=  0.00570410
 Iteration  5 RMS(Cart)=  0.00000006 RMS(Int)=  0.00570410
 ITry= 1 IFail=0 DXMaxC= 2.22D-01 DCOld= 1.00D+10 DXMaxT= 3.00D-01 DXLimC= 3.00D+00 Rises=F
 Variable       Old X    -DE/DX   Delta X   Delta X   Delta X     New X
                                 (Linear)    (Quad)   (Total)
    R1        2.07346   0.00015   0.00000   0.00042   0.00042   2.07389
    R2        2.07346  -0.00002   0.00000  -0.00004  -0.00004   2.07342
    R3        2.07305  -0.00015   0.00000  -0.00043  -0.00043   2.07262
    R4        2.91336   0.00028   0.00000   0.00094   0.00094   2.91430
    R5        2.93287  -0.00083   0.00000  -0.00288  -0.00288   2.92999
    R6        2.91234  -0.00098   0.00000  -0.00328  -0.00328   2.90906
    R7        2.91234  -0.00008   0.00000  -0.00026  -0.00026   2.91209
    R8        2.07803   0.00030   0.00000   0.00084   0.00084   2.07887
    R9        2.07803   0.00302   0.00000   0.00860   0.00860   2.08663
   R10        2.89880  -0.01249   0.00000  -0.04101  -0.04101   2.85779
   R11        2.07051  -0.00043   0.00000  -0.00119  -0.00119   2.06931
   R12        2.07142  -0.00064   0.00000  -0.00179  -0.00179   2.06963
   R13        2.07067   0.00036   0.00000   0.00102   0.00102   2.07169
   R14        2.07382  -0.00018   0.00000  -0.00051  -0.00051   2.07330
   R15        2.07301   0.00012   0.00000   0.00035   0.00035   2.07336
   R16        2.07301  -0.00014   0.00000  -0.00039  -0.00039   2.07262
   R17        2.07382   0.00016   0.00000   0.00046   0.00046   2.07427
   R18        2.07067  -0.00004   0.00000  -0.00012  -0.00012   2.07055
    A1        1.87988  -0.00007   0.00000   0.00008   0.00008   1.87996
    A2        1.88010  -0.00011   0.00000  -0.00076  -0.00076   1.87935
    A3        1.94072   0.00030   0.00000   0.00192   0.00192   1.94264
    A4        1.88010   0.00003   0.00000  -0.00017  -0.00017   1.87994
    A5        1.94072  -0.00004   0.00000  -0.00020  -0.00020   1.94052
    A6        1.93954  -0.00012   0.00000  -0.00092  -0.00092   1.93862
    A7        1.88414   0.00075   0.00000   0.00643   0.00645   1.89060
    A8        1.89923   0.00072   0.00000   0.00718   0.00720   1.90644
    A9        1.89923  -0.00058   0.00000   0.00176   0.00174   1.90097
   A10        1.93449  -0.00166   0.00000  -0.01581  -0.01582   1.91867
   A11        1.93449   0.00028   0.00000  -0.00062  -0.00066   1.93383
   A12        1.91142   0.00051   0.00000   0.00158   0.00152   1.91294
   A13        1.88615   0.00003   0.00000   0.00756   0.00748   1.89363
   A14        1.88616   0.00200   0.00000   0.00902   0.00890   1.89506
   A15        2.04055  -0.00040   0.00000  -0.00177  -0.00183   2.03872
   A16        1.84789  -0.00022   0.00000  -0.00087  -0.00086   1.84703
   A17        1.89691   0.00110   0.00000   0.01199   0.01198   1.90889
   A18        1.89691  -0.00248   0.00000  -0.02576  -0.02574   1.87118
   A19        1.95529   0.01407   0.00000   0.14597   0.11830   2.07359
   A20        1.92445   0.01391   0.00000   0.14716   0.11922   2.04367
   A21        1.87221  -0.00072   0.00000   0.12188   0.08669   1.95891
   A22        1.95325  -0.00147   0.00000  -0.00914  -0.00915   1.94410
   A23        1.94002   0.00016   0.00000  -0.00019  -0.00020   1.93982
   A24        1.93250   0.00001   0.00000   0.00181   0.00182   1.93432
   A25        1.88195   0.00024   0.00000  -0.00191  -0.00194   1.88001
   A26        1.87429   0.00106   0.00000   0.00809   0.00810   1.88239
   A27        1.87869   0.00010   0.00000   0.00191   0.00191   1.88059
   A28        1.93250  -0.00014   0.00000  -0.00116  -0.00116   1.93134
   A29        1.94002   0.00023   0.00000   0.00165   0.00165   1.94168
   A30        1.95325  -0.00019   0.00000  -0.00102  -0.00102   1.95223
   A31        1.87869  -0.00007   0.00000  -0.00051  -0.00051   1.87818
   A32        1.87429   0.00009   0.00000  -0.00005  -0.00006   1.87424
   A33        1.88195   0.00007   0.00000   0.00109   0.00109   1.88304
    D1        1.04736   0.00056   0.00000   0.00560   0.00559   1.05295
    D2       -3.13510  -0.00058   0.00000  -0.00554  -0.00553  -3.14063
    D3       -1.05336   0.00012   0.00000   0.00157   0.00157  -1.05179
    D4       -1.04737   0.00048   0.00000   0.00434   0.00433  -1.04304
    D5        1.05335  -0.00066   0.00000  -0.00679  -0.00678   1.04657
    D6        3.13509   0.00003   0.00000   0.00032   0.00032   3.13541
    D7        3.14159   0.00054   0.00000   0.00531   0.00530  -3.13630
    D8       -1.04087  -0.00060   0.00000  -0.00583  -0.00582  -1.04669
    D9        1.04086   0.00010   0.00000   0.00128   0.00128   1.04214
   D10        0.99614  -0.00006   0.00000  -0.00975  -0.00974   0.98640
   D11       -0.99615  -0.00083   0.00000  -0.01709  -0.01713  -1.01328
   D12        3.14159   0.00113   0.00000   0.01111   0.01113  -3.13047
   D13       -1.08232  -0.00044   0.00000  -0.01324  -0.01321  -1.09553
   D14       -3.07460  -0.00120   0.00000  -0.02058  -0.02060  -3.09520
   D15        1.06313   0.00075   0.00000   0.00762   0.00766   1.07079
   D16        3.07459  -0.00014   0.00000  -0.00400  -0.00401   3.07058
   D17        1.08231  -0.00091   0.00000  -0.01135  -0.01140   1.07091
   D18       -1.06314   0.00105   0.00000   0.01685   0.01686  -1.04628
   D19        3.09341   0.00036   0.00000   0.01583   0.01583   3.10925
   D20       -1.08437  -0.00024   0.00000   0.00697   0.00699  -1.07737
   D21        1.00293   0.00000   0.00000   0.01044   0.01046   1.01339
   D22       -1.12043   0.00074   0.00000   0.01873   0.01870  -1.10173
   D23        0.98498   0.00014   0.00000   0.00987   0.00986   0.99484
   D24        3.07227   0.00038   0.00000   0.01334   0.01333   3.08560
   D25        1.01930   0.00034   0.00000   0.00852   0.00851   1.02781
   D26        3.12471  -0.00026   0.00000  -0.00034  -0.00033   3.12438
   D27       -1.07118  -0.00003   0.00000   0.00313   0.00314  -1.06805
   D28       -1.00294  -0.00007   0.00000  -0.00172  -0.00172  -1.00466
   D29        1.08436  -0.00009   0.00000  -0.00204  -0.00204   1.08232
   D30       -3.09342   0.00003   0.00000  -0.00019  -0.00019  -3.09361
   D31       -3.07228  -0.00080   0.00000  -0.01031  -0.01032  -3.08260
   D32       -0.98499  -0.00082   0.00000  -0.01063  -0.01064  -0.99563
   D33        1.12042  -0.00070   0.00000  -0.00878  -0.00879   1.11163
   D34        1.07117   0.00076   0.00000   0.00895   0.00896   1.08013
   D35       -3.12472   0.00074   0.00000   0.00863   0.00864  -3.11608
   D36       -1.01931   0.00086   0.00000   0.01048   0.01049  -1.00882
   D37        1.05782  -0.00878   0.00000  -0.17646  -0.18277   0.87505
   D38        3.14158   0.00883   0.00000   0.17120   0.17759  -2.96402
   D39       -3.08547  -0.00814   0.00000  -0.15783  -0.16413   3.03358
   D40       -1.00171   0.00947   0.00000   0.18983   0.19622  -0.80549
   D41       -1.08208  -0.00913   0.00000  -0.16613  -0.17256  -1.25464
   D42        1.00168   0.00848   0.00000   0.18153   0.18780   1.18948
         Item               Value     Threshold  Converged?
 Maximum Force            0.014068     0.000015     NO 
 RMS     Force            0.003374     0.000010     NO 
 Maximum Displacement     0.222250     0.000060     NO 
 RMS     Displacement     0.050636     0.000040     NO 
 Predicted change in Energy=-1.011572D-02
 Lowest energy point so far.  Saving SCF results.
 GradGradGradGradGradGradGradGradGradGradGradGradGradGradGradGradGradGrad

 Leave Link  103 at Sat Nov  7 02:16:14 2015, MaxMem=   805306368 cpu:         0.2
 (Enter /home/hetanjin/apps/g09D01/g09/l202.exe)
                          Input orientation:                          
 ---------------------------------------------------------------------
 Center     Atomic      Atomic             Coordinates (Angstroms)
 Number     Number       Type             X           Y           Z
 ---------------------------------------------------------------------
      1          6           0        1.639217    0.987707   -0.004247
      2          1           0        1.635671    1.637079    0.880460
      3          1           0        1.612544    1.632402   -0.891669
      4          1           0        2.592004    0.444547   -0.014914
      5          6           0        0.444907    0.012163    0.011950
      6          6           0       -0.863682    0.843755    0.018666
      7          1           0       -0.857249    1.511661   -0.855441
      8          1           0       -0.855790    1.504965    0.902967
      9          6           0       -2.163019    0.070610    0.049629
     10          1           0       -2.290957   -0.716445    0.800147
     11          1           0       -3.084956    0.637639   -0.117622
     12          6           0        0.497038   -0.874089   -1.245673
     13          1           0       -0.320005   -1.605000   -1.253855
     14          1           0        0.414658   -0.271014   -2.158494
     15          1           0        1.443464   -1.426988   -1.294340
     16          6           0        0.538394   -0.871183    1.271184
     17          1           0        1.491715   -1.413029    1.293817
     18          1           0        0.477658   -0.267581    2.185968
     19          1           0       -0.263200   -1.617330    1.306416
 ---------------------------------------------------------------------
                    Distance matrix (angstroms):
                    1          2          3          4          5
     1  C    0.000000
     2  H    1.097453   0.000000
     3  H    1.097205   1.772286   0.000000
     4  H    1.096786   1.771553   1.771734   0.000000
     5  C    1.542182   2.193759   2.192049   2.190365   0.000000
     6  C    2.507140   2.760220   2.753610   3.478830   1.550482
     7  H    2.689126   3.040351   2.473008   3.707096   2.167134
     8  H    2.704747   2.495063   3.054445   3.722133   2.171216
     9  C    3.911645   4.192153   4.192864   4.770139   2.608853
    10  H    4.358607   4.578639   4.859696   5.084834   2.938891
    11  H    4.738483   4.927410   4.863663   5.681171   3.587192
    12  C    2.512369   3.481795   2.766256   2.764498   1.539409
    13  H    3.481695   4.346383   3.787704   3.770333   2.191477
    14  H    2.779335   3.790374   2.581235   3.138120   2.189049
    15  H    2.744706   3.762340   3.090405   2.541400   2.185101
    16  C    2.508787   2.765512   3.478458   2.757264   1.541009
    17  H    2.733179   3.081355   3.750413   2.524678   2.184070
    18  H    2.778851   2.583230   3.790746   3.133922   2.192187
    19  H    3.481846   3.791876   4.348649   3.761573   2.198250
                    6          7          8          9         10
     6  C    0.000000
     7  H    1.100092   0.000000
[...]
 ,-0.13821408,0.22868675,-0.23740232,0.11526085,0.01344286,0.00182173,-
 0.00098211,0.00039441,-0.00077844,0.00050501,-0.00037031,0.25986322,0.
 11556036,-0.11885761,-0.00822053,0.01508641,-0.00965366,0.00014677,0.0
 1642525,-0.01041856,-0.00247671,-0.12522952,0.12768248,0.01345200,-0.0
 0820473,-0.05031774,0.02464824,-0.01412961,-0.00083133,-0.02364920,0.0
 1348890,0.00253382,-0.01499855,0.00903811,0.04917962,-0.13496867,-0.04
 723700,0.00157068,-0.00089730,0.00076754,-0.00008497,0.00143726,0.0025
 5257,0.00005677,-0.02263466,-0.01782146,0.00056176,0.45192152,-0.04851
 430,-0.11427234,0.00145497,-0.01377426,-0.01241090,0.00088991,-0.01516
 924,-0.01341392,-0.00009032,0.01436246,0.01027032,-0.00039325,0.019469
 99,0.48356743,0.00153175,0.00138756,-0.07799751,-0.02250474,-0.0174156
 5,-0.00027639,0.02149322,0.01651150,-0.00160807,0.00154266,0.00130625,
 -0.00175284,0.00274906,-0.00130717,0.49256593,-0.03531495,0.01341508,0
 .00230453,0.00121447,0.00118953,0.00046884,0.00129322,0.00122176,-0.00
 054800,-0.00375494,-0.00308716,0.00008358,-0.09493781,0.01275338,0.001
 66506,0.40335092,-0.01299175,0.00898523,0.00094219,-0.00094399,0.00026
 365,0.00010335,-0.00102438,0.00026521,0.00002840,-0.00486625,-0.001876
 26,0.00021170,0.03680999,-0.09051030,-0.00254593,0.06873429,0.48644180
 ,0.00149961,-0.00045223,0.00048905,-0.00135815,-0.00006285,-0.00014741
 ,0.00114548,-0.00003670,-0.00022772,0.00002930,0.00011773,-0.00038882,
 0.00239846,-0.00127554,-0.07093087,0.01209944,-0.00686939,0.59192795,0
 .00101309,0.00094295,-0.00135336,-0.00007372,-0.00004011,0.00001945,-0
 .00051003,-0.00037999,0.00054817,0.00046765,-0.00009453,0.00022244,-0.
 00336435,0.01771081,-0.02120171,-0.04185409,-0.00285379,-0.00160816,0.
 05770287,-0.00149066,0.00043477,-0.00002660,0.00006798,0.00003777,-0.0
 0012388,0.00037375,0.00076263,-0.00031818,-0.00013251,0.00002359,-0.00
 038184,0.00358070,-0.01436218,0.01675773,-0.00211771,-0.14320356,0.118
 82729,0.00036594,0.15328129,0.00058223,-0.00017613,-0.00008511,-0.0000
 0872,0.00012311,-0.00006664,-0.00051976,-0.00029760,0.00047203,-0.0001
 1012,-0.00027058,0.00027129,0.00084798,-0.00068132,-0.00086070,-0.0041
 9834,0.11740560,-0.20720547,0.00048658,-0.13341224,0.22245992,0.001079
 92,0.00087770,0.00128619,-0.00050194,-0.00031489,-0.00046418,-0.000074
 67,-0.00005127,-0.00002137,0.00045321,-0.00005218,-0.00024411,-0.00114
 436,0.01632247,0.02221601,-0.04317444,-0.01450442,-0.01704994,-0.00088
 653,-0.00001152,-0.00015181,0.05951887,-0.00143607,0.00041866,0.000214
 19,0.00037055,0.00072420,0.00029433,0.00008028,0.00003742,0.00012237,-
 0.00009838,-0.00001575,0.00037612,0.00180124,-0.01327335,-0.01773352,-
 0.01408092,-0.12913407,-0.11321783,0.00167042,0.01296627,0.01640525,0.
 01363218,0.13736171,-0.00079413,0.00011300,-0.00013586,0.00064762,0.00
 034976,0.00050237,0.00001410,-0.00011197,-0.00006534,0.00008589,0.0002
 6042,0.00032507,-0.00070702,-0.00180756,-0.00416945,-0.01442469,-0.111
 73508,-0.21995634,-0.00184480,-0.01446665,-0.02018697,0.01805199,0.127
 50560,0.23656487,-0.00267045,0.00265029,0.00022157,0.00020598,0.000005
 08,-0.00019855,0.00019941,-0.00004578,0.00020591,-0.00058709,-0.000799
 85,0.00004968,-0.03400669,-0.00617435,0.00151801,-0.17442397,-0.090357
 10,0.00167084,-0.00572430,-0.00254228,0.00279948,-0.00869521,-0.003923
 12,-0.00213657,0.41683928,0.00224767,-0.00184305,-0.00017474,0.0001749
 2,0.00004228,0.00023647,0.00016440,0.00007990,-0.00026799,0.00099393,0
 .00072713,-0.00005518,-0.00084049,0.01369799,0.00051378,-0.07848956,-0
 .09842212,0.00390645,-0.01765582,-0.00853707,0.00097974,-0.01612940,-0
 .00763093,0.00025491,0.21836628,0.19510803,0.00020935,-0.00019606,-0.0
 0002161,0.00027473,0.00035864,0.00029903,-0.00025579,-0.00037008,0.000
 26798,0.00010438,0.00003957,0.00081101,0.00168063,0.00079559,-0.001763
 32,0.00203272,0.00453307,-0.09059706,0.02552511,0.01442918,-0.00009995
 ,-0.02569531,-0.01463740,0.00196517,0.01810758,-0.02489815,0.63209443,
 -0.00037668,0.00037568,-0.00010105,0.00003304,-0.00002309,0.00000801,0
 .00016251,0.00016184,-0.00011985,-0.00028075,0.00001951,-0.00009621,-0
 .00018351,-0.00109777,0.00012117,-0.00248509,-0.00716969,0.02369213,-0
 .00382273,-0.00169384,-0.00049962,0.00109140,0.00051416,-0.00088630,-0
 .08476168,-0.05593629,0.09188888,0.08335097,-0.00029408,0.00038742,0.0
 0013833,-0.00000549,-0.00002230,-0.00003243,0.00005949,0.00003996,-0.0
 0005691,-0.00016393,-0.00005789,-0.00006666,0.00023420,-0.00141071,0.0
 0087025,-0.00377091,-0.00197449,0.01015720,-0.00333484,-0.00132309,0.0
 0120413,0.00096853,0.00066885,0.00064074,-0.05669784,-0.05118495,0.083
 85166,0.05974725,0.04970705,0.00005010,-0.00002933,0.00006894,0.000003
 36,0.00000648,-0.00000550,-0.00002457,-0.00003650,0.00002494,0.0000057
 4,0.00002971,-0.00003050,-0.00031018,0.00000743,-0.00000885,-0.0030166
 8,-0.00077324,0.00337635,-0.00024542,-0.00061153,0.00141129,0.00060481
 ,0.00016784,0.00108322,0.09411284,0.08140634,-0.27843006,-0.10110383,-
 0.08891236,0.28795506,-0.00036615,0.00036946,0.00016952,0.00017684,0.0
 0015772,0.00011381,0.00003134,-0.00002305,-0.00001324,-0.00026895,0.00
 000954,0.00012247,-0.00016469,-0.00108782,-0.00017423,-0.00462170,-0.0
 0563797,-0.02326671,0.00112521,0.00043779,0.00090822,-0.00370312,-0.00
 167256,0.00093650,-0.10677775,-0.05719323,-0.11402128,0.00793177,0.002
 70755,0.01024063,0.10720986,-0.00030377,0.00039307,-0.00008674,0.00006
 406,0.00003493,0.00005144,-0.00000178,-0.00002390,0.00003165,-0.000156
 21,-0.00006051,0.00008207,0.00011714,-0.00135502,-0.00097031,-0.005035
 94,-0.00141722,-0.01005026,0.00092962,0.00072412,-0.00076200,-0.003476
 93,-0.00129325,-0.00100613,-0.05807130,-0.04233175,-0.06401957,0.00426
 097,0.00531862,0.00859864,0.06113945,0.04015152,-0.00002257,0.00001001
 ,0.00005277,0.00001255,0.00002068,0.00001566,-0.00000740,-0.00000520,-
 0.00000221,0.00000986,-0.00003274,-0.00003967,0.00033439,0.00002642,-0
 .00008307,0.00356432,0.00109167,0.00495498,-0.00055404,-0.00023911,0.0
 0099420,0.00057727,0.00062753,0.00126191,-0.11629541,-0.06166098,-0.26
 526652,-0.01250727,-0.00769498,-0.01547192,0.12447507,0.06809732,0.273
 65129,-0.00263623,-0.01764982,-0.02336616,-0.00438972,-0.00417174,-0.0
 0086194,0.00077508,0.00088304,-0.00018465,0.00052962,-0.00038445,-0.00
 083458,-0.07774623,-0.00096723,-0.00060693,-0.00285504,0.01763149,0.02
 385694,0.00088077,-0.00086190,0.00028686,-0.00499262,0.00382186,0.0013
 8210,0.00089156,0.00118694,0.00159427,-0.00015562,0.00010147,0.0000603
 2,-0.00024730,0.00006765,-0.00015002,0.58211791,-0.00518433,-0.0169219
 7,-0.02070306,-0.00283329,-0.00246520,-0.00009757,0.00069348,0.0004808
 7,-0.00075754,0.00144488,0.00102985,0.00049768,-0.00257377,-0.10737651
 ,-0.04476212,0.00510114,-0.01319545,-0.01668804,-0.00065211,0.00026848
 ,-0.00076673,0.00274691,-0.00141035,-0.00024516,0.00017736,-0.00044923
 ,0.00048654,-0.00014476,-0.00008889,-0.00015212,-0.00009650,0.00000804
 ,-0.00068718,0.00204961,0.54610307,-0.00409401,-0.00490097,-0.00210796
 ,0.00106992,0.00152065,0.00103119,0.00086526,0.00141926,0.00067275,0.0
 0062771,0.00041224,0.00014034,-0.00227417,-0.04501267,-0.14604855,0.00
 459697,-0.00563405,-0.00440882,-0.00080630,0.00149457,0.00074460,-0.00
 042871,0.00123256,0.00098203,0.00036888,-0.00024183,0.00010544,-0.0001
 4131,-0.00010411,0.00000747,-0.00016168,-0.00010707,-0.00005363,-0.000
 01680,-0.05329279,0.49819869,0.00067109,-0.00017271,-0.00093083,0.0001
 7233,-0.00027147,0.00012701,-0.00004856,0.00002383,0.00015588,0.000500
 69,0.00017843,0.00018472,-0.00009814,0.00066682,-0.00020414,0.00019615
 ,0.00005345,-0.00030442,-0.00004219,0.00006135,-0.00000598,0.00006387,
 -0.00015997,-0.00009465,-0.00050062,0.00034434,0.00015014,0.00001717,0
 .00001273,-0.00000405,-0.00036306,0.00054705,0.00045890,-0.20562087,-0
 .12891518,0.00116219,0.22206256,0.00128398,-0.00160847,-0.00403117,-0.
 00128008,-0.00059328,-0.00030533,0.00033283,0.00038859,-0.00000192,-0.
 00017283,0.00021662,0.00003149,-0.01431471,-0.01230127,0.00135883,-0.0
 0053029,-0.00015773,0.00053814,0.00000137,0.00001649,-0.00006844,0.000
 04296,0.00023347,0.00000556,-0.00049972,0.00037444,-0.00014183,0.00015
 412,0.00005748,0.00016485,0.00070487,-0.00007863,0.00023970,-0.1280823
 5,-0.15516782,0.00175116,0.14234987,0.16671798,0.00095849,-0.00256143,
 -0.00511220,-0.00140874,-0.00150272,0.00012122,0.00012679,-0.00026523,
 0.00019528,0.00014207,0.00025172,-0.00010498,-0.02316709,-0.01710028,0
 .00054324,-0.00010752,0.00060818,0.00095713,0.00009088,-0.00000589,-0.
 00003640,-0.00017000,0.00024932,-0.00000895,0.00014806,0.00041294,0.00
 015007,0.00011851,-0.00012062,-0.00006823,0.00023467,-0.00019491,-0.00
 005331,0.00183902,0.00247744,-0.04937023,-0.00166410,0.00018309,0.0518
 2965,0.00004983,0.00066866,-0.00068738,-0.00008044,-0.00003241,0.00021
 904,0.00012331,-0.00038767,-0.00005347,-0.00002180,0.00006870,-0.00011
 220,-0.00180420,0.00019549,0.00006118,0.00027361,-0.00061813,0.0008426
 3,0.00012974,0.00021375,0.00000326,-0.00003806,-0.00001131,-0.00011775
 ,-0.00005057,0.00019210,-0.00001094,0.00005358,-0.00008650,-0.00009621
 ,-0.00010350,-0.00006937,0.00000119,-0.05147809,0.01172081,-0.01624575
 ,0.00321516,-0.01494830,0.02184000,0.04990242,0.00026818,0.00104596,-0
 .00041450,0.00021934,0.00023797,0.00012178,0.00003449,0.00001534,0.000
 13060,-0.00007406,-0.00009182,0.00005784,-0.00157388,0.01084268,-0.014
 72053,-0.00018373,0.00095919,-0.00030693,-0.00004915,0.00000493,0.0002
 1027,-0.00024977,0.00020136,0.00012248,-0.00007910,0.00017266,0.000108
 61,-0.00001083,-0.00007217,-0.00005298,-0.00006478,-0.00005677,0.00002
 796,0.01190391,-0.13967929,0.12307955,0.00320089,-0.01220505,0.0161193
 4,-0.01331411,0.14980681,0.00067344,0.00155976,0.00065846,0.00021902,-
 0.00020202,0.00040488,-0.00051495,-0.00099293,0.00048612,-0.00001157,-
 0.00008955,-0.00002048,-0.00216589,0.01778567,-0.02255944,-0.00066678,
 0.00161387,0.00046312,0.00056343,-0.00106587,0.00046236,-0.00021663,-0
 .00017597,0.00047356,0.00022061,-0.00023628,0.00001264,-0.00012835,0.0
 0000930,0.00009193,0.00013806,0.00008547,-0.00005128,-0.01635495,0.122
 28479,-0.21521641,0.00054899,-0.00039001,0.00058849,0.01815016,-0.1337
 2099,0.23637787,0.00064061,-0.00071812,-0.00038340,0.00024388,0.000005
 51,0.00014224,-0.00003388,-0.00003527,0.00004551,0.00051253,0.00017721
 ,-0.00005087,-0.00061179,-0.00056856,-0.00018419,0.00119697,-0.0006538
 4,0.00038799,0.00001252,-0.00007639,-0.00011248,0.00001436,0.00016392,
 0.00005608,-0.00005226,0.00036671,-0.00002665,-0.00000959,0.00000565,0
 .00010065,0.00023004,-0.00006398,0.00014558,-0.23543655,0.11590365,0.0
 1673913,-0.02057995,0.01408000,0.00130345,-0.00129921,0.00012733,-0.00
 035211,0.25459585,0.00142006,0.00026253,0.00063146,-0.00028758,0.00034
 289,0.00015032,0.00002889,-0.00010668,-0.00003953,-0.00093757,-0.00005
 827,-0.00033401,0.01553438,-0.01077542,-0.00048318,-0.00088529,-0.0015
 7577,-0.00366331,-0.00037128,0.00045729,0.00002697,0.00121923,-0.00057
 408,-0.00054757,-0.00077987,0.00004067,0.00005873,0.00008388,0.0000893
 4,0.00001993,0.00017205,0.00001155,0.00017165,0.11559249,-0.12115237,-
 0.00983696,-0.01824854,0.01302337,0.00160721,0.01655287,-0.01035498,-0
 .00206284,-0.12828465,0.12942540,0.00095717,0.00071009,0.00083993,0.00
 004343,0.00039102,-0.00000195,-0.00018112,0.00000849,-0.00002333,-0.00
 064770,-0.00005961,0.00015677,0.02438308,-0.01429619,-0.00241443,-0.00
 076457,-0.00236510,-0.00485516,-0.00010904,-0.00022291,0.00022322,0.00
 146443,-0.00126027,-0.00004785,-0.00075726,-0.00022087,0.00002422,0.00
 005654,0.00005140,0.00002227,0.00018306,0.00009557,0.00003243,0.016205
 16,-0.00947027,-0.05037850,0.00061155,-0.00004060,-0.00097812,-0.02375
 422,0.01325804,0.00294174,-0.01802135,0.01348018,0.05319814,0.00017870
 ,-0.01846760,0.02210433,0.00070753,0.00071558,0.00022750,-0.00437426,-
 0.00438156,0.00116878,0.00055007,-0.00047128,0.00076224,-0.07818223,0.
 00406443,-0.00619274,-0.00576984,0.01950594,-0.02250959,-0.00500558,0.
 00372105,-0.00052147,0.00092851,-0.00099611,-0.00036540,0.00068164,0.0
 0130063,-0.00158038,-0.00021235,0.00006883,0.00017357,-0.00014540,0.00
 011449,-0.00003674,0.00044673,0.00009860,-0.00121637,-0.00009022,0.000
 37027,-0.00095646,0.00004769,-0.00006113,0.00009584,0.00000033,-0.0001
 9819,0.00119426,0.58124121,-0.00326109,-0.01849761,0.02023719,0.000820
 24,0.00052687,0.00066646,-0.00276539,-0.00238840,0.00018480,0.00142426
 ,0.00108510,-0.00059096,0.00234217,-0.11297264,0.04678942,0.00706183,-
 0.01443808,0.01534222,0.00269958,-0.00132053,-0.00018499,-0.00061634,0
 .00030938,0.00080884,0.00014737,-0.00042762,-0.00054259,-0.00003379,-0
 .00004049,0.00069587,-0.00013711,-0.00010422,0.00016047,-0.00132209,0.
 01128899,-0.01239714,-0.00001289,0.00044888,-0.00072188,-0.00016861,-0
 .00166134,-0.00535116,-0.00006116,0.00038619,-0.00061444,0.00804045,0.
 53947768,0.00367553,0.00589634,-0.00334695,-0.00082494,-0.00151477,0.0
 0069429,-0.00067302,-0.00127740,0.00093898,-0.00058647,-0.00030880,0.0
 0006471,-0.00462704,0.04686425,-0.14001489,-0.00401099,0.00296949,-0.0
 0025182,0.00122544,-0.00177342,0.00090511,0.00074577,-0.00142137,0.000
 65588,-0.00042088,0.00007151,0.00029364,0.00017710,0.00010170,-0.00004
 003,0.00014972,0.00008618,0.00001258,-0.00244657,0.01521548,-0.0337426
 2,0.00039957,0.00108879,0.00156865,-0.00002213,-0.00279289,-0.00402425
 ,-0.00040368,0.00105486,0.00141269,-0.00812086,0.05526573,0.50569933,0
 .00058457,-0.00081316,0.00035933,-0.00001958,-0.00003340,-0.00004791,0
 .00022064,-0.00002509,-0.00016813,0.00057937,0.00017968,0.00001823,-0.
 00311109,0.00089671,0.00031486,0.00116645,-0.00034781,-0.00103651,-0.0
 0014042,0.00029638,-0.00002646,0.00003668,-0.00005909,0.00012876,0.000
 02935,0.00038568,0.00004954,0.00019371,-0.00006422,-0.00016743,-0.0000
 2542,0.00000638,-0.00009546,-0.00006771,-0.00002855,0.00055620,-0.0001
 0163,0.00009375,0.00000196,0.00026502,-0.00022891,-0.00013112,0.000427
 51,-0.00024653,-0.00058744,-0.23608632,0.11622981,0.01005999,0.2553060
 1,0.00139880,0.00034837,-0.00081214,0.00002158,-0.00010830,0.00003212,
 -0.00029670,0.00037356,-0.00009718,-0.00093421,-0.00008391,0.00042034,
 0.01691898,-0.01158784,-0.00186851,-0.00051094,-0.00195832,0.00391398,
 0.00135442,-0.00067701,0.00036838,-0.00037788,0.00044307,0.00002676,-0
 .00082624,0.00002931,0.00002891,0.00016434,0.00002823,-0.00019075,0.00
 008467,0.00009373,-0.00002496,-0.00024313,0.00041601,-0.00109469,-0.00
 010142,0.00002320,0.00002845,-0.00028611,-0.00003453,-0.00008042,-0.00
 024192,0.00058338,0.00039626,0.11592717,-0.12131771,-0.00679172,-0.128
 94728,0.12995395,-0.00084858,-0.00066106,0.00081016,0.00018235,-0.0000
 0961,-0.00003601,-0.00008652,-0.00036770,-0.00000939,0.00054713,0.0000
 2826,0.00011554,-0.02327305,0.01364113,0.00089754,0.00010400,0.0025949
 6,-0.00444213,-0.00137040,0.00119269,0.00020987,0.00010662,0.00024423,
 0.00021329,0.00070829,0.00018397,-0.00004601,-0.00019075,-0.00009014,0
 .00005206,-0.00004657,-0.00004817,0.00003371,-0.00105244,0.00055605,0.
 00145095,-0.00002101,-0.00003977,-0.00009943,0.00028421,-0.00012215,0.
 00033765,0.00048275,-0.00030912,-0.00041879,0.01057518,-0.00719078,-0.
 04956326,-0.01130382,0.00486852,0.05195907,0.00006065,0.00045738,0.000
 78134,0.00018596,-0.00028620,0.00006744,-0.00012027,0.00000015,-0.0001
 6416,-0.00000884,0.00007060,0.00011531,-0.00181906,-0.00149921,-0.0023
 0392,0.00025430,-0.00073099,-0.00086583,0.00000178,-0.00000226,0.00016
 744,0.00007492,0.00032165,0.00005678,-0.00007141,0.00021509,0.00003269
 ,-0.00011795,-0.00007799,0.00000102,0.00007721,-0.00009326,0.00009242,
 -0.00000311,0.00041326,-0.00036975,0.00019312,0.00027385,0.00026943,0.
 00063760,-0.00007799,-0.00019101,0.00024823,-0.00025978,-0.00029077,-0
 .04988810,-0.00139756,-0.00173455,0.00131964,0.01515892,0.02485506,0.0
 4817504,0.00035025,0.00111697,0.00040993,-0.00001343,-0.00003644,-0.00
 016171,0.00021596,0.00023440,-0.00015649,-0.00008050,-0.00009352,-0.00
 005374,0.00002974,0.01090028,0.01684698,-0.00018940,0.00103402,0.00036
 098,-0.00027637,0.00019822,-0.00011034,-0.00003957,-0.00004460,-0.0002
 3826,-0.00007633,0.00016473,-0.00009179,-0.00005906,-0.00005027,-0.000
 02180,-0.00001355,-0.00007456,0.00004484,0.00025797,-0.00216448,0.0028
 9505,0.00023425,-0.00001159,0.00011330,0.00002690,0.00086890,0.0011114
 6,-0.00022385,-0.00004706,0.00012210,-0.00130612,-0.12501332,-0.118058
 56,-0.00133574,-0.00957859,-0.01388025,0.00102172,0.13383417,-0.000594
 91,-0.00159109,0.00057668,0.00055011,0.00099850,0.00047522,-0.00014989
 ,0.00019199,0.00044829,0.00000573,0.00007814,-0.00003174,-0.00008448,-
 0.01567192,-0.02260222,0.00067336,-0.00150833,0.00040752,0.00025071,0.
 00016105,0.00043687,-0.00052239,0.00100491,0.00056671,-0.00021603,0.00
 022339,0.00004141,-0.00013514,-0.00007806,-0.00004332,0.00012930,-0.00
 000923,0.00007070,-0.00048925,0.00545078,-0.00347032,-0.00009334,0.000
 03149,0.00034149,-0.00006599,-0.00094720,-0.00177191,0.00012741,0.0000
 8530,0.00036696,-0.00161704,-0.11724926,-0.23147253,0.00044968,-0.0002
 9756,-0.00045351,0.00226298,0.12802838,0.25407809,0.00060992,0.0000699
 5,0.00034329,-0.00007420,0.00006072,-0.00012387,0.00030153,-0.00010568
 ,-0.00015183,0.00045970,0.00016475,-0.00023495,0.00231599,0.00241018,0
 .00015963,0.00024577,-0.00003504,0.00037649,0.00009030,-0.00018962,0.0
 0007269,-0.00005078,0.00006126,0.00001149,-0.00052520,0.00030609,-0.00
 005968,-0.00042821,0.00059009,-0.00038468,0.00000476,0.00002573,-0.000
 00263,-0.00001259,0.00007881,-0.00023140,0.00035309,0.00014039,0.00040
 059,0.00017791,0.00021329,0.00012380,-0.00009961,-0.00010455,0.0000147
 9,-0.20502810,-0.12898968,0.00743802,-0.02057679,-0.01826304,0.0003475
 5,0.00080030,0.00147712,-0.00048081,0.22143623,0.00178524,-0.00201747,
 0.00405687,0.00033796,0.00037286,-0.00002354,-0.00132609,-0.00070548,0
 .00039662,-0.00016332,0.00023268,0.00000571,-0.01579732,-0.01325628,-0
 .00053539,-0.00059516,-0.00008572,-0.00054091,0.00003287,0.00024761,0.
 00000692,0.00001419,0.00001200,0.00007030,-0.00047349,0.00038961,0.000
 20697,0.00068739,-0.00007170,-0.00031649,0.00014348,0.00006024,-0.0001
 7309,0.00018628,0.00047628,-0.00118274,0.00020915,0.00062334,0.0004219
 5,0.00028324,0.00000015,-0.00008227,0.00009775,0.00002203,0.00003712,-
 0.12804545,-0.15534114,0.00532461,0.01404141,0.01305341,-0.00059107,-0
 .01350736,-0.01123724,0.00109874,0.14208923,0.16722480,-0.00144935,0.0
 0275460,-0.00464201,-0.00007692,0.00027073,0.00023663,0.00131597,0.001
 47630,0.00010419,-0.00021301,-0.00025039,-0.00008007,0.02211109,0.0161
 7085,-0.00091610,0.00014477,-0.00067134,0.00083553,0.00016101,-0.00021
 438,-0.00004951,-0.00008864,0.00000209,-0.00002333,-0.00010705,-0.0004
 3350,0.00015948,-0.00015267,0.00013156,0.00000490,-0.00011731,0.000126
 05,-0.00005861,0.00113960,0.00065382,0.00146359,-0.00047644,-0.0003740
 2,-0.00046334,-0.00023563,-0.00015831,0.00034495,0.00000393,-0.0000100
 9,-0.00010026,0.00681536,0.00469220,-0.04978951,0.00162571,0.00117420,
 -0.00101129,-0.02278193,-0.01716008,0.00203561,-0.00761849,-0.00818030
 ,0.05194916\\0.00000123,-0.00000081,-0.00000024,0.00000095,-0.00000076
 ,-0.00000014,0.00000069,-0.00000078,-0.00000004,0.00000022,-0.00000131
 ,0.00000007,-0.00000235,0.00000066,-0.00000057,0.00000230,-0.00000037,
 0.00000015,0.00000042,0.00000061,-0.00000022,0.00000063,0.00000059,0.0
 0000003,-0.00000014,0.00000109,0.00000077,-0.00000020,0.00000148,-0.00
 000016,0.00000013,0.00000165,-0.00000017,0.00000015,-0.00000023,0.0000
 0009,-0.00000080,0.00000018,-0.00000008,-0.00000026,-0.00000025,0.0000
 0005,-0.00000079,-0.00000064,0.00000017,-0.00000033,-0.00000039,0.0000
 0037,-0.00000077,-0.00000072,0.00000003,-0.00000015,-0.00000019,-0.000
 00010,-0.00000093,0.00000018,-0.00000002\\\@


 QUANTUM MECHANICS IS BOHRING -- M.S. GORDON
 Job cpu time:       0 days  0 hours 30 minutes 14.6 seconds.
 File lengths (MBytes):  RWF=     64 Int=      0 D2E=      0 Chk=      3 Scr=      1
 Normal termination of Gaussian 09 at Sat Nov  7 02:40:24 2015.
