 Entering Gaussian System, Link 0=/share/apps/g09/g09
 Input=C6H14_1_06_1_opt_B3L.gjf
 Output=C6H14_1_06_1_opt_B3L.log
 Initial command:
 /share/apps/g09/l1.exe /state/partition1/Gau-2483.inp -scrdir=/state/partition1/
 Entering Link 1 = /share/apps/g09/l1.exe PID=      2484.
  
 Copyright (c) 1988,1990,1992,1993,1995,1998,2003,2009, Gaussian, Inc.
                  All Rights Reserved.
  
 This is part of the Gaussian(R) 09 program.  It is based on
 the Gaussian(R) 03 system (copyright 2003, Gaussian, Inc.),
 the Gaussian(R) 98 system (copyright 1998, Gaussian, Inc.),
 the Gaussian(R) 94 system (copyright 1995, Gaussian, Inc.),
 the Gaussian 92(TM) system (copyright 1992, Gaussian, Inc.),
 the Gaussian 90(TM) system (copyright 1990, Gaussian, Inc.),
 the Gaussian 88(TM) system (copyright 1988, Gaussian, Inc.),
 the Gaussian 86(TM) system (copyright 1986, Carnegie Mellon
 University), and the Gaussian 82(TM) system (copyright 1983,
 Carnegie Mellon University). Gaussian is a federally registered
 trademark of Gaussian, Inc.
  
 This software contains proprietary and confidential information,
 including trade secrets, belonging to Gaussian, Inc.
  
 This software is provided under written license and may be
 used, copied, transmitted, or stored only in accord with that
 written license.
  
 The following legend is applicable only to US Government
 contracts under FAR:
  
                    RESTRICTED RIGHTS LEGEND
  
 Use, reproduction and disclosure by the US Government is
 subject to restrictions as set forth in subparagraphs (a)
 and (c) of the Commercial Computer Software - Restricted
 Rights clause in FAR 52.227-19.
  
 Gaussian, Inc.
 340 Quinnipiac St., Bldg. 40, Wallingford CT 06492
  
  
 ---------------------------------------------------------------
 Warning -- This program may not be used in any manner that
 competes with the business of Gaussian, Inc. or will provide
 assistance to any competitor of Gaussian, Inc.  The licensee
 of this program is prohibited from giving any competitor of
 Gaussian, Inc. access to this program.  By using this program,
 the user acknowledges that Gaussian, Inc. is engaged in the
 business of creating and licensing software in the field of
 computational chemistry and represents and warrants to the
 licensee that it is not a competitor of Gaussian, Inc. and that
 it will not use this program in any manner prohibited above.
 ---------------------------------------------------------------
  

 Cite this work as:
 Gaussian 09, Revision A.01,
 M. J. Frisch, G. W. Trucks, H. B. Schlegel, G. E. Scuseria, 
 M. A. Robb, J. R. Cheeseman, G. Scalmani, V. Barone, B. Mennucci, 
 G. A. Petersson, H. Nakatsuji, M. Caricato, X. Li, H. P. Hratchian, 
 A. F. Izmaylov, J. Bloino, G. Zheng, J. L. Sonnenberg, M. Hada, 
 M. Ehara, K. Toyota, R. Fukuda, J. Hasegawa, M. Ishida, T. Nakajima, 
 Y. Honda, O. Kitao, H. Nakai, T. Vreven, J. A. Montgomery, Jr., 
 J. E. Peralta, F. Ogliaro, M. Bearpark, J. J. Heyd, E. Brothers, 
 K. N. Kudin, V. N. Staroverov, R. Kobayashi, J. Normand, 
 K. Raghavachari, A. Rendell, J. C. Burant, S. S. Iyengar, J. Tomasi, 
 M. Cossi, N. Rega, J. M. Millam, M. Klene, J. E. Knox, J. B. Cross, 
 V. Bakken, C. Adamo, J. Jaramillo, R. Gomperts, R. E. Stratmann, 
 O. Yazyev, A. J. Austin, R. Cammi, C. Pomelli, J. W. Ochterski, 
 R. L. Martin, K. Morokuma, V. G. Zakrzewski, G. A. Voth, 
 P. Salvador, J. J. Dannenberg, S. Dapprich, A. D. Daniels, 
 O. Farkas, J. B. Foresman, J. V. Ortiz, J. Cioslowski, 
 and D. J. Fox, Gaussian, Inc., Wallingford CT, 2009.
 
 ******************************************
 Gaussian 09:  EM64L-G09RevA.01  8-May-2009
                18-Sep-2015 
 ******************************************
 %mem=3GB
 %nprocshared=2
 Will use up to    2 processors via shared memory.
 -----------------------------------------
 #p B3LYP/6-31G(d) opt=tight int=ultrafine
 -----------------------------------------
 1/7=10,14=-1,18=20,19=15,26=3,38=1/1,3;
 2/9=110,12=2,17=6,18=5,40=1/2;
 3/5=1,6=6,7=1,11=2,16=1,25=1,30=1,71=1,74=-5,75=-5/1,2,3;
 4//1;
 5/5=2,38=5/2;
 6/7=2,8=2,9=2,10=2,28=1/1;
 7//1,2,3,16;
 1/7=10,14=-1,18=20,19=15/3(2);
 2/9=110/2;
 99//99;
 2/9=110/2;
 3/5=1,6=6,7=1,11=2,16=1,25=1,30=1,71=1,74=-5,75=-5/1,2,3;
 4/5=5,16=3/1;
 5/5=2,38=5/2;
 7//1,2,3,16;
 1/7=10,14=-1,18=20,19=15/3(-5);
 2/9=110/2;
 6/7=2,8=2,9=2,10=2,19=2,28=1/1;
 99/9=1/99;
 Leave Link    1 at Fri Sep 18 13:21:31 2015, MaxMem=  402653184 cpu:       0.1
 (Enter /share/apps/g09/l101.exe)
 ---------------------------------------------
 using B3LYP/6-31G(d) to do opt and freq calc.
 ---------------------------------------------
 Symbolic Z-matrix:
 Charge =  0 Multiplicity = 1
 C                     3.00216  -0.34909   0.10684 
 H                     3.06717  -0.45514   1.19556 
 H                     3.50056   0.58939  -0.16076 
 H                     3.58113  -1.16621  -0.33748 
 C                     1.5532   -0.37402  -0.37501 
 H                     1.52419  -0.30279  -1.47975 
 H                     1.09174  -1.3494   -0.12436 
 C                     0.72839   0.7648    0.24122 
 H                     1.19553   1.73685  -0.01073 
 H                     0.7614    0.69714   1.34555 
 C                    -0.72839   0.7648   -0.24122 
 H                    -0.7614    0.69714  -1.34555 
 H                    -1.19553   1.73685   0.01073 
 C                    -1.5532   -0.37401   0.37502 
 H                    -1.52419  -0.30278   1.47975 
 H                    -1.09174  -1.3494    0.12437 
 C                    -3.00216  -0.34909  -0.10684 
 H                    -3.06717  -0.45513  -1.19557 
 H                    -3.58112  -1.16622   0.33747 
 H                    -3.50056   0.58938   0.16077 
 
 NAtoms=     20 NQM=     20 NQMF=      0 NMic=      0 NMicF=      0 NTot=     20.
                    Isotopes and Nuclear Properties:
 (Nuclear quadrupole moments (NQMom) in fm**2, nuclear magnetic moments (NMagM)
  in nuclear magnetons)

  Atom         1           2           3           4           5           6           7           8           9          10
 IAtWgt=          12           1           1           1          12           1           1          12           1           1
 AtmWgt=  12.0000000   1.0078250   1.0078250   1.0078250  12.0000000   1.0078250   1.0078250  12.0000000   1.0078250   1.0078250
 NucSpn=           0           1           1           1           0           1           1           0           1           1
 AtZEff=   0.0000000   0.0000000   0.0000000   0.0000000   0.0000000   0.0000000   0.0000000   0.0000000   0.0000000   0.0000000
 NQMom=    0.0000000   0.0000000   0.0000000   0.0000000   0.0000000   0.0000000   0.0000000   0.0000000   0.0000000   0.0000000
 NMagM=    0.0000000   2.7928460   2.7928460   2.7928460   0.0000000   2.7928460   2.7928460   0.0000000   2.7928460   2.7928460

  Atom        11          12          13          14          15          16          17          18          19          20
 IAtWgt=          12           1           1          12           1           1          12           1           1           1
 AtmWgt=  12.0000000   1.0078250   1.0078250  12.0000000   1.0078250   1.0078250  12.0000000   1.0078250   1.0078250   1.0078250
 NucSpn=           0           1           1           0           1           1           0           1           1           1
 AtZEff=   0.0000000   0.0000000   0.0000000   0.0000000   0.0000000   0.0000000   0.0000000   0.0000000   0.0000000   0.0000000
 NQMom=    0.0000000   0.0000000   0.0000000   0.0000000   0.0000000   0.0000000   0.0000000   0.0000000   0.0000000   0.0000000
 NMagM=    0.0000000   2.7928460   2.7928460   0.0000000   2.7928460   2.7928460   0.0000000   2.7928460   2.7928460   2.7928460
 Leave Link  101 at Fri Sep 18 13:21:31 2015, MaxMem=  402653184 cpu:       0.1
 (Enter /share/apps/g09/l103.exe)

 GradGradGradGradGradGradGradGradGradGradGradGradGradGradGradGradGradGrad
 Berny optimization.
 Initialization pass.
                           ----------------------------
                           !    Initial Parameters    !
                           ! (Angstroms and Degrees)  !
 --------------------------                            --------------------------
 ! Name  Definition              Value          Derivative Info.                !
 --------------------------------------------------------------------------------
 ! R1    R(1,2)                  1.0958         estimate D2E/DX2                !
 ! R2    R(1,3)                  1.0958         estimate D2E/DX2                !
 ! R3    R(1,4)                  1.0956         estimate D2E/DX2                !
 ! R4    R(1,5)                  1.5272         estimate D2E/DX2                !
 ! R5    R(5,6)                  1.1074         estimate D2E/DX2                !
 ! R6    R(5,7)                  1.1078         estimate D2E/DX2                !
 ! R7    R(5,8)                  1.5352         estimate D2E/DX2                !
 ! R8    R(8,9)                  1.1075         estimate D2E/DX2                !
 ! R9    R(8,10)                 1.1069         estimate D2E/DX2                !
 ! R10   R(8,11)                 1.5346         estimate D2E/DX2                !
 ! R11   R(11,12)                1.1069         estimate D2E/DX2                !
 ! R12   R(11,13)                1.1075         estimate D2E/DX2                !
 ! R13   R(11,14)                1.5352         estimate D2E/DX2                !
 ! R14   R(14,15)                1.1074         estimate D2E/DX2                !
 ! R15   R(14,16)                1.1078         estimate D2E/DX2                !
 ! R16   R(14,17)                1.5272         estimate D2E/DX2                !
 ! R17   R(17,18)                1.0958         estimate D2E/DX2                !
 ! R18   R(17,19)                1.0956         estimate D2E/DX2                !
 ! R19   R(17,20)                1.0958         estimate D2E/DX2                !
 ! A1    A(2,1,3)              107.3693         estimate D2E/DX2                !
 ! A2    A(2,1,4)              107.4211         estimate D2E/DX2                !
 ! A3    A(2,1,5)              111.6039         estimate D2E/DX2                !
 ! A4    A(3,1,4)              107.4195         estimate D2E/DX2                !
 ! A5    A(3,1,5)              111.6209         estimate D2E/DX2                !
 ! A6    A(4,1,5)              111.1773         estimate D2E/DX2                !
 ! A7    A(1,5,6)              109.7893         estimate D2E/DX2                !
 ! A8    A(1,5,7)              109.7681         estimate D2E/DX2                !
 ! A9    A(1,5,8)              111.7762         estimate D2E/DX2                !
 ! A10   A(6,5,7)              105.7498         estimate D2E/DX2                !
 ! A11   A(6,5,8)              109.7937         estimate D2E/DX2                !
 ! A12   A(7,5,8)              109.7864         estimate D2E/DX2                !
 ! A13   A(5,8,9)              109.459          estimate D2E/DX2                !
 ! A14   A(5,8,10)             109.8219         estimate D2E/DX2                !
 ! A15   A(5,8,11)             112.5708         estimate D2E/DX2                !
 ! A16   A(9,8,10)             105.5474         estimate D2E/DX2                !
 ! A17   A(9,8,11)             109.2012         estimate D2E/DX2                !
 ! A18   A(10,8,11)            109.9965         estimate D2E/DX2                !
 ! A19   A(8,11,12)            109.9965         estimate D2E/DX2                !
 ! A20   A(8,11,13)            109.2012         estimate D2E/DX2                !
 ! A21   A(8,11,14)            112.5708         estimate D2E/DX2                !
 ! A22   A(12,11,13)           105.5474         estimate D2E/DX2                !
 ! A23   A(12,11,14)           109.822          estimate D2E/DX2                !
 ! A24   A(13,11,14)           109.459          estimate D2E/DX2                !
 ! A25   A(11,14,15)           109.7937         estimate D2E/DX2                !
 ! A26   A(11,14,16)           109.7864         estimate D2E/DX2                !
 ! A27   A(11,14,17)           111.7762         estimate D2E/DX2                !
 ! A28   A(15,14,16)           105.7498         estimate D2E/DX2                !
 ! A29   A(15,14,17)           109.7893         estimate D2E/DX2                !
 ! A30   A(16,14,17)           109.7681         estimate D2E/DX2                !
 ! A31   A(14,17,18)           111.6039         estimate D2E/DX2                !
 ! A32   A(14,17,19)           111.1774         estimate D2E/DX2                !
 ! A33   A(14,17,20)           111.6209         estimate D2E/DX2                !
 ! A34   A(18,17,19)           107.4211         estimate D2E/DX2                !
 ! A35   A(18,17,20)           107.3692         estimate D2E/DX2                !
 ! A36   A(19,17,20)           107.4195         estimate D2E/DX2                !
 ! D1    D(2,1,5,6)           -177.9093         estimate D2E/DX2                !
 ! D2    D(2,1,5,7)            -62.0698         estimate D2E/DX2                !
 ! D3    D(2,1,5,8)             59.9984         estimate D2E/DX2                !
 ! D4    D(3,1,5,6)             61.9355         estimate D2E/DX2                !
 ! D5    D(3,1,5,7)            177.7751         estimate D2E/DX2                !
 ! D6    D(3,1,5,8)            -60.1567         estimate D2E/DX2                !
 ! D7    D(4,1,5,6)            -57.9916         estimate D2E/DX2                !
 ! D8    D(4,1,5,7)             57.8479         estimate D2E/DX2                !
 ! D9    D(4,1,5,8)            179.9161         estimate D2E/DX2                !
 ! D10   D(1,5,8,9)             57.8203         estimate D2E/DX2                !
 ! D11   D(1,5,8,10)           -57.6175         estimate D2E/DX2                !
 ! D12   D(1,5,8,11)           179.4618         estimate D2E/DX2                !
 ! D13   D(6,5,8,9)            -64.2694         estimate D2E/DX2                !
 ! D14   D(6,5,8,10)          -179.7072         estimate D2E/DX2                !
 ! D15   D(6,5,8,11)            57.3721         estimate D2E/DX2                !
 ! D16   D(7,5,8,9)            179.878          estimate D2E/DX2                !
 ! D17   D(7,5,8,10)            64.4402         estimate D2E/DX2                !
 ! D18   D(7,5,8,11)           -58.4804         estimate D2E/DX2                !
 ! D19   D(5,8,11,12)          -49.718          estimate D2E/DX2                !
 ! D20   D(5,8,11,13)         -165.1072         estimate D2E/DX2                !
 ! D21   D(5,8,11,14)           73.105          estimate D2E/DX2                !
 ! D22   D(9,8,11,12)           72.0698         estimate D2E/DX2                !
 ! D23   D(9,8,11,13)          -43.3194         estimate D2E/DX2                !
 ! D24   D(9,8,11,14)         -165.1072         estimate D2E/DX2                !
 ! D25   D(10,8,11,12)        -172.5409         estimate D2E/DX2                !
 ! D26   D(10,8,11,13)          72.0699         estimate D2E/DX2                !
 ! D27   D(10,8,11,14)         -49.7179         estimate D2E/DX2                !
 ! D28   D(8,11,14,15)          57.3723         estimate D2E/DX2                !
 ! D29   D(8,11,14,16)         -58.4802         estimate D2E/DX2                !
 ! D30   D(8,11,14,17)         179.462          estimate D2E/DX2                !
 ! D31   D(12,11,14,15)       -179.7069         estimate D2E/DX2                !
 ! D32   D(12,11,14,16)         64.4406         estimate D2E/DX2                !
 ! D33   D(12,11,14,17)        -57.6172         estimate D2E/DX2                !
 ! D34   D(13,11,14,15)        -64.2692         estimate D2E/DX2                !
 ! D35   D(13,11,14,16)        179.8783         estimate D2E/DX2                !
 ! D36   D(13,11,14,17)         57.8206         estimate D2E/DX2                !
 ! D37   D(11,14,17,18)         59.9974         estimate D2E/DX2                !
 ! D38   D(11,14,17,19)        179.9151         estimate D2E/DX2                !
 ! D39   D(11,14,17,20)        -60.1577         estimate D2E/DX2                !
 ! D40   D(15,14,17,18)       -177.9103         estimate D2E/DX2                !
 ! D41   D(15,14,17,19)        -57.9926         estimate D2E/DX2                !
 ! D42   D(15,14,17,20)         61.9346         estimate D2E/DX2                !
 ! D43   D(16,14,17,18)        -62.0708         estimate D2E/DX2                !
 ! D44   D(16,14,17,19)         57.8469         estimate D2E/DX2                !
 ! D45   D(16,14,17,20)        177.7741         estimate D2E/DX2                !
 --------------------------------------------------------------------------------
 Trust Radius=3.00D-01 FncErr=1.00D-07 GrdErr=1.00D-06
 Number of steps in this run= 110 maximum allowed number of steps= 120.
 GradGradGradGradGradGradGradGradGradGradGradGradGradGradGradGradGradGrad

 Leave Link  103 at Fri Sep 18 13:21:31 2015, MaxMem=  402653184 cpu:       0.0
 (Enter /share/apps/g09/l202.exe)
                          Input orientation:                          
 ---------------------------------------------------------------------
 Center     Atomic      Atomic             Coordinates (Angstroms)
 Number     Number       Type             X           Y           Z
 ---------------------------------------------------------------------
      1          6           0        3.002158   -0.349089    0.106836
      2          1           0        3.067173   -0.455142    1.195565
      3          1           0        3.500557    0.589388   -0.160763
      4          1           0        3.581125   -1.166214   -0.337479
      5          6           0        1.553200   -0.374016   -0.375013
      6          1           0        1.524186   -0.302787   -1.479748
      7          1           0        1.091737   -1.349404   -0.124364
      8          6           0        0.728388    0.764799    0.241219
      9          1           0        1.195526    1.736849   -0.010733
     10          1           0        0.761401    0.697140    1.345552
     11          6           0       -0.728388    0.764798   -0.241220
     12          1           0       -0.761401    0.697137   -1.345553
     13          1           0       -1.195526    1.736850    0.010729
     14          6           0       -1.553201   -0.374013    0.375016
     15          1           0       -1.524190   -0.302778    1.479750
     16          1           0       -1.091736   -1.349403    0.124374
     17          6           0       -3.002157   -0.349090   -0.106837
     18          1           0       -3.067168   -0.455131   -1.195568
     19          1           0       -3.581121   -1.166223    0.337466
     20          1           0       -3.500563    0.589381    0.160770
 ---------------------------------------------------------------------
                    Distance matrix (angstroms):
                    1          2          3          4          5
     1  C    0.000000
     2  H    1.095812   0.000000
     3  H    1.095787   1.765925   0.000000
     4  H    1.095587   1.766350   1.766312   0.000000
     5  C    1.527180   2.182982   2.183174   2.177491   0.000000
     6  H    2.168823   3.092139   2.538058   2.506249   1.107409
     7  H    2.168823   2.538556   3.092354   2.505200   1.107770
     8  C    2.535515   2.805164   2.806649   3.493109   1.535238
     9  H    2.762043   3.124587   2.579214   3.771687   2.171723
    10  H    2.765864   2.582021   3.127870   3.775649   2.175928
    11  C    3.908818   4.237793   4.233346   4.723344   2.553516
    12  H    4.167541   4.737405   4.424887   4.831751   2.728863
    13  H    4.688382   4.937537   4.837280   5.600484   3.487126
    14  C    4.563314   4.693372   5.172588   5.243714   3.195664
    15  H    4.730208   4.602672   5.360534   5.487448   3.593821
    16  H    4.214369   4.386762   4.992932   4.699202   2.862945
    17  C    6.008116   6.208403   6.570307   6.637808   4.563312
    18  H    6.208399   6.583894   6.730294   6.741050   4.693367
    19  H    6.637805   6.741052   7.313041   7.193978   5.243708
    20  H    6.570313   6.730303   7.008499   7.313048   5.172593
                    6          7          8          9         10
     6  H    0.000000
     7  H    1.766206   0.000000
     8  C    2.175951   2.176127   0.000000
     9  H    2.534983   3.090088   1.107510   0.000000
    10  H    3.092574   2.541283   1.106896   1.763227   0.000000
    11  C    2.783483   2.792196   1.534583   2.167822   2.177589
    12  H    2.498352   3.018899   2.177589   2.586950   3.092082
    13  H    3.711937   3.843798   2.167822   2.391148   2.586950
    14  C    3.593819   2.862947   2.553516   3.487125   2.728863
    15  H    4.248673   3.242172   2.783485   3.711937   2.498354
    16  H    3.242169   2.197595   2.792195   3.843797   3.018896
    17  C    4.730202   4.214369   3.908818   4.688381   4.167541
    18  H    4.602662   4.386763   4.237786   4.937527   4.737400
    19  H    5.487435   4.699196   4.723344   5.600484   4.831755
    20  H    5.360538   4.992936   4.233352   4.837287   4.424891
                   11         12         13         14         15
    11  C    0.000000
    12  H    1.106896   0.000000
    13  H    1.107511   1.763227   0.000000
    14  C    1.535237   2.175929   2.171723   0.000000
    15  H    2.175950   3.092574   2.534980   1.107408   0.000000
    16  H    2.176127   2.541286   3.090088   1.107771   1.766206
    17  C    2.535514   2.765863   2.762043   1.527179   2.168822
    18  H    2.805156   2.582011   3.124576   2.182982   3.092138
    19  H    3.493108   3.775644   3.771691   2.177491   2.506255
    20  H    2.806657   3.127879   2.579223   2.183174   2.538052
                   16         17         18         19         20
    16  H    0.000000
    17  C    2.168823   0.000000
    18  H    2.538563   1.095813   0.000000
    19  H    2.505195   1.095587   1.766350   0.000000
    20  H    3.092354   1.095787   1.765924   1.766312   0.000000
 Stoichiometry    C6H14
 Framework group  C1[X(C6H14)]
 Deg. of freedom    54
 Full point group                 C1      NOp   1
 Largest Abelian subgroup         C1      NOp   1
 Largest concise Abelian subgroup C1      NOp   1
                         Standard orientation:                         
 ---------------------------------------------------------------------
 Center     Atomic      Atomic             Coordinates (Angstroms)
 Number     Number       Type             X           Y           Z
 ---------------------------------------------------------------------
      1          6           0       -3.002158   -0.349089   -0.106836
      2          1           0       -3.067173   -0.455142   -1.195565
      3          1           0       -3.500557    0.589388    0.160763
      4          1           0       -3.581125   -1.166214    0.337479
      5          6           0       -1.553200   -0.374016    0.375013
      6          1           0       -1.524186   -0.302787    1.479748
      7          1           0       -1.091737   -1.349404    0.124364
      8          6           0       -0.728388    0.764799   -0.241219
      9          1           0       -1.195526    1.736849    0.010733
     10          1           0       -0.761401    0.697140   -1.345552
     11          6           0        0.728388    0.764798    0.241220
     12          1           0        0.761401    0.697137    1.345553
     13          1           0        1.195526    1.736850   -0.010729
     14          6           0        1.553201   -0.374013   -0.375016
     15          1           0        1.524190   -0.302778   -1.479750
     16          1           0        1.091736   -1.349403   -0.124374
     17          6           0        3.002157   -0.349090    0.106837
     18          1           0        3.067168   -0.455131    1.195568
     19          1           0        3.581121   -1.166223   -0.337466
     20          1           0        3.500563    0.589381   -0.160770
 ---------------------------------------------------------------------
 Rotational constants (GHZ):      9.8339416      1.3164641      1.2550299
 Leave Link  202 at Fri Sep 18 13:21:31 2015, MaxMem=  402653184 cpu:       0.0
 (Enter /share/apps/g09/l301.exe)
 Standard basis: 6-31G(d) (6D, 7F)
 Ernie: Thresh=  0.10000D-02 Tol=  0.10000D-05 Strict=F.
 There are   118 symmetry adapted basis functions of A   symmetry.
 Integral buffers will be    131072 words long.
 Raffenetti 2 integral format.
 Two-electron integral symmetry is turned on.
   118 basis functions,   224 primitive gaussians,   118 cartesian basis functions
    25 alpha electrons       25 beta electrons
       nuclear repulsion energy       247.2853405158 Hartrees.
 IExCor=  402 DFT=T Ex+Corr=B3LYP ExCW=0 ScaHFX=  0.200000
 ScaDFX=  0.800000  0.720000  1.000000  0.810000 ScalE2=  1.000000  1.000000
 IRadAn=      5 IRanWt=     -1 IRanGd=            0 ICorTp=0
 NAtoms=   20 NActive=   20 NUniq=   20 SFac= 7.50D-01 NAtFMM=   80 NAOKFM=F Big=F
 Leave Link  301 at Fri Sep 18 13:21:31 2015, MaxMem=  402653184 cpu:       0.1
 (Enter /share/apps/g09/l302.exe)
 NPDir=0 NMtPBC=     1 NCelOv=     1 NCel=       1 NClECP=     1 NCelD=      1
         NCelK=      1 NCelE2=     1 NClLst=     1 CellRange=     0.0.
 One-electron integrals computed using PRISM.
 NBasis=   118 RedAO= T  NBF=   118
 NBsUse=   118 1.00D-06 NBFU=   118
 Precomputing XC quadrature grid using
 IXCGrd= 2 IRadAn=           5 IRanWt=          -1 IRanGd=           0 AccXCQ= 1.00D-10.
 NRdTot=    1656 NPtTot=      443652 NUsed=      455517 NTot=      455549
 NSgBfM=   118   118   118   118   118 NAtAll=    20    20.
 Leave Link  302 at Fri Sep 18 13:21:32 2015, MaxMem=  402653184 cpu:       1.2
 (Enter /share/apps/g09/l303.exe)
 DipDrv:  MaxL=1.
 Leave Link  303 at Fri Sep 18 13:21:32 2015, MaxMem=  402653184 cpu:       0.1
 (Enter /share/apps/g09/l401.exe)
 Harris functional with IExCor=  402 diagonalized for initial guess.
 ExpMin= 1.61D-01 ExpMax= 3.05D+03 ExpMxC= 4.57D+02 IAcc=3 IRadAn=         5 AccDes= 0.00D+00
 HarFok:  IExCor=  402 AccDes= 0.00D+00 IRadAn=         5 IDoV= 1
 ScaDFX=  1.000000  1.000000  1.000000  1.000000
 FoFCou: FMM=F IPFlag=           0 FMFlag=      100000 FMFlg1=           0
         NFxFlg=           0 DoJE=T BraDBF=F KetDBF=T FulRan=T
         Omega=  0.000000  0.000000  1.000000  0.000000  0.000000 ICntrl=     500 IOpCl=  0
         NMat0=    1 NMatS0=    1 NMatT0=    0 NMatD0=    1 NMtDS0=    0 NMtDT0=    0
         I1Cent=           4 NGrid=           0.
 Petite list used in FoFCou.
 Harris En= -237.178796190158    
 Initial guess orbital symmetries:
       Occupied  (A) (A) (A) (A) (A) (A) (A) (A) (A) (A) (A) (A)
                 (A) (A) (A) (A) (A) (A) (A) (A) (A) (A) (A) (A)
                 (A)
       Virtual   (A) (A) (A) (A) (A) (A) (A) (A) (A) (A) (A) (A)
                 (A) (A) (A) (A) (A) (A) (A) (A) (A) (A) (A) (A)
                 (A) (A) (A) (A) (A) (A) (A) (A) (A) (A) (A) (A)
                 (A) (A) (A) (A) (A) (A) (A) (A) (A) (A) (A) (A)
                 (A) (A) (A) (A) (A) (A) (A) (A) (A) (A) (A) (A)
                 (A) (A) (A) (A) (A) (A) (A) (A) (A) (A) (A) (A)
                 (A) (A) (A) (A) (A) (A) (A) (A) (A) (A) (A) (A)
                 (A) (A) (A) (A) (A) (A) (A) (A) (A)
 The electronic state of the initial guess is 1-A.
 Leave Link  401 at Fri Sep 18 13:21:37 2015, MaxMem=  402653184 cpu:      10.0
 (Enter /share/apps/g09/l502.exe)
 Closed shell SCF:
 Requested convergence on RMS density matrix=1.00D-08 within 128 cycles.
 Requested convergence on MAX density matrix=1.00D-06.
 Requested convergence on             energy=1.00D-06.
 No special actions if energy rises.
 Using DIIS extrapolation, IDIIS=  1040.
 Integral symmetry usage will be decided dynamically.
       455324 words used for storage of precomputed grid.
 Keep R1 ints in memory in canonical form, NReq=26109379.
 IEnd=      516868 IEndB=      516868 NGot=   402653184 MDV=   377516240
 LenX=   377516240 LenY=   377501875
 Symmetry not used in FoFDir.
 MinBra= 0 MaxBra= 2 Meth= 1.
 IRaf=       0 NMat=   1 IRICut=       1 DoRegI=T DoRafI=F ISym2E= 0 JSym2E=0.
 Integral accuracy reduced to 1.0D-05 until final iterations.

 Cycle   1  Pass 0  IDiag  1:
 E= -236.793243961094    
 DIIS: error= 4.60D-02 at cycle   1 NSaved=   1.
 NSaved= 1 IEnMin= 1 EnMin= -236.793243961094     IErMin= 1 ErrMin= 4.60D-02
 ErrMax= 4.60D-02 EMaxC= 1.00D-01 BMatC= 2.54D-01 BMatP= 2.54D-01
 IDIUse=3 WtCom= 5.40D-01 WtEn= 4.60D-01
 Coeff-Com:  0.100D+01
 Coeff-En:   0.100D+01
 Coeff:      0.100D+01
 Gap=     0.354 Goal=   None    Shift=    0.000
 GapD=    0.354 DampG=1.000 DampE=0.500 DampFc=0.5000 IDamp=-1.
 Damping current iteration by 5.00D-01
 RMSDP=1.01D-02 MaxDP=1.46D-01              OVMax= 1.90D-01

 Cycle   2  Pass 0  IDiag  1:
 E= -236.920867839646     Delta-E=       -0.127623878553 Rises=F Damp=T
 DIIS: error= 7.77D-03 at cycle   2 NSaved=   2.
 NSaved= 2 IEnMin= 2 EnMin= -236.920867839646     IErMin= 2 ErrMin= 7.77D-03
 ErrMax= 7.77D-03 EMaxC= 1.00D-01 BMatC= 9.67D-03 BMatP= 2.54D-01
 IDIUse=3 WtCom= 9.22D-01 WtEn= 7.77D-02
 Coeff-Com:  0.854D-01 0.915D+00
 Coeff-En:   0.139D+00 0.861D+00
 Coeff:      0.896D-01 0.910D+00
 Gap=     0.403 Goal=   None    Shift=    0.000
 RMSDP=1.47D-03 MaxDP=2.37D-02 DE=-1.28D-01 OVMax= 1.02D-01

 Cycle   3  Pass 0  IDiag  1:
 E= -237.082165499281     Delta-E=       -0.161297659635 Rises=F Damp=F
 DIIS: error= 2.42D-03 at cycle   3 NSaved=   3.
 NSaved= 3 IEnMin= 3 EnMin= -237.082165499281     IErMin= 3 ErrMin= 2.42D-03
 ErrMax= 2.42D-03 EMaxC= 1.00D-01 BMatC= 6.73D-04 BMatP= 9.67D-03
 IDIUse=3 WtCom= 9.76D-01 WtEn= 2.42D-02
 Coeff-Com:  0.543D-02 0.149D+00 0.845D+00
 Coeff-En:   0.000D+00 0.000D+00 0.100D+01
 Coeff:      0.530D-02 0.146D+00 0.849D+00
 Gap=     0.397 Goal=   None    Shift=    0.000
 RMSDP=3.79D-04 MaxDP=4.68D-03 DE=-1.61D-01 OVMax= 8.65D-03

 Cycle   4  Pass 0  IDiag  1:
 E= -237.082545138421     Delta-E=       -0.000379639140 Rises=F Damp=F
 DIIS: error= 1.25D-03 at cycle   4 NSaved=   4.
 NSaved= 4 IEnMin= 4 EnMin= -237.082545138421     IErMin= 4 ErrMin= 1.25D-03
 ErrMax= 1.25D-03 EMaxC= 1.00D-01 BMatC= 2.96D-04 BMatP= 6.73D-04
 IDIUse=3 WtCom= 9.87D-01 WtEn= 1.25D-02
 Coeff-Com: -0.930D-04 0.254D-01 0.403D+00 0.572D+00
 Coeff-En:   0.000D+00 0.000D+00 0.273D+00 0.727D+00
 Coeff:     -0.918D-04 0.250D-01 0.401D+00 0.574D+00
 Gap=     0.398 Goal=   None    Shift=    0.000
 RMSDP=1.56D-04 MaxDP=2.76D-03 DE=-3.80D-04 OVMax= 4.25D-03

 Cycle   5  Pass 0  IDiag  1:
 E= -237.082821667074     Delta-E=       -0.000276528653 Rises=F Damp=F
 DIIS: error= 2.59D-04 at cycle   5 NSaved=   5.
 NSaved= 5 IEnMin= 5 EnMin= -237.082821667074     IErMin= 5 ErrMin= 2.59D-04
 ErrMax= 2.59D-04 EMaxC= 1.00D-01 BMatC= 1.38D-05 BMatP= 2.96D-04
 IDIUse=3 WtCom= 9.97D-01 WtEn= 2.59D-03
 Coeff-Com:  0.771D-04-0.153D-02 0.998D-01 0.238D+00 0.664D+00
 Coeff-En:   0.000D+00 0.000D+00 0.000D+00 0.000D+00 0.100D+01
 Coeff:      0.769D-04-0.153D-02 0.995D-01 0.237D+00 0.665D+00
 Gap=     0.398 Goal=   None    Shift=    0.000
 RMSDP=2.83D-05 MaxDP=5.71D-04 DE=-2.77D-04 OVMax= 7.05D-04

 Cycle   6  Pass 0  IDiag  1:
 E= -237.082834665640     Delta-E=       -0.000012998566 Rises=F Damp=F
 DIIS: error= 3.20D-05 at cycle   6 NSaved=   6.
 NSaved= 6 IEnMin= 6 EnMin= -237.082834665640     IErMin= 6 ErrMin= 3.20D-05
 ErrMax= 3.20D-05 EMaxC= 1.00D-01 BMatC= 1.58D-07 BMatP= 1.38D-05
 IDIUse=1 WtCom= 1.00D+00 WtEn= 0.00D+00
 Coeff-Com:  0.112D-03-0.980D-03 0.285D-01 0.734D-01 0.230D+00 0.669D+00
 Coeff:      0.112D-03-0.980D-03 0.285D-01 0.734D-01 0.230D+00 0.669D+00
 Gap=     0.398 Goal=   None    Shift=    0.000
 RMSDP=4.86D-06 MaxDP=7.54D-05 DE=-1.30D-05 OVMax= 1.05D-04

 Initial convergence to 1.0D-05 achieved.  Increase integral accuracy.
 Cycle   7  Pass 1  IDiag  1:
 E= -237.082854722844     Delta-E=       -0.000020057204 Rises=F Damp=F
 DIIS: error= 1.17D-05 at cycle   1 NSaved=   1.
 NSaved= 1 IEnMin= 1 EnMin= -237.082854722844     IErMin= 1 ErrMin= 1.17D-05
 ErrMax= 1.17D-05 EMaxC= 1.00D-01 BMatC= 2.68D-08 BMatP= 2.68D-08
 IDIUse=1 WtCom= 1.00D+00 WtEn= 0.00D+00
 Coeff-Com:  0.100D+01
 Coeff:      0.100D+01
 Gap=     0.398 Goal=   None    Shift=    0.000
 RMSDP=4.86D-06 MaxDP=7.54D-05 DE=-2.01D-05 OVMax= 6.26D-05

 Cycle   8  Pass 1  IDiag  1:
 E= -237.082854708667     Delta-E=        0.000000014177 Rises=F Damp=F
 DIIS: error= 1.49D-05 at cycle   2 NSaved=   2.
 NSaved= 2 IEnMin= 1 EnMin= -237.082854722844     IErMin= 1 ErrMin= 1.17D-05
 ErrMax= 1.49D-05 EMaxC= 1.00D-01 BMatC= 4.19D-08 BMatP= 2.68D-08
 IDIUse=1 WtCom= 1.00D+00 WtEn= 0.00D+00
 Coeff-Com:  0.557D+00 0.443D+00
 Coeff:      0.557D+00 0.443D+00
 Gap=     0.398 Goal=   None    Shift=    0.000
 RMSDP=1.55D-06 MaxDP=2.90D-05 DE= 1.42D-08 OVMax= 3.68D-05

 Cycle   9  Pass 1  IDiag  1:
 E= -237.082854749317     Delta-E=       -0.000000040650 Rises=F Damp=F
 DIIS: error= 4.76D-07 at cycle   3 NSaved=   3.
 NSaved= 3 IEnMin= 3 EnMin= -237.082854749317     IErMin= 3 ErrMin= 4.76D-07
 ErrMax= 4.76D-07 EMaxC= 1.00D-01 BMatC= 4.17D-11 BMatP= 2.68D-08
 IDIUse=1 WtCom= 1.00D+00 WtEn= 0.00D+00
 Coeff-Com:  0.546D-01 0.579D-01 0.887D+00
 Coeff:      0.546D-01 0.579D-01 0.887D+00
 Gap=     0.398 Goal=   None    Shift=    0.000
 RMSDP=9.61D-08 MaxDP=1.17D-06 DE=-4.07D-08 OVMax= 1.85D-06

 Cycle  10  Pass 1  IDiag  1:
 E= -237.082854749344     Delta-E=       -0.000000000027 Rises=F Damp=F
 DIIS: error= 2.41D-07 at cycle   4 NSaved=   4.
 NSaved= 4 IEnMin= 4 EnMin= -237.082854749344     IErMin= 4 ErrMin= 2.41D-07
 ErrMax= 2.41D-07 EMaxC= 1.00D-01 BMatC= 1.55D-11 BMatP= 4.17D-11
 IDIUse=1 WtCom= 1.00D+00 WtEn= 0.00D+00
 Coeff-Com: -0.207D-02 0.494D-02 0.409D+00 0.589D+00
 Coeff:     -0.207D-02 0.494D-02 0.409D+00 0.589D+00
 Gap=     0.398 Goal=   None    Shift=    0.000
 RMSDP=3.74D-08 MaxDP=6.08D-07 DE=-2.67D-11 OVMax= 9.23D-07

 Cycle  11  Pass 1  IDiag  1:
 E= -237.082854749358     Delta-E=       -0.000000000014 Rises=F Damp=F
 DIIS: error= 7.81D-08 at cycle   5 NSaved=   5.
 NSaved= 5 IEnMin= 5 EnMin= -237.082854749358     IErMin= 5 ErrMin= 7.81D-08
 ErrMax= 7.81D-08 EMaxC= 1.00D-01 BMatC= 8.89D-13 BMatP= 1.55D-11
 IDIUse=1 WtCom= 1.00D+00 WtEn= 0.00D+00
 Coeff-Com: -0.502D-02-0.209D-02 0.122D+00 0.263D+00 0.622D+00
 Coeff:     -0.502D-02-0.209D-02 0.122D+00 0.263D+00 0.622D+00
 Gap=     0.398 Goal=   None    Shift=    0.000
 RMSDP=8.38D-09 MaxDP=1.21D-07 DE=-1.42D-11 OVMax= 2.26D-07

 SCF Done:  E(RB3LYP) =  -237.082854749     A.U. after   11 cycles
             Convg  =    0.8379D-08             -V/T =  2.0107
 KE= 2.345843833013D+02 PE=-1.041470630838D+03 EE= 3.225180522711D+02
 Leave Link  502 at Fri Sep 18 13:22:24 2015, MaxMem=  402653184 cpu:      92.7
 (Enter /share/apps/g09/l601.exe)
 Copying SCF densities to generalized density rwf, IOpCl= 0 IROHF=0.

 **********************************************************************

            Population analysis using the SCF density.

 **********************************************************************

 Orbital symmetries:
       Occupied  (A) (A) (A) (A) (A) (A) (A) (A) (A) (A) (A) (A)
                 (A) (A) (A) (A) (A) (A) (A) (A) (A) (A) (A) (A)
                 (A)
       Virtual   (A) (A) (A) (A) (A) (A) (A) (A) (A) (A) (A) (A)
                 (A) (A) (A) (A) (A) (A) (A) (A) (A) (A) (A) (A)
                 (A) (A) (A) (A) (A) (A) (A) (A) (A) (A) (A) (A)
                 (A) (A) (A) (A) (A) (A) (A) (A) (A) (A) (A) (A)
                 (A) (A) (A) (A) (A) (A) (A) (A) (A) (A) (A) (A)
                 (A) (A) (A) (A) (A) (A) (A) (A) (A) (A) (A) (A)
                 (A) (A) (A) (A) (A) (A) (A) (A) (A) (A) (A) (A)
                 (A) (A) (A) (A) (A) (A) (A) (A) (A)
 The electronic state is 1-A.
 Alpha  occ. eigenvalues --  -10.17700 -10.17700 -10.17475 -10.17454 -10.16877
 Alpha  occ. eigenvalues --  -10.16877  -0.80011  -0.75945  -0.70273  -0.62990
 Alpha  occ. eigenvalues --   -0.59003  -0.55966  -0.45768  -0.45247  -0.42949
 Alpha  occ. eigenvalues --   -0.40617  -0.40530  -0.38431  -0.35987  -0.35154
 Alpha  occ. eigenvalues --   -0.34267  -0.32723  -0.32130  -0.30500  -0.30377
 Alpha virt. eigenvalues --    0.09435   0.10540   0.11694   0.12237   0.13820
 Alpha virt. eigenvalues --    0.16336   0.16480   0.17780   0.18231   0.18353
 Alpha virt. eigenvalues --    0.19584   0.20015   0.20353   0.22485   0.24617
 Alpha virt. eigenvalues --    0.25771   0.26882   0.27182   0.28176   0.50211
 Alpha virt. eigenvalues --    0.50697   0.51880   0.54445   0.55497   0.56061
 Alpha virt. eigenvalues --    0.59143   0.61385   0.63922   0.64231   0.69059
 Alpha virt. eigenvalues --    0.70298   0.71887   0.76724   0.78765   0.81259
 Alpha virt. eigenvalues --    0.85619   0.86435   0.87155   0.88191   0.90163
 Alpha virt. eigenvalues --    0.91012   0.92026   0.92090   0.93456   0.94655
 Alpha virt. eigenvalues --    0.95726   0.96983   0.98511   0.99863   1.02093
 Alpha virt. eigenvalues --    1.07024   1.12326   1.23683   1.42785   1.42954
 Alpha virt. eigenvalues --    1.44240   1.46067   1.56580   1.58213   1.69472
 Alpha virt. eigenvalues --    1.73675   1.77142   1.83079   1.87584   1.90521
 Alpha virt. eigenvalues --    1.91260   1.93648   1.97631   1.98897   2.00001
 Alpha virt. eigenvalues --    2.03652   2.07948   2.16725   2.19459   2.24075
 Alpha virt. eigenvalues --    2.27337   2.32580   2.33436   2.36579   2.38026
 Alpha virt. eigenvalues --    2.43607   2.46132   2.52335   2.61407   2.69171
 Alpha virt. eigenvalues --    2.70872   2.83106   4.11729   4.19116   4.29419
 Alpha virt. eigenvalues --    4.36803   4.47439   4.55658
          Condensed to atoms (all electrons):
              1          2          3          4          5          6
     1  C    5.065513   0.378200   0.377898   0.370674   0.372009  -0.037863
     2  H    0.378200   0.579401  -0.033349  -0.031526  -0.034537   0.005175
     3  H    0.377898  -0.033349   0.579819  -0.031729  -0.034460  -0.004563
     4  H    0.370674  -0.031526  -0.031729   0.582879  -0.028560  -0.002686
     5  C    0.372009  -0.034537  -0.034460  -0.028560   4.957886   0.375723
     6  H   -0.037863   0.005175  -0.004563  -0.002686   0.375723   0.613047
     7  H   -0.036871  -0.004475   0.005076  -0.002637   0.376842  -0.040481
     8  C   -0.046463  -0.004620  -0.004537   0.004475   0.391332  -0.039659
     9  H   -0.003550  -0.000398   0.005028  -0.000018  -0.039698  -0.005266
    10  H   -0.002979   0.004921  -0.000396  -0.000032  -0.040860   0.005701
    11  C    0.004156   0.000077   0.000023  -0.000158  -0.040742  -0.003784
    12  H    0.000117   0.000009   0.000006  -0.000002  -0.008039   0.006005
    13  H   -0.000171   0.000003  -0.000005   0.000003   0.004743   0.000049
    14  C    0.000179  -0.000012  -0.000001   0.000001  -0.006273  -0.000324
    15  H   -0.000019  -0.000004   0.000001   0.000000  -0.000324   0.000036
    16  H   -0.000159   0.000015   0.000000   0.000008   0.001921   0.000289
    17  C   -0.000001   0.000000   0.000000   0.000000   0.000179  -0.000019
    18  H    0.000000   0.000000   0.000000   0.000000  -0.000012  -0.000004
    19  H    0.000000   0.000000   0.000000   0.000000   0.000001   0.000000
    20  H    0.000000   0.000000   0.000000   0.000000  -0.000001   0.000001
              7          8          9         10         11         12
     1  C   -0.036871  -0.046463  -0.003550  -0.002979   0.004156   0.000117
     2  H   -0.004475  -0.004620  -0.000398   0.004921   0.000077   0.000009
     3  H    0.005076  -0.004537   0.005028  -0.000396   0.000023   0.000006
     4  H   -0.002637   0.004475  -0.000018  -0.000032  -0.000158  -0.000002
     5  C    0.376842   0.391332  -0.039698  -0.040860  -0.040742  -0.008039
     6  H   -0.040481  -0.039659  -0.005266   0.005701  -0.003784   0.006005
     7  H    0.607210  -0.041494   0.005737  -0.005155  -0.003465  -0.000084
     8  C   -0.041494   4.991521   0.367478   0.371629   0.370531  -0.038339
     9  H    0.005737   0.367478   0.621620  -0.040048  -0.032821  -0.001307
    10  H   -0.005155   0.371629  -0.040048   0.617895  -0.038339   0.005567
    11  C   -0.003465   0.370531  -0.032821  -0.038339   4.991521   0.371629
    12  H   -0.000084  -0.038339  -0.001307   0.005567   0.371629   0.617895
    13  H   -0.000031  -0.032821  -0.005204  -0.001307   0.367478  -0.040048
    14  C    0.001921  -0.040742   0.004743  -0.008039   0.391332  -0.040860
    15  H    0.000289  -0.003784   0.000049   0.006005  -0.039659   0.005701
    16  H    0.004296  -0.003465  -0.000031  -0.000084  -0.041494  -0.005154
    17  C   -0.000159   0.004156  -0.000171   0.000117  -0.046463  -0.002979
    18  H    0.000015   0.000077   0.000003   0.000009  -0.004620   0.004921
    19  H    0.000008  -0.000158   0.000003  -0.000002   0.004475  -0.000032
    20  H    0.000000   0.000023  -0.000005   0.000006  -0.004537  -0.000396
             13         14         15         16         17         18
     1  C   -0.000171   0.000179  -0.000019  -0.000159  -0.000001   0.000000
     2  H    0.000003  -0.000012  -0.000004   0.000015   0.000000   0.000000
     3  H   -0.000005  -0.000001   0.000001   0.000000   0.000000   0.000000
     4  H    0.000003   0.000001   0.000000   0.000008   0.000000   0.000000
     5  C    0.004743  -0.006273  -0.000324   0.001921   0.000179  -0.000012
     6  H    0.000049  -0.000324   0.000036   0.000289  -0.000019  -0.000004
     7  H   -0.000031   0.001921   0.000289   0.004296  -0.000159   0.000015
     8  C   -0.032821  -0.040742  -0.003784  -0.003465   0.004156   0.000077
     9  H   -0.005204   0.004743   0.000049  -0.000031  -0.000171   0.000003
    10  H   -0.001307  -0.008039   0.006005  -0.000084   0.000117   0.000009
    11  C    0.367478   0.391332  -0.039659  -0.041494  -0.046463  -0.004620
    12  H   -0.040048  -0.040860   0.005701  -0.005154  -0.002979   0.004921
    13  H    0.621621  -0.039698  -0.005266   0.005737  -0.003550  -0.000398
    14  C   -0.039698   4.957886   0.375723   0.376842   0.372009  -0.034537
    15  H   -0.005266   0.375723   0.613047  -0.040481  -0.037863   0.005175
    16  H    0.005737   0.376842  -0.040481   0.607210  -0.036871  -0.004475
    17  C   -0.003550   0.372009  -0.037863  -0.036871   5.065513   0.378200
    18  H   -0.000398  -0.034537   0.005175  -0.004475   0.378200   0.579401
    19  H   -0.000018  -0.028560  -0.002686  -0.002637   0.370674  -0.031526
    20  H    0.005028  -0.034460  -0.004563   0.005076   0.377898  -0.033349
             19         20
     1  C    0.000000   0.000000
     2  H    0.000000   0.000000
     3  H    0.000000   0.000000
     4  H    0.000000   0.000000
     5  C    0.000001  -0.000001
     6  H    0.000000   0.000001
     7  H    0.000008   0.000000
     8  C   -0.000158   0.000023
     9  H    0.000003  -0.000005
    10  H   -0.000002   0.000006
    11  C    0.004475  -0.004537
    12  H   -0.000032  -0.000396
    13  H   -0.000018   0.005028
    14  C   -0.028560  -0.034460
    15  H   -0.002686  -0.004563
    16  H   -0.002637   0.005076
    17  C    0.370674   0.377898
    18  H   -0.031526  -0.033349
    19  H    0.582879  -0.031729
    20  H   -0.031729   0.579819
 Mulliken atomic charges:
              1
     1  C   -0.440670
     2  H    0.141122
     3  H    0.141189
     4  H    0.139306
     5  C   -0.247133
     6  H    0.128623
     7  H    0.133459
     8  C   -0.245141
     9  H    0.123855
    10  H    0.125391
    11  C   -0.245141
    12  H    0.125391
    13  H    0.123855
    14  C   -0.247132
    15  H    0.128623
    16  H    0.133458
    17  C   -0.440670
    18  H    0.141121
    19  H    0.139306
    20  H    0.141189
 Sum of Mulliken atomic charges =   0.00000
 Mulliken charges with hydrogens summed into heavy atoms:
              1
     1  C   -0.019053
     5  C    0.014949
     8  C    0.004104
    11  C    0.004104
    14  C    0.014949
    17  C   -0.019053
 Sum of Mulliken charges with hydrogens summed into heavy atoms =   0.00000
 Electronic spatial extent (au):  <R**2>=           1028.6363
 Charge=              0.0000 electrons
 Dipole moment (field-independent basis, Debye):
    X=              0.0000    Y=             -0.0137    Z=              0.0000  Tot=              0.0137
 Quadrupole moment (field-independent basis, Debye-Ang):
   XX=            -42.6378   YY=            -41.3169   ZZ=            -41.1411
   XY=              0.0000   XZ=             -0.2966   YZ=              0.0000
 Traceless Quadrupole moment (field-independent basis, Debye-Ang):
   XX=             -0.9392   YY=              0.3817   ZZ=              0.5575
   XY=              0.0000   XZ=             -0.2966   YZ=              0.0000
 Octapole moment (field-independent basis, Debye-Ang**2):
  XXX=              0.0000  YYY=             -0.0421  ZZZ=              0.0000  XYY=              0.0000
  XXY=              0.6230  XXZ=              0.0000  XZZ=              0.0000  YZZ=             -0.2146
  YYZ=              0.0000  XYZ=             -0.2529
 Hexadecapole moment (field-independent basis, Debye-Ang**3):
 XXXX=          -1183.0893 YYYY=           -161.1028 ZZZZ=           -103.4640 XXXY=              0.0000
 XXXZ=             -6.8385 YYYX=             -0.0001 YYYZ=              0.0000 ZZZX=              1.9404
 ZZZY=              0.0000 XXYY=           -215.1557 XXZZ=           -209.8845 YYZZ=            -46.6037
 XXYZ=              0.0000 YYXZ=             -2.5909 ZZXY=              0.0001
 N-N= 2.472853405158D+02 E-N=-1.041470625022D+03  KE= 2.345843833013D+02
 No NMR shielding tensors so no spin-rotation constants.
 Leave Link  601 at Fri Sep 18 13:22:24 2015, MaxMem=  402653184 cpu:       0.3
 (Enter /share/apps/g09/l701.exe)
 Compute integral first derivatives.
 ... and contract with generalized density number  0.
 Leave Link  701 at Fri Sep 18 13:22:24 2015, MaxMem=  402653184 cpu:       0.3
 (Enter /share/apps/g09/l702.exe)
 L702 exits ... SP integral derivatives will be done elsewhere.
 Leave Link  702 at Fri Sep 18 13:22:24 2015, MaxMem=  402653184 cpu:       0.0
 (Enter /share/apps/g09/l703.exe)
 Compute integral first derivatives, UseDBF=F ICtDFT=           0.
 Integral derivatives from FoFDir, PRISM(SPDF).
 Calling FoFJK, ICntrl=      2127 FMM=F ISym2X=0 I1Cent= 0 IOpClX= 0 NMat=1 NMatS=1 NMatT=0.
 FoFCou: FMM=F IPFlag=           0 FMFlag=      100000 FMFlg1=         800
         NFxFlg=           0 DoJE=F BraDBF=F KetDBF=F FulRan=T
         Omega=  0.000000  0.000000  1.000000  0.000000  0.000000 ICntrl=    2127 IOpCl=  0
         NMat0=    1 NMatS0=    1 NMatT0=    0 NMatD0=    1 NMtDS0=    0 NMtDT0=    0
         I1Cent=           0 NGrid=           0.
 Symmetry not used in FoFCou.
 Leave Link  703 at Fri Sep 18 13:22:36 2015, MaxMem=  402653184 cpu:      23.7
 (Enter /share/apps/g09/l716.exe)
 Dipole        = 1.82496440D-07-5.39243741D-03-7.09256832D-07
 ***** Axes restored to original set *****
 -------------------------------------------------------------------
 Center     Atomic                   Forces (Hartrees/Bohr)
 Number     Number              X              Y              Z
 -------------------------------------------------------------------
      1        6           0.003605084   -0.003972239   -0.001617340
      2        1          -0.000720638   -0.000020321    0.000830320
      3        1          -0.000435135    0.001049502   -0.000437738
      4        1           0.001065737   -0.000398790    0.000056016
      5        6          -0.000343659   -0.001692982    0.000700378
      6        1          -0.000121967    0.000899907    0.005198733
      7        1           0.003626855    0.005303033   -0.000893212
      8        6           0.001062651    0.004540882   -0.004008709
      9        1          -0.000643984   -0.005178728    0.000161282
     10        1          -0.000819821   -0.000530348   -0.004469421
     11        6          -0.001062855    0.004542116    0.004008768
     12        1           0.000819820   -0.000530509    0.004469519
     13        1           0.000644238   -0.005179192   -0.000161408
     14        6           0.000344127   -0.001693955   -0.000700720
     15        1           0.000121999    0.000899880   -0.005198326
     16        1          -0.003627121    0.005303516    0.000893225
     17        6          -0.003605367   -0.003971954    0.001616631
     18        1           0.000720713   -0.000020369   -0.000829975
     19        1          -0.001065836   -0.000398995   -0.000055774
     20        1           0.000435159    0.001049547    0.000437750
 -------------------------------------------------------------------
 Cartesian Forces:  Max     0.005303516 RMS     0.002548202
 Leave Link  716 at Fri Sep 18 13:22:36 2015, MaxMem=  402653184 cpu:       0.1
 (Enter /share/apps/g09/l103.exe)

 GradGradGradGradGradGradGradGradGradGradGradGradGradGradGradGradGradGrad
 Berny optimization.
 Internal  Forces:  Max     0.009360662 RMS     0.002550809
 Search for a local minimum.
 Step number   1 out of a maximum of  110
 All quantities printed in internal units (Hartrees-Bohrs-Radians)
 RMS Force = .25508D-02 SwitMx=.10000D-02 MixMth= 1
 Mixed Optimization -- RFO/linear search
 Second derivative matrix not updated -- first step.
     Eigenvalues ---    0.00300   0.00300   0.00308   0.00406   0.00406
     Eigenvalues ---    0.03446   0.03446   0.03565   0.03565   0.04764
     Eigenvalues ---    0.04764   0.04818   0.04818   0.05441   0.05441
     Eigenvalues ---    0.05489   0.05489   0.08223   0.08223   0.08335
     Eigenvalues ---    0.08335   0.12123   0.12123   0.12212   0.12212
     Eigenvalues ---    0.16000   0.16000   0.16000   0.16000   0.16000
     Eigenvalues ---    0.16000   0.21853   0.21853   0.21864   0.21864
     Eigenvalues ---    0.28945   0.28945   0.29004   0.29685   0.29685
     Eigenvalues ---    0.32837   0.32837   0.32865   0.32865   0.32876
     Eigenvalues ---    0.32876   0.32931   0.32931   0.34149   0.34149
     Eigenvalues ---    0.34152   0.34152   0.34175   0.341751000.00000
     Eigenvalues --- 1000.000001000.000001000.000001000.000001000.00000
     Eigenvalues --- 1000.000001000.000001000.000001000.000001000.00000
     Eigenvalues --- 1000.000001000.000001000.000001000.000001000.00000
     Eigenvalues --- 1000.000001000.000001000.000001000.000001000.00000
     Eigenvalues --- 1000.000001000.000001000.000001000.000001000.00000
     Eigenvalues --- 1000.000001000.000001000.000001000.000001000.00000
     Eigenvalues --- 1000.000001000.000001000.000001000.000001000.00000
     Eigenvalues --- 1000.000001000.000001000.000001000.000001000.00000
     Eigenvalues --- 1000.000001000.000001000.000001000.000001000.00000
 RFO step:  Lambda=-2.73319340D-03 EMin= 2.99813664D-03
 Linear search not attempted -- first point.
 Iteration  1 RMS(Cart)=  0.05162965 RMS(Int)=  0.00049581
 Iteration  2 RMS(Cart)=  0.00071411 RMS(Int)=  0.00009235
 Iteration  3 RMS(Cart)=  0.00000041 RMS(Int)=  0.00009235
 Variable       Old X    -DE/DX   Delta X   Delta X   Delta X     New X
                                 (Linear)    (Quad)   (Total)
    R1        2.07079   0.00078   0.00000   0.00228   0.00228   2.07306
    R2        2.07074   0.00081   0.00000   0.00235   0.00235   2.07309
    R3        2.07036   0.00084   0.00000   0.00243   0.00243   2.07279
    R4        2.88595   0.00291   0.00000   0.00972   0.00972   2.89567
    R5        2.09270  -0.00512   0.00000  -0.01546  -0.01546   2.07724
    R6        2.09338  -0.00638   0.00000  -0.01928  -0.01928   2.07411
    R7        2.90118   0.00118   0.00000   0.00404   0.00404   2.90522
    R8        2.09289  -0.00485   0.00000  -0.01465  -0.01465   2.07824
    R9        2.09173  -0.00445   0.00000  -0.01341  -0.01341   2.07832
   R10        2.89994   0.00455   0.00000   0.01553   0.01553   2.91547
   R11        2.09173  -0.00445   0.00000  -0.01341  -0.01341   2.07832
   R12        2.09289  -0.00485   0.00000  -0.01465  -0.01465   2.07824
   R13        2.90118   0.00118   0.00000   0.00405   0.00405   2.90522
   R14        2.09270  -0.00512   0.00000  -0.01546  -0.01546   2.07724
   R15        2.09338  -0.00638   0.00000  -0.01928  -0.01928   2.07411
   R16        2.88595   0.00291   0.00000   0.00972   0.00972   2.89567
   R17        2.07079   0.00078   0.00000   0.00228   0.00228   2.07306
   R18        2.07036   0.00084   0.00000   0.00243   0.00243   2.07279
   R19        2.07074   0.00081   0.00000   0.00235   0.00235   2.07309
    A1        1.87395   0.00086   0.00000   0.00110   0.00101   1.87496
    A2        1.87485  -0.00002   0.00000   0.00201   0.00203   1.87688
    A3        1.94786  -0.00113   0.00000  -0.00807  -0.00810   1.93975
    A4        1.87482   0.00008   0.00000   0.00255   0.00258   1.87741
    A5        1.94815  -0.00135   0.00000  -0.00944  -0.00947   1.93868
    A6        1.94041   0.00163   0.00000   0.01225   0.01228   1.95269
    A7        1.91618  -0.00126   0.00000  -0.00582  -0.00573   1.91045
    A8        1.91582  -0.00251   0.00000  -0.01127  -0.01140   1.90442
    A9        1.95086   0.00568   0.00000   0.02642   0.02644   1.97730
   A10        1.84568   0.00133   0.00000   0.00345   0.00339   1.84908
   A11        1.91626  -0.00264   0.00000  -0.01652  -0.01647   1.89979
   A12        1.91613  -0.00088   0.00000   0.00227   0.00228   1.91841
   A13        1.91042  -0.00410   0.00000  -0.02249  -0.02275   1.88767
   A14        1.91675  -0.00269   0.00000  -0.01236  -0.01239   1.90437
   A15        1.96473   0.00936   0.00000   0.04437   0.04442   2.00915
   A16        1.84215   0.00196   0.00000   0.00186   0.00163   1.84378
   A17        1.90592  -0.00165   0.00000   0.00054   0.00070   1.90662
   A18        1.91980  -0.00340   0.00000  -0.01481  -0.01474   1.90506
   A19        1.91980  -0.00340   0.00000  -0.01481  -0.01474   1.90506
   A20        1.90592  -0.00165   0.00000   0.00054   0.00070   1.90662
   A21        1.96473   0.00936   0.00000   0.04437   0.04442   2.00915
   A22        1.84215   0.00196   0.00000   0.00186   0.00163   1.84378
   A23        1.91676  -0.00269   0.00000  -0.01236  -0.01239   1.90437
   A24        1.91042  -0.00410   0.00000  -0.02249  -0.02275   1.88767
   A25        1.91626  -0.00264   0.00000  -0.01652  -0.01647   1.89979
   A26        1.91613  -0.00088   0.00000   0.00227   0.00228   1.91841
   A27        1.95086   0.00568   0.00000   0.02642   0.02644   1.97730
   A28        1.84568   0.00133   0.00000   0.00345   0.00339   1.84908
   A29        1.91618  -0.00126   0.00000  -0.00582  -0.00573   1.91045
   A30        1.91582  -0.00251   0.00000  -0.01127  -0.01140   1.90442
   A31        1.94786  -0.00113   0.00000  -0.00807  -0.00810   1.93975
   A32        1.94041   0.00163   0.00000   0.01225   0.01228   1.95269
   A33        1.94815  -0.00135   0.00000  -0.00944  -0.00947   1.93868
   A34        1.87485  -0.00002   0.00000   0.00201   0.00203   1.87688
   A35        1.87395   0.00086   0.00000   0.00110   0.00101   1.87496
   A36        1.87482   0.00008   0.00000   0.00255   0.00258   1.87741
    D1       -3.10510  -0.00024   0.00000  -0.00411  -0.00409  -3.10919
    D2       -1.08332  -0.00080   0.00000  -0.00975  -0.00968  -1.09301
    D3        1.04717   0.00016   0.00000   0.00310   0.00310   1.05027
    D4        1.08098   0.00037   0.00000   0.00654   0.00650   1.08748
    D5        3.10276  -0.00019   0.00000   0.00089   0.00090   3.10366
    D6       -1.04993   0.00077   0.00000   0.01375   0.01368  -1.03625
    D7       -1.01214   0.00007   0.00000   0.00132   0.00132  -1.01083
    D8        1.00964  -0.00049   0.00000  -0.00432  -0.00428   1.00536
    D9        3.14013   0.00047   0.00000   0.00854   0.00851  -3.13455
   D10        1.00916  -0.00086   0.00000  -0.02330  -0.02321   0.98595
   D11       -1.00561   0.00062   0.00000  -0.00583  -0.00598  -1.01159
   D12        3.13220   0.00042   0.00000  -0.00872  -0.00888   3.12332
   D13       -1.12171  -0.00125   0.00000  -0.02223  -0.02203  -1.14374
   D14       -3.13648   0.00023   0.00000  -0.00475  -0.00480  -3.14128
   D15        1.00133   0.00003   0.00000  -0.00765  -0.00770   0.99363
   D16        3.13946  -0.00083   0.00000  -0.01821  -0.01801   3.12146
   D17        1.12469   0.00065   0.00000  -0.00074  -0.00078   1.12392
   D18       -1.02068   0.00045   0.00000  -0.00363  -0.00368  -1.02436
   D19       -0.86774  -0.00019   0.00000  -0.01608  -0.01618  -0.88392
   D20       -2.88166   0.00028   0.00000  -0.01036  -0.01037  -2.89203
   D21        1.27592   0.00042   0.00000  -0.01173  -0.01195   1.26398
   D22        1.25786  -0.00033   0.00000  -0.01471  -0.01460   1.24325
   D23       -0.75607   0.00015   0.00000  -0.00899  -0.00879  -0.76486
   D24       -2.88166   0.00028   0.00000  -0.01036  -0.01037  -2.89203
   D25       -3.01141  -0.00080   0.00000  -0.02044  -0.02042  -3.03182
   D26        1.25786  -0.00033   0.00000  -0.01471  -0.01460   1.24325
   D27       -0.86774  -0.00019   0.00000  -0.01608  -0.01618  -0.88392
   D28        1.00134   0.00003   0.00000  -0.00765  -0.00770   0.99364
   D29       -1.02067   0.00045   0.00000  -0.00364  -0.00368  -1.02435
   D30        3.13220   0.00042   0.00000  -0.00872  -0.00888   3.12332
   D31       -3.13648   0.00023   0.00000  -0.00475  -0.00480  -3.14128
   D32        1.12470   0.00065   0.00000  -0.00074  -0.00078   1.12392
   D33       -1.00561   0.00062   0.00000  -0.00583  -0.00598  -1.01159
   D34       -1.12171  -0.00125   0.00000  -0.02223  -0.02203  -1.14374
   D35        3.13947  -0.00083   0.00000  -0.01822  -0.01801   3.12146
   D36        1.00916  -0.00086   0.00000  -0.02330  -0.02321   0.98595
   D37        1.04715   0.00016   0.00000   0.00311   0.00311   1.05026
   D38        3.14011   0.00047   0.00000   0.00854   0.00851  -3.13456
   D39       -1.04995   0.00077   0.00000   0.01375   0.01369  -1.03626
   D40       -3.10512  -0.00024   0.00000  -0.00410  -0.00408  -3.10920
   D41       -1.01216   0.00007   0.00000   0.00133   0.00133  -1.01084
   D42        1.08096   0.00037   0.00000   0.00654   0.00650   1.08747
   D43       -1.08334  -0.00080   0.00000  -0.00974  -0.00968  -1.09302
   D44        1.00962  -0.00049   0.00000  -0.00431  -0.00427   1.00535
   D45        3.10274  -0.00019   0.00000   0.00090   0.00091   3.10365
         Item               Value     Threshold  Converged?
 Maximum Force            0.009361     0.000015     NO 
 RMS     Force            0.002551     0.000010     NO 
 Maximum Displacement     0.166817     0.000060     NO 
 RMS     Displacement     0.051592     0.000040     NO 
 Predicted change in Energy=-1.386354D-03
 GradGradGradGradGradGradGradGradGradGradGradGradGradGradGradGradGradGrad

 Leave Link  103 at Fri Sep 18 13:22:36 2015, MaxMem=  402653184 cpu:       0.1
 (Enter /share/apps/g09/l202.exe)
                          Input orientation:                          
 ---------------------------------------------------------------------
 Center     Atomic      Atomic             Coordinates (Angstroms)
 Number     Number       Type             X           Y           Z
 ---------------------------------------------------------------------
      1          6           0        3.063646   -0.329387    0.104042
      2          1           0        3.135453   -0.421533    1.194821
      3          1           0        3.531782    0.622157   -0.176824
      4          1           0        3.662999   -1.135811   -0.335946
      5          6           0        1.604382   -0.383868   -0.360277
      6          1           0        1.566556   -0.322730   -1.457151
      7          1           0        1.180012   -1.361503   -0.097981
      8          6           0        0.736301    0.739292    0.230044
      9          1           0        1.197785    1.702610   -0.031723
     10          1           0        0.771345    0.682300    1.327809
     11          6           0       -0.736301    0.739292   -0.230045
     12          1           0       -0.771345    0.682297   -1.327810
     13          1           0       -1.197785    1.702611    0.031720
     14          6           0       -1.604382   -0.383867    0.360278
     15          1           0       -1.566557   -0.322725    1.457152
     16          1           0       -1.180012   -1.361503    0.097986
     17          6           0       -3.063645   -0.329388   -0.104042
     18          1           0       -3.135451   -0.421527   -1.194822
     19          1           0       -3.662997   -1.135818    0.335939
     20          1           0       -3.531786    0.622153    0.176829
 ---------------------------------------------------------------------
                    Distance matrix (angstroms):
                    1          2          3          4          5
     1  C    0.000000
     2  H    1.097017   0.000000
     3  H    1.097029   1.768552   0.000000
     4  H    1.096875   1.769674   1.770026   0.000000
     5  C    1.532322   2.182642   2.181883   2.191784   0.000000
     6  H    2.163018   3.082882   2.528669   2.512624   1.099228
     7  H    2.157348   2.525595   3.077653   2.504553   1.097570
     8  C    2.564076   2.834474   2.827362   3.521636   1.537378
     9  H    2.762043   3.125853   2.576039   3.771800   2.150967
    10  H    2.788505   2.612498   3.144448   3.799378   2.163400
    11  C    3.961474   4.285818   4.270021   4.783416   2.599470
    12  H    4.216735   4.779663   4.454805   4.894151   2.777932
    13  H    4.721656   4.964045   4.855890   5.640837   3.515564
    14  C    4.675373   4.812891   5.261249   5.366140   3.288672
    15  H    4.823871   4.710359   5.436519   5.587895   3.655358
    16  H    4.367371   4.550805   5.119710   4.867647   2.986407
    17  C    6.130823   6.334379   6.664113   6.778779   4.675372
    18  H    6.334377   6.710785   6.824778   6.889615   4.812889
    19  H    6.778777   6.889616   7.424166   7.356742   5.366137
    20  H    6.664116   6.824783   7.072415   7.424170   5.261253
                    6          7          8          9         10
     6  H    0.000000
     7  H    1.753799   0.000000
     8  C    2.159593   2.172055   0.000000
     9  H    2.503965   3.064881   1.099760   0.000000
    10  H    3.065689   2.525276   1.099802   1.752488   0.000000
    11  C    2.817237   2.846583   1.542802   2.169793   2.168675
    12  H    2.548055   3.081784   2.168675   2.568726   3.071189
    13  H    3.736351   3.880662   2.169793   2.396409   2.568726
    14  C    3.655357   2.986407   2.599470   3.515564   2.777932
    15  H    4.278967   3.322822   2.817238   3.736351   2.548056
    16  H    3.322821   2.368146   2.846583   3.880661   3.081783
    17  C    4.823869   4.367371   3.961474   4.721656   4.216735
    18  H    4.710355   4.550807   4.285814   4.964040   4.779660
    19  H    5.587889   4.867644   4.783416   5.640837   4.894154
    20  H    5.436523   5.119712   4.270025   4.855895   4.454807
                   11         12         13         14         15
    11  C    0.000000
    12  H    1.099802   0.000000
    13  H    1.099760   1.752488   0.000000
    14  C    1.537378   2.163400   2.150967   0.000000
    15  H    2.159593   3.065689   2.503964   1.099228   0.000000
    16  H    2.172055   2.525277   3.064882   1.097570   1.753798
    17  C    2.564076   2.788504   2.762043   1.532322   2.163018
    18  H    2.834469   2.612492   3.125846   2.182642   3.082882
    19  H    3.521636   3.799376   3.771803   2.191784   2.512628
    20  H    2.827367   3.144454   2.576045   2.181883   2.528665
                   16         17         18         19         20
    16  H    0.000000
    17  C    2.157348   0.000000
    18  H    2.525599   1.097017   0.000000
    19  H    2.504550   1.096875   1.769674   0.000000
    20  H    3.077653   1.097029   1.768552   1.770026   0.000000
 Stoichiometry    C6H14
 Framework group  C1[X(C6H14)]
 Deg. of freedom    54
 Full point group                 C1      NOp   1
 Largest Abelian subgroup         C1      NOp   1
 Largest concise Abelian subgroup C1      NOp   1
                         Standard orientation:                         
 ---------------------------------------------------------------------
 Center     Atomic      Atomic             Coordinates (Angstroms)
 Number     Number       Type             X           Y           Z
 ---------------------------------------------------------------------
      1          6           0       -3.063588   -0.326256   -0.105720
      2          1           0       -3.134798   -0.418403   -1.196538
      3          1           0       -3.531878    0.625289    0.174889
      4          1           0       -3.663183   -1.132680    0.333940
      5          6           0       -1.604579   -0.380736    0.359398
      6          1           0       -1.567354   -0.319598    1.456293
      7          1           0       -1.180066   -1.358372    0.097335
      8          6           0       -0.736175    0.742423   -0.230448
      9          1           0       -1.197802    1.705742    0.031066
     10          1           0       -0.770617    0.685430   -1.328232
     11          6           0        0.736174    0.742423    0.230448
     12          1           0        0.770617    0.685429    1.328232
     13          1           0        1.197802    1.705742   -0.031065
     14          6           0        1.604579   -0.380735   -0.359399
     15          1           0        1.567355   -0.319594   -1.456294
     16          1           0        1.180066   -1.358372   -0.097339
     17          6           0        3.063588   -0.326256    0.105721
     18          1           0        3.134796   -0.418394    1.196540
     19          1           0        3.663180   -1.132686   -0.333932
     20          1           0        3.531882    0.625284   -0.174895
 ---------------------------------------------------------------------
 Rotational constants (GHZ):     10.2328064      1.2648193      1.2101238
 Leave Link  202 at Fri Sep 18 13:22:36 2015, MaxMem=  402653184 cpu:       0.0
 (Enter /share/apps/g09/l301.exe)
 Standard basis: 6-31G(d) (6D, 7F)
 Ernie: Thresh=  0.10000D-02 Tol=  0.10000D-05 Strict=F.
 There are   118 symmetry adapted basis functions of A   symmetry.
 Integral buffers will be    131072 words long.
 Raffenetti 2 integral format.
 Two-electron integral symmetry is turned on.
   118 basis functions,   224 primitive gaussians,   118 cartesian basis functions
    25 alpha electrons       25 beta electrons
       nuclear repulsion energy       245.6591313835 Hartrees.
 IExCor=  402 DFT=T Ex+Corr=B3LYP ExCW=0 ScaHFX=  0.200000
 ScaDFX=  0.800000  0.720000  1.000000  0.810000 ScalE2=  1.000000  1.000000
 IRadAn=      5 IRanWt=     -1 IRanGd=            0 ICorTp=0
 NAtoms=   20 NActive=   20 NUniq=   20 SFac= 7.50D-01 NAtFMM=   80 NAOKFM=F Big=F
 Leave Link  301 at Fri Sep 18 13:22:36 2015, MaxMem=  402653184 cpu:       0.1
 (Enter /share/apps/g09/l302.exe)
 NPDir=0 NMtPBC=     1 NCelOv=     1 NCel=       1 NClECP=     1 NCelD=      1
         NCelK=      1 NCelE2=     1 NClLst=     1 CellRange=     0.0.
 One-electron integrals computed using PRISM.
 NBasis=   118 RedAO= T  NBF=   118
 NBsUse=   118 1.00D-06 NBFU=   118
 Precomputing XC quadrature grid using
 IXCGrd= 2 IRadAn=           5 IRanWt=          -1 IRanGd=           0 AccXCQ= 1.00D-10.
 NRdTot=    1656 NPtTot=      443652 NUsed=      455517 NTot=      455549
 NSgBfM=   118   118   118   118   118 NAtAll=    20    20.
 Leave Link  302 at Fri Sep 18 13:22:37 2015, MaxMem=  402653184 cpu:       1.2
 (Enter /share/apps/g09/l303.exe)
 DipDrv:  MaxL=1.
 Leave Link  303 at Fri Sep 18 13:22:37 2015, MaxMem=  402653184 cpu:       0.1
 (Enter /share/apps/g09/l401.exe)
 Initial guess read from the read-write file.
 B after Tr=     0.000000    0.000000    0.000000
         Rot=    1.000000    0.000000    0.000000    0.000000 Ang=   0.00 deg.
 Guess basis will be translated and rotated to current coordinates.
 Initial guess orbital symmetries:
       Occupied  (A) (A) (A) (A) (A) (A) (A) (A) (A) (A) (A) (A)
                 (A) (A) (A) (A) (A) (A) (A) (A) (A) (A) (A) (A)
                 (A)
       Virtual   (A) (A) (A) (A) (A) (A) (A) (A) (A) (A) (A) (A)
                 (A) (A) (A) (A) (A) (A) (A) (A) (A) (A) (A) (A)
                 (A) (A) (A) (A) (A) (A) (A) (A) (A) (A) (A) (A)
                 (A) (A) (A) (A) (A) (A) (A) (A) (A) (A) (A) (A)
                 (A) (A) (A) (A) (A) (A) (A) (A) (A) (A) (A) (A)
                 (A) (A) (A) (A) (A) (A) (A) (A) (A) (A) (A) (A)
                 (A) (A) (A) (A) (A) (A) (A) (A) (A) (A) (A) (A)
                 (A) (A) (A) (A) (A) (A) (A) (A) (A)
 The electronic state of the initial guess is 1-A.
 Generating alternative initial guess.
 Harris functional with IExCor=  402 diagonalized for initial guess.
 ExpMin= 1.61D-01 ExpMax= 3.05D+03 ExpMxC= 4.57D+02 IAcc=3 IRadAn=         5 AccDes= 0.00D+00
 HarFok:  IExCor=  402 AccDes= 0.00D+00 IRadAn=         5 IDoV= 1
 ScaDFX=  1.000000  1.000000  1.000000  1.000000
 FoFCou: FMM=F IPFlag=           0 FMFlag=      100000 FMFlg1=           0
         NFxFlg=           0 DoJE=T BraDBF=F KetDBF=T FulRan=T
         Omega=  0.000000  0.000000  1.000000  0.000000  0.000000 ICntrl=     500 IOpCl=  0
         NMat0=    1 NMatS0=    1 NMatT0=    0 NMatD0=    1 NMtDS0=    0 NMtDT0=    0
         I1Cent=           4 NGrid=           0.
 Petite list used in FoFCou.
 Harris En= -237.182653580621    
 Leave Link  401 at Fri Sep 18 13:22:42 2015, MaxMem=  402653184 cpu:      10.2
 (Enter /share/apps/g09/l502.exe)
 Closed shell SCF:
 Requested convergence on RMS density matrix=1.00D-08 within 128 cycles.
 Requested convergence on MAX density matrix=1.00D-06.
 Requested convergence on             energy=1.00D-06.
 No special actions if energy rises.
 Using DIIS extrapolation, IDIIS=  1040.
 Integral symmetry usage will be decided dynamically.
       455324 words used for storage of precomputed grid.
 Keep R1 ints in memory in canonical form, NReq=26109379.
 IEnd=      516868 IEndB=      516868 NGot=   402653184 MDV=   377516240
 LenX=   377516240 LenY=   377501875
 Symmetry not used in FoFDir.
 MinBra= 0 MaxBra= 2 Meth= 1.
 IRaf=       0 NMat=   1 IRICut=       1 DoRegI=T DoRafI=F ISym2E= 0 JSym2E=0.
 Integral accuracy reduced to 1.0D-05 until final iterations.

 Cycle   1  Pass 0  IDiag  1:
 E= -237.082625814962    
 DIIS: error= 1.84D-03 at cycle   1 NSaved=   1.
 NSaved= 1 IEnMin= 1 EnMin= -237.082625814962     IErMin= 1 ErrMin= 1.84D-03
 ErrMax= 1.84D-03 EMaxC= 1.00D-01 BMatC= 6.81D-04 BMatP= 6.81D-04
 IDIUse=3 WtCom= 9.82D-01 WtEn= 1.84D-02
 Coeff-Com:  0.100D+01
 Coeff-En:   0.100D+01
 Coeff:      0.100D+01
 Gap=     0.400 Goal=   None    Shift=    0.000
 GapD=    0.400 DampG=2.000 DampE=1.000 DampFc=2.0000 IDamp=-1.
 RMSDP=3.35D-04 MaxDP=3.78D-03              OVMax= 9.05D-03

 Cycle   2  Pass 0  IDiag  1:
 E= -237.083868224367     Delta-E=       -0.001242409405 Rises=F Damp=F
 DIIS: error= 4.26D-04 at cycle   2 NSaved=   2.
 NSaved= 2 IEnMin= 2 EnMin= -237.083868224367     IErMin= 2 ErrMin= 4.26D-04
 ErrMax= 4.26D-04 EMaxC= 1.00D-01 BMatC= 2.56D-05 BMatP= 6.81D-04
 IDIUse=3 WtCom= 9.96D-01 WtEn= 4.26D-03
 Coeff-Com:  0.273D-02 0.997D+00
 Coeff-En:   0.000D+00 0.100D+01
 Coeff:      0.272D-02 0.997D+00
 Gap=     0.398 Goal=   None    Shift=    0.000
 RMSDP=9.39D-05 MaxDP=1.46D-03 DE=-1.24D-03 OVMax= 2.00D-03

 Cycle   3  Pass 0  IDiag  1:
 E= -237.083871834385     Delta-E=       -0.000003610018 Rises=F Damp=F
 DIIS: error= 4.20D-04 at cycle   3 NSaved=   3.
 NSaved= 3 IEnMin= 3 EnMin= -237.083871834385     IErMin= 3 ErrMin= 4.20D-04
 ErrMax= 4.20D-04 EMaxC= 1.00D-01 BMatC= 2.80D-05 BMatP= 2.56D-05
 IDIUse=3 WtCom= 9.96D-01 WtEn= 4.20D-03
 Coeff-Com: -0.328D-01 0.530D+00 0.503D+00
 Coeff-En:   0.000D+00 0.465D+00 0.535D+00
 Coeff:     -0.327D-01 0.529D+00 0.503D+00
 Gap=     0.399 Goal=   None    Shift=    0.000
 RMSDP=4.73D-05 MaxDP=8.07D-04 DE=-3.61D-06 OVMax= 1.10D-03

 Cycle   4  Pass 0  IDiag  1:
 E= -237.083900147128     Delta-E=       -0.000028312744 Rises=F Damp=F
 DIIS: error= 4.35D-05 at cycle   4 NSaved=   4.
 NSaved= 4 IEnMin= 4 EnMin= -237.083900147128     IErMin= 4 ErrMin= 4.35D-05
 ErrMax= 4.35D-05 EMaxC= 1.00D-01 BMatC= 2.99D-07 BMatP= 2.56D-05
 IDIUse=1 WtCom= 1.00D+00 WtEn= 0.00D+00
 Coeff-Com: -0.115D-01 0.123D+00 0.158D+00 0.731D+00
 Coeff:     -0.115D-01 0.123D+00 0.158D+00 0.731D+00
 Gap=     0.399 Goal=   None    Shift=    0.000
 RMSDP=6.04D-06 MaxDP=6.53D-05 DE=-2.83D-05 OVMax= 1.16D-04

 Initial convergence to 1.0D-05 achieved.  Increase integral accuracy.
 Cycle   5  Pass 1  IDiag  1:
 E= -237.083903385123     Delta-E=       -0.000003237994 Rises=F Damp=F
 DIIS: error= 7.43D-06 at cycle   1 NSaved=   1.
 NSaved= 1 IEnMin= 1 EnMin= -237.083903385123     IErMin= 1 ErrMin= 7.43D-06
 ErrMax= 7.43D-06 EMaxC= 1.00D-01 BMatC= 1.26D-08 BMatP= 1.26D-08
 IDIUse=1 WtCom= 1.00D+00 WtEn= 0.00D+00
 Coeff-Com:  0.100D+01
 Coeff:      0.100D+01
 Gap=     0.399 Goal=   None    Shift=    0.000
 RMSDP=6.04D-06 MaxDP=6.53D-05 DE=-3.24D-06 OVMax= 4.65D-05

 Cycle   6  Pass 1  IDiag  1:
 E= -237.083903386301     Delta-E=       -0.000000001179 Rises=F Damp=F
 DIIS: error= 7.43D-06 at cycle   2 NSaved=   2.
 NSaved= 2 IEnMin= 2 EnMin= -237.083903386301     IErMin= 1 ErrMin= 7.43D-06
 ErrMax= 7.43D-06 EMaxC= 1.00D-01 BMatC= 1.22D-08 BMatP= 1.26D-08
 IDIUse=1 WtCom= 1.00D+00 WtEn= 0.00D+00
 Coeff-Com:  0.496D+00 0.504D+00
 Coeff:      0.496D+00 0.504D+00
 Gap=     0.399 Goal=   None    Shift=    0.000
 RMSDP=1.02D-06 MaxDP=1.63D-05 DE=-1.18D-09 OVMax= 2.23D-05

 Cycle   7  Pass 1  IDiag  1:
 E= -237.083903398192     Delta-E=       -0.000000011891 Rises=F Damp=F
 DIIS: error= 1.65D-06 at cycle   3 NSaved=   3.
 NSaved= 3 IEnMin= 3 EnMin= -237.083903398192     IErMin= 3 ErrMin= 1.65D-06
 ErrMax= 1.65D-06 EMaxC= 1.00D-01 BMatC= 3.36D-10 BMatP= 1.22D-08
 IDIUse=1 WtCom= 1.00D+00 WtEn= 0.00D+00
 Coeff-Com:  0.134D+00 0.199D+00 0.666D+00
 Coeff:      0.134D+00 0.199D+00 0.666D+00
 Gap=     0.399 Goal=   None    Shift=    0.000
 RMSDP=2.09D-07 MaxDP=2.81D-06 DE=-1.19D-08 OVMax= 4.57D-06

 Cycle   8  Pass 1  IDiag  1:
 E= -237.083903398523     Delta-E=       -0.000000000331 Rises=F Damp=F
 DIIS: error= 4.14D-07 at cycle   4 NSaved=   4.
 NSaved= 4 IEnMin= 4 EnMin= -237.083903398523     IErMin= 4 ErrMin= 4.14D-07
 ErrMax= 4.14D-07 EMaxC= 1.00D-01 BMatC= 1.47D-11 BMatP= 3.36D-10
 IDIUse=1 WtCom= 1.00D+00 WtEn= 0.00D+00
 Coeff-Com: -0.100D-01 0.882D-02 0.196D+00 0.805D+00
 Coeff:     -0.100D-01 0.882D-02 0.196D+00 0.805D+00
 Gap=     0.399 Goal=   None    Shift=    0.000
 RMSDP=5.02D-08 MaxDP=5.76D-07 DE=-3.31D-10 OVMax= 1.02D-06

 Cycle   9  Pass 1  IDiag  1:
 E= -237.083903398542     Delta-E=       -0.000000000019 Rises=F Damp=F
 DIIS: error= 3.76D-08 at cycle   5 NSaved=   5.
 NSaved= 5 IEnMin= 5 EnMin= -237.083903398542     IErMin= 5 ErrMin= 3.76D-08
 ErrMax= 3.76D-08 EMaxC= 1.00D-01 BMatC= 2.60D-13 BMatP= 1.47D-11
 IDIUse=1 WtCom= 1.00D+00 WtEn= 0.00D+00
 Coeff-Com: -0.493D-02 0.100D-02 0.649D-01 0.297D+00 0.642D+00
 Coeff:     -0.493D-02 0.100D-02 0.649D-01 0.297D+00 0.642D+00
 Gap=     0.399 Goal=   None    Shift=    0.000
 RMSDP=5.54D-09 MaxDP=9.63D-08 DE=-1.85D-11 OVMax= 1.13D-07

 SCF Done:  E(RB3LYP) =  -237.083903399     A.U. after    9 cycles
             Convg  =    0.5543D-08             -V/T =  2.0106
 KE= 2.346050159223D+02 PE=-1.038221962220D+03 EE= 3.208739115159D+02
 Leave Link  502 at Fri Sep 18 13:23:16 2015, MaxMem=  402653184 cpu:      69.0
 (Enter /share/apps/g09/l701.exe)
 Compute integral first derivatives.
 ... and contract with generalized density number  0.
 Leave Link  701 at Fri Sep 18 13:23:17 2015, MaxMem=  402653184 cpu:       0.3
 (Enter /share/apps/g09/l702.exe)
 L702 exits ... SP integral derivatives will be done elsewhere.
 Leave Link  702 at Fri Sep 18 13:23:17 2015, MaxMem=  402653184 cpu:       0.0
 (Enter /share/apps/g09/l703.exe)
 Compute integral first derivatives, UseDBF=F ICtDFT=           0.
 Integral derivatives from FoFDir, PRISM(SPDF).
 Calling FoFJK, ICntrl=      2127 FMM=F ISym2X=0 I1Cent= 0 IOpClX= 0 NMat=1 NMatS=1 NMatT=0.
 FoFCou: FMM=F IPFlag=           0 FMFlag=      100000 FMFlg1=         800
         NFxFlg=           0 DoJE=F BraDBF=F KetDBF=F FulRan=T
         Omega=  0.000000  0.000000  1.000000  0.000000  0.000000 ICntrl=    2127 IOpCl=  0
         NMat0=    1 NMatS0=    1 NMatT0=    0 NMatD0=    1 NMtDS0=    0 NMtDT0=    0
         I1Cent=           0 NGrid=           0.
 Symmetry not used in FoFCou.
 Leave Link  703 at Fri Sep 18 13:23:27 2015, MaxMem=  402653184 cpu:      21.8
 (Enter /share/apps/g09/l716.exe)
 Dipole        = 5.36922453D-08-7.96899585D-03-1.20424660D-07
 ***** Axes restored to original set *****
 -------------------------------------------------------------------
 Center     Atomic                   Forces (Hartrees/Bohr)
 Number     Number              X              Y              Z
 -------------------------------------------------------------------
      1        6           0.000141658    0.000745056    0.000448517
      2        1          -0.000009185    0.000050051    0.000121678
      3        1           0.000135987    0.000154752    0.000061493
      4        1          -0.000943592    0.000172397   -0.000157599
      5        6          -0.001581303   -0.000783099   -0.000579677
      6        1           0.000135895    0.000009399   -0.000301452
      7        1          -0.000333639   -0.000440622    0.000241126
      8        6          -0.000212174   -0.000042114    0.000474494
      9        1          -0.000973408    0.000109969   -0.000500899
     10        1          -0.000150979    0.000024192    0.000594211
     11        6           0.000212165   -0.000041869   -0.000474517
     12        1           0.000150993    0.000024144   -0.000594225
     13        1           0.000973427    0.000109879    0.000500901
     14        6           0.001581360   -0.000783226    0.000579782
     15        1          -0.000135908    0.000009358    0.000301478
     16        1           0.000333628   -0.000440540   -0.000241188
     17        6          -0.000141772    0.000745117   -0.000448624
     18        1           0.000009200    0.000049997   -0.000121649
     19        1           0.000943596    0.000172412    0.000157657
     20        1          -0.000135946    0.000154747   -0.000061505
 -------------------------------------------------------------------
 Cartesian Forces:  Max     0.001581360 RMS     0.000502228
 Leave Link  716 at Fri Sep 18 13:23:28 2015, MaxMem=  402653184 cpu:       0.0
 (Enter /share/apps/g09/l103.exe)

 GradGradGradGradGradGradGradGradGradGradGradGradGradGradGradGradGradGrad
 Berny optimization.
 Using GEDIIS/GDIIS optimizer.
 Internal  Forces:  Max     0.003498674 RMS     0.000676384
 Search for a local minimum.
 Step number   2 out of a maximum of  110
 All quantities printed in internal units (Hartrees-Bohrs-Radians)
 RMS Force = .67638D-03 SwitMx=.10000D-02 MixMth= 2
 Mixed Optimization -- En-DIIS/RFO-DIIS
 Update second derivatives using D2CorX and points    1    2
 DE= -1.05D-03 DEPred=-1.39D-03 R= 7.56D-01
 SS=  1.41D+00  RLast= 1.30D-01 DXNew= 5.0454D-01 3.9088D-01
 Trust test= 7.56D-01 RLast= 1.30D-01 DXMaxT set to 3.91D-01
 Use linear search instead of GDIIS.
     Eigenvalues ---    0.00300   0.00300   0.00305   0.00406   0.00406
     Eigenvalues ---    0.03233   0.03234   0.03440   0.03442   0.04721
     Eigenvalues ---    0.04765   0.04796   0.04824   0.05436   0.05436
     Eigenvalues ---    0.05531   0.05552   0.08458   0.08459   0.08744
     Eigenvalues ---    0.08836   0.12287   0.12296   0.12504   0.12657
     Eigenvalues ---    0.15918   0.16000   0.16000   0.16000   0.16000
     Eigenvalues ---    0.16187   0.21892   0.21897   0.21927   0.24011
     Eigenvalues ---    0.28945   0.28948   0.29408   0.29685   0.30533
[...]

 Largest change from initial coordinates is atom    4       7.024 Angstoms.
 Leave Link  103 at Fri Sep 18 13:28:43 2015, MaxMem=  402653184 cpu:       0.0
 (Enter /share/apps/g09/l202.exe)
                          Input orientation:                          
 ---------------------------------------------------------------------
 Center     Atomic      Atomic             Coordinates (Angstroms)
 Number     Number       Type             X           Y           Z
 ---------------------------------------------------------------------
      1          6           0        3.048130   -0.324545    0.106946
      2          1           0        3.150427   -0.337871    1.199214
      3          1           0        3.511457    0.601410   -0.255850
      4          1           0        3.627555   -1.165365   -0.291433
      5          6           0        1.576504   -0.408440   -0.311963
      6          1           0        1.508489   -0.424068   -1.409507
      7          1           0        1.157964   -1.363161    0.032610
      8          6           0        0.734716    0.757332    0.226478
      9          1           0        1.201324    1.701247   -0.090354
     10          1           0        0.775276    0.754989    1.326321
     11          6           0       -0.734717    0.757332   -0.226479
     12          1           0       -0.775277    0.754989   -1.326322
     13          1           0       -1.201325    1.701247    0.090353
     14          6           0       -1.576504   -0.408441    0.311963
     15          1           0       -1.508489   -0.424068    1.409507
     16          1           0       -1.157964   -1.363161   -0.032610
     17          6           0       -3.048130   -0.324546   -0.106946
     18          1           0       -3.150427   -0.337872   -1.199214
     19          1           0       -3.627555   -1.165366    0.291433
     20          1           0       -3.511457    0.601410    0.255849
 ---------------------------------------------------------------------
                    Distance matrix (angstroms):
                    1          2          3          4          5
     1  C    0.000000
     2  H    1.097129   0.000000
     3  H    1.097126   1.769125   0.000000
     4  H    1.096091   1.770431   1.770943   0.000000
     5  C    1.532386   2.183087   2.183343   2.186359   0.000000
     6  H    2.163337   3.083637   2.528717   2.507997   1.099761
     7  H    2.158003   2.526280   3.079233   2.498600   1.097906
     8  C    2.556684   2.825127   2.822630   3.511910   1.535432
     9  H    2.748355   3.101611   2.563931   3.760917   2.154217
    10  H    2.796093   2.617602   3.164417   3.800050   2.163217
    11  C    3.948615   4.280936   4.249137   4.767640   2.589995
    12  H    4.223516   4.794145   4.421039   4.913621   2.813070
    13  H    4.707651   4.932070   4.851784   5.628614   3.511264
    14  C    4.629937   4.809998   5.218195   5.293322   3.214148
    15  H    4.740185   4.664456   5.387474   5.460922   3.532830
    16  H    4.334678   4.596830   5.070786   4.796593   2.909785
    17  C    6.100012   6.334694   6.626293   6.730957   4.629937
    18  H    6.334694   6.741900   6.793592   6.888385   4.809998
    19  H    6.730957   6.888385   7.374721   7.278485   5.293322
    20  H    6.626293   6.793592   7.041531   7.374721   5.218195
                    6          7          8          9         10
     6  H    0.000000
     7  H    1.756265   0.000000
     8  C    2.161221   2.170994   0.000000
     9  H    2.520214   3.067181   1.099582   0.000000
    10  H    3.067985   2.511314   1.100593   1.756100   0.000000
    11  C    2.797719   2.854095   1.537661   2.158184   2.165934
    12  H    2.571513   3.173433   2.165934   2.515944   3.072577
    13  H    3.756279   3.867838   2.158184   2.409435   2.515944
    14  C    3.532830   2.909785   2.589995   3.511264   2.813070
    15  H    4.129043   3.144474   2.797719   3.756279   2.571513
    16  H    3.144474   2.316847   2.854095   3.867838   3.173433
    17  C    4.740185   4.334678   3.948615   4.707651   4.223516
    18  H    4.664456   4.596830   4.280936   4.932070   4.794145
    19  H    5.460922   4.796593   4.767640   5.628614   4.913621
    20  H    5.387474   5.070786   4.249137   4.851784   4.421039
                   11         12         13         14         15
    11  C    0.000000
    12  H    1.100593   0.000000
    13  H    1.099582   1.756100   0.000000
    14  C    1.535432   2.163217   2.154217   0.000000
    15  H    2.161221   3.067985   2.520214   1.099761   0.000000
    16  H    2.170994   2.511314   3.067181   1.097906   1.756265
    17  C    2.556684   2.796093   2.748355   1.532386   2.163337
    18  H    2.825127   2.617602   3.101611   2.183087   3.083637
    19  H    3.511910   3.800050   3.760916   2.186359   2.507997
    20  H    2.822630   3.164417   2.563931   2.183343   2.528717
                   16         17         18         19         20
    16  H    0.000000
    17  C    2.158003   0.000000
    18  H    2.526280   1.097129   0.000000
    19  H    2.498600   1.096091   1.770431   0.000000
    20  H    3.079233   1.097126   1.769125   1.770943   0.000000
 Stoichiometry    C6H14
 Framework group  C1[X(C6H14)]
 Deg. of freedom    54
 Full point group                 C1      NOp   1
 Largest Abelian subgroup         C1      NOp   1
 Largest concise Abelian subgroup C1      NOp   1
                         Standard orientation:                         
 ---------------------------------------------------------------------
 Center     Atomic      Atomic             Coordinates (Angstroms)
 Number     Number       Type             X           Y           Z
 ---------------------------------------------------------------------
      1          6           0        3.048721   -0.321076    0.088513
      2          1           0        3.157621   -0.334402    1.180142
      3          1           0        3.509846    0.604880   -0.277078
      4          1           0        3.625726   -1.161896   -0.313363
      5          6           0        1.574589   -0.404971   -0.321490
      6          1           0        1.499939   -0.420598   -1.418603
      7          1           0        1.158140   -1.359691    0.025608
      8          6           0        0.736072    0.760802    0.222032
      9          1           0        1.200756    1.704717   -0.097616
     10          1           0        0.783282    0.758459    1.321609
     11          6           0       -0.736072    0.760802   -0.222032
     12          1           0       -0.783282    0.758459   -1.321609
     13          1           0       -1.200756    1.704717    0.097616
     14          6           0       -1.574589   -0.404971    0.321490
     15          1           0       -1.499939   -0.420598    1.418603
     16          1           0       -1.158140   -1.359691   -0.025608
     17          6           0       -3.048721   -0.321076   -0.088513
     18          1           0       -3.157621   -0.334402   -1.180142
     19          1           0       -3.625726   -1.161895    0.313363
     20          1           0       -3.509846    0.604880    0.277078
 ---------------------------------------------------------------------
 Rotational constants (GHZ):     10.1704031      1.2859646      1.2222782
 Leave Link  202 at Fri Sep 18 13:28:43 2015, MaxMem=  402653184 cpu:       0.0
 (Enter /share/apps/g09/l601.exe)
 Copying SCF densities to generalized density rwf, IOpCl= 0 IROHF=0.

 **********************************************************************

            Population analysis using the SCF density.

 **********************************************************************

 Orbital symmetries:
       Occupied  (A) (A) (A) (A) (A) (A) (A) (A) (A) (A) (A) (A)
                 (A) (A) (A) (A) (A) (A) (A) (A) (A) (A) (A) (A)
                 (A)
       Virtual   (A) (A) (A) (A) (A) (A) (A) (A) (A) (A) (A) (A)
                 (A) (A) (A) (A) (A) (A) (A) (A) (A) (A) (A) (A)
                 (A) (A) (A) (A) (A) (A) (A) (A) (A) (A) (A) (A)
                 (A) (A) (A) (A) (A) (A) (A) (A) (A) (A) (A) (A)
                 (A) (A) (A) (A) (A) (A) (A) (A) (A) (A) (A) (A)
                 (A) (A) (A) (A) (A) (A) (A) (A) (A) (A) (A) (A)
                 (A) (A) (A) (A) (A) (A) (A) (A) (A) (A) (A) (A)
                 (A) (A) (A) (A) (A) (A) (A) (A) (A)
 The electronic state is 1-A.
 Alpha  occ. eigenvalues --  -10.17548 -10.17548 -10.17402 -10.17381 -10.16992
 Alpha  occ. eigenvalues --  -10.16992  -0.79893  -0.75954  -0.70327  -0.63218
 Alpha  occ. eigenvalues --   -0.59213  -0.55803  -0.46189  -0.45023  -0.42961
 Alpha  occ. eigenvalues --   -0.40679  -0.40449  -0.38573  -0.35945  -0.35238
 Alpha  occ. eigenvalues --   -0.34237  -0.32734  -0.31660  -0.30967  -0.30576
 Alpha virt. eigenvalues --    0.09328   0.10612   0.12287   0.12738   0.13834
 Alpha virt. eigenvalues --    0.16364   0.16564   0.17972   0.18195   0.18273
 Alpha virt. eigenvalues --    0.19600   0.19963   0.20225   0.21578   0.24485
 Alpha virt. eigenvalues --    0.25524   0.26765   0.27454   0.27753   0.49539
 Alpha virt. eigenvalues --    0.50222   0.52242   0.54805   0.55458   0.56157
 Alpha virt. eigenvalues --    0.58638   0.61206   0.63256   0.63841   0.68852
 Alpha virt. eigenvalues --    0.70815   0.71219   0.76315   0.78882   0.81510
 Alpha virt. eigenvalues --    0.85802   0.86816   0.87802   0.88681   0.90285
 Alpha virt. eigenvalues --    0.91261   0.91912   0.92296   0.93737   0.94794
 Alpha virt. eigenvalues --    0.95790   0.97017   0.98715   1.00013   1.01859
 Alpha virt. eigenvalues --    1.05199   1.11887   1.23331   1.42060   1.42373
 Alpha virt. eigenvalues --    1.44396   1.45340   1.55778   1.58434   1.66355
 Alpha virt. eigenvalues --    1.74496   1.76981   1.82601   1.86966   1.91638
 Alpha virt. eigenvalues --    1.92175   1.94395   1.97662   1.98764   1.99850
 Alpha virt. eigenvalues --    2.04048   2.07895   2.17159   2.19013   2.24491
 Alpha virt. eigenvalues --    2.27413   2.33119   2.33384   2.36766   2.37541
 Alpha virt. eigenvalues --    2.42376   2.45606   2.54665   2.61487   2.67807
 Alpha virt. eigenvalues --    2.72710   2.81731   4.11260   4.18887   4.29170
 Alpha virt. eigenvalues --    4.37204   4.47128   4.55004
          Condensed to atoms (all electrons):
              1          2          3          4          5          6
     1  C    5.064812   0.377475   0.377079   0.371776   0.373040  -0.038537
     2  H    0.377475   0.579962  -0.032917  -0.031470  -0.034954   0.005277
     3  H    0.377079  -0.032917   0.580295  -0.031419  -0.034841  -0.004527
     4  H    0.371776  -0.031470  -0.031419   0.579545  -0.027817  -0.002733
     5  C    0.373040  -0.034954  -0.034841  -0.027817   4.954684   0.376288
     6  H   -0.038537   0.005277  -0.004527  -0.002733   0.376288   0.614530
     7  H   -0.038198  -0.004519   0.005197  -0.002563   0.377627  -0.040376
     8  C   -0.043020  -0.004336  -0.004528   0.004170   0.391863  -0.042125
     9  H   -0.003866  -0.000401   0.005394  -0.000008  -0.042273  -0.005129
    10  H   -0.002913   0.004800  -0.000384  -0.000051  -0.041804   0.006094
    11  C    0.003843   0.000063  -0.000004  -0.000140  -0.038620  -0.003007
    12  H    0.000040   0.000008   0.000002   0.000000  -0.007143   0.005826
    13  H   -0.000149   0.000003  -0.000005   0.000002   0.004675   0.000016
    14  C    0.000150  -0.000015   0.000002   0.000002  -0.005072  -0.000629
    15  H   -0.000025   0.000000   0.000001   0.000000  -0.000629   0.000073
    16  H   -0.000094   0.000008   0.000000   0.000005   0.002792   0.000358
    17  C   -0.000001   0.000000   0.000000   0.000000   0.000150  -0.000025
    18  H    0.000000   0.000000   0.000000   0.000000  -0.000015   0.000000
    19  H    0.000000   0.000000   0.000000   0.000000   0.000002   0.000000
    20  H    0.000000   0.000000   0.000000   0.000000   0.000002   0.000001
              7          8          9         10         11         12
     1  C   -0.038198  -0.043020  -0.003866  -0.002913   0.003843   0.000040
     2  H   -0.004519  -0.004336  -0.000401   0.004800   0.000063   0.000008
     3  H    0.005197  -0.004528   0.005394  -0.000384  -0.000004   0.000002
     4  H   -0.002563   0.004170  -0.000008  -0.000051  -0.000140   0.000000
     5  C    0.377627   0.391863  -0.042273  -0.041804  -0.038620  -0.007143
     6  H   -0.040376  -0.042125  -0.005129   0.006094  -0.003007   0.005826
     7  H    0.605450  -0.039572   0.005944  -0.005577  -0.003984  -0.000155
     8  C   -0.039572   4.983757   0.369269   0.370501   0.374731  -0.038487
     9  H    0.005944   0.369269   0.619958  -0.039406  -0.032807  -0.002660
    10  H   -0.005577   0.370501  -0.039406   0.620187  -0.038487   0.005960
    11  C   -0.003984   0.374731  -0.032807  -0.038487   4.983757   0.370501
    12  H   -0.000155  -0.038487  -0.002660   0.005960   0.370501   0.620187
    13  H   -0.000049  -0.032807  -0.004301  -0.002660   0.369269  -0.039406
    14  C    0.002792  -0.038620   0.004675  -0.007143   0.391863  -0.041804
    15  H    0.000358  -0.003007   0.000016   0.005826  -0.042125   0.006094
    16  H    0.002710  -0.003984  -0.000049  -0.000155  -0.039572  -0.005577
    17  C   -0.000094   0.003843  -0.000149   0.000040  -0.043020  -0.002913
    18  H    0.000008   0.000063   0.000003   0.000008  -0.004336   0.004800
    19  H    0.000005  -0.000140   0.000002   0.000000   0.004170  -0.000051
    20  H    0.000000  -0.000004  -0.000005   0.000002  -0.004528  -0.000384
             13         14         15         16         17         18
     1  C   -0.000149   0.000150  -0.000025  -0.000094  -0.000001   0.000000
     2  H    0.000003  -0.000015   0.000000   0.000008   0.000000   0.000000
     3  H   -0.000005   0.000002   0.000001   0.000000   0.000000   0.000000
     4  H    0.000002   0.000002   0.000000   0.000005   0.000000   0.000000
     5  C    0.004675  -0.005072  -0.000629   0.002792   0.000150  -0.000015
     6  H    0.000016  -0.000629   0.000073   0.000358  -0.000025   0.000000
     7  H   -0.000049   0.002792   0.000358   0.002710  -0.000094   0.000008
     8  C   -0.032807  -0.038620  -0.003007  -0.003984   0.003843   0.000063
     9  H   -0.004301   0.004675   0.000016  -0.000049  -0.000149   0.000003
    10  H   -0.002660  -0.007143   0.005826  -0.000155   0.000040   0.000008
    11  C    0.369269   0.391863  -0.042125  -0.039572  -0.043020  -0.004336
    12  H   -0.039406  -0.041804   0.006094  -0.005577  -0.002913   0.004800
    13  H    0.619958  -0.042273  -0.005129   0.005944  -0.003866  -0.000401
    14  C   -0.042273   4.954684   0.376288   0.377627   0.373040  -0.034954
    15  H   -0.005129   0.376288   0.614530  -0.040376  -0.038537   0.005277
    16  H    0.005944   0.377627  -0.040376   0.605450  -0.038198  -0.004519
    17  C   -0.003866   0.373040  -0.038537  -0.038198   5.064812   0.377475
    18  H   -0.000401  -0.034954   0.005277  -0.004519   0.377475   0.579962
    19  H   -0.000008  -0.027817  -0.002733  -0.002563   0.371776  -0.031470
    20  H    0.005394  -0.034841  -0.004527   0.005197   0.377079  -0.032917
             19         20
     1  C    0.000000   0.000000
     2  H    0.000000   0.000000
     3  H    0.000000   0.000000
     4  H    0.000000   0.000000
     5  C    0.000002   0.000002
     6  H    0.000000   0.000001
     7  H    0.000005   0.000000
     8  C   -0.000140  -0.000004
     9  H    0.000002  -0.000005
    10  H    0.000000   0.000002
    11  C    0.004170  -0.004528
    12  H   -0.000051  -0.000384
    13  H   -0.000008   0.005394
    14  C   -0.027817  -0.034841
    15  H   -0.002733  -0.004527
    16  H   -0.002563   0.005197
    17  C    0.371776   0.377079
    18  H   -0.031470  -0.032917
    19  H    0.579545  -0.031419
    20  H   -0.031419   0.580295
 Mulliken atomic charges:
              1
     1  C   -0.441413
     2  H    0.141014
     3  H    0.140654
     4  H    0.140700
     5  C   -0.247958
     6  H    0.128623
     7  H    0.134996
     8  C   -0.247569
     9  H    0.125790
    10  H    0.125162
    11  C   -0.247569
    12  H    0.125162
    13  H    0.125790
    14  C   -0.247958
    15  H    0.128623
    16  H    0.134996
    17  C   -0.441413
    18  H    0.141014
    19  H    0.140700
    20  H    0.140654
 Sum of Mulliken atomic charges =   0.00000
 Mulliken charges with hydrogens summed into heavy atoms:
              1
     1  C   -0.019044
     5  C    0.015661
     8  C    0.003383
    11  C    0.003383
    14  C    0.015661
    17  C   -0.019044
 Sum of Mulliken charges with hydrogens summed into heavy atoms =   0.00000
 Electronic spatial extent (au):  <R**2>=           1047.6521
 Charge=              0.0000 electrons
 Dipole moment (field-independent basis, Debye):
    X=              0.0000    Y=             -0.0258    Z=              0.0000  Tot=              0.0258
 Quadrupole moment (field-independent basis, Debye-Ang):
   XX=            -42.4722   YY=            -41.2875   ZZ=            -41.1162
   XY=              0.0000   XZ=             -0.3135   YZ=              0.0000
 Traceless Quadrupole moment (field-independent basis, Debye-Ang):
   XX=             -0.8469   YY=              0.3378   ZZ=              0.5091
   XY=              0.0000   XZ=             -0.3135   YZ=              0.0000
 Octapole moment (field-independent basis, Debye-Ang**2):
  XXX=              0.0000  YYY=             -0.2731  ZZZ=              0.0000  XYY=              0.0000
  XXY=              0.0044  XXZ=              0.0000  XZZ=              0.0000  YZZ=             -0.0881
  YYZ=              0.0000  XYZ=             -0.3919
 Hexadecapole moment (field-independent basis, Debye-Ang**3):
 XXXX=          -1215.4083 YYYY=           -161.1147 ZZZZ=            -98.2334 XXXY=              0.0000
 XXXZ=             -7.0290 YYYX=              0.0000 YYYZ=              0.0000 ZZZX=              2.3185
 ZZZY=              0.0000 XXYY=           -219.8406 XXZZ=           -213.9642 YYZZ=            -45.4215
 XXYZ=              0.0000 YYXZ=             -2.9613 ZZXY=              0.0000
 N-N= 2.463477558260D+02 E-N=-1.039616798555D+03  KE= 2.346210301547D+02
 No NMR shielding tensors so no spin-rotation constants.
 Leave Link  601 at Fri Sep 18 13:28:43 2015, MaxMem=  402653184 cpu:       0.3
 (Enter /share/apps/g09/l9999.exe)
 1\1\GINC-COMPUTE-0-5\FOpt\RB3LYP\6-31G(d)\C6H14\HETANJIN\18-Sep-2015\0
 \\#p B3LYP/6-31G(d) opt=tight int=ultrafine\\using B3LYP/6-31G(d) to d
 o opt and freq calc.\\0,1\C,3.0481304937,-0.3245454024,0.1069458409\H,
 3.1504271054,-0.3378708427,1.1992141176\H,3.5114570204,0.6014104543,-0
 .2558495744\H,3.6275548322,-1.1653648219,-0.2914332699\C,1.5765044812,
 -0.4084403768,-0.3119627285\H,1.5084893127,-0.4240675019,-1.4095069165
 \H,1.1579644581,-1.3631610058,0.0326103299\C,0.7347163212,0.7573323083
 ,0.2264782161\H,1.2013240604,1.7012471388,-0.0903536082\H,0.7752763582
 ,0.7549890742,1.3263213601\C,-0.7347165479,0.757332037,-0.2264785127\H
 ,-0.7752765834,0.7549885055,-1.3263216562\H,-1.2013245598,1.7012468157
 ,0.090353065\C,-1.576504371,-0.4084407502,0.3119627362\H,-1.5084892084
 ,-0.4240675606,1.409506929\H,-1.1579640633,-1.3631613489,-0.0326100611
 \C,-3.0481304034,-0.3245463232,-0.1069458714\H,-3.1504270022,-0.337872
 1205,-1.1992141448\H,-3.6275545047,-1.1653657888,0.2914334872\H,-3.511
 4571993,0.6014095097,0.2558492616\\Version=EM64L-G09RevA.01\State=1-A\
 HF=-237.0840987\RMSD=3.165e-09\RMSF=4.829e-07\Dipole=0.,-0.0101498,0.\
 Quadrupole=-0.6267873,0.2511556,0.3756316,-0.0000002,-0.2391616,0.\PG=
 C01 [X(C6H14)]\\@


 SI MONUMENTUM REQUIRIS, CIRCUMSPICE
     -- FROM SIR CHRISTOPHER WREN'S TOMBSTONE
 Job cpu time:  0 days  0 hours 14 minutes 21.4 seconds.
 File lengths (MBytes):  RWF=     15 Int=      0 D2E=      0 Chk=      2 Scr=      1
 Normal termination of Gaussian 09 at Fri Sep 18 13:28:43 2015.
