 Entering Gaussian System, Link 0=/share/apps/g09/g09
 Input=C6H14_1_09_1_opt_PM6.gjf
 Output=C6H14_1_09_1_opt_PM6.log
 Initial command:
 /share/apps/g09/l1.exe /state/partition1/Gau-5835.inp -scrdir=/state/partition1/
 Entering Link 1 = /share/apps/g09/l1.exe PID=      5840.
  
 Copyright (c) 1988,1990,1992,1993,1995,1998,2003,2009, Gaussian, Inc.
                  All Rights Reserved.
  
 This is part of the Gaussian(R) 09 program.  It is based on
 the Gaussian(R) 03 system (copyright 2003, Gaussian, Inc.),
 the Gaussian(R) 98 system (copyright 1998, Gaussian, Inc.),
 the Gaussian(R) 94 system (copyright 1995, Gaussian, Inc.),
 the Gaussian 92(TM) system (copyright 1992, Gaussian, Inc.),
 the Gaussian 90(TM) system (copyright 1990, Gaussian, Inc.),
 the Gaussian 88(TM) system (copyright 1988, Gaussian, Inc.),
 the Gaussian 86(TM) system (copyright 1986, Carnegie Mellon
 University), and the Gaussian 82(TM) system (copyright 1983,
 Carnegie Mellon University). Gaussian is a federally registered
 trademark of Gaussian, Inc.
  
 This software contains proprietary and confidential information,
 including trade secrets, belonging to Gaussian, Inc.
  
 This software is provided under written license and may be
 used, copied, transmitted, or stored only in accord with that
 written license.
  
 The following legend is applicable only to US Government
 contracts under FAR:
  
                    RESTRICTED RIGHTS LEGEND
  
 Use, reproduction and disclosure by the US Government is
 subject to restrictions as set forth in subparagraphs (a)
 and (c) of the Commercial Computer Software - Restricted
 Rights clause in FAR 52.227-19.
  
 Gaussian, Inc.
 340 Quinnipiac St., Bldg. 40, Wallingford CT 06492
  
  
 ---------------------------------------------------------------
 Warning -- This program may not be used in any manner that
 competes with the business of Gaussian, Inc. or will provide
 assistance to any competitor of Gaussian, Inc.  The licensee
 of this program is prohibited from giving any competitor of
 Gaussian, Inc. access to this program.  By using this program,
 the user acknowledges that Gaussian, Inc. is engaged in the
 business of creating and licensing software in the field of
 computational chemistry and represents and warrants to the
 licensee that it is not a competitor of Gaussian, Inc. and that
 it will not use this program in any manner prohibited above.
 ---------------------------------------------------------------
  

 Cite this work as:
 Gaussian 09, Revision A.01,
 M. J. Frisch, G. W. Trucks, H. B. Schlegel, G. E. Scuseria, 
 M. A. Robb, J. R. Cheeseman, G. Scalmani, V. Barone, B. Mennucci, 
 G. A. Petersson, H. Nakatsuji, M. Caricato, X. Li, H. P. Hratchian, 
 A. F. Izmaylov, J. Bloino, G. Zheng, J. L. Sonnenberg, M. Hada, 
 M. Ehara, K. Toyota, R. Fukuda, J. Hasegawa, M. Ishida, T. Nakajima, 
 Y. Honda, O. Kitao, H. Nakai, T. Vreven, J. A. Montgomery, Jr., 
 J. E. Peralta, F. Ogliaro, M. Bearpark, J. J. Heyd, E. Brothers, 
 K. N. Kudin, V. N. Staroverov, R. Kobayashi, J. Normand, 
 K. Raghavachari, A. Rendell, J. C. Burant, S. S. Iyengar, J. Tomasi, 
 M. Cossi, N. Rega, J. M. Millam, M. Klene, J. E. Knox, J. B. Cross, 
 V. Bakken, C. Adamo, J. Jaramillo, R. Gomperts, R. E. Stratmann, 
 O. Yazyev, A. J. Austin, R. Cammi, C. Pomelli, J. W. Ochterski, 
 R. L. Martin, K. Morokuma, V. G. Zakrzewski, G. A. Voth, 
 P. Salvador, J. J. Dannenberg, S. Dapprich, A. D. Daniels, 
 O. Farkas, J. B. Foresman, J. V. Ortiz, J. Cioslowski, 
 and D. J. Fox, Gaussian, Inc., Wallingford CT, 2009.
 
 ******************************************
 Gaussian 09:  EM64L-G09RevA.01  8-May-2009
                14-Sep-2015 
 ******************************************
 %mem=3GB
 %nprocshared=2
 Will use up to    2 processors via shared memory.
 %chk=C6H14_1_09_1_opt_PM6.chk
 ----------
 #p PM6 opt
 ----------
 1/14=-1,18=20,19=15,26=1,38=1/1,3;
 2/9=110,12=2,17=6,18=5,40=1/2;
 3/5=2,16=1,25=1,41=3900000,71=1/1,2,3;
 4/35=1/1;
 5/5=2,35=1,38=5/2;
 6/7=2,8=2,9=2,10=2,28=1/1;
 7//1,2,3,16;
 1/14=-1,18=20,19=15/3(2);
 2/9=110/2;
 99//99;
 2/9=110/2;
 3/5=2,16=1,25=1,41=3900000,71=1,135=20/1,2,3;
 4/5=5,16=3,35=1/1;
 5/5=2,35=1,38=5/2;
 7//1,2,3,16;
 1/14=-1,18=20,19=15/3(-5);
 2/9=110/2;
 6/7=2,8=2,9=2,10=2,19=2,28=1/1;
 99/9=1/99;
 Leave Link    1 at Mon Sep 14 19:12:05 2015, MaxMem=  402653184 cpu:       0.0
 (Enter /share/apps/g09/l101.exe)
 ----------------------------------
 using PM6 to do opt and freq calc.
 ----------------------------------
 Symbolic Z-matrix:
 Charge =  0 Multiplicity = 1
 C                     1.72      2.0972   -0.7378 
 H                     1.7828    1.6824   -1.7694 
 H                     1.9687    1.298    -0.0045 
 H                     2.4738    2.9102   -0.6348 
 C                     0.3247    2.6617   -0.4723 
 H                     0.2664    3.0134    0.5839 
 H                     0.1859    3.5492   -1.1325 
 C                    -0.82      1.6774   -0.7552 
 H                    -0.7358    1.3041   -1.8024 
 H                    -1.7704    2.2523   -0.6734 
 C                    -0.8742    0.4867    0.216 
 H                    -0.9584    0.86      1.2632 
 H                     0.0762   -0.0882    0.1341 
 C                    -2.0189   -0.4976   -0.067 
 H                    -1.8801   -1.3851    0.5933 
 H                    -1.9607   -0.8493   -1.1231 
 C                    -3.4142    0.0669    0.1986 
 H                    -3.6629    0.8661   -0.5346 
 H                    -4.168    -0.7461    0.0956 
 H                    -3.477     0.4816    1.2303 
 
 NAtoms=     20 NQM=     20 NQMF=      0 NMic=      0 NMicF=      0 NTot=     20.
                    Isotopes and Nuclear Properties:
 (Nuclear quadrupole moments (NQMom) in fm**2, nuclear magnetic moments (NMagM)
  in nuclear magnetons)

  Atom         1           2           3           4           5           6           7           8           9          10
 IAtWgt=          12           1           1           1          12           1           1          12           1           1
 AtmWgt=  12.0000000   1.0078250   1.0078250   1.0078250  12.0000000   1.0078250   1.0078250  12.0000000   1.0078250   1.0078250
 NucSpn=           0           1           1           1           0           1           1           0           1           1
 AtZEff=   0.0000000   0.0000000   0.0000000   0.0000000   0.0000000   0.0000000   0.0000000   0.0000000   0.0000000   0.0000000
 NQMom=    0.0000000   0.0000000   0.0000000   0.0000000   0.0000000   0.0000000   0.0000000   0.0000000   0.0000000   0.0000000
 NMagM=    0.0000000   2.7928460   2.7928460   2.7928460   0.0000000   2.7928460   2.7928460   0.0000000   2.7928460   2.7928460

  Atom        11          12          13          14          15          16          17          18          19          20
 IAtWgt=          12           1           1          12           1           1          12           1           1           1
 AtmWgt=  12.0000000   1.0078250   1.0078250  12.0000000   1.0078250   1.0078250  12.0000000   1.0078250   1.0078250   1.0078250
 NucSpn=           0           1           1           0           1           1           0           1           1           1
 AtZEff=   0.0000000   0.0000000   0.0000000   0.0000000   0.0000000   0.0000000   0.0000000   0.0000000   0.0000000   0.0000000
 NQMom=    0.0000000   0.0000000   0.0000000   0.0000000   0.0000000   0.0000000   0.0000000   0.0000000   0.0000000   0.0000000
 NMagM=    0.0000000   2.7928460   2.7928460   0.0000000   2.7928460   2.7928460   0.0000000   2.7928460   2.7928460   2.7928460
 Leave Link  101 at Mon Sep 14 19:12:08 2015, MaxMem=  402653184 cpu:       0.2
 (Enter /share/apps/g09/l103.exe)

 GradGradGradGradGradGradGradGradGradGradGradGradGradGradGradGradGradGrad
 Berny optimization.
 Initialization pass.
                           ----------------------------
                           !    Initial Parameters    !
                           ! (Angstroms and Degrees)  !
 --------------------------                            --------------------------
 ! Name  Definition              Value          Derivative Info.                !
 --------------------------------------------------------------------------------
 ! R1    R(1,2)                  1.1136         estimate D2E/DX2                !
 ! R2    R(1,3)                  1.1128         estimate D2E/DX2                !
 ! R3    R(1,4)                  1.1135         estimate D2E/DX2                !
 ! R4    R(1,5)                  1.5284         estimate D2E/DX2                !
 ! R5    R(5,6)                  1.1147         estimate D2E/DX2                !
 ! R6    R(5,7)                  1.1148         estimate D2E/DX2                !
 ! R7    R(5,8)                  1.536          estimate D2E/DX2                !
 ! R8    R(8,9)                  1.1149         estimate D2E/DX2                !
 ! R9    R(8,10)                 1.1138         estimate D2E/DX2                !
 ! R10   R(8,11)                 1.5375         estimate D2E/DX2                !
 ! R11   R(11,12)                1.1149         estimate D2E/DX2                !
 ! R12   R(11,13)                1.1138         estimate D2E/DX2                !
 ! R13   R(11,14)                1.536          estimate D2E/DX2                !
 ! R14   R(14,15)                1.1149         estimate D2E/DX2                !
 ! R15   R(14,16)                1.1146         estimate D2E/DX2                !
 ! R16   R(14,17)                1.5284         estimate D2E/DX2                !
 ! R17   R(17,18)                1.1127         estimate D2E/DX2                !
 ! R18   R(17,19)                1.1135         estimate D2E/DX2                !
 ! R19   R(17,20)                1.1137         estimate D2E/DX2                !
 ! A1    A(2,1,3)              109.288          estimate D2E/DX2                !
 ! A2    A(2,1,4)              108.6312         estimate D2E/DX2                !
 ! A3    A(2,1,5)              110.485          estimate D2E/DX2                !
 ! A4    A(3,1,4)              108.1879         estimate D2E/DX2                !
 ! A5    A(3,1,5)              110.7822         estimate D2E/DX2                !
 ! A6    A(4,1,5)              109.4077         estimate D2E/DX2                !
 ! A7    A(1,5,6)              109.1995         estimate D2E/DX2                !
 ! A8    A(1,5,7)              107.7475         estimate D2E/DX2                !
 ! A9    A(1,5,8)              114.3104         estimate D2E/DX2                !
 ! A10   A(6,5,7)              107.6637         estimate D2E/DX2                !
 ! A11   A(6,5,8)              109.7377         estimate D2E/DX2                !
 ! A12   A(7,5,8)              107.957          estimate D2E/DX2                !
 ! A13   A(5,8,9)              109.3461         estimate D2E/DX2                !
 ! A14   A(5,8,10)             106.9561         estimate D2E/DX2                !
 ! A15   A(5,8,11)             113.967          estimate D2E/DX2                !
 ! A16   A(9,8,10)             107.8336         estimate D2E/DX2                !
 ! A17   A(9,8,11)             109.6738         estimate D2E/DX2                !
 ! A18   A(10,8,11)            108.861          estimate D2E/DX2                !
 ! A19   A(8,11,12)            109.6738         estimate D2E/DX2                !
 ! A20   A(8,11,13)            108.8574         estimate D2E/DX2                !
 ! A21   A(8,11,14)            113.9641         estimate D2E/DX2                !
 ! A22   A(12,11,13)           107.8385         estimate D2E/DX2                !
 ! A23   A(12,11,14)           109.3496         estimate D2E/DX2                !
 ! A24   A(13,11,14)           106.9545         estimate D2E/DX2                !
 ! A25   A(11,14,15)           107.9525         estimate D2E/DX2                !
 ! A26   A(11,14,16)           109.7462         estimate D2E/DX2                !
 ! A27   A(11,14,17)           114.3083         estimate D2E/DX2                !
 ! A28   A(15,14,16)           107.667          estimate D2E/DX2                !
 ! A29   A(15,14,17)           107.7431         estimate D2E/DX2                !
 ! A30   A(16,14,17)           109.199          estimate D2E/DX2                !
 ! A31   A(14,17,18)           110.7816         estimate D2E/DX2                !
 ! A32   A(14,17,19)           109.4071         estimate D2E/DX2                !
 ! A33   A(14,17,20)           110.4863         estimate D2E/DX2                !
 ! A34   A(18,17,19)           108.1896         estimate D2E/DX2                !
 ! A35   A(18,17,20)           109.2907         estimate D2E/DX2                !
 ! A36   A(19,17,20)           108.6268         estimate D2E/DX2                !
 ! D1    D(2,1,5,6)            176.5499         estimate D2E/DX2                !
 ! D2    D(2,1,5,7)            -66.7829         estimate D2E/DX2                !
 ! D3    D(2,1,5,8)             53.203          estimate D2E/DX2                !
 ! D4    D(3,1,5,6)             55.2891         estimate D2E/DX2                !
 ! D5    D(3,1,5,7)            171.9564         estimate D2E/DX2                !
 ! D6    D(3,1,5,8)            -68.0578         estimate D2E/DX2                !
 ! D7    D(4,1,5,6)            -63.8987         estimate D2E/DX2                !
 ! D8    D(4,1,5,7)             52.7686         estimate D2E/DX2                !
 ! D9    D(4,1,5,8)            172.7544         estimate D2E/DX2                !
 ! D10   D(1,5,8,9)            -55.0861         estimate D2E/DX2                !
 ! D11   D(1,5,8,10)          -171.5977         estimate D2E/DX2                !
 ! D12   D(1,5,8,11)            68.045          estimate D2E/DX2                !
 ! D13   D(6,5,8,9)           -178.1423         estimate D2E/DX2                !
 ! D14   D(6,5,8,10)            65.3461         estimate D2E/DX2                !
 ! D15   D(6,5,8,11)           -55.0112         estimate D2E/DX2                !
 ! D16   D(7,5,8,9)             64.7826         estimate D2E/DX2                !
 ! D17   D(7,5,8,10)           -51.7291         estimate D2E/DX2                !
 ! D18   D(7,5,8,11)          -172.0863         estimate D2E/DX2                !
 ! D19   D(5,8,11,12)           57.0474         estimate D2E/DX2                !
 ! D20   D(5,8,11,13)          -60.7207         estimate D2E/DX2                !
 ! D21   D(5,8,11,14)         -179.9975         estimate D2E/DX2                !
 ! D22   D(9,8,11,12)          180.0            estimate D2E/DX2                !
 ! D23   D(9,8,11,13)           62.2319         estimate D2E/DX2                !
 ! D24   D(9,8,11,14)          -57.0449         estimate D2E/DX2                !
 ! D25   D(10,8,11,12)         -62.2358         estimate D2E/DX2                !
 ! D26   D(10,8,11,13)         179.9961         estimate D2E/DX2                !
 ! D27   D(10,8,11,14)          60.7193         estimate D2E/DX2                !
 ! D28   D(8,11,14,15)         172.09           estimate D2E/DX2                !
 ! D29   D(8,11,14,16)          55.0089         estimate D2E/DX2                !
 ! D30   D(8,11,14,17)         -68.0515         estimate D2E/DX2                !
 ! D31   D(12,11,14,15)        -64.7783         estimate D2E/DX2                !
 ! D32   D(12,11,14,16)        178.1406         estimate D2E/DX2                !
 ! D33   D(12,11,14,17)         55.0802         estimate D2E/DX2                !
 ! D34   D(13,11,14,15)         51.7401         estimate D2E/DX2                !
 ! D35   D(13,11,14,16)        -65.341          estimate D2E/DX2                !
 ! D36   D(13,11,14,17)        171.5986         estimate D2E/DX2                !
 ! D37   D(11,14,17,18)         68.0607         estimate D2E/DX2                !
 ! D38   D(11,14,17,19)       -172.7502         estimate D2E/DX2                !
 ! D39   D(11,14,17,20)        -53.2038         estimate D2E/DX2                !
 ! D40   D(15,14,17,18)       -171.9636         estimate D2E/DX2                !
 ! D41   D(15,14,17,19)        -52.7746         estimate D2E/DX2                !
 ! D42   D(15,14,17,20)         66.7719         estimate D2E/DX2                !
 ! D43   D(16,14,17,18)        -55.2953         estimate D2E/DX2                !
 ! D44   D(16,14,17,19)         63.8938         estimate D2E/DX2                !
 ! D45   D(16,14,17,20)       -176.5598         estimate D2E/DX2                !
 --------------------------------------------------------------------------------
 Trust Radius=3.00D-01 FncErr=1.00D-07 GrdErr=1.00D-07
 Number of steps in this run= 110 maximum allowed number of steps= 120.
 GradGradGradGradGradGradGradGradGradGradGradGradGradGradGradGradGradGrad

 Leave Link  103 at Mon Sep 14 19:12:08 2015, MaxMem=  402653184 cpu:       0.0
 (Enter /share/apps/g09/l202.exe)
                          Input orientation:                          
 ---------------------------------------------------------------------
 Center     Atomic      Atomic             Coordinates (Angstroms)
 Number     Number       Type             X           Y           Z
 ---------------------------------------------------------------------
      1          6           0        1.720000    2.097200   -0.737800
      2          1           0        1.782800    1.682400   -1.769400
      3          1           0        1.968700    1.298000   -0.004500
      4          1           0        2.473800    2.910200   -0.634800
      5          6           0        0.324700    2.661700   -0.472300
      6          1           0        0.266400    3.013400    0.583900
      7          1           0        0.185900    3.549200   -1.132500
      8          6           0       -0.820000    1.677400   -0.755200
      9          1           0       -0.735800    1.304100   -1.802400
     10          1           0       -1.770400    2.252300   -0.673400
     11          6           0       -0.874200    0.486700    0.216000
     12          1           0       -0.958400    0.860000    1.263200
     13          1           0        0.076200   -0.088200    0.134100
     14          6           0       -2.018900   -0.497600   -0.067000
     15          1           0       -1.880100   -1.385100    0.593300
     16          1           0       -1.960700   -0.849300   -1.123100
     17          6           0       -3.414200    0.066900    0.198600
     18          1           0       -3.662900    0.866100   -0.534600
     19          1           0       -4.168000   -0.746100    0.095600
     20          1           0       -3.477000    0.481600    1.230300
 ---------------------------------------------------------------------
                    Distance matrix (angstroms):
                    1          2          3          4          5
     1  C    0.000000
     2  H    1.113643   0.000000
     3  H    1.112790   1.815818   0.000000
     4  H    1.113460   1.808947   1.803217   0.000000
     5  C    1.528402   2.183473   2.186607   2.169514   0.000000
     6  H    2.167779   3.099847   2.487295   2.523588   1.114742
     7  H    2.148850   2.537848   3.085233   2.427038   1.114803
     8  C    2.574516   2.793420   2.912789   3.519007   1.535974
     9  H    2.791654   2.547066   3.247584   3.774173   2.176443
    10  H    3.494438   3.761812   3.916502   4.295062   2.144177
    11  C    3.198956   3.525785   2.964609   4.219753   2.577158
    12  H    3.564897   4.169794   3.219755   4.425576   2.811482
    13  H    2.870237   3.109794   2.349961   3.915367   2.826911
    14  C    4.600254   4.701435   4.373676   5.667438   3.954479
    15  H    5.182563   5.329985   4.729657   6.238131   4.730036
    16  H    4.730525   4.565195   4.615447   5.834130   4.239542
    17  C    5.599908   5.787199   5.525619   6.591468   4.600268
    18  H    5.525623   5.643290   5.672959   6.468962   4.373673
    19  H    6.591468   6.692373   6.468961   7.616792   5.667448
    20  H    5.787261   6.172975   5.643305   6.692437   4.701554
                    6          7          8          9         10
     6  H    0.000000
     7  H    1.799886   0.000000
     8  C    2.181364   2.158200   0.000000
     9  H    3.101699   2.517692   1.114931   0.000000
    10  H    2.511699   2.391617   1.113760   1.801144   0.000000
    11  C    2.796521   3.510152   1.537509   2.182026   2.170611
    12  H    2.568796   3.778968   2.182026   3.105588   2.519576
    13  H    3.139812   3.853179   2.170570   2.519499   3.088677
    14  C    4.239503   4.730013   2.577131   2.811420   2.826911
    15  H    4.894318   5.620859   3.510152   3.778968   3.853212
    16  H    4.774335   4.894362   2.796562   2.568844   3.139804
    17  C    4.730448   5.182563   3.198956   3.564897   2.870268
    18  H    4.615337   4.729669   2.964617   3.219794   2.349973
    19  H    5.834054   6.238131   4.219753   4.425576   3.915386
    20  H    4.565182   5.330087   3.525875   4.169886   3.109974
                   11         12         13         14         15
    11  C    0.000000
    12  H    1.114931   0.000000
    13  H    1.113767   1.801207   0.000000
    14  C    1.535993   2.176504   2.144177   0.000000
    15  H    2.158200   2.517692   2.391636   1.114862   0.000000
    16  H    2.181414   3.101732   2.511730   1.114642   1.799891
    17  C    2.574516   2.791654   3.494440   1.528419   2.148850
    18  H    2.912764   3.247529   3.916467   2.186564   3.085196
    19  H    3.519007   3.774173   4.295061   2.169521   2.427038
    20  H    2.793456   2.547080   3.761855   2.183547   2.537800
                   16         17         18         19         20
    16  H    0.000000
    17  C    2.167712   0.000000
    18  H    2.487250   1.112724   0.000000
    19  H    2.523500   1.113460   1.803182   0.000000
    20  H    3.099831   1.113699   1.815839   1.808942   0.000000
 Stoichiometry    C6H14
 Framework group  C1[X(C6H14)]
 Deg. of freedom    54
 Full point group                 C1      NOp   1
 Largest Abelian subgroup         C1      NOp   1
 Largest concise Abelian subgroup C1      NOp   1
                         Standard orientation:                         
 ---------------------------------------------------------------------
 Center     Atomic      Atomic             Coordinates (Angstroms)
 Number     Number       Type             X           Y           Z
 ---------------------------------------------------------------------
      1          6           0        2.755934   -0.487692   -0.082055
      2          1           0        2.763710   -0.717918   -1.171613
      3          1           0        2.425986   -1.388617    0.481656
      4          1           0        3.793522   -0.239140    0.236417
      5          6           0        1.837756    0.699430    0.207258
      6          1           0        1.796786    0.871494    1.307878
      7          1           0        2.293582    1.603297   -0.259683
      8          6           0        0.413516    0.547125   -0.347325
      9          1           0        0.463422    0.341837   -1.442057
     10          1           0       -0.096250    1.527384   -0.206999
     11          6           0       -0.413514   -0.547126    0.347346
     12          1           0       -0.463420   -0.341839    1.442077
     13          1           0        0.096269   -1.527372    0.206922
     14          6           0       -1.837737   -0.699418   -0.207335
     15          1           0       -2.293579   -1.603298    0.259704
     16          1           0       -1.796867   -0.871441   -1.307864
     17          6           0       -2.755932    0.487690    0.082076
     18          1           0       -2.426001    1.388601   -0.481538
     19          1           0       -3.793520    0.239139   -0.236397
     20          1           0       -2.763777    0.717819    1.171710
 ---------------------------------------------------------------------
 Rotational constants (GHZ):      8.9277231      1.4172857      1.3209213
 Leave Link  202 at Mon Sep 14 19:12:08 2015, MaxMem=  402653184 cpu:       0.0
 (Enter /share/apps/g09/l301.exe)
 Standard basis: VSTO-6G (5D, 7F)
 Ernie: Thresh=  0.10000D-02 Tol=  0.10000D-05 Strict=F.
  NNHCO=     0 NNPyr=     0 NCTC=     0               EPep=         0.000000000
    EC=       125.950526468  ECS=         3.144399170   EG=         0.308580781
   EHC=         0.000409969  EAt=       -31.187935768  AtH=         2.796400831
 EPDDG=         0.000000000  ECC=       129.403916388 EAtT=        33.984336599
 There are    38 symmetry adapted basis functions of A   symmetry.
 Integral buffers will be    131072 words long.
 Regular integral format.
 Two-electron integral symmetry is turned off.
    38 basis functions,   228 primitive gaussians,    38 cartesian basis functions
    19 alpha electrons       19 beta electrons
       nuclear repulsion energy       163.3882529874 Hartrees.
 IExCor=    0 DFT=F Ex=HF Corr=None ExCW=0 ScaHFX=  1.000000
 ScaDFX=  1.000000  1.000000  1.000000  1.000000 ScalE2=  1.000000  1.000000
 IRadAn=      0 IRanWt=     -1 IRanGd=            0 ICorTp=0
 Leave Link  301 at Mon Sep 14 19:12:08 2015, MaxMem=  402653184 cpu:       0.1
 (Enter /share/apps/g09/l302.exe)
 Do NDO integrals.
 NPDir=0 NMtPBC=     1 NCelOv=     1 NCel=       1 NClECP=     1 NCelD=      1
         NCelK=      1 NCelE2=     1 NClLst=     1 CellRange=     0.0.
 One-electron integrals computed using PRISM.
 NBasis=    38 RedAO= F  NBF=    38
 NBsUse=    38 1.00D-04 NBFU=    38
 Leave Link  302 at Mon Sep 14 19:12:08 2015, MaxMem=  402653184 cpu:       0.1
 (Enter /share/apps/g09/l303.exe)
 DipDrv:  MaxL=1.
 Leave Link  303 at Mon Sep 14 19:12:09 2015, MaxMem=  402653184 cpu:       0.0
 (Enter /share/apps/g09/l401.exe)
 Simple Huckel Guess.
 Initial guess orbital symmetries:
       Occupied  (A) (A) (A) (A) (A) (A) (A) (A) (A) (A) (A) (A)
                 (A) (A) (A) (A) (A) (A) (A)
       Virtual   (A) (A) (A) (A) (A) (A) (A) (A) (A) (A) (A) (A)
                 (A) (A) (A) (A) (A) (A) (A)
 The electronic state of the initial guess is 1-A.
 Leave Link  401 at Mon Sep 14 19:12:09 2015, MaxMem=  402653184 cpu:       0.1
 (Enter /share/apps/g09/l502.exe)
 Closed shell SCF:
 Requested convergence on RMS density matrix=1.00D-08 within 128 cycles.
 Requested convergence on MAX density matrix=1.00D-06.
 Requested convergence on             energy=1.00D-06.
 No special actions if energy rises.
 Using DIIS extrapolation, IDIIS=  1040.
 Overlap will be assumed to be unity.
 Two-electron integral symmetry not used.
 Keep J ints in memory in canonical form, NReq=884654.
 IEnd=       81865 IEndB=       81865 NGot=   402653184 MDV=   402586639
 LenX=   402586639 LenY=   402584754
 Symmetry not used in FoFDir.
 MinBra= 0 MaxBra= 1 Meth=40.
 IRaf=       0 NMat=   1 IRICut=       1 DoRegI=T DoRafI=F ISym2E= 0 JSym2E=0.

 Cycle   1  Pass 1  IDiag  1:
 E= 0.735271322984943E-01
 DIIS: error= 2.20D-02 at cycle   1 NSaved=   1.
 NSaved= 1 IEnMin= 1 EnMin= 0.735271322984943E-01 IErMin= 1 ErrMin= 2.20D-02
 ErrMax= 2.20D-02 EMaxC= 1.00D-01 BMatC= 4.39D-02 BMatP= 4.39D-02
 IDIUse=3 WtCom= 7.80D-01 WtEn= 2.20D-01
 Coeff-Com:  0.100D+01
 Coeff-En:   0.100D+01
 Coeff:      0.100D+01
 GapD=    2.000 DampG=2.000 DampE=0.500 DampFc=1.0000 IDamp=-1.
 RMSDP=8.40D-03 MaxDP=6.94D-02              OVMax= 0.00D+00

 Cycle   2  Pass 1  IDiag  1:
 E=-0.429577049760042E-01 Delta-E=       -0.116484837274 Rises=F Damp=F
 DIIS: error= 5.36D-03 at cycle   2 NSaved=   2.
 NSaved= 2 IEnMin= 2 EnMin=-0.429577049760042E-01 IErMin= 2 ErrMin= 5.36D-03
 ErrMax= 5.36D-03 EMaxC= 1.00D-01 BMatC= 2.91D-03 BMatP= 4.39D-02
 IDIUse=3 WtCom= 9.46D-01 WtEn= 5.36D-02
 Coeff-Com: -0.321D+00 0.132D+01
 Coeff-En:   0.000D+00 0.100D+01
 Coeff:     -0.304D+00 0.130D+01
 RMSDP=3.01D-03 MaxDP=2.13D-02 DE=-1.16D-01 OVMax= 0.00D+00

 Cycle   3  Pass 1  IDiag  3:
 E=-0.523343012666828E-01 Delta-E=       -0.009376596291 Rises=F Damp=F
 DIIS: error= 1.41D-03 at cycle   3 NSaved=   3.
 NSaved= 3 IEnMin= 3 EnMin=-0.523343012666828E-01 IErMin= 3 ErrMin= 1.41D-03
 ErrMax= 1.41D-03 EMaxC= 1.00D-01 BMatC= 8.12D-05 BMatP= 2.91D-03
 IDIUse=3 WtCom= 9.86D-01 WtEn= 1.41D-02
 Coeff-Com:  0.238D+00-0.103D+01 0.179D+01
 Coeff-En:   0.000D+00 0.000D+00 0.100D+01
 Coeff:      0.235D+00-0.101D+01 0.178D+01
 Gap=     0.555 Goal=   None    Shift=    0.000
 RMSDP=8.53D-04 MaxDP=8.75D-03 DE=-9.38D-03 OVMax= 0.00D+00

 Cycle   4  Pass 1  IDiag  3:
 E=-0.528146685577155E-01 Delta-E=       -0.000480367291 Rises=F Damp=F
 DIIS: error= 3.40D-04 at cycle   4 NSaved=   4.
 NSaved= 4 IEnMin= 4 EnMin=-0.528146685577155E-01 IErMin= 4 ErrMin= 3.40D-04
 ErrMax= 3.40D-04 EMaxC= 1.00D-01 BMatC= 4.30D-06 BMatP= 8.12D-05
 IDIUse=3 WtCom= 9.97D-01 WtEn= 3.40D-03
 Coeff-Com: -0.115D+00 0.503D+00-0.104D+01 0.165D+01
 Coeff-En:   0.000D+00 0.000D+00 0.000D+00 0.100D+01
 Coeff:     -0.115D+00 0.501D+00-0.103D+01 0.165D+01
 Gap=     0.556 Goal=   None    Shift=    0.000
 RMSDP=2.28D-04 MaxDP=2.39D-03 DE=-4.80D-04 OVMax= 0.00D+00

 Cycle   5  Pass 1  IDiag  3:
 E=-0.528436139562132E-01 Delta-E=       -0.000028945398 Rises=F Damp=F
 DIIS: error= 8.45D-05 at cycle   5 NSaved=   5.
 NSaved= 5 IEnMin= 5 EnMin=-0.528436139562132E-01 IErMin= 5 ErrMin= 8.45D-05
 ErrMax= 8.45D-05 EMaxC= 1.00D-01 BMatC= 3.33D-07 BMatP= 4.30D-06
 IDIUse=1 WtCom= 1.00D+00 WtEn= 0.00D+00
 Coeff-Com:  0.609D-01-0.267D+00 0.585D+00-0.112D+01 0.174D+01
 Coeff:      0.609D-01-0.267D+00 0.585D+00-0.112D+01 0.174D+01
 Gap=     0.556 Goal=   None    Shift=    0.000
 RMSDP=6.49D-05 MaxDP=5.59D-04 DE=-2.89D-05 OVMax= 0.00D+00

 Cycle   6  Pass 1  IDiag  3:
 E=-0.528460667578656E-01 Delta-E=       -0.000002452802 Rises=F Damp=F
 DIIS: error= 2.62D-05 at cycle   6 NSaved=   6.
 NSaved= 6 IEnMin= 6 EnMin=-0.528460667578656E-01 IErMin= 6 ErrMin= 2.62D-05
 ErrMax= 2.62D-05 EMaxC= 1.00D-01 BMatC= 2.93D-08 BMatP= 3.33D-07
 IDIUse=1 WtCom= 1.00D+00 WtEn= 0.00D+00
 Coeff-Com: -0.185D-02 0.866D-02-0.323D-01 0.110D+00-0.485D+00 0.140D+01
 Coeff:     -0.185D-02 0.866D-02-0.323D-01 0.110D+00-0.485D+00 0.140D+01
 Gap=     0.556 Goal=   None    Shift=    0.000
 RMSDP=2.05D-05 MaxDP=2.09D-04 DE=-2.45D-06 OVMax= 0.00D+00

 Cycle   7  Pass 1  IDiag  3:
 E=-0.528462785757426E-01 Delta-E=       -0.000000211818 Rises=F Damp=F
 DIIS: error= 6.13D-06 at cycle   7 NSaved=   7.
 NSaved= 7 IEnMin= 7 EnMin=-0.528462785757426E-01 IErMin= 7 ErrMin= 6.13D-06
 ErrMax= 6.13D-06 EMaxC= 1.00D-01 BMatC= 2.06D-09 BMatP= 2.93D-08
 IDIUse=1 WtCom= 1.00D+00 WtEn= 0.00D+00
 Coeff-Com:  0.110D-02-0.508D-02 0.166D-01-0.490D-01 0.213D+00-0.769D+00
 Coeff-Com:  0.159D+01
 Coeff:      0.110D-02-0.508D-02 0.166D-01-0.490D-01 0.213D+00-0.769D+00
 Coeff:      0.159D+01
 Gap=     0.556 Goal=   None    Shift=    0.000
 RMSDP=4.92D-06 MaxDP=4.90D-05 DE=-2.12D-07 OVMax= 0.00D+00

 Cycle   8  Pass 1  IDiag  3:
 E=-0.528462914649595E-01 Delta-E=       -0.000000012889 Rises=F Damp=F
 DIIS: error= 1.90D-06 at cycle   8 NSaved=   8.
 NSaved= 8 IEnMin= 8 EnMin=-0.528462914649595E-01 IErMin= 8 ErrMin= 1.90D-06
 ErrMax= 1.90D-06 EMaxC= 1.00D-01 BMatC= 1.08D-10 BMatP= 2.06D-09
 IDIUse=1 WtCom= 1.00D+00 WtEn= 0.00D+00
 Coeff-Com: -0.231D-03 0.118D-02-0.620D-02 0.231D-01-0.120D+00 0.470D+00
 Coeff-Com: -0.110D+01 0.173D+01
 Coeff:     -0.231D-03 0.118D-02-0.620D-02 0.231D-01-0.120D+00 0.470D+00
 Coeff:     -0.110D+01 0.173D+01
 Gap=     0.556 Goal=   None    Shift=    0.000
 RMSDP=1.09D-06 MaxDP=1.03D-05 DE=-1.29D-08 OVMax= 0.00D+00

 Cycle   9  Pass 1  IDiag  3:
 E=-0.528462921277821E-01 Delta-E=       -0.000000000663 Rises=F Damp=F
 DIIS: error= 2.83D-07 at cycle   9 NSaved=   9.
 NSaved= 9 IEnMin= 9 EnMin=-0.528462921277821E-01 IErMin= 9 ErrMin= 2.83D-07
 ErrMax= 2.83D-07 EMaxC= 1.00D-01 BMatC= 3.34D-12 BMatP= 1.08D-10
 IDIUse=1 WtCom= 1.00D+00 WtEn= 0.00D+00
 Coeff-Com: -0.426D-04 0.133D-03 0.825D-03-0.504D-02 0.327D-01-0.137D+00
 Coeff-Com:  0.336D+00-0.658D+00 0.143D+01
 Coeff:     -0.426D-04 0.133D-03 0.825D-03-0.504D-02 0.327D-01-0.137D+00
 Coeff:      0.336D+00-0.658D+00 0.143D+01
 Gap=     0.556 Goal=   None    Shift=    0.000
 RMSDP=1.79D-07 MaxDP=1.73D-06 DE=-6.63D-10 OVMax= 0.00D+00

 Cycle  10  Pass 1  IDiag  3:
 E=-0.528462921457447E-01 Delta-E=       -0.000000000018 Rises=F Damp=F
 DIIS: error= 2.82D-08 at cycle  10 NSaved=  10.
 NSaved=10 IEnMin=10 EnMin=-0.528462921457447E-01 IErMin=10 ErrMin= 2.82D-08
 ErrMax= 2.82D-08 EMaxC= 1.00D-01 BMatC= 6.37D-14 BMatP= 3.34D-12
 IDIUse=1 WtCom= 1.00D+00 WtEn= 0.00D+00
 Coeff-Com: -0.443D-05 0.366D-04-0.438D-03 0.194D-02-0.111D-01 0.450D-01
 Coeff-Com: -0.109D+00 0.218D+00-0.542D+00 0.140D+01
 Coeff:     -0.443D-05 0.366D-04-0.438D-03 0.194D-02-0.111D-01 0.450D-01
 Coeff:     -0.109D+00 0.218D+00-0.542D+00 0.140D+01
 Gap=     0.556 Goal=   None    Shift=    0.000
 RMSDP=2.03D-08 MaxDP=1.71D-07 DE=-1.80D-11 OVMax= 0.00D+00

 Cycle  11  Pass 1  IDiag  3:
 E=-0.528462921462562E-01 Delta-E=       -0.000000000001 Rises=F Damp=F
 DIIS: error= 4.95D-09 at cycle  11 NSaved=  11.
 NSaved=11 IEnMin=11 EnMin=-0.528462921462562E-01 IErMin=11 ErrMin= 4.95D-09
 ErrMax= 4.95D-09 EMaxC= 1.00D-01 BMatC= 2.07D-15 BMatP= 6.37D-14
 IDIUse=1 WtCom= 1.00D+00 WtEn= 0.00D+00
 Coeff-Com:  0.177D-05-0.145D-04 0.170D-03-0.750D-03 0.428D-02-0.174D-01
 Coeff-Com:  0.422D-01-0.843D-01 0.213D+00-0.634D+00 0.148D+01
 Coeff:      0.177D-05-0.145D-04 0.170D-03-0.750D-03 0.428D-02-0.174D-01
 Coeff:      0.422D-01-0.843D-01 0.213D+00-0.634D+00 0.148D+01
 Gap=     0.556 Goal=   None    Shift=    0.000
 RMSDP=3.90D-09 MaxDP=2.52D-08 DE=-5.12D-13 OVMax= 0.00D+00

 Cycle  12  Pass 2  IDiag  1:
 RMSDP=3.90D-09 MaxDP=2.52D-08 DE=-5.12D-13 OVMax= 0.00D+00

 SCF Done:  E(RPM6) = -0.528462921463E-01 A.U. after   12 cycles
             Convg  =    0.3903D-08             -V/T =  0.9991
 KE=-5.603512786522D+01 PE=-2.479868417161D+02 EE= 1.405808703018D+02
 Leave Link  502 at Mon Sep 14 19:12:10 2015, MaxMem=  402653184 cpu:       0.1
 (Enter /share/apps/g09/l601.exe)
 Copying SCF densities to generalized density rwf, IOpCl= 0 IROHF=0.

 **********************************************************************

            Population analysis using the SCF density.

 **********************************************************************

 Orbital symmetries:
       Occupied  (A) (A) (A) (A) (A) (A) (A) (A) (A) (A) (A) (A)
                 (A) (A) (A) (A) (A) (A) (A)
       Virtual   (A) (A) (A) (A) (A) (A) (A) (A) (A) (A) (A) (A)
                 (A) (A) (A) (A) (A) (A) (A)
 The electronic state is 1-A.
 Alpha  occ. eigenvalues --   -1.04953  -0.99157  -0.89481  -0.83117  -0.74092
 Alpha  occ. eigenvalues --   -0.70459  -0.57771  -0.56466  -0.55899  -0.51570
 Alpha  occ. eigenvalues --   -0.51044  -0.49123  -0.46131  -0.44716  -0.44546
 Alpha  occ. eigenvalues --   -0.42521  -0.41111  -0.40739  -0.40117
 Alpha virt. eigenvalues --    0.15451   0.16376   0.16725   0.17356   0.18082
 Alpha virt. eigenvalues --    0.20986   0.21102   0.21394   0.21969   0.21995
 Alpha virt. eigenvalues --    0.22809   0.23093   0.23223   0.24013   0.24262
 Alpha virt. eigenvalues --    0.24477   0.24477   0.25117   0.25468
          Condensed to atoms (all electrons):
              1          2          3          4          5          6
     1  C    4.457823   0.000000   0.000000   0.000000   0.000000   0.000000
     2  H    0.000000   0.852655   0.000000   0.000000   0.000000   0.000000
     3  H    0.000000   0.000000   0.853174   0.000000   0.000000   0.000000
     4  H    0.000000   0.000000   0.000000   0.858478   0.000000   0.000000
     5  C    0.000000   0.000000   0.000000   0.000000   4.229535   0.000000
     6  H    0.000000   0.000000   0.000000   0.000000   0.000000   0.872938
     7  H    0.000000   0.000000   0.000000   0.000000   0.000000   0.000000
     8  C    0.000000   0.000000   0.000000   0.000000   0.000000   0.000000
     9  H    0.000000   0.000000   0.000000   0.000000   0.000000   0.000000
    10  H    0.000000   0.000000   0.000000   0.000000   0.000000   0.000000
    11  C    0.000000   0.000000   0.000000   0.000000   0.000000   0.000000
    12  H    0.000000   0.000000   0.000000   0.000000   0.000000   0.000000
    13  H    0.000000   0.000000   0.000000   0.000000   0.000000   0.000000
    14  C    0.000000   0.000000   0.000000   0.000000   0.000000   0.000000
    15  H    0.000000   0.000000   0.000000   0.000000   0.000000   0.000000
    16  H    0.000000   0.000000   0.000000   0.000000   0.000000   0.000000
    17  C    0.000000   0.000000   0.000000   0.000000   0.000000   0.000000
    18  H    0.000000   0.000000   0.000000   0.000000   0.000000   0.000000
    19  H    0.000000   0.000000   0.000000   0.000000   0.000000   0.000000
    20  H    0.000000   0.000000   0.000000   0.000000   0.000000   0.000000
              7          8          9         10         11         12
     1  C    0.000000   0.000000   0.000000   0.000000   0.000000   0.000000
     2  H    0.000000   0.000000   0.000000   0.000000   0.000000   0.000000
     3  H    0.000000   0.000000   0.000000   0.000000   0.000000   0.000000
     4  H    0.000000   0.000000   0.000000   0.000000   0.000000   0.000000
     5  C    0.000000   0.000000   0.000000   0.000000   0.000000   0.000000
     6  H    0.000000   0.000000   0.000000   0.000000   0.000000   0.000000
     7  H    0.876958   0.000000   0.000000   0.000000   0.000000   0.000000
     8  C    0.000000   4.258964   0.000000   0.000000   0.000000   0.000000
     9  H    0.000000   0.000000   0.868485   0.000000   0.000000   0.000000
    10  H    0.000000   0.000000   0.000000   0.870997   0.000000   0.000000
    11  C    0.000000   0.000000   0.000000   0.000000   4.258948   0.000000
    12  H    0.000000   0.000000   0.000000   0.000000   0.000000   0.868483
    13  H    0.000000   0.000000   0.000000   0.000000   0.000000   0.000000
    14  C    0.000000   0.000000   0.000000   0.000000   0.000000   0.000000
    15  H    0.000000   0.000000   0.000000   0.000000   0.000000   0.000000
    16  H    0.000000   0.000000   0.000000   0.000000   0.000000   0.000000
    17  C    0.000000   0.000000   0.000000   0.000000   0.000000   0.000000
    18  H    0.000000   0.000000   0.000000   0.000000   0.000000   0.000000
    19  H    0.000000   0.000000   0.000000   0.000000   0.000000   0.000000
    20  H    0.000000   0.000000   0.000000   0.000000   0.000000   0.000000
             13         14         15         16         17         18
     1  C    0.000000   0.000000   0.000000   0.000000   0.000000   0.000000
     2  H    0.000000   0.000000   0.000000   0.000000   0.000000   0.000000
     3  H    0.000000   0.000000   0.000000   0.000000   0.000000   0.000000
     4  H    0.000000   0.000000   0.000000   0.000000   0.000000   0.000000
     5  C    0.000000   0.000000   0.000000   0.000000   0.000000   0.000000
     6  H    0.000000   0.000000   0.000000   0.000000   0.000000   0.000000
     7  H    0.000000   0.000000   0.000000   0.000000   0.000000   0.000000
     8  C    0.000000   0.000000   0.000000   0.000000   0.000000   0.000000
     9  H    0.000000   0.000000   0.000000   0.000000   0.000000   0.000000
    10  H    0.000000   0.000000   0.000000   0.000000   0.000000   0.000000
    11  C    0.000000   0.000000   0.000000   0.000000   0.000000   0.000000
    12  H    0.000000   0.000000   0.000000   0.000000   0.000000   0.000000
    13  H    0.870997   0.000000   0.000000   0.000000   0.000000   0.000000
    14  C    0.000000   4.229531   0.000000   0.000000   0.000000   0.000000
    15  H    0.000000   0.000000   0.876956   0.000000   0.000000   0.000000
    16  H    0.000000   0.000000   0.000000   0.872940   0.000000   0.000000
    17  C    0.000000   0.000000   0.000000   0.000000   4.457828   0.000000
    18  H    0.000000   0.000000   0.000000   0.000000   0.000000   0.853176
    19  H    0.000000   0.000000   0.000000   0.000000   0.000000   0.000000
    20  H    0.000000   0.000000   0.000000   0.000000   0.000000   0.000000
             19         20
     1  C    0.000000   0.000000
     2  H    0.000000   0.000000
     3  H    0.000000   0.000000
     4  H    0.000000   0.000000
     5  C    0.000000   0.000000
     6  H    0.000000   0.000000
     7  H    0.000000   0.000000
     8  C    0.000000   0.000000
     9  H    0.000000   0.000000
    10  H    0.000000   0.000000
    11  C    0.000000   0.000000
    12  H    0.000000   0.000000
    13  H    0.000000   0.000000
    14  C    0.000000   0.000000
    15  H    0.000000   0.000000
    16  H    0.000000   0.000000
    17  C    0.000000   0.000000
    18  H    0.000000   0.000000
    19  H    0.858480   0.000000
    20  H    0.000000   0.852652
 Mulliken atomic charges:
              1
     1  C   -0.457823
     2  H    0.147345
     3  H    0.146826
     4  H    0.141522
     5  C   -0.229535
     6  H    0.127062
     7  H    0.123042
     8  C   -0.258964
     9  H    0.131515
    10  H    0.129003
    11  C   -0.258948
    12  H    0.131517
    13  H    0.129003
    14  C   -0.229531
    15  H    0.123044
    16  H    0.127060
    17  C   -0.457828
    18  H    0.146824
    19  H    0.141520
    20  H    0.147348
 Sum of Mulliken atomic charges =   0.00000
 Mulliken charges with hydrogens summed into heavy atoms:
              1
     1  C   -0.022130
     5  C    0.020569
     8  C    0.001554
    11  C    0.001572
    14  C    0.020572
    17  C   -0.022137
 Sum of Mulliken charges with hydrogens summed into heavy atoms =   0.00000
 Charge=              0.0000 electrons
 Dipole moment (field-independent basis, Debye):
    X=             -0.0001    Y=             -0.0001    Z=              0.0002  Tot=              0.0002
 N-N= 1.633882529874D+02 E-N=-2.479868417085D+02  KE=-5.603512786522D+01
 Leave Link  601 at Mon Sep 14 19:12:12 2015, MaxMem=  402653184 cpu:       0.0
 (Enter /share/apps/g09/l701.exe)
 Compute integral first derivatives.
 ... and contract with generalized density number  0.
 Leave Link  701 at Mon Sep 14 19:12:13 2015, MaxMem=  402653184 cpu:       0.1
 (Enter /share/apps/g09/l702.exe)
 L702 exits ... SP integral derivatives will be done elsewhere.
 Leave Link  702 at Mon Sep 14 19:12:15 2015, MaxMem=  402653184 cpu:       0.1
 (Enter /share/apps/g09/l703.exe)
 Compute integral first derivatives, UseDBF=F ICtDFT=           0.
 Integral derivatives from FoFDir, PRISM(SPDF).
 Calling FoFJK, ICntrl=      2127 FMM=F ISym2X=0 I1Cent= 0 IOpClX= 0 NMat=1 NMatS=1 NMatT=0.
 FoFCou: FMM=F IPFlag=           0 FMFlag=      100000 FMFlg1=         800
         NFxFlg=           0 DoJE=F BraDBF=F KetDBF=F FulRan=T
         Omega=  0.000000  0.000000  1.000000  0.000000  0.000000 ICntrl=    2127 IOpCl=  0
         NMat0=    1 NMatS0=    1 NMatT0=    0 NMatD0=    1 NMtDS0=    0 NMtDT0=    0
         I1Cent=           0 NGrid=           0.
 Symmetry not used in FoFCou.
 Leave Link  703 at Mon Sep 14 19:12:15 2015, MaxMem=  402653184 cpu:       0.0
 (Enter /share/apps/g09/l716.exe)
 Dipole        =-4.88222766D-05-3.71689635D-05 7.57708866D-05
 ***** Axes restored to original set *****
 -------------------------------------------------------------------
 Center     Atomic                   Forces (Hartrees/Bohr)
 Number     Number              X              Y              Z
 -------------------------------------------------------------------
      1        6           0.002618552   -0.000916897    0.000124282
      2        1           0.001801382    0.002424020    0.010004089
      3        1          -0.000599269    0.005884481   -0.008083457
      4        1          -0.004068450   -0.008776164   -0.001640645
      5        6           0.001534243    0.000213718    0.000548309
      6        1          -0.000465573   -0.000033341   -0.004408360
      7        1          -0.000917632   -0.000542841    0.003969529
      8        6          -0.002109834   -0.000837622    0.000147191
      9        1          -0.002039338    0.001631448    0.004409873
     10        1           0.000623117   -0.003461828   -0.002851941
     11        6           0.002106891    0.000835324   -0.000169307
     12        1           0.002038522   -0.001637626   -0.004413195
     13        1          -0.000625299    0.003462436    0.002860023
     14        6          -0.001541835   -0.000210752   -0.000467533
     15        1           0.000915978    0.000558068   -0.003988639
     16        1           0.000477035    0.000023826    0.004369876
     17        6          -0.002612452    0.000901025   -0.000085755
     18        1           0.000591148   -0.005862631    0.008066382
     19        1           0.004068057    0.008775277    0.001638642
     20        1          -0.001795245   -0.002429922   -0.010029364
 -------------------------------------------------------------------
 Cartesian Forces:  Max     0.010029364 RMS     0.003672309
 Leave Link  716 at Mon Sep 14 19:12:15 2015, MaxMem=  402653184 cpu:       0.1
 (Enter /share/apps/g09/l103.exe)

 GradGradGradGradGradGradGradGradGradGradGradGradGradGradGradGradGradGrad
 Berny optimization.
 Internal  Forces:  Max     0.010094509 RMS     0.003115235
 Search for a local minimum.
 Step number   1 out of a maximum of  110
 All quantities printed in internal units (Hartrees-Bohrs-Radians)
 RMS Force = .31152D-02 SwitMx=.10000D-02 MixMth= 1
 Mixed Optimization -- RFO/linear search
 Second derivative matrix not updated -- first step.
     Eigenvalues ---    0.00270   0.00290   0.00290   0.00390   0.00390
     Eigenvalues ---    0.03386   0.03386   0.03397   0.03397   0.04791
     Eigenvalues ---    0.04791   0.04826   0.04826   0.05588   0.05589
     Eigenvalues ---    0.05771   0.05771   0.08459   0.08460   0.08549
     Eigenvalues ---    0.08550   0.12309   0.12309   0.12369   0.12369
     Eigenvalues ---    0.16000   0.16000   0.16000   0.16000   0.16000
     Eigenvalues ---    0.16000   0.21990   0.21990   0.21992   0.21992
     Eigenvalues ---    0.28741   0.28877   0.28879   0.29570   0.29571
     Eigenvalues ---    0.32084   0.32084   0.32091   0.32097   0.32103
     Eigenvalues ---    0.32113   0.32204   0.32205   0.32212   0.32217
     Eigenvalues ---    0.32236   0.32236   0.32306   0.323131000.00000
     Eigenvalues --- 1000.000001000.000001000.000001000.000001000.00000
     Eigenvalues --- 1000.000001000.000001000.000001000.000001000.00000
     Eigenvalues --- 1000.000001000.000001000.000001000.000001000.00000
     Eigenvalues --- 1000.000001000.000001000.000001000.000001000.00000
     Eigenvalues --- 1000.000001000.000001000.000001000.000001000.00000
     Eigenvalues --- 1000.000001000.000001000.000001000.000001000.00000
     Eigenvalues --- 1000.000001000.000001000.000001000.000001000.00000
     Eigenvalues --- 1000.000001000.000001000.000001000.000001000.00000
     Eigenvalues --- 1000.000001000.000001000.000001000.000001000.00000
 RFO step:  Lambda=-4.05894579D-03 EMin= 2.69776803D-03
 Linear search not attempted -- first point.
 Iteration  1 RMS(Cart)=  0.03420868 RMS(Int)=  0.00044001
 Iteration  2 RMS(Cart)=  0.00053181 RMS(Int)=  0.00008201
 Iteration  3 RMS(Cart)=  0.00000019 RMS(Int)=  0.00008201
 Variable       Old X    -DE/DX   Delta X   Delta X   Delta X     New X
                                 (Linear)    (Quad)   (Total)
    R1        2.10448  -0.01007   0.00000  -0.03086  -0.03086   2.07362
    R2        2.10287  -0.00969   0.00000  -0.02961  -0.02961   2.07326
    R3        2.10413  -0.00931   0.00000  -0.02853  -0.02853   2.07560
    R4        2.88826   0.00021   0.00000   0.00072   0.00072   2.88898
    R5        2.10656  -0.00416   0.00000  -0.01281  -0.01281   2.09375
    R6        2.10667  -0.00267   0.00000  -0.00821  -0.00821   2.09846
    R7        2.90257  -0.00110   0.00000  -0.00375  -0.00375   2.89882
    R8        2.10691  -0.00484   0.00000  -0.01490  -0.01490   2.09201
    R9        2.10470  -0.00253   0.00000  -0.00775  -0.00775   2.09695
   R10        2.90547  -0.00495   0.00000  -0.01698  -0.01698   2.88849
   R11        2.10691  -0.00485   0.00000  -0.01492  -0.01492   2.09199
   R12        2.10472  -0.00253   0.00000  -0.00776  -0.00776   2.09695
   R13        2.90261  -0.00111   0.00000  -0.00379  -0.00379   2.89882
   R14        2.10678  -0.00269   0.00000  -0.00829  -0.00829   2.09850
   R15        2.10637  -0.00412   0.00000  -0.01268  -0.01268   2.09369
   R16        2.88829   0.00021   0.00000   0.00070   0.00070   2.88900
   R17        2.10274  -0.00966   0.00000  -0.02952  -0.02952   2.07323
   R18        2.10413  -0.00931   0.00000  -0.02853  -0.02853   2.07560
   R19        2.10459  -0.01009   0.00000  -0.03095  -0.03095   2.07364
    A1        1.90744  -0.00316   0.00000  -0.02570  -0.02568   1.88175
    A2        1.89597  -0.00286   0.00000  -0.01438  -0.01465   1.88133
    A3        1.92833   0.00258   0.00000   0.01384   0.01371   1.94204
    A4        1.88824  -0.00243   0.00000  -0.01116  -0.01138   1.87686
    A5        1.93351   0.00188   0.00000   0.00990   0.00980   1.94331
    A6        1.90952   0.00378   0.00000   0.02648   0.02623   1.93575
    A7        1.90589   0.00146   0.00000   0.00319   0.00309   1.90898
    A8        1.88055   0.00237   0.00000   0.02370   0.02372   1.90427
    A9        1.99509  -0.00397   0.00000  -0.01471  -0.01473   1.98036
   A10        1.87909  -0.00180   0.00000  -0.01889  -0.01888   1.86020
   A11        1.91528   0.00083   0.00000  -0.00456  -0.00459   1.91069
   A12        1.88421   0.00118   0.00000   0.01120   0.01125   1.89546
   A13        1.90845   0.00180   0.00000   0.00548   0.00531   1.91376
   A14        1.86674   0.00347   0.00000   0.03266   0.03268   1.89942
   A15        1.98910  -0.00509   0.00000  -0.01962  -0.01961   1.96949
   A16        1.88205  -0.00206   0.00000  -0.01991  -0.02001   1.86205
   A17        1.91417   0.00121   0.00000  -0.00445  -0.00449   1.90968
   A18        1.89998   0.00079   0.00000   0.00621   0.00634   1.90632
   A19        1.91417   0.00121   0.00000  -0.00445  -0.00449   1.90968
   A20        1.89992   0.00079   0.00000   0.00627   0.00639   1.90631
   A21        1.98905  -0.00509   0.00000  -0.01958  -0.01958   1.96947
   A22        1.88214  -0.00206   0.00000  -0.01995  -0.02005   1.86209
   A23        1.90851   0.00179   0.00000   0.00541   0.00524   1.91376
   A24        1.86671   0.00347   0.00000   0.03268   0.03270   1.89941
   A25        1.88413   0.00118   0.00000   0.01125   0.01129   1.89542
   A26        1.91543   0.00083   0.00000  -0.00467  -0.00470   1.91073
   A27        1.99506  -0.00396   0.00000  -0.01469  -0.01472   1.98034
   A28        1.87914  -0.00180   0.00000  -0.01891  -0.01891   1.86024
   A29        1.88047   0.00237   0.00000   0.02376   0.02378   1.90425
   A30        1.90588   0.00147   0.00000   0.00322   0.00311   1.90900
   A31        1.93350   0.00189   0.00000   0.00993   0.00982   1.94332
   A32        1.90951   0.00378   0.00000   0.02649   0.02624   1.93575
   A33        1.92835   0.00258   0.00000   0.01380   0.01367   1.94202
   A34        1.88826  -0.00244   0.00000  -0.01116  -0.01138   1.87689
   A35        1.90748  -0.00316   0.00000  -0.02573  -0.02571   1.88177
   A36        1.89590  -0.00286   0.00000  -0.01435  -0.01461   1.88128
    D1        3.08138  -0.00059   0.00000  -0.00104  -0.00113   3.08025
    D2       -1.16558  -0.00065   0.00000  -0.00868  -0.00874  -1.17432
    D3        0.92857   0.00002   0.00000   0.01297   0.01289   0.94146
    D4        0.96498   0.00040   0.00000   0.01547   0.01552   0.98050
    D5        3.00120   0.00034   0.00000   0.00783   0.00790   3.00911
    D6       -1.18783   0.00101   0.00000   0.02948   0.02954  -1.15830
    D7       -1.11524  -0.00015   0.00000   0.00642   0.00642  -1.10882
    D8        0.92099  -0.00020   0.00000  -0.00122  -0.00119   0.91979
    D9        3.01513   0.00047   0.00000   0.02043   0.02044   3.03557
   D10       -0.96143  -0.00013   0.00000  -0.00065  -0.00059  -0.96202
   D11       -2.99495  -0.00052   0.00000   0.00221   0.00218  -2.99277
   D12        1.18761  -0.00080   0.00000  -0.01621  -0.01616   1.17145
   D13       -3.10917   0.00017   0.00000   0.00929   0.00930  -3.09987
   D14        1.14050  -0.00023   0.00000   0.01215   0.01206   1.15257
   D15       -0.96013  -0.00050   0.00000  -0.00626  -0.00627  -0.96640
   D16        1.13067   0.00119   0.00000   0.02799   0.02803   1.15870
   D17       -0.90284   0.00080   0.00000   0.03085   0.03079  -0.87205
   D18       -3.00347   0.00052   0.00000   0.01243   0.01246  -2.99101
   D19        0.99566   0.00036   0.00000   0.01025   0.01018   1.00584
   D20       -1.05978   0.00169   0.00000   0.03324   0.03320  -1.02657
   D21       -3.14155   0.00000   0.00000  -0.00005  -0.00005   3.14159
   D22        3.14159   0.00000   0.00000   0.00001   0.00001  -3.14158
   D23        1.08615   0.00133   0.00000   0.02300   0.02304   1.10919
   D24       -0.99562  -0.00037   0.00000  -0.01029  -0.01021  -1.00584
   D25       -1.08622  -0.00133   0.00000  -0.02295  -0.02299  -1.10921
   D26        3.14152   0.00000   0.00000   0.00003   0.00003   3.14156
   D27        1.05975  -0.00169   0.00000  -0.03325  -0.03322   1.02654
   D28        3.00354  -0.00052   0.00000  -0.01246  -0.01248   2.99106
   D29        0.96009   0.00050   0.00000   0.00630   0.00631   0.96640
   D30       -1.18772   0.00080   0.00000   0.01629   0.01624  -1.17148
   D31       -1.13059  -0.00119   0.00000  -0.02804  -0.02808  -1.15867
   D32        3.10914  -0.00016   0.00000  -0.00928  -0.00928   3.09986
   D33        0.96133   0.00013   0.00000   0.00071   0.00064   0.96198
   D34        0.90304  -0.00080   0.00000  -0.03097  -0.03092   0.87212
   D35       -1.14042   0.00023   0.00000  -0.01221  -0.01212  -1.15254
   D36        2.99496   0.00052   0.00000  -0.00222  -0.00219   2.99277
   D37        1.18788  -0.00101   0.00000  -0.02956  -0.02962   1.15826
   D38       -3.01506  -0.00047   0.00000  -0.02050  -0.02050  -3.03556
   D39       -0.92858  -0.00002   0.00000  -0.01301  -0.01293  -0.94152
   D40       -3.00133  -0.00034   0.00000  -0.00782  -0.00789  -3.00922
   D41       -0.92109   0.00020   0.00000   0.00125   0.00123  -0.91986
   D42        1.16539   0.00065   0.00000   0.00874   0.00880   1.17419
   D43       -0.96508  -0.00039   0.00000  -0.01544  -0.01549  -0.98058
   D44        1.11516   0.00015   0.00000  -0.00637  -0.00637   1.10878
   D45       -3.08155   0.00060   0.00000   0.00111   0.00119  -3.08036
         Item               Value     Threshold  Converged?
 Maximum Force            0.010095     0.000450     NO 
 RMS     Force            0.003115     0.000300     NO 
 Maximum Displacement     0.110821     0.001800     NO 
 RMS     Displacement     0.034273     0.001200     NO 
 Predicted change in Energy=-2.088416D-03
 GradGradGradGradGradGradGradGradGradGradGradGradGradGradGradGradGradGrad

 Leave Link  103 at Mon Sep 14 19:12:15 2015, MaxMem=  402653184 cpu:       0.1
 (Enter /share/apps/g09/l202.exe)
                          Input orientation:                          
 ---------------------------------------------------------------------
 Center     Atomic      Atomic             Coordinates (Angstroms)
 Number     Number       Type             X           Y           Z
 ---------------------------------------------------------------------
      1          6           0        1.689544    2.080268   -0.732759
      2          1           0        1.766763    1.672095   -1.748398
      3          1           0        1.923568    1.272846   -0.027796
      4          1           0        2.463510    2.851596   -0.621294
      5          6           0        0.299357    2.660626   -0.472492
      6          1           0        0.235808    3.005381    0.578552
      7          1           0        0.155153    3.558497   -1.109791
      8          6           0       -0.838380    1.671519   -0.755953
      9          1           0       -0.752360    1.292253   -1.792440
     10          1           0       -1.805967    2.211150   -0.693386
     11          6           0       -0.855825    0.492546    0.216728
     12          1           0       -0.941858    0.871809    1.253205
     13          1           0        0.111754   -0.047101    0.154128
     14          6           0       -1.993571   -0.496540   -0.066748
     15          1           0       -1.849370   -1.394399    0.570603
     16          1           0       -1.930059   -0.841301   -1.117758
     17          6           0       -3.383745    0.083852    0.193568
     18          1           0       -3.617755    0.891316   -0.511328
     19          1           0       -4.157734   -0.687456    0.082103
     20          1           0       -3.460932    0.491941    1.209255
 ---------------------------------------------------------------------
                    Distance matrix (angstroms):
                    1          2          3          4          5
     1  C    0.000000
     2  H    1.097312   0.000000
     3  H    1.097120   1.773263   0.000000
     4  H    1.098360   1.773991   1.770941   0.000000
     5  C    1.528781   2.181378   2.182143   2.177652   0.000000
     6  H    2.165345   3.088070   2.493565   2.534943   1.107966
     7  H    2.163716   2.561956   3.085807   2.463098   1.110458
     8  C    2.560862   2.787780   2.884009   3.509017   1.533992
     9  H    2.776109   2.547979   3.205454   3.760978   2.172744
    10  H    3.498181   3.764044   3.902929   4.317847   2.164073
    11  C    3.146631   3.482961   2.897185   4.157569   2.551478
    12  H    3.511225   4.121493   3.164247   4.362320   2.778221
    13  H    2.793150   3.051933   2.249005   3.812412   2.785612
    14  C    4.544100   4.655216   4.298397   5.602063   3.922990
    15  H    5.127960   5.278027   4.659113   6.168470   4.706198
    16  H    4.667474   4.514571   4.528583   5.760852   4.201209
    17  C    5.530101   5.729003   5.443369   6.520337   4.544077
    18  H    5.443350   5.579694   5.575448   6.390350   4.298341
    19  H    6.520349   6.634597   6.390390   7.540592   5.602043
    20  H    5.729014   6.121215   5.579691   6.634599   4.655238
                    6          7          8          9         10
     6  H    0.000000
     7  H    1.778468   0.000000
     8  C    2.171169   2.161712   0.000000
     9  H    3.087537   2.534847   1.107044   0.000000
    10  H    2.533273   2.415518   1.109658   1.778308   0.000000
    11  C    2.763497   3.490241   1.528525   2.164946   2.164411
    12  H    2.528672   3.742389   2.164939   3.080363   2.515897
    13  H    3.084342   3.820957   2.164406   2.515887   3.081498
    14  C    4.201189   4.706196   2.551460   2.778201   2.785580
    15  H    4.868890   5.601161   3.490229   3.742392   3.820934
    16  H    4.729208   4.868921   2.763498   2.528680   3.084306
    17  C    4.667409   5.127933   3.146610   3.511217   2.793111
    18  H    4.528472   4.659060   2.897150   3.164251   2.248930
    19  H    5.760791   6.168446   4.157548   4.362309   3.812363
    20  H    4.514538   5.278050   3.482991   4.121533   3.051989
                   11         12         13         14         15
    11  C    0.000000
    12  H    1.107035   0.000000
    13  H    1.109660   1.778331   0.000000
    14  C    1.533987   2.172730   2.164064   0.000000
    15  H    2.161694   2.534802   2.415506   1.110478   0.000000
    16  H    2.171170   3.087515   2.533268   1.107933   1.778479
    17  C    2.560849   2.776062   3.498173   1.528790   2.163721
    18  H    2.883980   3.205367   3.902908   2.182147   3.085814
    19  H    3.509008   3.760937   4.317843   2.177661   2.463117
    20  H    2.787776   2.547934   3.764033   2.181381   2.561891
                   16         17         18         19         20
    16  H    0.000000
    17  C    2.165337   0.000000
    18  H    2.493599   1.097104   0.000000
    19  H    2.534930   1.098362   1.770948   0.000000
    20  H    3.088057   1.097322   1.773273   1.773973   0.000000
 Stoichiometry    C6H14
 Framework group  C1[X(C6H14)]
 Deg. of freedom    54
 Full point group                 C1      NOp   1
 Largest Abelian subgroup         C1      NOp   1
 Largest concise Abelian subgroup C1      NOp   1
                         Standard orientation:                         
 ---------------------------------------------------------------------
 Center     Atomic      Atomic             Coordinates (Angstroms)
 Number     Number       Type             X           Y           Z
 ---------------------------------------------------------------------
      1          6           0        2.720836   -0.485630   -0.082214
      2          1           0        2.741404   -0.721991   -1.153570
      3          1           0        2.379198   -1.380637    0.452498
      4          1           0        3.752198   -0.283132    0.236661
      5          6           0        1.815941    0.712867    0.204043
      6          1           0        1.767907    0.884308    1.297610
      7          1           0        2.268674    1.624419   -0.240055
      8          6           0        0.395081    0.551909   -0.351278
      9          1           0        0.441537    0.337643   -1.436395
     10          1           0       -0.144371    1.515151   -0.239498
     11          6           0       -0.395090   -0.551929    0.351259
     12          1           0       -0.441556   -0.337657    1.436365
     13          1           0        0.144354   -1.515176    0.239443
     14          6           0       -1.815943   -0.712863   -0.204072
     15          1           0       -2.268681   -1.624411    0.240079
     16          1           0       -1.767949   -0.884294   -1.297609
     17          6           0       -2.720817    0.485648    0.082240
     18          1           0       -2.379158    1.380672   -0.452396
     19          1           0       -3.752189    0.283179   -0.236631
     20          1           0       -2.741411    0.721915    1.153627
 ---------------------------------------------------------------------
 Rotational constants (GHZ):      8.8552356      1.4533354      1.3491923
 Leave Link  202 at Mon Sep 14 19:12:17 2015, MaxMem=  402653184 cpu:       0.0
 (Enter /share/apps/g09/l301.exe)
 Standard basis: VSTO-6G (5D, 7F)
 Ernie: Thresh=  0.10000D-02 Tol=  0.10000D-05 Strict=F.
  NNHCO=     0 NNPyr=     0 NCTC=     0               EPep=         0.000000000
    EC=       126.671813876  ECS=         3.220314872   EG=         0.309699917
   EHC=         0.000452201  EAt=       -31.187935768  AtH=         2.796400831
 EPDDG=         0.000000000  ECC=       130.202280865 EAtT=        33.984336599
 There are    38 symmetry adapted basis functions of A   symmetry.
 Integral buffers will be    131072 words long.
 Regular integral format.
 Two-electron integral symmetry is turned off.
    38 basis functions,   228 primitive gaussians,    38 cartesian basis functions
    19 alpha electrons       19 beta electrons
       nuclear repulsion energy       164.1866174644 Hartrees.
 IExCor=    0 DFT=F Ex=HF Corr=None ExCW=0 ScaHFX=  1.000000
 ScaDFX=  1.000000  1.000000  1.000000  1.000000 ScalE2=  1.000000  1.000000
 IRadAn=      0 IRanWt=     -1 IRanGd=            0 ICorTp=0
 Leave Link  301 at Mon Sep 14 19:12:17 2015, MaxMem=  402653184 cpu:       0.1
 (Enter /share/apps/g09/l302.exe)
 Do NDO integrals.
 NPDir=0 NMtPBC=     1 NCelOv=     1 NCel=       1 NClECP=     1 NCelD=      1
         NCelK=      1 NCelE2=     1 NClLst=     1 CellRange=     0.0.
 One-electron integrals computed using PRISM.
 NBasis=    38 RedAO= F  NBF=    38
 NBsUse=    38 1.00D-04 NBFU=    38
 Leave Link  302 at Mon Sep 14 19:12:22 2015, MaxMem=  402653184 cpu:       0.1
 (Enter /share/apps/g09/l303.exe)
 DipDrv:  MaxL=1.
 Leave Link  303 at Mon Sep 14 19:12:24 2015, MaxMem=  402653184 cpu:       0.0
 (Enter /share/apps/g09/l401.exe)
 Initial guess read from the read-write file.
 B after Tr=     0.000000    0.000000    0.000000
         Rot=    1.000000    0.000000    0.000000    0.000000 Ang=   0.00 deg.
 Guess basis will be translated and rotated to current coordinates.
 Initial guess orbital symmetries:
       Occupied  (A) (A) (A) (A) (A) (A) (A) (A) (A) (A) (A) (A)
                 (A) (A) (A) (A) (A) (A) (A)
       Virtual   (A) (A) (A) (A) (A) (A) (A) (A) (A) (A) (A) (A)
                 (A) (A) (A) (A) (A) (A) (A)
 The electronic state of the initial guess is 1-A.
 Leave Link  401 at Mon Sep 14 19:12:26 2015, MaxMem=  402653184 cpu:       0.2
 (Enter /share/apps/g09/l502.exe)
 Closed shell SCF:
 Requested convergence on RMS density matrix=1.00D-08 within 128 cycles.
 Requested convergence on MAX density matrix=1.00D-06.
 Requested convergence on             energy=1.00D-06.
 No special actions if energy rises.
 Using DIIS extrapolation, IDIIS=  1040.
 Overlap will be assumed to be unity.
 Two-electron integral symmetry not used.
 Keep J ints in memory in canonical form, NReq=884654.
 IEnd=       81865 IEndB=       81865 NGot=   402653184 MDV=   402586639
 LenX=   402586639 LenY=   402584754
 Symmetry not used in FoFDir.
 MinBra= 0 MaxBra= 1 Meth=40.
 IRaf=       0 NMat=   1 IRICut=       1 DoRegI=T DoRafI=F ISym2E= 0 JSym2E=0.

 Cycle   1  Pass 1  IDiag  1:
 E=-0.537881964781946E-01
 DIIS: error= 2.31D-03 at cycle   1 NSaved=   1.
 NSaved= 1 IEnMin= 1 EnMin=-0.537881964781946E-01 IErMin= 1 ErrMin= 2.31D-03
 ErrMax= 2.31D-03 EMaxC= 1.00D-01 BMatC= 3.01D-04 BMatP= 3.01D-04
 IDIUse=3 WtCom= 9.77D-01 WtEn= 2.31D-02
 Coeff-Com:  0.100D+01
 Coeff-En:   0.100D+01
 Coeff:      0.100D+01
 GapD=    2.000 DampG=2.000 DampE=1.000 DampFc=2.0000 IDamp=-1.
 RMSDP=8.35D-04 MaxDP=5.94D-03              OVMax= 0.00D+00

 Cycle   2  Pass 1  IDiag  3:
 E=-0.548653731805757E-01 Delta-E=       -0.001077176702 Rises=F Damp=F
 DIIS: error= 9.91D-04 at cycle   2 NSaved=   2.
 NSaved= 2 IEnMin= 2 EnMin=-0.548653731805757E-01 IErMin= 2 ErrMin= 9.91D-04
 ErrMax= 9.91D-04 EMaxC= 1.00D-01 BMatC= 4.92D-05 BMatP= 3.01D-04
 IDIUse=3 WtCom= 9.90D-01 WtEn= 9.91D-03
 Coeff-Com: -0.606D+00 0.161D+01
 Coeff-En:   0.000D+00 0.100D+01
 Coeff:     -0.600D+00 0.160D+01
 Gap=     0.557 Goal=   None    Shift=    0.000
 RMSDP=5.79D-04 MaxDP=4.30D-03 DE=-1.08D-03 OVMax= 0.00D+00

 Cycle   3  Pass 1  IDiag  3:
 E=-0.551044337862834E-01 Delta-E=       -0.000239060606 Rises=F Damp=F
 DIIS: error= 1.24D-04 at cycle   3 NSaved=   3.
 NSaved= 3 IEnMin= 3 EnMin=-0.551044337862834E-01 IErMin= 3 ErrMin= 1.24D-04
 ErrMax= 1.24D-04 EMaxC= 1.00D-01 BMatC= 9.91D-07 BMatP= 4.92D-05
 IDIUse=3 WtCom= 9.99D-01 WtEn= 1.24D-03
 Coeff-Com:  0.244D+00-0.725D+00 0.148D+01
 Coeff-En:   0.000D+00 0.000D+00 0.100D+01
 Coeff:      0.243D+00-0.724D+00 0.148D+01
 Gap=     0.557 Goal=   None    Shift=    0.000
 RMSDP=9.47D-05 MaxDP=6.35D-04 DE=-2.39D-04 OVMax= 0.00D+00

 Cycle   4  Pass 1  IDiag  3:
 E=-0.551096896578542E-01 Delta-E=       -0.000005255872 Rises=F Damp=F
 DIIS: error= 1.39D-05 at cycle   4 NSaved=   4.
 NSaved= 4 IEnMin= 4 EnMin=-0.551096896578542E-01 IErMin= 4 ErrMin= 1.39D-05
 ErrMax= 1.39D-05 EMaxC= 1.00D-01 BMatC= 1.85D-08 BMatP= 9.91D-07
 IDIUse=1 WtCom= 1.00D+00 WtEn= 0.00D+00
 Coeff-Com: -0.103D+00 0.309D+00-0.673D+00 0.147D+01
 Coeff:     -0.103D+00 0.309D+00-0.673D+00 0.147D+01
 Gap=     0.557 Goal=   None    Shift=    0.000
 RMSDP=1.17D-05 MaxDP=8.47D-05 DE=-5.26D-06 OVMax= 0.00D+00

 Cycle   5  Pass 1  IDiag  3:
 E=-0.551097977074164E-01 Delta-E=       -0.000000108050 Rises=F Damp=F
 DIIS: error= 5.85D-06 at cycle   5 NSaved=   5.
 NSaved= 5 IEnMin= 5 EnMin=-0.551097977074164E-01 IErMin= 5 ErrMin= 5.85D-06
 ErrMax= 5.85D-06 EMaxC= 1.00D-01 BMatC= 2.53D-09 BMatP= 1.85D-08
 IDIUse=1 WtCom= 1.00D+00 WtEn= 0.00D+00
 Coeff-Com:  0.692D-01-0.208D+00 0.460D+00-0.123D+01 0.191D+01
 Coeff:      0.692D-01-0.208D+00 0.460D+00-0.123D+01 0.191D+01
 Gap=     0.557 Goal=   None    Shift=    0.000
 RMSDP=6.02D-06 MaxDP=4.97D-05 DE=-1.08D-07 OVMax= 0.00D+00

 Cycle   6  Pass 1  IDiag  3:
 E=-0.551098171258957E-01 Delta-E=       -0.000000019418 Rises=F Damp=F
 DIIS: error= 1.55D-06 at cycle   6 NSaved=   6.
 NSaved= 6 IEnMin= 6 EnMin=-0.551098171258957E-01 IErMin= 6 ErrMin= 1.55D-06
 ErrMax= 1.55D-06 EMaxC= 1.00D-01 BMatC= 1.95D-10 BMatP= 2.53D-09
 IDIUse=1 WtCom= 1.00D+00 WtEn= 0.00D+00
 Coeff-Com: -0.329D-01 0.986D-01-0.219D+00 0.615D+00-0.118D+01 0.172D+01
 Coeff:     -0.329D-01 0.986D-01-0.219D+00 0.615D+00-0.118D+01 0.172D+01
 Gap=     0.557 Goal=   None    Shift=    0.000
 RMSDP=1.84D-06 MaxDP=1.74D-05 DE=-1.94D-08 OVMax= 0.00D+00

 Cycle   7  Pass 1  IDiag  3:
 E=-0.551098186175238E-01 Delta-E=       -0.000000001492 Rises=F Damp=F
 DIIS: error= 2.97D-07 at cycle   7 NSaved=   7.
 NSaved= 7 IEnMin= 7 EnMin=-0.551098186175238E-01 IErMin= 7 ErrMin= 2.97D-07
 ErrMax= 2.97D-07 EMaxC= 1.00D-01 BMatC= 7.17D-12 BMatP= 1.95D-10
 IDIUse=1 WtCom= 1.00D+00 WtEn= 0.00D+00
 Coeff-Com:  0.109D-01-0.326D-01 0.725D-01-0.206D+00 0.420D+00-0.750D+00
 Coeff-Com:  0.149D+01
 Coeff:      0.109D-01-0.326D-01 0.725D-01-0.206D+00 0.420D+00-0.750D+00
 Coeff:      0.149D+01
 Gap=     0.557 Goal=   None    Shift=    0.000
 RMSDP=2.89D-07 MaxDP=2.54D-06 DE=-1.49D-09 OVMax= 0.00D+00

 Cycle   8  Pass 1  IDiag  3:
 E=-0.551098186625723E-01 Delta-E=       -0.000000000045 Rises=F Damp=F
 DIIS: error= 6.28D-08 at cycle   8 NSaved=   8.
 NSaved= 8 IEnMin= 8 EnMin=-0.551098186625723E-01 IErMin= 8 ErrMin= 6.28D-08
 ErrMax= 6.28D-08 EMaxC= 1.00D-01 BMatC= 2.67D-13 BMatP= 7.17D-12
 IDIUse=1 WtCom= 1.00D+00 WtEn= 0.00D+00
 Coeff-Com: -0.247D-02 0.738D-02-0.164D-01 0.467D-01-0.974D-01 0.184D+00
 Coeff-Com: -0.499D+00 0.138D+01
 Coeff:     -0.247D-02 0.738D-02-0.164D-01 0.467D-01-0.974D-01 0.184D+00
 Coeff:     -0.499D+00 0.138D+01
 Gap=     0.557 Goal=   None    Shift=    0.000
 RMSDP=5.03D-08 MaxDP=3.64D-07 DE=-4.50D-11 OVMax= 0.00D+00

 Cycle   9  Pass 1  IDiag  3:
 E=-0.551098186641923E-01 Delta-E=       -0.000000000002 Rises=F Damp=F
 DIIS: error= 1.30D-08 at cycle   9 NSaved=   9.
 NSaved= 9 IEnMin= 9 EnMin=-0.551098186641923E-01 IErMin= 9 ErrMin= 1.30D-08
 ErrMax= 1.30D-08 EMaxC= 1.00D-01 BMatC= 1.23D-14 BMatP= 2.67D-13
 IDIUse=1 WtCom= 1.00D+00 WtEn= 0.00D+00
 Coeff-Com:  0.412D-03-0.123D-02 0.272D-02-0.788D-02 0.170D-01-0.337D-01
 Coeff-Com:  0.111D+00-0.479D+00 0.139D+01
 Coeff:      0.412D-03-0.123D-02 0.272D-02-0.788D-02 0.170D-01-0.337D-01
 Coeff:      0.111D+00-0.479D+00 0.139D+01
 Gap=     0.557 Goal=   None    Shift=    0.000
 RMSDP=1.01D-08 MaxDP=6.20D-08 DE=-1.62D-12 OVMax= 0.00D+00

 Cycle  10  Pass 1  IDiag  3:
 E=-0.551098186641354E-01 Delta-E=        0.000000000000 Rises=F Damp=F
 DIIS: error= 3.15D-09 at cycle  10 NSaved=  10.
 NSaved=10 IEnMin= 9 EnMin=-0.551098186641923E-01 IErMin=10 ErrMin= 3.15D-09
 ErrMax= 3.15D-09 EMaxC= 1.00D-01 BMatC= 6.10D-16 BMatP= 1.23D-14
 IDIUse=1 WtCom= 1.00D+00 WtEn= 0.00D+00
 Coeff-Com: -0.606D-04 0.180D-03-0.396D-03 0.119D-02-0.272D-02 0.568D-02
 Coeff-Com: -0.230D-01 0.130D+00-0.539D+00 0.143D+01
 Coeff:     -0.606D-04 0.180D-03-0.396D-03 0.119D-02-0.272D-02 0.568D-02
 Coeff:     -0.230D-01 0.130D+00-0.539D+00 0.143D+01
 Gap=     0.557 Goal=   None    Shift=    0.000
 RMSDP=2.21D-09 MaxDP=1.52D-08 DE= 5.68D-14 OVMax= 0.00D+00

 Cycle  11  Pass 2  IDiag  1:
 RMSDP=2.21D-09 MaxDP=1.52D-08 DE= 5.68D-14 OVMax= 0.00D+00

 SCF Done:  E(RPM6) = -0.551098186641E-01 A.U. after   11 cycles
             Convg  =    0.2212D-08             -V/T =  0.9990
 KE=-5.610632769150D+01 PE=-2.493930627215D+02 EE= 1.412576631299D+02
 Leave Link  502 at Mon Sep 14 19:12:28 2015, MaxMem=  402653184 cpu:       1.8
 (Enter /share/apps/g09/l701.exe)
 Compute integral first derivatives.
 ... and contract with generalized density number  0.
 Leave Link  701 at Mon Sep 14 19:12:28 2015, MaxMem=  402653184 cpu:       0.1
 (Enter /share/apps/g09/l702.exe)
 L702 exits ... SP integral derivatives will be done elsewhere.
 Leave Link  702 at Mon Sep 14 19:12:28 2015, MaxMem=  402653184 cpu:       0.1
 (Enter /share/apps/g09/l703.exe)
 Compute integral first derivatives, UseDBF=F ICtDFT=           0.
 Integral derivatives from FoFDir, PRISM(SPDF).
 Calling FoFJK, ICntrl=      2127 FMM=F ISym2X=0 I1Cent= 0 IOpClX= 0 NMat=1 NMatS=1 NMatT=0.
 FoFCou: FMM=F IPFlag=           0 FMFlag=      100000 FMFlg1=         800
         NFxFlg=           0 DoJE=F BraDBF=F KetDBF=F FulRan=T
         Omega=  0.000000  0.000000  1.000000  0.000000  0.000000 ICntrl=    2127 IOpCl=  0
         NMat0=    1 NMatS0=    1 NMatT0=    0 NMatD0=    1 NMtDS0=    0 NMtDT0=    0
         I1Cent=           0 NGrid=           0.
 Symmetry not used in FoFCou.
 Leave Link  703 at Mon Sep 14 19:12:28 2015, MaxMem=  402653184 cpu:       0.0
 (Enter /share/apps/g09/l716.exe)
 Dipole        =-2.12630674D-05-1.55539016D-05 4.07889243D-05
 ***** Axes restored to original set *****
 -------------------------------------------------------------------
 Center     Atomic                   Forces (Hartrees/Bohr)
 Number     Number              X              Y              Z
 -------------------------------------------------------------------
      1        6          -0.000318855    0.000979859   -0.000091841
      2        1           0.000485654    0.000099673    0.001088421
      3        1           0.000085058    0.000297542   -0.001041346
      4        1          -0.000792099   -0.001376902   -0.000316088
      5        6           0.001192183    0.000805292   -0.000062095
      6        1           0.000045913    0.000951188   -0.000483592
      7        1           0.000171539   -0.000279645    0.001412621
      8        6          -0.000348891    0.001387815   -0.002434340
      9        1          -0.000907507    0.000729702   -0.000466105
     10        1           0.000501973   -0.000397492   -0.001340371
     11        6           0.000352083   -0.001385324    0.002425581
     12        1           0.000909727   -0.000729078    0.000469808
     13        1          -0.000502281    0.000398986    0.001342823
     14        6          -0.001199383   -0.000807326    0.000085310
     15        1          -0.000173458    0.000283572   -0.001419879
     16        1          -0.000044158   -0.000955320    0.000471174
     17        6           0.000321472   -0.000988073    0.000102245
     18        1          -0.000086686   -0.000293479    0.001037409
     19        1           0.000792679    0.001377659    0.000313404
     20        1          -0.000484963   -0.000098652   -0.001093139
 -------------------------------------------------------------------
 Cartesian Forces:  Max     0.002434340 RMS     0.000882999
 Leave Link  716 at Mon Sep 14 19:12:28 2015, MaxMem=  402653184 cpu:       0.1
 (Enter /share/apps/g09/l103.exe)

 GradGradGradGradGradGradGradGradGradGradGradGradGradGradGradGradGradGrad
 Berny optimization.
 Using GEDIIS/GDIIS optimizer.
 Internal  Forces:  Max     0.004843837 RMS     0.000749294
 Search for a local minimum.
 Step number   2 out of a maximum of  110
 All quantities printed in internal units (Hartrees-Bohrs-Radians)
 RMS Force = .74929D-03 SwitMx=.10000D-02 MixMth= 2
 Mixed Optimization -- En-DIIS/RFO-DIIS
 Update second derivatives using D2CorX and points    1    2
 DE= -2.26D-03 DEPred=-2.09D-03 R= 1.08D+00
 SS=  1.41D+00  RLast= 1.71D-01 DXNew= 5.0454D-01 5.1236D-01
 Trust test= 1.08D+00 RLast= 1.71D-01 DXMaxT set to 5.05D-01
 Use linear search instead of GDIIS.
     Eigenvalues ---    0.00270   0.00288   0.00290   0.00390   0.00390
     Eigenvalues ---    0.03439   0.03444   0.03450   0.03570   0.04487
     Eigenvalues ---    0.04774   0.04796   0.04803   0.05471   0.05481
     Eigenvalues ---    0.05534   0.05534   0.08321   0.08401   0.08455
     Eigenvalues ---    0.08574   0.12171   0.12205   0.12296   0.12302
     Eigenvalues ---    0.15134   0.16000   0.16000   0.16000   0.16000
     Eigenvalues ---    0.16022   0.20692   0.21916   0.21927   0.21977
     Eigenvalues ---    0.27946   0.28854   0.28878   0.29561   0.29571
     Eigenvalues ---    0.31763   0.32084   0.32093   0.32096   0.32107
     Eigenvalues ---    0.32119   0.32188   0.32205   0.32214   0.32220
     Eigenvalues ---    0.32236   0.32273   0.32310   0.348731000.00000
     Eigenvalues --- 1000.000001000.000001000.000001000.000001000.00000
     Eigenvalues --- 1000.000001000.000001000.000001000.000001000.00000
     Eigenvalues --- 1000.000001000.000001000.000001000.000001000.00000
     Eigenvalues --- 1000.000001000.000001000.000001000.000001000.00000
     Eigenvalues --- 1000.000001000.000001000.000001000.000001000.00000
     Eigenvalues --- 1000.000001000.000001000.000001000.000001000.00000
     Eigenvalues --- 1000.000001000.000001000.000001000.000001000.00000
     Eigenvalues --- 1000.000001000.000001000.000001000.000001000.00000
     Eigenvalues --- 1000.000001000.000001000.000001000.000001000.00000
 RFO step:  Lambda=-3.98878409D-04 EMin= 2.69776803D-03
 Quartic linear search produced a step of  0.12184.
 Iteration  1 RMS(Cart)=  0.02423146 RMS(Int)=  0.00028454
 Iteration  2 RMS(Cart)=  0.00038725 RMS(Int)=  0.00001569
 Iteration  3 RMS(Cart)=  0.00000009 RMS(Int)=  0.00001569
 Variable       Old X    -DE/DX   Delta X   Delta X   Delta X     New X
                                 (Linear)    (Quad)   (Total)
    R1        2.07362  -0.00101  -0.00376  -0.00252  -0.00628   2.06734
    R2        2.07326  -0.00087  -0.00361  -0.00206  -0.00567   2.06759
    R3        2.07560  -0.00156  -0.00348  -0.00449  -0.00797   2.06764
    R4        2.88898  -0.00043   0.00009  -0.00165  -0.00156   2.88742
    R5        2.09375  -0.00017  -0.00156  -0.00016  -0.00172   2.09203
    R6        2.09846  -0.00106  -0.00100  -0.00343  -0.00443   2.09403
    R7        2.89882   0.00169  -0.00046   0.00667   0.00622   2.90504
    R8        2.09201   0.00012  -0.00182   0.00088  -0.00093   2.09108
    R9        2.09695  -0.00071  -0.00094  -0.00221  -0.00315   2.09380
   R10        2.88849   0.00484  -0.00207   0.01942   0.01735   2.90584
   R11        2.09199   0.00012  -0.00182   0.00090  -0.00092   2.09107
   R12        2.09695  -0.00071  -0.00095  -0.00221  -0.00316   2.09380
   R13        2.89882   0.00170  -0.00046   0.00670   0.00624   2.90506
   R14        2.09850  -0.00107  -0.00101  -0.00345  -0.00446   2.09403
   R15        2.09369  -0.00015  -0.00154  -0.00012  -0.00167   2.09202
   R16        2.88900  -0.00043   0.00009  -0.00166  -0.00158   2.88742
   R17        2.07323  -0.00086  -0.00360  -0.00204  -0.00564   2.06759
   R18        2.07560  -0.00156  -0.00348  -0.00449  -0.00797   2.06764
   R19        2.07364  -0.00101  -0.00377  -0.00253  -0.00630   2.06734
    A1        1.88175  -0.00073  -0.00313  -0.00575  -0.00888   1.87287
    A2        1.88133  -0.00054  -0.00178  -0.00295  -0.00479   1.87654
    A3        1.94204   0.00063   0.00167   0.00324   0.00488   1.94692
    A4        1.87686  -0.00034  -0.00139  -0.00073  -0.00217   1.87469
    A5        1.94331   0.00045   0.00119   0.00264   0.00381   1.94712
    A6        1.93575   0.00045   0.00320   0.00304   0.00618   1.94194
    A7        1.90898   0.00048   0.00038   0.00445   0.00481   1.91380
    A8        1.90427   0.00022   0.00289  -0.00119   0.00170   1.90598
    A9        1.98036  -0.00108  -0.00179  -0.00294  -0.00474   1.97562
   A10        1.86020  -0.00071  -0.00230  -0.01016  -0.01246   1.84775
   A11        1.91069   0.00053  -0.00056   0.00597   0.00541   1.91610
   A12        1.89546   0.00058   0.00137   0.00330   0.00468   1.90014
   A13        1.91376   0.00006   0.00065   0.00136   0.00197   1.91574
   A14        1.89942   0.00018   0.00398  -0.00118   0.00281   1.90223
   A15        1.96949  -0.00048  -0.00239   0.00129  -0.00111   1.96838
   A16        1.86205  -0.00075  -0.00244  -0.01358  -0.01602   1.84602
   A17        1.90968   0.00064  -0.00055   0.00852   0.00796   1.91764
   A18        1.90632   0.00032   0.00077   0.00265   0.00344   1.90975
   A19        1.90968   0.00064  -0.00055   0.00852   0.00796   1.91764
[...]
 ! D19   D(5,8,11,12)           57.2769         -DE/DX =    0.0                 !
 ! D20   D(5,8,11,13)          -58.3277         -DE/DX =    0.0                 !
 ! D21   D(5,8,11,14)          179.9997         -DE/DX =    0.0                 !
 ! D22   D(9,8,11,12)          179.9997         -DE/DX =    0.0                 !
 ! D23   D(9,8,11,13)           64.3951         -DE/DX =    0.0                 !
 ! D24   D(9,8,11,14)          -57.2775         -DE/DX =    0.0                 !
 ! D25   D(10,8,11,12)         -64.3957         -DE/DX =    0.0                 !
 ! D26   D(10,8,11,13)         179.9997         -DE/DX =    0.0                 !
 ! D27   D(10,8,11,14)          58.3271         -DE/DX =    0.0                 !
 ! D28   D(8,11,14,15)         164.7587         -DE/DX =    0.0                 !
 ! D29   D(8,11,14,16)          49.372          -DE/DX =    0.0                 !
 ! D30   D(8,11,14,17)         -73.4609         -DE/DX =    0.0                 !
 ! D31   D(12,11,14,15)        -72.5311         -DE/DX =    0.0                 !
 ! D32   D(12,11,14,16)        172.0822         -DE/DX =    0.0                 !
 ! D33   D(12,11,14,17)         49.2493         -DE/DX =    0.0                 !
 ! D34   D(13,11,14,15)         42.9719         -DE/DX =    0.0                 !
 ! D35   D(13,11,14,16)        -72.4147         -DE/DX =    0.0                 !
 ! D36   D(13,11,14,17)        164.7524         -DE/DX =    0.0                 !
 ! D37   D(11,14,17,18)         60.4685         -DE/DX =    0.0                 !
 ! D38   D(11,14,17,19)       -179.5073         -DE/DX =    0.0                 !
 ! D39   D(11,14,17,20)        -59.4094         -DE/DX =    0.0                 !
 ! D40   D(15,14,17,18)       -177.9142         -DE/DX =    0.0                 !
 ! D41   D(15,14,17,19)        -57.89           -DE/DX =    0.0                 !
 ! D42   D(15,14,17,20)         62.2079         -DE/DX =    0.0                 !
 ! D43   D(16,14,17,18)        -62.4501         -DE/DX =    0.0                 !
 ! D44   D(16,14,17,19)         57.5741         -DE/DX =    0.0                 !
 ! D45   D(16,14,17,20)        177.672          -DE/DX =    0.0                 !
 --------------------------------------------------------------------------------
 GradGradGradGradGradGradGradGradGradGradGradGradGradGradGradGradGradGrad

 Largest change from initial coordinates is atom    4       6.103 Angstoms.
 Leave Link  103 at Mon Sep 14 19:13:31 2015, MaxMem=  402653184 cpu:       0.1
 (Enter /share/apps/g09/l202.exe)
                          Input orientation:                          
 ---------------------------------------------------------------------
 Center     Atomic      Atomic             Coordinates (Angstroms)
 Number     Number       Type             X           Y           Z
 ---------------------------------------------------------------------
      1          6           0        1.705188    2.097356   -0.766767
      2          1           0        1.815095    1.805992   -1.817342
      3          1           0        1.916309    1.209826   -0.159329
      4          1           0        2.480108    2.839514   -0.546758
      5          6           0        0.310809    2.651793   -0.481902
      6          1           0        0.246139    2.975015    0.575507
      7          1           0        0.149412    3.567255   -1.085186
      8          6           0       -0.807410    1.645149   -0.789196
      9          1           0       -0.659333    1.215239   -1.798268
     10          1           0       -1.777446    2.178193   -0.830203
     11          6           0       -0.886798    0.518937    0.249990
     12          1           0       -1.034870    0.948847    1.259062
     13          1           0        0.083236   -0.014110    0.290992
     14          6           0       -2.005021   -0.487703   -0.057301
     15          1           0       -1.843624   -1.403166    0.545982
     16          1           0       -1.940358   -0.810924   -1.114710
     17          6           0       -3.399397    0.066737    0.227573
     18          1           0       -3.610511    0.954282   -0.379847
     19          1           0       -4.174323   -0.675410    0.007548
     20          1           0       -3.509304    0.358080    1.278154
 ---------------------------------------------------------------------
                    Distance matrix (angstroms):
                    1          2          3          4          5
     1  C    0.000000
     2  H    1.095756   0.000000
     3  H    1.096021   1.764842   0.000000
     4  H    1.095310   1.767709   1.767443   0.000000
     5  C    1.527364   2.182122   2.181961   2.178372   0.000000
     6  H    2.168135   3.090949   2.538768   2.503689   1.107596
     7  H    2.163893   2.532311   3.088140   2.500332   1.108184
     8  C    2.553065   2.821434   2.829291   3.506146   1.535635
     9  H    2.726368   2.544042   3.052881   3.749752   2.176622
    10  H    3.484149   3.744239   3.877064   4.317922   2.169428
    11  C    3.200561   3.637388   2.915866   4.166046   2.553234
    12  H    3.595966   4.280334   3.284722   4.380717   2.782415
    13  H    2.864938   3.279814   2.249659   3.819685   2.784994
    14  C    4.577284   4.790832   4.274207   5.605919   3.924257
    15  H    5.154710   5.410196   4.632741   6.155411   4.705404
    16  H    4.676448   4.630914   4.457586   5.760971   4.178350
    17  C    5.582912   5.864947   5.450970   6.546485   4.577280
    18  H    5.450961   5.677059   5.537117   6.377900   4.274191
    19  H    6.546483   6.735035   6.377912   7.546085   5.605912
    20  H    5.864956   6.326751   5.677069   6.735049   4.790844
                    6          7          8          9         10
     6  H    0.000000
     7  H    1.765788   0.000000
     8  C    2.177367   2.167397   0.000000
     9  H    3.090551   2.587380   1.106786   0.000000
    10  H    2.589564   2.388993   1.107604   1.764824   0.000000
    11  C    2.724303   3.485494   1.534459   2.175301   2.170990
    12  H    2.492707   3.708650   2.175301   3.091805   2.535298
    13  H    3.007051   3.837241   2.170990   2.535293   3.086325
    14  C    4.178348   4.705403   2.553234   2.782419   2.784990
    15  H    4.851439   5.598034   3.485494   3.708652   3.837238
    16  H    4.687317   4.851439   2.724303   2.492712   3.007042
    17  C    4.676438   5.154707   3.200562   3.595975   2.864936
    18  H    4.457557   4.632726   2.915860   3.284732   2.249646
    19  H    5.760961   6.155400   4.166041   4.380716   3.819672
    20  H    4.630920   5.410211   3.637405   4.280354   3.279834
                   11         12         13         14         15
    11  C    0.000000
    12  H    1.106786   0.000000
    13  H    1.107603   1.764825   0.000000
    14  C    1.535635   2.176622   2.169428   0.000000
    15  H    2.167397   2.587380   2.388993   1.108184   0.000000
    16  H    2.177367   3.090550   2.589565   1.107596   1.765788
    17  C    2.553065   2.726367   3.484149   1.527364   2.163893
    18  H    2.829281   3.052864   3.877057   2.181961   3.088140
    19  H    3.506146   3.749755   4.317924   2.178372   2.500339
    20  H    2.821442   2.544051   3.744244   2.182122   2.532302
                   16         17         18         19         20
    16  H    0.000000
    17  C    2.168135   0.000000
    18  H    2.538776   1.096021   0.000000
    19  H    2.503682   1.095310   1.767443   0.000000
    20  H    3.090949   1.095756   1.764842   1.767708   0.000000
 Stoichiometry    C6H14
 Framework group  C1[X(C6H14)]
 Deg. of freedom    54
 Full point group                 C1      NOp   1
 Largest Abelian subgroup         C1      NOp   1
 Largest concise Abelian subgroup C1      NOp   1
                         Standard orientation:                         
 ---------------------------------------------------------------------
 Center     Atomic      Atomic             Coordinates (Angstroms)
 Number     Number       Type             X           Y           Z
 ---------------------------------------------------------------------
      1          6           0       -2.749844   -0.473397    0.080495
      2          1           0       -2.876429   -0.625833    1.158188
      3          1           0       -2.359463   -1.408746   -0.336623
      4          1           0       -3.744010   -0.310237   -0.349293
      5          6           0       -1.819788    0.701852   -0.213824
      6          1           0       -1.746360    0.855166   -1.308298
      7          1           0       -2.265521    1.632772    0.189636
      8          6           0       -0.416708    0.518218    0.382683
      9          1           0       -0.496133    0.224479    1.446819
     10          1           0        0.111739    1.491623    0.379373
     11          6           0        0.416708   -0.518221   -0.382677
     12          1           0        0.496129   -0.224485   -1.446813
     13          1           0       -0.111737   -1.491628   -0.379361
     14          6           0        1.819790   -0.701851    0.213827
     15          1           0        2.265523   -1.632772   -0.189632
     16          1           0        1.746367   -0.855159    1.308301
     17          6           0        2.749843    0.473399   -0.080502
     18          1           0        2.359451    1.408753    0.336594
     19          1           0        3.744005    0.310252    0.349300
     20          1           0        2.876441    0.625816   -1.158196
 ---------------------------------------------------------------------
 Rotational constants (GHZ):      9.0207894      1.4264657      1.3357183
 Leave Link  202 at Mon Sep 14 19:13:32 2015, MaxMem=  402653184 cpu:       0.0
 (Enter /share/apps/g09/l601.exe)
 Copying SCF densities to generalized density rwf, IOpCl= 0 IROHF=0.

 **********************************************************************

            Population analysis using the SCF density.

 **********************************************************************

 Orbital symmetries:
       Occupied  (A) (A) (A) (A) (A) (A) (A) (A) (A) (A) (A) (A)
                 (A) (A) (A) (A) (A) (A) (A)
       Virtual   (A) (A) (A) (A) (A) (A) (A) (A) (A) (A) (A) (A)
                 (A) (A) (A) (A) (A) (A) (A)
 The electronic state is 1-A.
 Alpha  occ. eigenvalues --   -1.05703  -0.99755  -0.90156  -0.83651  -0.74884
 Alpha  occ. eigenvalues --   -0.71748  -0.58132  -0.56439  -0.55518  -0.51945
 Alpha  occ. eigenvalues --   -0.51306  -0.49177  -0.46462  -0.45032  -0.44830
 Alpha  occ. eigenvalues --   -0.42573  -0.41504  -0.40832  -0.40145
 Alpha virt. eigenvalues --    0.15392   0.16522   0.16701   0.17286   0.18099
 Alpha virt. eigenvalues --    0.21070   0.21261   0.21369   0.22221   0.22271
 Alpha virt. eigenvalues --    0.22836   0.23164   0.23295   0.24200   0.24505
 Alpha virt. eigenvalues --    0.24783   0.24812   0.25726   0.26005
          Condensed to atoms (all electrons):
              1          2          3          4          5          6
     1  C    4.459258   0.000000   0.000000   0.000000   0.000000   0.000000
     2  H    0.000000   0.854487   0.000000   0.000000   0.000000   0.000000
     3  H    0.000000   0.000000   0.853511   0.000000   0.000000   0.000000
     4  H    0.000000   0.000000   0.000000   0.858609   0.000000   0.000000
     5  C    0.000000   0.000000   0.000000   0.000000   4.223627   0.000000
     6  H    0.000000   0.000000   0.000000   0.000000   0.000000   0.873538
     7  H    0.000000   0.000000   0.000000   0.000000   0.000000   0.000000
     8  C    0.000000   0.000000   0.000000   0.000000   0.000000   0.000000
     9  H    0.000000   0.000000   0.000000   0.000000   0.000000   0.000000
    10  H    0.000000   0.000000   0.000000   0.000000   0.000000   0.000000
    11  C    0.000000   0.000000   0.000000   0.000000   0.000000   0.000000
    12  H    0.000000   0.000000   0.000000   0.000000   0.000000   0.000000
    13  H    0.000000   0.000000   0.000000   0.000000   0.000000   0.000000
    14  C    0.000000   0.000000   0.000000   0.000000   0.000000   0.000000
    15  H    0.000000   0.000000   0.000000   0.000000   0.000000   0.000000
    16  H    0.000000   0.000000   0.000000   0.000000   0.000000   0.000000
    17  C    0.000000   0.000000   0.000000   0.000000   0.000000   0.000000
    18  H    0.000000   0.000000   0.000000   0.000000   0.000000   0.000000
    19  H    0.000000   0.000000   0.000000   0.000000   0.000000   0.000000
    20  H    0.000000   0.000000   0.000000   0.000000   0.000000   0.000000
              7          8          9         10         11         12
     1  C    0.000000   0.000000   0.000000   0.000000   0.000000   0.000000
     2  H    0.000000   0.000000   0.000000   0.000000   0.000000   0.000000
     3  H    0.000000   0.000000   0.000000   0.000000   0.000000   0.000000
     4  H    0.000000   0.000000   0.000000   0.000000   0.000000   0.000000
     5  C    0.000000   0.000000   0.000000   0.000000   0.000000   0.000000
     6  H    0.000000   0.000000   0.000000   0.000000   0.000000   0.000000
     7  H    0.877451   0.000000   0.000000   0.000000   0.000000   0.000000
     8  C    0.000000   4.259514   0.000000   0.000000   0.000000   0.000000
     9  H    0.000000   0.000000   0.868468   0.000000   0.000000   0.000000
    10  H    0.000000   0.000000   0.000000   0.871537   0.000000   0.000000
    11  C    0.000000   0.000000   0.000000   0.000000   4.259514   0.000000
    12  H    0.000000   0.000000   0.000000   0.000000   0.000000   0.868467
    13  H    0.000000   0.000000   0.000000   0.000000   0.000000   0.000000
    14  C    0.000000   0.000000   0.000000   0.000000   0.000000   0.000000
    15  H    0.000000   0.000000   0.000000   0.000000   0.000000   0.000000
    16  H    0.000000   0.000000   0.000000   0.000000   0.000000   0.000000
    17  C    0.000000   0.000000   0.000000   0.000000   0.000000   0.000000
    18  H    0.000000   0.000000   0.000000   0.000000   0.000000   0.000000
    19  H    0.000000   0.000000   0.000000   0.000000   0.000000   0.000000
    20  H    0.000000   0.000000   0.000000   0.000000   0.000000   0.000000
             13         14         15         16         17         18
     1  C    0.000000   0.000000   0.000000   0.000000   0.000000   0.000000
     2  H    0.000000   0.000000   0.000000   0.000000   0.000000   0.000000
     3  H    0.000000   0.000000   0.000000   0.000000   0.000000   0.000000
     4  H    0.000000   0.000000   0.000000   0.000000   0.000000   0.000000
     5  C    0.000000   0.000000   0.000000   0.000000   0.000000   0.000000
     6  H    0.000000   0.000000   0.000000   0.000000   0.000000   0.000000
     7  H    0.000000   0.000000   0.000000   0.000000   0.000000   0.000000
     8  C    0.000000   0.000000   0.000000   0.000000   0.000000   0.000000
     9  H    0.000000   0.000000   0.000000   0.000000   0.000000   0.000000
    10  H    0.000000   0.000000   0.000000   0.000000   0.000000   0.000000
    11  C    0.000000   0.000000   0.000000   0.000000   0.000000   0.000000
    12  H    0.000000   0.000000   0.000000   0.000000   0.000000   0.000000
    13  H    0.871537   0.000000   0.000000   0.000000   0.000000   0.000000
    14  C    0.000000   4.223627   0.000000   0.000000   0.000000   0.000000
    15  H    0.000000   0.000000   0.877451   0.000000   0.000000   0.000000
    16  H    0.000000   0.000000   0.000000   0.873538   0.000000   0.000000
    17  C    0.000000   0.000000   0.000000   0.000000   4.459258   0.000000
    18  H    0.000000   0.000000   0.000000   0.000000   0.000000   0.853511
    19  H    0.000000   0.000000   0.000000   0.000000   0.000000   0.000000
    20  H    0.000000   0.000000   0.000000   0.000000   0.000000   0.000000
             19         20
     1  C    0.000000   0.000000
     2  H    0.000000   0.000000
     3  H    0.000000   0.000000
     4  H    0.000000   0.000000
     5  C    0.000000   0.000000
     6  H    0.000000   0.000000
     7  H    0.000000   0.000000
     8  C    0.000000   0.000000
     9  H    0.000000   0.000000
    10  H    0.000000   0.000000
    11  C    0.000000   0.000000
    12  H    0.000000   0.000000
    13  H    0.000000   0.000000
    14  C    0.000000   0.000000
    15  H    0.000000   0.000000
    16  H    0.000000   0.000000
    17  C    0.000000   0.000000
    18  H    0.000000   0.000000
    19  H    0.858609   0.000000
    20  H    0.000000   0.854488
 Mulliken atomic charges:
              1
     1  C   -0.459258
     2  H    0.145513
     3  H    0.146489
     4  H    0.141391
     5  C   -0.223627
     6  H    0.126462
     7  H    0.122549
     8  C   -0.259514
     9  H    0.131532
    10  H    0.128463
    11  C   -0.259514
    12  H    0.131533
    13  H    0.128463
    14  C   -0.223627
    15  H    0.122549
    16  H    0.126462
    17  C   -0.459258
    18  H    0.146489
    19  H    0.141391
    20  H    0.145512
 Sum of Mulliken atomic charges =   0.00000
 Mulliken charges with hydrogens summed into heavy atoms:
              1
     1  C   -0.025865
     5  C    0.025384
     8  C    0.000482
    11  C    0.000482
    14  C    0.025384
    17  C   -0.025865
 Sum of Mulliken charges with hydrogens summed into heavy atoms =   0.00000
 Charge=              0.0000 electrons
 Dipole moment (field-independent basis, Debye):
    X=              0.0000    Y=              0.0000    Z=              0.0000  Tot=              0.0000
 N-N= 1.639373055106D+02 E-N=-2.488864809567D+02  KE=-5.610315692843D+01
 Leave Link  601 at Mon Sep 14 19:13:32 2015, MaxMem=  402653184 cpu:       0.0
 (Enter /share/apps/g09/l9999.exe)
 1\1\GINC-COMPUTE-0-5\FOpt\RPM6\ZDO\C6H14\HETANJIN\14-Sep-2015\0\\#p PM
 6 opt\\using PM6 to do opt and freq calc.\\0,1\C,1.7051875301,2.097356
 2912,-0.7667665854\H,1.8150947832,1.8059920168,-1.8173420432\H,1.91630
 89741,1.2098262907,-0.1593287564\H,2.4801083574,2.8395138966,-0.546758
 1771\C,0.3108086943,2.6517931651,-0.481901991\H,0.2461390009,2.9750154
 368,0.5755073386\H,0.1494116014,3.5672547699,-1.0851863803\C,-0.807410
 3442,1.6451490779,-0.7891959432\H,-0.6593333571,1.2152387257,-1.798267
 7608\H,-1.7774457329,2.1781925293,-0.830202648\C,-0.886797708,0.518936
 8173,0.2499896611\H,-1.0348695457,0.9488469505,1.2590621882\H,0.083235
 9886,-0.0141099912,0.2909917633\C,-2.0050213942,-0.4877034443,-0.05730
 05651\H,-1.8436240216,-1.4031663927,0.5459820668\H,-1.940358291,-0.810
 92407,-1.1147104181\C,-3.3993970132,0.0667372493,0.2275728225\H,-3.610
 5108486,0.9542815305,-0.3798465815\H,-4.1743225399,-0.6754104803,0.007
 5476084\H,-3.5093041334,0.3580796311,1.2781544012\\Version=EM64L-G09Re
 vA.01\State=1-A\HF=-0.0554352\RMSD=6.950e-09\RMSF=1.135e-05\Dipole=0.0
 000002,-0.0000002,0.0000005\PG=C01 [X(C6H14)]\\@


          EVOLUTION
 IN THE BEGINNING GOD MADE MAN.
 HE WORKED THE DIRT WITH HIS HANDS.
 THEN GOD DECIDED TO GIVE MAN SCIENCE,
 MAN SHOULD BE USEFUL (LIKE AN APPLIANCE.)
 BUT SOON MAN'S KNOWLEDGE GREW TOO GREAT,
 TO THE HEADING SCIENCE HE COULDN'T RELATE
 SO GOD SAID "LETS HAVE DIFFERENT FIELDS,
 WE'LL DIVIDE THEM UP, SEE WHAT IT YIELDS."
 ENTER PHYSICS, CHEMISTRY, BIO
 THEY SPRANG UP AROUND THE NILE.
 BUT CHEMISTRY SURPASSED THE REST
 FAR AND AWAY IT WAS THE BEST.
 EXPERIMENT WAS GOD'S DECREE
 EXPERIMENT DID CHEMISTS WITH LOTS OF GLEE
 BUT SOON THEIR TESTS BEGAN TO BOG,
 THEY FOUND THEMSELVES DEEP IN A FOG.
 "GIVE US SOME HELP" THEY CRIED TO GOD.
 GOD LOOKED AROUND, THEN GAVE THE NOD.
 ENTER EINSTEIN, HEISENBERG, BOHR,
 REACTION PATHS WERE CLEAR ONCE MORE.
 WITH THEORISTS GOD SEND DIRECTION
 AND THEN HE STOPPED, HE'D MADE PERFECTION.
          -- THOMAS A. HOLME, 1981
 Job cpu time:  0 days  0 hours  0 minutes 16.1 seconds.
 File lengths (MBytes):  RWF=      5 Int=      0 D2E=      0 Chk=      3 Scr=      1
 Normal termination of Gaussian 09 at Mon Sep 14 19:13:33 2015.
