 Entering Gaussian System, Link 0=/share/apps/g09/g09
 Input=C6H14_1_00_1_opt_PM6.gjf
 Output=C6H14_1_00_1_opt_PM6.log
 Initial command:
 /share/apps/g09/l1.exe /state/partition1/Gau-12374.inp -scrdir=/state/partition1/
 Entering Link 1 = /share/apps/g09/l1.exe PID=     12403.
  
 Copyright (c) 1988,1990,1992,1993,1995,1998,2003,2009, Gaussian, Inc.
                  All Rights Reserved.
  
 This is part of the Gaussian(R) 09 program.  It is based on
 the Gaussian(R) 03 system (copyright 2003, Gaussian, Inc.),
 the Gaussian(R) 98 system (copyright 1998, Gaussian, Inc.),
 the Gaussian(R) 94 system (copyright 1995, Gaussian, Inc.),
 the Gaussian 92(TM) system (copyright 1992, Gaussian, Inc.),
 the Gaussian 90(TM) system (copyright 1990, Gaussian, Inc.),
 the Gaussian 88(TM) system (copyright 1988, Gaussian, Inc.),
 the Gaussian 86(TM) system (copyright 1986, Carnegie Mellon
 University), and the Gaussian 82(TM) system (copyright 1983,
 Carnegie Mellon University). Gaussian is a federally registered
 trademark of Gaussian, Inc.
  
 This software contains proprietary and confidential information,
 including trade secrets, belonging to Gaussian, Inc.
  
 This software is provided under written license and may be
 used, copied, transmitted, or stored only in accord with that
 written license.
  
 The following legend is applicable only to US Government
 contracts under FAR:
  
                    RESTRICTED RIGHTS LEGEND
  
 Use, reproduction and disclosure by the US Government is
 subject to restrictions as set forth in subparagraphs (a)
 and (c) of the Commercial Computer Software - Restricted
 Rights clause in FAR 52.227-19.
  
 Gaussian, Inc.
 340 Quinnipiac St., Bldg. 40, Wallingford CT 06492
  
  
 ---------------------------------------------------------------
 Warning -- This program may not be used in any manner that
 competes with the business of Gaussian, Inc. or will provide
 assistance to any competitor of Gaussian, Inc.  The licensee
 of this program is prohibited from giving any competitor of
 Gaussian, Inc. access to this program.  By using this program,
 the user acknowledges that Gaussian, Inc. is engaged in the
 business of creating and licensing software in the field of
 computational chemistry and represents and warrants to the
 licensee that it is not a competitor of Gaussian, Inc. and that
 it will not use this program in any manner prohibited above.
 ---------------------------------------------------------------
  

 Cite this work as:
 Gaussian 09, Revision A.01,
 M. J. Frisch, G. W. Trucks, H. B. Schlegel, G. E. Scuseria, 
 M. A. Robb, J. R. Cheeseman, G. Scalmani, V. Barone, B. Mennucci, 
 G. A. Petersson, H. Nakatsuji, M. Caricato, X. Li, H. P. Hratchian, 
 A. F. Izmaylov, J. Bloino, G. Zheng, J. L. Sonnenberg, M. Hada, 
 M. Ehara, K. Toyota, R. Fukuda, J. Hasegawa, M. Ishida, T. Nakajima, 
 Y. Honda, O. Kitao, H. Nakai, T. Vreven, J. A. Montgomery, Jr., 
 J. E. Peralta, F. Ogliaro, M. Bearpark, J. J. Heyd, E. Brothers, 
 K. N. Kudin, V. N. Staroverov, R. Kobayashi, J. Normand, 
 K. Raghavachari, A. Rendell, J. C. Burant, S. S. Iyengar, J. Tomasi, 
 M. Cossi, N. Rega, J. M. Millam, M. Klene, J. E. Knox, J. B. Cross, 
 V. Bakken, C. Adamo, J. Jaramillo, R. Gomperts, R. E. Stratmann, 
 O. Yazyev, A. J. Austin, R. Cammi, C. Pomelli, J. W. Ochterski, 
 R. L. Martin, K. Morokuma, V. G. Zakrzewski, G. A. Voth, 
 P. Salvador, J. J. Dannenberg, S. Dapprich, A. D. Daniels, 
 O. Farkas, J. B. Foresman, J. V. Ortiz, J. Cioslowski, 
 and D. J. Fox, Gaussian, Inc., Wallingford CT, 2009.
 
 ******************************************
 Gaussian 09:  EM64L-G09RevA.01  8-May-2009
                14-Sep-2015 
 ******************************************
 %mem=3GB
 %nprocshared=2
 Will use up to    2 processors via shared memory.
 %chk=C6H14_1_00_1_opt_PM6.chk
 ----------
 #p PM6 opt
 ----------
 1/14=-1,18=20,19=15,26=1,38=1/1,3;
 2/9=110,12=2,17=6,18=5,40=1/2;
 3/5=2,16=1,25=1,41=3900000,71=1/1,2,3;
 4/35=1/1;
 5/5=2,35=1,38=5/2;
 6/7=2,8=2,9=2,10=2,28=1/1;
 7//1,2,3,16;
 1/14=-1,18=20,19=15/3(2);
 2/9=110/2;
 99//99;
 2/9=110/2;
 3/5=2,16=1,25=1,41=3900000,71=1,135=20/1,2,3;
 4/5=5,16=3,35=1/1;
 5/5=2,35=1,38=5/2;
 7//1,2,3,16;
 1/14=-1,18=20,19=15/3(-5);
 2/9=110/2;
 6/7=2,8=2,9=2,10=2,19=2,28=1/1;
 99/9=1/99;
 Leave Link    1 at Mon Sep 14 19:11:51 2015, MaxMem=  402653184 cpu:       1.8
 (Enter /share/apps/g09/l101.exe)
 ----------------------------------
 using PM6 to do opt and freq calc.
 ----------------------------------
 Symbolic Z-matrix:
 Charge =  0 Multiplicity = 1
 C                     3.1948   -0.2125    0. 
 H                     3.2708   -0.8536   -0.9078 
 H                     3.2708   -0.8536    0.9078 
 H                     4.0438    0.508     0. 
 C                     1.8744    0.5533    0. 
 H                     1.8415    1.2046    0.9043 
 H                     1.8415    1.2046   -0.9043 
 C                     0.6625   -0.3862    0. 
 H                     0.7056   -1.0367    0.9051 
 H                     0.7056   -1.0367   -0.9051 
 C                    -0.6625    0.3862    0. 
 H                    -0.7056    1.0367   -0.9051 
 H                    -0.7056    1.0367    0.9051 
 C                    -1.8744   -0.5533    0. 
 H                    -1.8415   -1.2046    0.9043 
 H                    -1.8415   -1.2046   -0.9043 
 C                    -3.1948    0.2125    0. 
 H                    -3.2708    0.8536   -0.9078 
 H                    -4.0438   -0.508     0. 
 H                    -3.2708    0.8536    0.9078 
 
 NAtoms=     20 NQM=     20 NQMF=      0 NMic=      0 NMicF=      0 NTot=     20.
                    Isotopes and Nuclear Properties:
 (Nuclear quadrupole moments (NQMom) in fm**2, nuclear magnetic moments (NMagM)
  in nuclear magnetons)

  Atom         1           2           3           4           5           6           7           8           9          10
 IAtWgt=          12           1           1           1          12           1           1          12           1           1
 AtmWgt=  12.0000000   1.0078250   1.0078250   1.0078250  12.0000000   1.0078250   1.0078250  12.0000000   1.0078250   1.0078250
 NucSpn=           0           1           1           1           0           1           1           0           1           1
 AtZEff=   0.0000000   0.0000000   0.0000000   0.0000000   0.0000000   0.0000000   0.0000000   0.0000000   0.0000000   0.0000000
 NQMom=    0.0000000   0.0000000   0.0000000   0.0000000   0.0000000   0.0000000   0.0000000   0.0000000   0.0000000   0.0000000
 NMagM=    0.0000000   2.7928460   2.7928460   2.7928460   0.0000000   2.7928460   2.7928460   0.0000000   2.7928460   2.7928460

  Atom        11          12          13          14          15          16          17          18          19          20
 IAtWgt=          12           1           1          12           1           1          12           1           1           1
 AtmWgt=  12.0000000   1.0078250   1.0078250  12.0000000   1.0078250   1.0078250  12.0000000   1.0078250   1.0078250   1.0078250
 NucSpn=           0           1           1           0           1           1           0           1           1           1
 AtZEff=   0.0000000   0.0000000   0.0000000   0.0000000   0.0000000   0.0000000   0.0000000   0.0000000   0.0000000   0.0000000
 NQMom=    0.0000000   0.0000000   0.0000000   0.0000000   0.0000000   0.0000000   0.0000000   0.0000000   0.0000000   0.0000000
 NMagM=    0.0000000   2.7928460   2.7928460   0.0000000   2.7928460   2.7928460   0.0000000   2.7928460   2.7928460   2.7928460
 Leave Link  101 at Mon Sep 14 19:11:53 2015, MaxMem=  402653184 cpu:       0.1
 (Enter /share/apps/g09/l103.exe)

 GradGradGradGradGradGradGradGradGradGradGradGradGradGradGradGradGradGrad
 Berny optimization.
 Initialization pass.
                           ----------------------------
                           !    Initial Parameters    !
                           ! (Angstroms and Degrees)  !
 --------------------------                            --------------------------
 ! Name  Definition              Value          Derivative Info.                !
 --------------------------------------------------------------------------------
 ! R1    R(1,2)                  1.114          estimate D2E/DX2                !
 ! R2    R(1,3)                  1.114          estimate D2E/DX2                !
 ! R3    R(1,4)                  1.1135         estimate D2E/DX2                !
 ! R4    R(1,5)                  1.5264         estimate D2E/DX2                !
 ! R5    R(5,6)                  1.1149         estimate D2E/DX2                !
 ! R6    R(5,7)                  1.1149         estimate D2E/DX2                !
 ! R7    R(5,8)                  1.5334         estimate D2E/DX2                !
 ! R8    R(8,9)                  1.1154         estimate D2E/DX2                !
 ! R9    R(8,10)                 1.1154         estimate D2E/DX2                !
 ! R10   R(8,11)                 1.5337         estimate D2E/DX2                !
 ! R11   R(11,12)                1.1154         estimate D2E/DX2                !
 ! R12   R(11,13)                1.1154         estimate D2E/DX2                !
 ! R13   R(11,14)                1.5334         estimate D2E/DX2                !
 ! R14   R(14,15)                1.1149         estimate D2E/DX2                !
 ! R15   R(14,16)                1.1149         estimate D2E/DX2                !
 ! R16   R(14,17)                1.5264         estimate D2E/DX2                !
 ! R17   R(17,18)                1.114          estimate D2E/DX2                !
 ! R18   R(17,19)                1.1135         estimate D2E/DX2                !
 ! R19   R(17,20)                1.114          estimate D2E/DX2                !
 ! A1    A(2,1,3)              109.1623         estimate D2E/DX2                !
 ! A2    A(2,1,4)              108.6853         estimate D2E/DX2                !
 ! A3    A(2,1,5)              110.3502         estimate D2E/DX2                !
 ! A4    A(3,1,4)              108.6853         estimate D2E/DX2                !
 ! A5    A(3,1,5)              110.3502         estimate D2E/DX2                !
 ! A6    A(4,1,5)              109.5679         estimate D2E/DX2                !
 ! A7    A(1,5,6)              108.5787         estimate D2E/DX2                !
 ! A8    A(1,5,7)              108.5787         estimate D2E/DX2                !
 ! A9    A(1,5,8)              112.1034         estimate D2E/DX2                !
 ! A10   A(6,5,7)              108.4059         estimate D2E/DX2                !
 ! A11   A(6,5,8)              109.5477         estimate D2E/DX2                !
 ! A12   A(7,5,8)              109.5477         estimate D2E/DX2                !
 ! A13   A(5,8,9)              109.0726         estimate D2E/DX2                !
 ! A14   A(5,8,10)             109.0726         estimate D2E/DX2                !
 ! A15   A(5,8,11)             111.9764         estimate D2E/DX2                !
 ! A16   A(9,8,10)             108.471          estimate D2E/DX2                !
 ! A17   A(9,8,11)             109.0917         estimate D2E/DX2                !
 ! A18   A(10,8,11)            109.0917         estimate D2E/DX2                !
 ! A19   A(8,11,12)            109.0917         estimate D2E/DX2                !
 ! A20   A(8,11,13)            109.0917         estimate D2E/DX2                !
 ! A21   A(8,11,14)            111.9764         estimate D2E/DX2                !
 ! A22   A(12,11,13)           108.471          estimate D2E/DX2                !
 ! A23   A(12,11,14)           109.0726         estimate D2E/DX2                !
 ! A24   A(13,11,14)           109.0726         estimate D2E/DX2                !
 ! A25   A(11,14,15)           109.5477         estimate D2E/DX2                !
 ! A26   A(11,14,16)           109.5477         estimate D2E/DX2                !
 ! A27   A(11,14,17)           112.1034         estimate D2E/DX2                !
 ! A28   A(15,14,16)           108.4059         estimate D2E/DX2                !
 ! A29   A(15,14,17)           108.5787         estimate D2E/DX2                !
 ! A30   A(16,14,17)           108.5787         estimate D2E/DX2                !
 ! A31   A(14,17,18)           110.3502         estimate D2E/DX2                !
 ! A32   A(14,17,19)           109.5679         estimate D2E/DX2                !
 ! A33   A(14,17,20)           110.3502         estimate D2E/DX2                !
 ! A34   A(18,17,19)           108.6853         estimate D2E/DX2                !
 ! A35   A(18,17,20)           109.1623         estimate D2E/DX2                !
 ! A36   A(19,17,20)           108.6853         estimate D2E/DX2                !
 ! D1    D(2,1,5,6)           -178.4712         estimate D2E/DX2                !
 ! D2    D(2,1,5,7)            -60.7999         estimate D2E/DX2                !
 ! D3    D(2,1,5,8)             60.3644         estimate D2E/DX2                !
 ! D4    D(3,1,5,6)             60.7999         estimate D2E/DX2                !
 ! D5    D(3,1,5,7)            178.4712         estimate D2E/DX2                !
 ! D6    D(3,1,5,8)            -60.3644         estimate D2E/DX2                !
 ! D7    D(4,1,5,6)            -58.8357         estimate D2E/DX2                !
 ! D8    D(4,1,5,7)             58.8357         estimate D2E/DX2                !
 ! D9    D(4,1,5,8)            180.0            estimate D2E/DX2                !
 ! D10   D(1,5,8,9)             59.1549         estimate D2E/DX2                !
 ! D11   D(1,5,8,10)           -59.1549         estimate D2E/DX2                !
 ! D12   D(1,5,8,11)           180.0            estimate D2E/DX2                !
 ! D13   D(6,5,8,9)            -61.4496         estimate D2E/DX2                !
 ! D14   D(6,5,8,10)          -179.7594         estimate D2E/DX2                !
 ! D15   D(6,5,8,11)            59.3955         estimate D2E/DX2                !
 ! D16   D(7,5,8,9)            179.7594         estimate D2E/DX2                !
 ! D17   D(7,5,8,10)            61.4496         estimate D2E/DX2                !
 ! D18   D(7,5,8,11)           -59.3955         estimate D2E/DX2                !
 ! D19   D(5,8,11,12)           59.1659         estimate D2E/DX2                !
 ! D20   D(5,8,11,13)          -59.1659         estimate D2E/DX2                !
 ! D21   D(5,8,11,14)          180.0            estimate D2E/DX2                !
 ! D22   D(9,8,11,12)          180.0            estimate D2E/DX2                !
 ! D23   D(9,8,11,13)           61.6681         estimate D2E/DX2                !
 ! D24   D(9,8,11,14)          -59.1659         estimate D2E/DX2                !
 ! D25   D(10,8,11,12)         -61.6681         estimate D2E/DX2                !
 ! D26   D(10,8,11,13)         180.0            estimate D2E/DX2                !
 ! D27   D(10,8,11,14)          59.1659         estimate D2E/DX2                !
 ! D28   D(8,11,14,15)          59.3955         estimate D2E/DX2                !
 ! D29   D(8,11,14,16)         -59.3955         estimate D2E/DX2                !
 ! D30   D(8,11,14,17)         180.0            estimate D2E/DX2                !
 ! D31   D(12,11,14,15)       -179.7594         estimate D2E/DX2                !
 ! D32   D(12,11,14,16)         61.4496         estimate D2E/DX2                !
 ! D33   D(12,11,14,17)        -59.1549         estimate D2E/DX2                !
 ! D34   D(13,11,14,15)        -61.4496         estimate D2E/DX2                !
 ! D35   D(13,11,14,16)        179.7594         estimate D2E/DX2                !
 ! D36   D(13,11,14,17)         59.1549         estimate D2E/DX2                !
 ! D37   D(11,14,17,18)         60.3644         estimate D2E/DX2                !
 ! D38   D(11,14,17,19)        180.0            estimate D2E/DX2                !
 ! D39   D(11,14,17,20)        -60.3644         estimate D2E/DX2                !
 ! D40   D(15,14,17,18)       -178.4712         estimate D2E/DX2                !
 ! D41   D(15,14,17,19)        -58.8357         estimate D2E/DX2                !
 ! D42   D(15,14,17,20)         60.7999         estimate D2E/DX2                !
 ! D43   D(16,14,17,18)        -60.7999         estimate D2E/DX2                !
 ! D44   D(16,14,17,19)         58.8357         estimate D2E/DX2                !
 ! D45   D(16,14,17,20)        178.4712         estimate D2E/DX2                !
 --------------------------------------------------------------------------------
 Trust Radius=3.00D-01 FncErr=1.00D-07 GrdErr=1.00D-07
 Number of steps in this run= 110 maximum allowed number of steps= 120.
 GradGradGradGradGradGradGradGradGradGradGradGradGradGradGradGradGradGrad

 Leave Link  103 at Mon Sep 14 19:11:54 2015, MaxMem=  402653184 cpu:       0.0
 (Enter /share/apps/g09/l202.exe)
                          Input orientation:                          
 ---------------------------------------------------------------------
 Center     Atomic      Atomic             Coordinates (Angstroms)
 Number     Number       Type             X           Y           Z
 ---------------------------------------------------------------------
      1          6           0        3.194800   -0.212500    0.000000
      2          1           0        3.270800   -0.853600   -0.907800
      3          1           0        3.270800   -0.853600    0.907800
      4          1           0        4.043800    0.508000    0.000000
      5          6           0        1.874400    0.553300    0.000000
      6          1           0        1.841500    1.204600    0.904300
      7          1           0        1.841500    1.204600   -0.904300
      8          6           0        0.662500   -0.386200    0.000000
      9          1           0        0.705600   -1.036700    0.905100
     10          1           0        0.705600   -1.036700   -0.905100
     11          6           0       -0.662500    0.386200    0.000000
     12          1           0       -0.705600    1.036700   -0.905100
     13          1           0       -0.705600    1.036700    0.905100
     14          6           0       -1.874400   -0.553300    0.000000
     15          1           0       -1.841500   -1.204600    0.904300
     16          1           0       -1.841500   -1.204600   -0.904300
     17          6           0       -3.194800    0.212500    0.000000
     18          1           0       -3.270800    0.853600   -0.907800
     19          1           0       -4.043800   -0.508000    0.000000
     20          1           0       -3.270800    0.853600    0.907800
 ---------------------------------------------------------------------
                    Distance matrix (angstroms):
                    1          2          3          4          5
     1  C    0.000000
     2  H    1.113951   0.000000
     3  H    1.113951   1.815600   0.000000
     4  H    1.113518   1.809858   1.809858   0.000000
     5  C    1.526403   2.180230   2.180230   2.169873   0.000000
     6  H    2.158090   3.092376   2.505813   2.480551   1.114914
     7  H    2.158090   2.505813   3.092376   2.480551   1.114914
     8  C    2.538250   2.801034   2.801034   3.497540   1.533415
     9  H    2.773919   3.146487   2.571728   3.787992   2.171036
    10  H    2.773919   2.571728   3.146487   3.787992   2.171036
    11  C    3.903486   4.222802   4.222802   4.707876   2.542397
    12  H    4.194380   4.402840   4.761470   4.863695   2.776559
    13  H    4.194380   4.761470   4.402840   4.863695   2.776559
    14  C    5.080643   5.233294   5.233294   6.012607   3.908717
    15  H    5.212134   5.435303   5.124336   6.195766   4.209024
    16  H    5.212134   5.124336   5.435303   6.195766   4.209024
    17  C    6.403719   6.615486   6.615486   7.244629   5.080643
    18  H    6.615486   6.760700   7.000248   7.378815   5.233294
    19  H    7.244629   7.378815   7.378815   8.151167   6.012607
    20  H    6.615486   7.000248   6.760700   7.378815   5.233294
                    6          7          8          9         10
     6  H    0.000000
     7  H    1.808600   0.000000
     8  C    2.176797   2.176797   0.000000
     9  H    2.512707   3.096389   1.115443   0.000000
    10  H    3.096389   2.512707   1.115443   1.810200   0.000000
    11  C    2.785238   2.785238   1.533697   2.171531   2.171531
    12  H    3.128872   2.552628   2.171531   3.093105   2.508082
    13  H    2.552628   3.128872   2.171531   2.508082   3.093105
    14  C    4.209024   4.209024   2.542397   2.776559   2.776559
    15  H    4.400992   4.758126   2.785238   2.552628   3.128872
    16  H    4.758126   4.400992   2.785238   3.128872   2.552628
    17  C    5.212134   5.212134   3.903486   4.194380   4.194380
    18  H    5.435303   5.124336   4.222802   4.761470   4.402840
    19  H    6.195766   6.195766   4.707876   4.863695   4.863695
    20  H    5.124336   5.435303   4.222802   4.402840   4.761470
                   11         12         13         14         15
    11  C    0.000000
    12  H    1.115443   0.000000
    13  H    1.115443   1.810200   0.000000
    14  C    1.533415   2.171036   2.171036   0.000000
    15  H    2.176797   3.096389   2.512707   1.114914   0.000000
    16  H    2.176797   2.512707   3.096389   1.114914   1.808600
    17  C    2.538250   2.773919   2.773919   1.526403   2.158090
    18  H    2.801034   2.571728   3.146487   2.180230   3.092376
    19  H    3.497540   3.787992   3.787992   2.169873   2.480551
    20  H    2.801034   3.146487   2.571728   2.180230   2.505813
                   16         17         18         19         20
    16  H    0.000000
    17  C    2.158090   0.000000
    18  H    2.505813   1.113951   0.000000
    19  H    2.480551   1.113518   1.809858   0.000000
    20  H    3.092376   1.113951   1.815600   1.809858   0.000000
 Stoichiometry    C6H14
 Framework group  C2H[SGH(C6H2),X(H12)]
 Deg. of freedom    16
 Full point group                 C2H     NOp   4
 Largest Abelian subgroup         C2H     NOp   4
 Largest concise Abelian subgroup C2H     NOp   4
                         Standard orientation:                         
 ---------------------------------------------------------------------
 Center     Atomic      Atomic             Coordinates (Angstroms)
 Number     Number       Type             X           Y           Z
 ---------------------------------------------------------------------
      1          6           0        1.419018    2.870242    0.000000
      2          1           0        0.902570    3.257627    0.907800
      3          1           0        0.902570    3.257627   -0.907800
      4          1           0        2.468225    3.243185    0.000000
      5          6           0        1.419018    1.343840    0.000000
      6          1           0        1.965913    0.988621   -0.904300
      7          1           0        1.965913    0.988621    0.904300
      8          6           0       -0.001701    0.766847    0.000000
      9          1           0       -0.542786    1.130487   -0.905100
     10          1           0       -0.542786    1.130487    0.905100
     11          6           0        0.001701   -0.766847    0.000000
     12          1           0        0.542786   -1.130487    0.905100
     13          1           0        0.542786   -1.130487   -0.905100
     14          6           0       -1.419018   -1.343840    0.000000
     15          1           0       -1.965913   -0.988621   -0.904300
     16          1           0       -1.965913   -0.988621    0.904300
     17          6           0       -1.419018   -2.870242    0.000000
     18          1           0       -0.902570   -3.257627    0.907800
     19          1           0       -2.468225   -3.243185    0.000000
     20          1           0       -0.902570   -3.257627   -0.907800
 ---------------------------------------------------------------------
 Rotational constants (GHZ):     14.2090367      1.1446655      1.1052990
 Leave Link  202 at Mon Sep 14 19:11:56 2015, MaxMem=  402653184 cpu:       0.0
 (Enter /share/apps/g09/l301.exe)
 Standard basis: VSTO-6G (5D, 7F)
 Ernie: Thresh=  0.10000D-02 Tol=  0.10000D-05 Strict=F.
  NNHCO=     0 NNPyr=     0 NCTC=     0               EPep=         0.000000000
    EC=       123.385959589  ECS=         3.147094152   EG=         0.309507679
   EHC=         0.000408986  EAt=       -31.187935768  AtH=         2.796400831
 EPDDG=         0.000000000  ECC=       126.842970406 EAtT=        33.984336599
 There are    13 symmetry adapted basis functions of AG  symmetry.
 There are     6 symmetry adapted basis functions of BG  symmetry.
 There are     6 symmetry adapted basis functions of AU  symmetry.
 There are    13 symmetry adapted basis functions of BU  symmetry.
 Integral buffers will be    131072 words long.
 Regular integral format.
 Two-electron integral symmetry is turned off.
    38 basis functions,   228 primitive gaussians,    38 cartesian basis functions
    19 alpha electrons       19 beta electrons
       nuclear repulsion energy       160.8273070045 Hartrees.
 IExCor=    0 DFT=F Ex=HF Corr=None ExCW=0 ScaHFX=  1.000000
 ScaDFX=  1.000000  1.000000  1.000000  1.000000 ScalE2=  1.000000  1.000000
 IRadAn=      0 IRanWt=     -1 IRanGd=            0 ICorTp=0
 Leave Link  301 at Mon Sep 14 19:11:56 2015, MaxMem=  402653184 cpu:       0.1
 (Enter /share/apps/g09/l302.exe)
 Do NDO integrals.
 NPDir=0 NMtPBC=     1 NCelOv=     1 NCel=       1 NClECP=     1 NCelD=      1
         NCelK=      1 NCelE2=     1 NClLst=     1 CellRange=     0.0.
 One-electron integrals computed using PRISM.
 NBasis=    38 RedAO= F  NBF=    13     6     6    13
 NBsUse=    38 1.00D-04 NBFU=    13     6     6    13
 Leave Link  302 at Mon Sep 14 19:11:57 2015, MaxMem=  402653184 cpu:       0.2
 (Enter /share/apps/g09/l303.exe)
 DipDrv:  MaxL=1.
 Leave Link  303 at Mon Sep 14 19:11:57 2015, MaxMem=  402653184 cpu:       0.0
 (Enter /share/apps/g09/l401.exe)
 Simple Huckel Guess.
 Initial guess orbital symmetries:
       Occupied  (AG) (BU) (AG) (BU) (BU) (AG) (AU) (BG) (AG) (BU)
                 (AU) (AG) (BU) (BG) (BU) (AU) (BG) (AG) (AG)
       Virtual   (BU) (BU) (AG) (AU) (AG) (BG) (BU) (AU) (BU) (AG)
                 (BG) (AU) (BG) (AG) (BU) (AG) (BU) (AG) (BU)
 The electronic state of the initial guess is 1-AG.
 Leave Link  401 at Mon Sep 14 19:11:59 2015, MaxMem=  402653184 cpu:       0.1
 (Enter /share/apps/g09/l502.exe)
 Closed shell SCF:
 Requested convergence on RMS density matrix=1.00D-08 within 128 cycles.
 Requested convergence on MAX density matrix=1.00D-06.
 Requested convergence on             energy=1.00D-06.
 No special actions if energy rises.
 Using DIIS extrapolation, IDIIS=  1040.
 Overlap will be assumed to be unity.
 Two-electron integral symmetry not used.
 Keep J ints in memory in canonical form, NReq=884654.
 IEnd=       81865 IEndB=       81865 NGot=   402653184 MDV=   402586639
 LenX=   402586639 LenY=   402584754
 Symmetry not used in FoFDir.
 MinBra= 0 MaxBra= 1 Meth=40.
 IRaf=       0 NMat=   1 IRICut=       1 DoRegI=T DoRafI=F ISym2E= 0 JSym2E=0.

 Cycle   1  Pass 1  IDiag  1:
 E= 0.732464558120398E-01
 DIIS: error= 2.20D-02 at cycle   1 NSaved=   1.
 NSaved= 1 IEnMin= 1 EnMin= 0.732464558120398E-01 IErMin= 1 ErrMin= 2.20D-02
 ErrMax= 2.20D-02 EMaxC= 1.00D-01 BMatC= 4.42D-02 BMatP= 4.42D-02
 IDIUse=3 WtCom= 7.80D-01 WtEn= 2.20D-01
 Coeff-Com:  0.100D+01
 Coeff-En:   0.100D+01
 Coeff:      0.100D+01
 GapD=    2.000 DampG=2.000 DampE=0.500 DampFc=1.0000 IDamp=-1.
 RMSDP=8.42D-03 MaxDP=6.95D-02              OVMax= 0.00D+00

 Cycle   2  Pass 1  IDiag  1:
 E=-0.444516309765959E-01 Delta-E=       -0.117698086789 Rises=F Damp=F
 DIIS: error= 5.29D-03 at cycle   2 NSaved=   2.
 NSaved= 2 IEnMin= 2 EnMin=-0.444516309765959E-01 IErMin= 2 ErrMin= 5.29D-03
 ErrMax= 5.29D-03 EMaxC= 1.00D-01 BMatC= 3.01D-03 BMatP= 4.42D-02
 IDIUse=3 WtCom= 9.47D-01 WtEn= 5.29D-02
 Coeff-Com: -0.328D+00 0.133D+01
 Coeff-En:   0.000D+00 0.100D+01
 Coeff:     -0.311D+00 0.131D+01
 RMSDP=3.10D-03 MaxDP=2.15D-02 DE=-1.18D-01 OVMax= 0.00D+00

 Cycle   3  Pass 1  IDiag  3:
 E=-0.542708313184335E-01 Delta-E=       -0.009819200342 Rises=F Damp=F
 DIIS: error= 1.17D-03 at cycle   3 NSaved=   3.
 NSaved= 3 IEnMin= 3 EnMin=-0.542708313184335E-01 IErMin= 3 ErrMin= 1.17D-03
 ErrMax= 1.17D-03 EMaxC= 1.00D-01 BMatC= 8.50D-05 BMatP= 3.01D-03
 IDIUse=3 WtCom= 9.88D-01 WtEn= 1.17D-02
 Coeff-Com:  0.258D+00-0.109D+01 0.183D+01
 Coeff-En:   0.000D+00 0.000D+00 0.100D+01
 Coeff:      0.255D+00-0.108D+01 0.182D+01
 Gap=     0.555 Goal=   None    Shift=    0.000
 Fock symm off for IB=2 I1=    1 I=   14 J=    8 Cut=1.00D-07 Err=8.21D-04
 Fock matrix is not symmetric: symmetry in diagonalization turned off.
 RMSDP=8.96D-04 MaxDP=9.19D-03 DE=-9.82D-03 OVMax= 0.00D+00

 Cycle   4  Pass 1  IDiag  3:
 E=-0.547834135366543E-01 Delta-E=       -0.000512582218 Rises=F Damp=F
 DIIS: error= 3.32D-04 at cycle   4 NSaved=   4.
 NSaved= 4 IEnMin= 4 EnMin=-0.547834135366543E-01 IErMin= 4 ErrMin= 3.32D-04
 ErrMax= 3.32D-04 EMaxC= 1.00D-01 BMatC= 4.26D-06 BMatP= 8.50D-05
 IDIUse=3 WtCom= 9.97D-01 WtEn= 3.32D-03
 Coeff-Com: -0.121D+00 0.515D+00-0.102D+01 0.162D+01
 Coeff-En:   0.000D+00 0.000D+00 0.000D+00 0.100D+01
 Coeff:     -0.120D+00 0.513D+00-0.101D+01 0.162D+01
 Gap=     0.556 Goal=   None    Shift=    0.000
 RMSDP=2.25D-04 MaxDP=2.32D-03 DE=-5.13D-04 OVMax= 0.00D+00

 Cycle   5  Pass 1  IDiag  3:
 E=-0.548124844238203E-01 Delta-E=       -0.000029070887 Rises=F Damp=F
 DIIS: error= 8.50D-05 at cycle   5 NSaved=   5.
 NSaved= 5 IEnMin= 5 EnMin=-0.548124844238203E-01 IErMin= 5 ErrMin= 8.50D-05
 ErrMax= 8.50D-05 EMaxC= 1.00D-01 BMatC= 3.93D-07 BMatP= 4.26D-06
 IDIUse=1 WtCom= 1.00D+00 WtEn= 0.00D+00
 Coeff-Com:  0.728D-01-0.313D+00 0.656D+00-0.129D+01 0.187D+01
 Coeff:      0.728D-01-0.313D+00 0.656D+00-0.129D+01 0.187D+01
 Gap=     0.556 Goal=   None    Shift=    0.000
 RMSDP=7.65D-05 MaxDP=7.04D-04 DE=-2.91D-05 OVMax= 0.00D+00

 Cycle   6  Pass 1  IDiag  3:
 E=-0.548154871998179E-01 Delta-E=       -0.000003002776 Rises=F Damp=F
 DIIS: error= 2.34D-05 at cycle   6 NSaved=   6.
 NSaved= 6 IEnMin= 6 EnMin=-0.548154871998179E-01 IErMin= 6 ErrMin= 2.34D-05
 ErrMax= 2.34D-05 EMaxC= 1.00D-01 BMatC= 2.39D-08 BMatP= 3.93D-07
 IDIUse=1 WtCom= 1.00D+00 WtEn= 0.00D+00
 Coeff-Com:  0.106D-02-0.375D-02-0.622D-02 0.729D-01-0.366D+00 0.130D+01
 Coeff:      0.106D-02-0.375D-02-0.622D-02 0.729D-01-0.366D+00 0.130D+01
 Gap=     0.556 Goal=   None    Shift=    0.000
 RMSDP=1.79D-05 MaxDP=1.92D-04 DE=-3.00D-06 OVMax= 0.00D+00

 Cycle   7  Pass 1  IDiag  3:
 E=-0.548156517735663E-01 Delta-E=       -0.000000164574 Rises=F Damp=F
 DIIS: error= 4.58D-06 at cycle   7 NSaved=   7.
 NSaved= 7 IEnMin= 7 EnMin=-0.548156517735663E-01 IErMin= 7 ErrMin= 4.58D-06
 ErrMax= 4.58D-06 EMaxC= 1.00D-01 BMatC= 1.82D-09 BMatP= 2.39D-08
 IDIUse=1 WtCom= 1.00D+00 WtEn= 0.00D+00
 Coeff-Com:  0.325D-03-0.177D-02 0.963D-02-0.433D-01 0.184D+00-0.764D+00
 Coeff-Com:  0.162D+01
 Coeff:      0.325D-03-0.177D-02 0.963D-02-0.433D-01 0.184D+00-0.764D+00
 Coeff:      0.162D+01
 Gap=     0.556 Goal=   None    Shift=    0.000
 RMSDP=4.47D-06 MaxDP=4.23D-05 DE=-1.65D-07 OVMax= 0.00D+00

 Cycle   8  Pass 1  IDiag  3:
 E=-0.548156629666892E-01 Delta-E=       -0.000000011193 Rises=F Damp=F
 DIIS: error= 1.32D-06 at cycle   8 NSaved=   8.
 NSaved= 8 IEnMin= 8 EnMin=-0.548156629666892E-01 IErMin= 8 ErrMin= 1.32D-06
 ErrMax= 1.32D-06 EMaxC= 1.00D-01 BMatC= 9.58D-11 BMatP= 1.82D-09
 IDIUse=1 WtCom= 1.00D+00 WtEn= 0.00D+00
 Coeff-Com: -0.281D-03 0.148D-02-0.721D-02 0.309D-01-0.128D+00 0.539D+00
 Coeff-Com: -0.125D+01 0.182D+01
 Coeff:     -0.281D-03 0.148D-02-0.721D-02 0.309D-01-0.128D+00 0.539D+00
 Coeff:     -0.125D+01 0.182D+01
 Gap=     0.556 Goal=   None    Shift=    0.000
 RMSDP=1.07D-06 MaxDP=1.06D-05 DE=-1.12D-08 OVMax= 0.00D+00

 Cycle   9  Pass 1  IDiag  3:
 E=-0.548156635475721E-01 Delta-E=       -0.000000000581 Rises=F Damp=F
 DIIS: error= 1.46D-07 at cycle   9 NSaved=   9.
 NSaved= 9 IEnMin= 9 EnMin=-0.548156635475721E-01 IErMin= 9 ErrMin= 1.46D-07
 ErrMax= 1.46D-07 EMaxC= 1.00D-01 BMatC= 1.39D-12 BMatP= 9.58D-11
 IDIUse=1 WtCom= 1.00D+00 WtEn= 0.00D+00
 Coeff-Com: -0.958D-05-0.375D-04 0.129D-02-0.745D-02 0.347D-01-0.153D+00
 Coeff-Com:  0.368D+00-0.611D+00 0.137D+01
 Coeff:     -0.958D-05-0.375D-04 0.129D-02-0.745D-02 0.347D-01-0.153D+00
 Coeff:      0.368D+00-0.611D+00 0.137D+01
 Gap=     0.556 Goal=   None    Shift=    0.000
 RMSDP=1.03D-07 MaxDP=9.14D-07 DE=-5.81D-10 OVMax= 0.00D+00

 Cycle  10  Pass 1  IDiag  3:
 E=-0.548156635538248E-01 Delta-E=       -0.000000000006 Rises=F Damp=F
 DIIS: error= 1.46D-08 at cycle  10 NSaved=  10.
 NSaved=10 IEnMin=10 EnMin=-0.548156635538248E-01 IErMin=10 ErrMin= 1.46D-08
 ErrMax= 1.46D-08 EMaxC= 1.00D-01 BMatC= 2.62D-14 BMatP= 1.39D-12
 IDIUse=1 WtCom= 1.00D+00 WtEn= 0.00D+00
 Coeff-Com: -0.154D-05 0.300D-04-0.421D-03 0.227D-02-0.103D-01 0.453D-01
 Coeff-Com: -0.109D+00 0.185D+00-0.493D+00 0.138D+01
 Coeff:     -0.154D-05 0.300D-04-0.421D-03 0.227D-02-0.103D-01 0.453D-01
 Coeff:     -0.109D+00 0.185D+00-0.493D+00 0.138D+01
 Gap=     0.556 Goal=   None    Shift=    0.000
 RMSDP=1.30D-08 MaxDP=7.05D-08 DE=-6.25D-12 OVMax= 0.00D+00

 Cycle  11  Pass 1  IDiag  3:
 E=-0.548156635544217E-01 Delta-E=       -0.000000000001 Rises=F Damp=F
 DIIS: error= 2.74D-09 at cycle  11 NSaved=  11.
 NSaved=11 IEnMin=11 EnMin=-0.548156635544217E-01 IErMin=11 ErrMin= 2.74D-09
 ErrMax= 2.74D-09 EMaxC= 1.00D-01 BMatC= 6.38D-16 BMatP= 2.62D-14
 IDIUse=1 WtCom= 1.00D+00 WtEn= 0.00D+00
 Coeff-Com:  0.145D-05-0.137D-04 0.143D-03-0.738D-03 0.331D-02-0.144D-01
 Coeff-Com:  0.348D-01-0.591D-01 0.161D+00-0.537D+00 0.141D+01
 Coeff:      0.145D-05-0.137D-04 0.143D-03-0.738D-03 0.331D-02-0.144D-01
 Coeff:      0.348D-01-0.591D-01 0.161D+00-0.537D+00 0.141D+01
 Gap=     0.556 Goal=   None    Shift=    0.000
 RMSDP=2.17D-09 MaxDP=1.09D-08 DE=-5.97D-13 OVMax= 0.00D+00

 Cycle  12  Pass 2  IDiag  1:
 RMSDP=2.17D-09 MaxDP=1.09D-08 DE=-5.97D-13 OVMax= 0.00D+00

 SCF Done:  E(RPM6) = -0.548156635544E-01 A.U. after   12 cycles
             Convg  =    0.2171D-08             -V/T =  0.9990
 KE=-5.601296891593D+01 PE=-2.428403596440D+02 EE= 1.379712058918D+02
 Leave Link  502 at Mon Sep 14 19:12:00 2015, MaxMem=  402653184 cpu:       1.0
 (Enter /share/apps/g09/l601.exe)
 Copying SCF densities to generalized density rwf, IOpCl= 0 IROHF=0.

 **********************************************************************

            Population analysis using the SCF density.

 **********************************************************************

 Orbital symmetries:
       Occupied  (AG) (BU) (AG) (BU) (BU) (AG) (AU) (BG) (AG) (BU)
                 (AU) (BU) (AG) (BG) (BU) (AG) (AU) (AG) (BG)
       Virtual   (BU) (BU) (AG) (AG) (BU) (AU) (BG) (AU) (BU) (AG)
                 (BG) (AU) (BG) (BU) (AG) (BU) (AG) (AG) (BU)
 The electronic state is 1-AG.
 Alpha  occ. eigenvalues --   -1.05110  -0.99794  -0.90818  -0.80018  -0.73250
 Alpha  occ. eigenvalues --   -0.72605  -0.60670  -0.55923  -0.54255  -0.52859
 Alpha  occ. eigenvalues --   -0.50006  -0.48017  -0.47923  -0.44933  -0.43855
 Alpha  occ. eigenvalues --   -0.42092  -0.41847  -0.41035  -0.40536
 Alpha virt. eigenvalues --    0.15047   0.15694   0.16599   0.18143   0.18513
 Alpha virt. eigenvalues --    0.20201   0.20817   0.21714   0.21781   0.21862
 Alpha virt. eigenvalues --    0.22486   0.23114   0.23614   0.23794   0.24212
 Alpha virt. eigenvalues --    0.24406   0.24538   0.24930   0.25048
          Condensed to atoms (all electrons):
              1          2          3          4          5          6
     1  C    4.463467   0.000000   0.000000   0.000000   0.000000   0.000000
     2  H    0.000000   0.852426   0.000000   0.000000   0.000000   0.000000
     3  H    0.000000   0.000000   0.852426   0.000000   0.000000   0.000000
     4  H    0.000000   0.000000   0.000000   0.855366   0.000000   0.000000
     5  C    0.000000   0.000000   0.000000   0.000000   4.227329   0.000000
     6  H    0.000000   0.000000   0.000000   0.000000   0.000000   0.873027
     7  H    0.000000   0.000000   0.000000   0.000000   0.000000   0.000000
     8  C    0.000000   0.000000   0.000000   0.000000   0.000000   0.000000
     9  H    0.000000   0.000000   0.000000   0.000000   0.000000   0.000000
    10  H    0.000000   0.000000   0.000000   0.000000   0.000000   0.000000
    11  C    0.000000   0.000000   0.000000   0.000000   0.000000   0.000000
    12  H    0.000000   0.000000   0.000000   0.000000   0.000000   0.000000
    13  H    0.000000   0.000000   0.000000   0.000000   0.000000   0.000000
    14  C    0.000000   0.000000   0.000000   0.000000   0.000000   0.000000
    15  H    0.000000   0.000000   0.000000   0.000000   0.000000   0.000000
    16  H    0.000000   0.000000   0.000000   0.000000   0.000000   0.000000
    17  C    0.000000   0.000000   0.000000   0.000000   0.000000   0.000000
    18  H    0.000000   0.000000   0.000000   0.000000   0.000000   0.000000
    19  H    0.000000   0.000000   0.000000   0.000000   0.000000   0.000000
    20  H    0.000000   0.000000   0.000000   0.000000   0.000000   0.000000
              7          8          9         10         11         12
     1  C    0.000000   0.000000   0.000000   0.000000   0.000000   0.000000
     2  H    0.000000   0.000000   0.000000   0.000000   0.000000   0.000000
     3  H    0.000000   0.000000   0.000000   0.000000   0.000000   0.000000
     4  H    0.000000   0.000000   0.000000   0.000000   0.000000   0.000000
     5  C    0.000000   0.000000   0.000000   0.000000   0.000000   0.000000
     6  H    0.000000   0.000000   0.000000   0.000000   0.000000   0.000000
     7  H    0.873027   0.000000   0.000000   0.000000   0.000000   0.000000
     8  C    0.000000   4.268333   0.000000   0.000000   0.000000   0.000000
     9  H    0.000000   0.000000   0.867300   0.000000   0.000000   0.000000
    10  H    0.000000   0.000000   0.000000   0.867300   0.000000   0.000000
    11  C    0.000000   0.000000   0.000000   0.000000   4.268333   0.000000
    12  H    0.000000   0.000000   0.000000   0.000000   0.000000   0.867300
    13  H    0.000000   0.000000   0.000000   0.000000   0.000000   0.000000
    14  C    0.000000   0.000000   0.000000   0.000000   0.000000   0.000000
    15  H    0.000000   0.000000   0.000000   0.000000   0.000000   0.000000
    16  H    0.000000   0.000000   0.000000   0.000000   0.000000   0.000000
    17  C    0.000000   0.000000   0.000000   0.000000   0.000000   0.000000
    18  H    0.000000   0.000000   0.000000   0.000000   0.000000   0.000000
    19  H    0.000000   0.000000   0.000000   0.000000   0.000000   0.000000
    20  H    0.000000   0.000000   0.000000   0.000000   0.000000   0.000000
             13         14         15         16         17         18
     1  C    0.000000   0.000000   0.000000   0.000000   0.000000   0.000000
     2  H    0.000000   0.000000   0.000000   0.000000   0.000000   0.000000
     3  H    0.000000   0.000000   0.000000   0.000000   0.000000   0.000000
     4  H    0.000000   0.000000   0.000000   0.000000   0.000000   0.000000
     5  C    0.000000   0.000000   0.000000   0.000000   0.000000   0.000000
     6  H    0.000000   0.000000   0.000000   0.000000   0.000000   0.000000
     7  H    0.000000   0.000000   0.000000   0.000000   0.000000   0.000000
     8  C    0.000000   0.000000   0.000000   0.000000   0.000000   0.000000
     9  H    0.000000   0.000000   0.000000   0.000000   0.000000   0.000000
    10  H    0.000000   0.000000   0.000000   0.000000   0.000000   0.000000
    11  C    0.000000   0.000000   0.000000   0.000000   0.000000   0.000000
    12  H    0.000000   0.000000   0.000000   0.000000   0.000000   0.000000
    13  H    0.867300   0.000000   0.000000   0.000000   0.000000   0.000000
    14  C    0.000000   4.227329   0.000000   0.000000   0.000000   0.000000
    15  H    0.000000   0.000000   0.873027   0.000000   0.000000   0.000000
    16  H    0.000000   0.000000   0.000000   0.873027   0.000000   0.000000
    17  C    0.000000   0.000000   0.000000   0.000000   4.463467   0.000000
    18  H    0.000000   0.000000   0.000000   0.000000   0.000000   0.852426
    19  H    0.000000   0.000000   0.000000   0.000000   0.000000   0.000000
    20  H    0.000000   0.000000   0.000000   0.000000   0.000000   0.000000
             19         20
     1  C    0.000000   0.000000
     2  H    0.000000   0.000000
     3  H    0.000000   0.000000
     4  H    0.000000   0.000000
     5  C    0.000000   0.000000
     6  H    0.000000   0.000000
     7  H    0.000000   0.000000
     8  C    0.000000   0.000000
     9  H    0.000000   0.000000
    10  H    0.000000   0.000000
    11  C    0.000000   0.000000
    12  H    0.000000   0.000000
    13  H    0.000000   0.000000
    14  C    0.000000   0.000000
    15  H    0.000000   0.000000
    16  H    0.000000   0.000000
    17  C    0.000000   0.000000
    18  H    0.000000   0.000000
    19  H    0.855366   0.000000
    20  H    0.000000   0.852426
 Mulliken atomic charges:
              1
     1  C   -0.463467
     2  H    0.147574
     3  H    0.147574
     4  H    0.144634
     5  C   -0.227329
     6  H    0.126973
     7  H    0.126973
     8  C   -0.268333
     9  H    0.132700
    10  H    0.132700
    11  C   -0.268333
    12  H    0.132700
    13  H    0.132700
    14  C   -0.227329
    15  H    0.126973
    16  H    0.126973
    17  C   -0.463467
    18  H    0.147574
    19  H    0.144634
    20  H    0.147574
 Sum of Mulliken atomic charges =   0.00000
 Mulliken charges with hydrogens summed into heavy atoms:
              1
     1  C   -0.023685
     5  C    0.026617
     8  C   -0.002932
    11  C   -0.002932
    14  C    0.026617
    17  C   -0.023685
 Sum of Mulliken charges with hydrogens summed into heavy atoms =   0.00000
 Charge=              0.0000 electrons
 Dipole moment (field-independent basis, Debye):
    X=              0.0000    Y=              0.0000    Z=              0.0000  Tot=              0.0000
 N-N= 1.608273070045D+02 E-N=-2.428403596449D+02  KE=-5.601296891593D+01
 Leave Link  601 at Mon Sep 14 19:12:01 2015, MaxMem=  402653184 cpu:       0.0
 (Enter /share/apps/g09/l701.exe)
 Compute integral first derivatives.
 ... and contract with generalized density number  0.
 Leave Link  701 at Mon Sep 14 19:12:01 2015, MaxMem=  402653184 cpu:       0.1
 (Enter /share/apps/g09/l702.exe)
 L702 exits ... SP integral derivatives will be done elsewhere.
 Leave Link  702 at Mon Sep 14 19:12:07 2015, MaxMem=  402653184 cpu:       0.0
 (Enter /share/apps/g09/l703.exe)
 Compute integral first derivatives, UseDBF=F ICtDFT=           0.
 Integral derivatives from FoFDir, PRISM(SPDF).
 Calling FoFJK, ICntrl=      2127 FMM=F ISym2X=1 I1Cent= 0 IOpClX= 0 NMat=1 NMatS=1 NMatT=0.
 FoFCou: FMM=F IPFlag=           0 FMFlag=      100000 FMFlg1=         800
         NFxFlg=           0 DoJE=F BraDBF=F KetDBF=F FulRan=T
         Omega=  0.000000  0.000000  1.000000  0.000000  0.000000 ICntrl=    2127 IOpCl=  0
         NMat0=    1 NMatS0=    1 NMatT0=    0 NMatD0=    1 NMtDS0=    0 NMtDT0=    0
         I1Cent=           0 NGrid=           0.
 Symmetry not used in FoFCou.
 Leave Link  703 at Mon Sep 14 19:12:09 2015, MaxMem=  402653184 cpu:       0.0
 (Enter /share/apps/g09/l716.exe)
 Dipole        =-3.79696274D-14-2.04281037D-14-1.11022302D-15
 ***** Axes restored to original set *****
 -------------------------------------------------------------------
 Center     Atomic                   Forces (Hartrees/Bohr)
 Number     Number              X              Y              Z
 -------------------------------------------------------------------
      1        6           0.003339215   -0.002199444    0.000000000
      2        1           0.001963933    0.004379030    0.009296213
      3        1           0.001963933    0.004379030   -0.009296213
      4        1          -0.005160837   -0.008643689    0.000000000
      5        6           0.000219091    0.002950281    0.000000000
      6        1          -0.001073262    0.000252922   -0.004889706
      7        1          -0.001073262    0.000252922    0.004889706
      8        6          -0.000518947   -0.003443789    0.000000000
      9        1           0.000150157   -0.000074579   -0.005522217
     10        1           0.000150157   -0.000074579    0.005522217
     11        6           0.000518947    0.003443789    0.000000000
     12        1          -0.000150157    0.000074579    0.005522217
     13        1          -0.000150157    0.000074579   -0.005522217
     14        6          -0.000219091   -0.002950281    0.000000000
     15        1           0.001073262   -0.000252922   -0.004889706
     16        1           0.001073262   -0.000252922    0.004889706
     17        6          -0.003339215    0.002199444    0.000000000
     18        1          -0.001963933   -0.004379030    0.009296213
     19        1           0.005160837    0.008643689    0.000000000
     20        1          -0.001963933   -0.004379030   -0.009296213
 -------------------------------------------------------------------
 Cartesian Forces:  Max     0.009296213 RMS     0.003951446
 Leave Link  716 at Mon Sep 14 19:12:09 2015, MaxMem=  402653184 cpu:       0.1
 (Enter /share/apps/g09/l103.exe)

 GradGradGradGradGradGradGradGradGradGradGradGradGradGradGradGradGradGrad
 Berny optimization.
 Internal  Forces:  Max     0.009962056 RMS     0.003082759
 Search for a local minimum.
 Step number   1 out of a maximum of  110
 All quantities printed in internal units (Hartrees-Bohrs-Radians)
 RMS Force = .30828D-02 SwitMx=.10000D-02 MixMth= 1
 Mixed Optimization -- RFO/linear search
 Second derivative matrix not updated -- first step.
     Eigenvalues ---    0.00320   0.00324   0.00324   0.00417   0.00417
     Eigenvalues ---    0.03634   0.03634   0.03658   0.03658   0.04872
     Eigenvalues ---    0.04872   0.04897   0.04897   0.05668   0.05668
     Eigenvalues ---    0.05779   0.05779   0.08133   0.08133   0.08184
     Eigenvalues ---    0.08184   0.12060   0.12060   0.12088   0.12088
     Eigenvalues ---    0.16000   0.16000   0.16000   0.16000   0.16000
     Eigenvalues ---    0.16000   0.21969   0.21969   0.21969   0.21969
     Eigenvalues ---    0.29085   0.29110   0.29110   0.29758   0.29758
     Eigenvalues ---    0.32030   0.32030   0.32030   0.32030   0.32085
     Eigenvalues ---    0.32085   0.32085   0.32085   0.32185   0.32185
     Eigenvalues ---    0.32185   0.32185   0.32230   0.322301000.00000
     Eigenvalues --- 1000.000001000.000001000.000001000.000001000.00000
     Eigenvalues --- 1000.000001000.000001000.000001000.000001000.00000
     Eigenvalues --- 1000.000001000.000001000.000001000.000001000.00000
     Eigenvalues --- 1000.000001000.000001000.000001000.000001000.00000
     Eigenvalues --- 1000.000001000.000001000.000001000.000001000.00000
     Eigenvalues --- 1000.000001000.000001000.000001000.000001000.00000
     Eigenvalues --- 1000.000001000.000001000.000001000.000001000.00000
     Eigenvalues --- 1000.000001000.000001000.000001000.000001000.00000
     Eigenvalues --- 1000.000001000.000001000.000001000.000001000.00000
 RFO step:  Lambda=-4.00303310D-03 EMin= 3.20199554D-03
 Linear search not attempted -- first point.
 Iteration  1 RMS(Cart)=  0.01753946 RMS(Int)=  0.00023807
 Iteration  2 RMS(Cart)=  0.00025876 RMS(Int)=  0.00007427
 Iteration  3 RMS(Cart)=  0.00000007 RMS(Int)=  0.00007427
 ClnCor:  largest displacement from symmetrization is 1.07D-08 for atom    13.
 Variable       Old X    -DE/DX   Delta X   Delta X   Delta X     New X
                                 (Linear)    (Quad)   (Total)
    R1        2.10506  -0.00996   0.00000  -0.03057  -0.03057   2.07449
    R2        2.10506  -0.00996   0.00000  -0.03057  -0.03057   2.07449
    R3        2.10424  -0.00953   0.00000  -0.02920  -0.02920   2.07504
    R4        2.88448   0.00287   0.00000   0.00951   0.00951   2.89399
    R5        2.10688  -0.00379   0.00000  -0.01166  -0.01166   2.09523
    R6        2.10688  -0.00379   0.00000  -0.01166  -0.01166   2.09523
    R7        2.89773   0.00098   0.00000   0.00333   0.00333   2.90106
    R8        2.10788  -0.00443   0.00000  -0.01366  -0.01366   2.09422
    R9        2.10788  -0.00443   0.00000  -0.01366  -0.01366   2.09422
   R10        2.89827   0.00108   0.00000   0.00368   0.00368   2.90195
   R11        2.10788  -0.00443   0.00000  -0.01366  -0.01366   2.09422
   R12        2.10788  -0.00443   0.00000  -0.01366  -0.01366   2.09422
   R13        2.89773   0.00098   0.00000   0.00333   0.00333   2.90106
   R14        2.10688  -0.00379   0.00000  -0.01166  -0.01166   2.09523
   R15        2.10688  -0.00379   0.00000  -0.01166  -0.01166   2.09523
   R16        2.88448   0.00287   0.00000   0.00951   0.00951   2.89399
   R17        2.10506  -0.00996   0.00000  -0.03057  -0.03057   2.07449
   R18        2.10424  -0.00953   0.00000  -0.02920  -0.02920   2.07504
   R19        2.10506  -0.00996   0.00000  -0.03057  -0.03057   2.07449
    A1        1.90524  -0.00361   0.00000  -0.02468  -0.02479   1.88045
    A2        1.89692  -0.00323   0.00000  -0.01833  -0.01857   1.87835
    A3        1.92597   0.00315   0.00000   0.01852   0.01834   1.94432
    A4        1.89692  -0.00323   0.00000  -0.01833  -0.01857   1.87835
    A5        1.92597   0.00315   0.00000   0.01852   0.01834   1.94432
    A6        1.91232   0.00355   0.00000   0.02302   0.02277   1.93509
    A7        1.89506   0.00158   0.00000   0.01503   0.01503   1.91008
    A8        1.89506   0.00158   0.00000   0.01503   0.01503   1.91008
    A9        1.95657  -0.00187   0.00000  -0.00219  -0.00221   1.95436
   A10        1.89204  -0.00199   0.00000  -0.02935  -0.02941   1.86263
   A11        1.91197   0.00034   0.00000   0.00028   0.00024   1.91220
   A12        1.91197   0.00034   0.00000   0.00028   0.00024   1.91220
   A13        1.90368   0.00110   0.00000   0.00770   0.00770   1.91137
   A14        1.90368   0.00110   0.00000   0.00770   0.00770   1.91137
   A15        1.95436  -0.00256   0.00000  -0.00527  -0.00529   1.94907
   A16        1.89318  -0.00221   0.00000  -0.03068  -0.03066   1.86252
   A17        1.90401   0.00128   0.00000   0.00974   0.00973   1.91374
   A18        1.90401   0.00128   0.00000   0.00974   0.00973   1.91374
   A19        1.90401   0.00128   0.00000   0.00974   0.00973   1.91374
   A20        1.90401   0.00128   0.00000   0.00974   0.00973   1.91374
   A21        1.95436  -0.00256   0.00000  -0.00527  -0.00529   1.94907
   A22        1.89318  -0.00221   0.00000  -0.03068  -0.03066   1.86252
   A23        1.90368   0.00110   0.00000   0.00770   0.00770   1.91137
   A24        1.90368   0.00110   0.00000   0.00770   0.00770   1.91137
   A25        1.91197   0.00034   0.00000   0.00028   0.00024   1.91220
   A26        1.91197   0.00034   0.00000   0.00028   0.00024   1.91220
   A27        1.95657  -0.00187   0.00000  -0.00219  -0.00221   1.95436
   A28        1.89204  -0.00199   0.00000  -0.02935  -0.02941   1.86263
   A29        1.89506   0.00158   0.00000   0.01503   0.01503   1.91008
   A30        1.89506   0.00158   0.00000   0.01503   0.01503   1.91008
   A31        1.92597   0.00315   0.00000   0.01852   0.01834   1.94432
   A32        1.91232   0.00355   0.00000   0.02302   0.02277   1.93509
   A33        1.92597   0.00315   0.00000   0.01852   0.01834   1.94432
   A34        1.89692  -0.00323   0.00000  -0.01833  -0.01857   1.87835
   A35        1.90524  -0.00361   0.00000  -0.02468  -0.02479   1.88045
   A36        1.89692  -0.00323   0.00000  -0.01833  -0.01857   1.87835
    D1       -3.11491   0.00010   0.00000   0.00579   0.00576  -3.10915
    D2       -1.06116  -0.00051   0.00000  -0.01250  -0.01254  -1.07370
    D3        1.05356  -0.00020   0.00000  -0.00335  -0.00339   1.05017
    D4        1.06116   0.00051   0.00000   0.01250   0.01254   1.07370
    D5        3.11491  -0.00010   0.00000  -0.00579  -0.00576   3.10915
    D6       -1.05356   0.00020   0.00000   0.00335   0.00339  -1.05017
    D7       -1.02688   0.00031   0.00000   0.00914   0.00915  -1.01772
    D8        1.02688  -0.00031   0.00000  -0.00914  -0.00915   1.01772
    D9        3.14159   0.00000   0.00000   0.00000   0.00000   3.14159
   D10        1.03245  -0.00070   0.00000  -0.01404  -0.01405   1.01840
   D11       -1.03245   0.00070   0.00000   0.01404   0.01405  -1.01840
   D12        3.14159   0.00000   0.00000   0.00000   0.00000   3.14159
   D13       -1.07250  -0.00170   0.00000  -0.03177  -0.03175  -1.10425
   D14       -3.13739  -0.00031   0.00000  -0.00368  -0.00365  -3.14105
   D15        1.03665  -0.00101   0.00000  -0.01772  -0.01770   1.01894
   D16        3.13739   0.00031   0.00000   0.00368   0.00365   3.14105
   D17        1.07250   0.00170   0.00000   0.03177   0.03175   1.10425
   D18       -1.03665   0.00101   0.00000   0.01772   0.01770  -1.01894
   D19        1.03264  -0.00059   0.00000  -0.01287  -0.01287   1.01977
   D20       -1.03264   0.00059   0.00000   0.01287   0.01287  -1.01977
   D21        3.14159   0.00000   0.00000   0.00000   0.00000   3.14159
   D22        3.14159   0.00000   0.00000   0.00000   0.00000   3.14159
   D23        1.07631   0.00119   0.00000   0.02574   0.02575   1.10206
   D24       -1.03264   0.00059   0.00000   0.01287   0.01287  -1.01977
   D25       -1.07631  -0.00119   0.00000  -0.02574  -0.02575  -1.10206
   D26        3.14159   0.00000   0.00000   0.00000   0.00000   3.14159
   D27        1.03264  -0.00059   0.00000  -0.01287  -0.01287   1.01977
   D28        1.03665  -0.00101   0.00000  -0.01772  -0.01770   1.01894
   D29       -1.03665   0.00101   0.00000   0.01772   0.01770  -1.01894
   D30        3.14159   0.00000   0.00000   0.00000   0.00000   3.14159
   D31       -3.13739  -0.00031   0.00000  -0.00368  -0.00365  -3.14105
   D32        1.07250   0.00170   0.00000   0.03177   0.03175   1.10425
   D33       -1.03245   0.00070   0.00000   0.01404   0.01405  -1.01840
   D34       -1.07250  -0.00170   0.00000  -0.03177  -0.03175  -1.10425
   D35        3.13739   0.00031   0.00000   0.00368   0.00365   3.14105
   D36        1.03245  -0.00070   0.00000  -0.01404  -0.01405   1.01840
   D37        1.05356  -0.00020   0.00000  -0.00335  -0.00339   1.05017
   D38        3.14159   0.00000   0.00000   0.00000   0.00000   3.14159
   D39       -1.05356   0.00020   0.00000   0.00335   0.00339  -1.05017
   D40       -3.11491   0.00010   0.00000   0.00579   0.00576  -3.10915
   D41       -1.02688   0.00031   0.00000   0.00914   0.00915  -1.01772
   D42        1.06116   0.00051   0.00000   0.01250   0.01254   1.07370
   D43       -1.06116  -0.00051   0.00000  -0.01250  -0.01254  -1.07370
   D44        1.02688  -0.00031   0.00000  -0.00914  -0.00915   1.01772
   D45        3.11491  -0.00010   0.00000  -0.00579  -0.00576   3.10915
         Item               Value     Threshold  Converged?
 Maximum Force            0.009962     0.000450     NO 
 RMS     Force            0.003083     0.000300     NO 
 Maximum Displacement     0.051747     0.001800     NO 
 RMS     Displacement     0.017473     0.001200     NO 
 Predicted change in Energy=-2.054341D-03
 GradGradGradGradGradGradGradGradGradGradGradGradGradGradGradGradGradGrad

 Leave Link  103 at Mon Sep 14 19:12:09 2015, MaxMem=  402653184 cpu:       0.0
 (Enter /share/apps/g09/l202.exe)
                          Input orientation:                          
 ---------------------------------------------------------------------
 Center     Atomic      Atomic             Coordinates (Angstroms)
 Number     Number       Type             X           Y           Z
 ---------------------------------------------------------------------
      1          6           0        3.198276   -0.211305    0.000000
      2          1           0        3.290217   -0.851994   -0.886662
      3          1           0        3.290217   -0.851994    0.886662
      4          1           0        4.050915    0.480617    0.000000
      5          6           0        1.872924    0.555986    0.000000
      6          1           0        1.828753    1.216184    0.889665
      7          1           0        1.828753    1.216184   -0.889665
      8          6           0        0.662450   -0.388214    0.000000
      9          1           0        0.707680   -1.048072    0.889200
     10          1           0        0.707680   -1.048072   -0.889200
     11          6           0       -0.662450    0.388214    0.000000
     12          1           0       -0.707680    1.048072   -0.889200
     13          1           0       -0.707680    1.048072    0.889200
     14          6           0       -1.872924   -0.555986    0.000000
     15          1           0       -1.828753   -1.216184    0.889665
     16          1           0       -1.828753   -1.216184   -0.889665
     17          6           0       -3.198276    0.211305    0.000000
     18          1           0       -3.290217    0.851994   -0.886662
     19          1           0       -4.050915   -0.480617    0.000000
     20          1           0       -3.290217    0.851994    0.886662
 ---------------------------------------------------------------------
                    Distance matrix (angstroms):
                    1          2          3          4          5
     1  C    0.000000
     2  H    1.097773   0.000000
     3  H    1.097773   1.773325   0.000000
     4  H    1.098066   1.772197   1.772197   0.000000
     5  C    1.531435   2.185703   2.185703   2.179295   0.000000
     6  H    2.169061   3.093312   2.532439   2.504110   1.108746
     7  H    2.169061   2.532439   3.093312   2.504110   1.108746
     8  C    2.541990   2.811836   2.811836   3.498080   1.535175
     9  H    2.773792   3.140323   2.589971   3.782167   2.172895
    10  H    2.773792   2.589971   3.140323   3.782167   2.172895
    11  C    3.906998   4.236492   4.236492   4.714271   2.540919
    12  H    4.199191   4.426448   4.769395   4.874107   2.773508
    13  H    4.199191   4.769395   4.426448   4.874107   2.773508
    14  C    5.082901   5.247078   5.247078   6.013852   3.907411
    15  H    5.203106   5.430639   5.131911   6.183942   4.199346
    16  H    5.203106   5.131911   5.430639   6.183942   4.199346
    17  C    6.410498   6.634556   6.634556   7.254192   5.082901
    18  H    6.634556   6.797477   7.024982   7.403804   5.247078
    19  H    7.254192   7.403804   7.403804   8.158653   6.013852
    20  H    6.634556   7.024982   6.797477   7.403804   5.247078
                    6          7          8          9         10
     6  H    0.000000
     7  H    1.779330   0.000000
     8  C    2.173905   2.173905   0.000000
     9  H    2.526591   3.089987   1.108212   0.000000
    10  H    3.089987   2.526591   1.108212   1.778399   0.000000
    11  C    2.771847   2.771847   1.535644   2.175052   2.175052
    12  H    3.102599   2.541999   2.175052   3.091888   2.529243
    13  H    2.541999   3.102599   2.175052   2.529243   3.091888
    14  C    4.199346   4.199346   2.540919   2.773508   2.773508
    15  H    4.392468   4.739176   2.771847   2.541999   3.102599
    16  H    4.739176   4.392468   2.771847   3.102599   2.541999
    17  C    5.203106   5.203106   3.906998   4.199191   4.199191
    18  H    5.430639   5.131911   4.236492   4.769395   4.426448
    19  H    6.183942   6.183942   4.714271   4.874107   4.874107
    20  H    5.131911   5.430639   4.236492   4.426448   4.769395
                   11         12         13         14         15
    11  C    0.000000
    12  H    1.108212   0.000000
    13  H    1.108212   1.778399   0.000000
    14  C    1.535175   2.172895   2.172895   0.000000
    15  H    2.173905   3.089987   2.526591   1.108746   0.000000
    16  H    2.173905   2.526591   3.089987   1.108746   1.779330
    17  C    2.541990   2.773792   2.773792   1.531435   2.169061
    18  H    2.811836   2.589971   3.140323   2.185703   3.093312
    19  H    3.498080   3.782167   3.782167   2.179295   2.504110
    20  H    2.811836   3.140323   2.589971   2.185703   2.532439
                   16         17         18         19         20
    16  H    0.000000
    17  C    2.169061   0.000000
    18  H    2.532439   1.097773   0.000000
    19  H    2.504110   1.098066   1.772197   0.000000
    20  H    3.093312   1.097773   1.773325   1.772197   0.000000
 Stoichiometry    C6H14
 Framework group  C2H[SGH(C6H2),X(H12)]
 Deg. of freedom    16
 Full point group                 C2H     NOp   4
 Largest Abelian subgroup         C2H     NOp   4
 Largest concise Abelian subgroup C2H     NOp   4
                         Standard orientation:                         
 ---------------------------------------------------------------------
 Center     Atomic      Atomic             Coordinates (Angstroms)
 Number     Number       Type             X           Y           Z
 ---------------------------------------------------------------------
      1          6           0        1.419555    2.873758    0.000000
      2          1           0        0.911148    3.274330    0.886662
      3          1           0        0.911148    3.274330   -0.886662
      4          1           0        2.445561    3.264986    0.000000
      5          6           0        1.419555    1.342323    0.000000
      6          1           0        1.968780    0.973318   -0.889665
      7          1           0        1.968780    0.973318    0.889665
      8          6           0       -0.004067    0.767811    0.000000
      9          1           0       -0.552467    1.137562   -0.889200
     10          1           0       -0.552467    1.137562    0.889200
     11          6           0        0.004067   -0.767811    0.000000
     12          1           0        0.552467   -1.137562    0.889200
     13          1           0        0.552467   -1.137562   -0.889200
     14          6           0       -1.419555   -1.342323    0.000000
     15          1           0       -1.968780   -0.973318   -0.889665
     16          1           0       -1.968780   -0.973318    0.889665
     17          6           0       -1.419555   -2.873758    0.000000
     18          1           0       -0.911148   -3.274330    0.886662
     19          1           0       -2.445561   -3.264986    0.000000
     20          1           0       -0.911148   -3.274330   -0.886662
 ---------------------------------------------------------------------
 Rotational constants (GHZ):     14.2624094      1.1434291      1.1026659
 Leave Link  202 at Mon Sep 14 19:12:11 2015, MaxMem=  402653184 cpu:       0.0
 (Enter /share/apps/g09/l301.exe)
 Standard basis: VSTO-6G (5D, 7F)
 Ernie: Thresh=  0.10000D-02 Tol=  0.10000D-05 Strict=F.
  NNHCO=     0 NNPyr=     0 NCTC=     0               EPep=         0.000000000
    EC=       123.429019175  ECS=         3.211896774   EG=         0.307777565
   EHC=         0.000450970  EAt=       -31.187935768  AtH=         2.796400831
 EPDDG=         0.000000000  ECC=       126.949144484 EAtT=        33.984336599
 There are    13 symmetry adapted basis functions of AG  symmetry.
 There are     6 symmetry adapted basis functions of BG  symmetry.
 There are     6 symmetry adapted basis functions of AU  symmetry.
 There are    13 symmetry adapted basis functions of BU  symmetry.
 Integral buffers will be    131072 words long.
 Regular integral format.
 Two-electron integral symmetry is turned off.
    38 basis functions,   228 primitive gaussians,    38 cartesian basis functions
    19 alpha electrons       19 beta electrons
       nuclear repulsion energy       160.9334810831 Hartrees.
 IExCor=    0 DFT=F Ex=HF Corr=None ExCW=0 ScaHFX=  1.000000
 ScaDFX=  1.000000  1.000000  1.000000  1.000000 ScalE2=  1.000000  1.000000
 IRadAn=      0 IRanWt=     -1 IRanGd=            0 ICorTp=0
 Leave Link  301 at Mon Sep 14 19:12:12 2015, MaxMem=  402653184 cpu:       0.1
 (Enter /share/apps/g09/l302.exe)
 Do NDO integrals.
 NPDir=0 NMtPBC=     1 NCelOv=     1 NCel=       1 NClECP=     1 NCelD=      1
         NCelK=      1 NCelE2=     1 NClLst=     1 CellRange=     0.0.
 One-electron integrals computed using PRISM.
 NBasis=    38 RedAO= F  NBF=    13     6     6    13
 NBsUse=    38 1.00D-04 NBFU=    13     6     6    13
 Leave Link  302 at Mon Sep 14 19:12:13 2015, MaxMem=  402653184 cpu:       0.2
 (Enter /share/apps/g09/l303.exe)
 DipDrv:  MaxL=1.
 Leave Link  303 at Mon Sep 14 19:12:13 2015, MaxMem=  402653184 cpu:       0.1
 (Enter /share/apps/g09/l401.exe)
 Initial guess read from the read-write file.
 B after Tr=     0.000000    0.000000    0.000000
         Rot=    1.000000    0.000000    0.000000    0.000000 Ang=   0.00 deg.
 Guess basis will be translated and rotated to current coordinates.
 Initial guess orbital symmetries:
       Occupied  (AG) (BU) (AG) (BU) (BU) (AG) (AU) (BG) (AG) (BU)
                 (AU) (BU) (AG) (BG) (BU) (AG) (AU) (AG) (BG)
       Virtual   (BU) (BU) (AG) (AG) (BU) (AU) (BG) (AU) (BU) (AG)
                 (BG) (AU) (BG) (BU) (AG) (BU) (AG) (AG) (BU)
 The electronic state of the initial guess is 1-AG.
 Leave Link  401 at Mon Sep 14 19:12:20 2015, MaxMem=  402653184 cpu:       0.2
 (Enter /share/apps/g09/l502.exe)
 Closed shell SCF:
 Requested convergence on RMS density matrix=1.00D-08 within 128 cycles.
 Requested convergence on MAX density matrix=1.00D-06.
 Requested convergence on             energy=1.00D-06.
 No special actions if energy rises.
 Using DIIS extrapolation, IDIIS=  1040.
 Overlap will be assumed to be unity.
 Two-electron integral symmetry not used.
 Keep J ints in memory in canonical form, NReq=884654.
 IEnd=       81865 IEndB=       81865 NGot=   402653184 MDV=   402586639
 LenX=   402586639 LenY=   402584754
 Symmetry not used in FoFDir.
 MinBra= 0 MaxBra= 1 Meth=40.
 IRaf=       0 NMat=   1 IRICut=       1 DoRegI=T DoRafI=F ISym2E= 0 JSym2E=0.

 Cycle   1  Pass 1  IDiag  1:
 E=-0.569050000366644E-01
 DIIS: error= 1.05D-03 at cycle   1 NSaved=   1.
 NSaved= 1 IEnMin= 1 EnMin=-0.569050000366644E-01 IErMin= 1 ErrMin= 1.05D-03
 ErrMax= 1.05D-03 EMaxC= 1.00D-01 BMatC= 7.02D-05 BMatP= 7.02D-05
 IDIUse=3 WtCom= 9.89D-01 WtEn= 1.05D-02
 Coeff-Com:  0.100D+01
 Coeff-En:   0.100D+01
 Coeff:      0.100D+01
 GapD=    2.000 DampG=2.000 DampE=1.000 DampFc=2.0000 IDamp=-1.
 RMSDP=3.50D-04 MaxDP=2.56D-03              OVMax= 0.00D+00

 Cycle   2  Pass 1  IDiag  3:
 E=-0.571123188524041E-01 Delta-E=       -0.000207318816 Rises=F Damp=F
 DIIS: error= 3.17D-04 at cycle   2 NSaved=   2.
 NSaved= 2 IEnMin= 2 EnMin=-0.571123188524041E-01 IErMin= 2 ErrMin= 3.17D-04
 ErrMax= 3.17D-04 EMaxC= 1.00D-01 BMatC= 8.01D-06 BMatP= 7.02D-05
 IDIUse=3 WtCom= 9.97D-01 WtEn= 3.17D-03
 Coeff-Com: -0.469D+00 0.147D+01
 Coeff-En:   0.000D+00 0.100D+01
 Coeff:     -0.468D+00 0.147D+01
 Gap=     0.555 Goal=   None    Shift=    0.000
 Fock symm off for IB=2 I1=    1 I=   14 J=    8 Cut=1.00D-07 Err=9.33D-05
 Fock matrix is not symmetric: symmetry in diagonalization turned off.
 RMSDP=1.89D-04 MaxDP=1.26D-03 DE=-2.07D-04 OVMax= 0.00D+00

 Cycle   3  Pass 1  IDiag  3:
 E=-0.571431771951154E-01 Delta-E=       -0.000030858343 Rises=F Damp=F
 DIIS: error= 5.93D-05 at cycle   3 NSaved=   3.
 NSaved= 3 IEnMin= 3 EnMin=-0.571431771951154E-01 IErMin= 3 ErrMin= 5.93D-05
 ErrMax= 5.93D-05 EMaxC= 1.00D-01 BMatC= 1.84D-07 BMatP= 8.01D-06
 IDIUse=1 WtCom= 1.00D+00 WtEn= 0.00D+00
 Coeff-Com:  0.269D+00-0.893D+00 0.162D+01
 Coeff:      0.269D+00-0.893D+00 0.162D+01
 Gap=     0.555 Goal=   None    Shift=    0.000
 RMSDP=4.06D-05 MaxDP=3.44D-04 DE=-3.09D-05 OVMax= 0.00D+00

 Cycle   4  Pass 1  IDiag  3:
 E=-0.571442638723170E-01 Delta-E=       -0.000001086677 Rises=F Damp=F
 DIIS: error= 2.03D-05 at cycle   4 NSaved=   4.
 NSaved= 4 IEnMin= 4 EnMin=-0.571442638723170E-01 IErMin= 4 ErrMin= 2.03D-05
 ErrMax= 2.03D-05 EMaxC= 1.00D-01 BMatC= 1.32D-08 BMatP= 1.84D-07
 IDIUse=1 WtCom= 1.00D+00 WtEn= 0.00D+00
 Coeff-Com: -0.203D+00 0.676D+00-0.134D+01 0.187D+01
 Coeff:     -0.203D+00 0.676D+00-0.134D+01 0.187D+01
 Gap=     0.555 Goal=   None    Shift=    0.000
 RMSDP=1.35D-05 MaxDP=1.42D-04 DE=-1.09D-06 OVMax= 0.00D+00

 Cycle   5  Pass 1  IDiag  3:
 E=-0.571443631355635E-01 Delta-E=       -0.000000099263 Rises=F Damp=F
 DIIS: error= 4.38D-06 at cycle   5 NSaved=   5.
 NSaved= 5 IEnMin= 5 EnMin=-0.571443631355635E-01 IErMin= 5 ErrMin= 4.38D-06
 ErrMax= 4.38D-06 EMaxC= 1.00D-01 BMatC= 1.11D-09 BMatP= 1.32D-08
 IDIUse=1 WtCom= 1.00D+00 WtEn= 0.00D+00
 Coeff-Com:  0.120D+00-0.401D+00 0.812D+00-0.134D+01 0.181D+01
 Coeff:      0.120D+00-0.401D+00 0.812D+00-0.134D+01 0.181D+01
 Gap=     0.555 Goal=   None    Shift=    0.000
 RMSDP=4.34D-06 MaxDP=3.92D-05 DE=-9.93D-08 OVMax= 0.00D+00

 Cycle   6  Pass 1  IDiag  3:
 E=-0.571443716826252E-01 Delta-E=       -0.000000008547 Rises=F Damp=F
 DIIS: error= 7.23D-07 at cycle   6 NSaved=   6.
 NSaved= 6 IEnMin= 6 EnMin=-0.571443716826252E-01 IErMin= 6 ErrMin= 7.23D-07
 ErrMax= 7.23D-07 EMaxC= 1.00D-01 BMatC= 5.37D-11 BMatP= 1.11D-09
 IDIUse=1 WtCom= 1.00D+00 WtEn= 0.00D+00
 Coeff-Com: -0.656D-01 0.219D+00-0.443D+00 0.753D+00-0.117D+01 0.170D+01
 Coeff:     -0.656D-01 0.219D+00-0.443D+00 0.753D+00-0.117D+01 0.170D+01
 Gap=     0.555 Goal=   None    Shift=    0.000
 RMSDP=8.85D-07 MaxDP=6.39D-06 DE=-8.55D-09 OVMax= 0.00D+00

 Cycle   7  Pass 1  IDiag  3:
 E=-0.571443720505727E-01 Delta-E=       -0.000000000368 Rises=F Damp=F
 DIIS: error= 9.66D-08 at cycle   7 NSaved=   7.
 NSaved= 7 IEnMin= 7 EnMin=-0.571443720505727E-01 IErMin= 7 ErrMin= 9.66D-08
 ErrMax= 9.66D-08 EMaxC= 1.00D-01 BMatC= 1.15D-12 BMatP= 5.37D-11
 IDIUse=1 WtCom= 1.00D+00 WtEn= 0.00D+00
 Coeff-Com:  0.204D-01-0.679D-01 0.138D+00-0.235D+00 0.375D+00-0.643D+00
 Coeff-Com:  0.141D+01
 Coeff:      0.204D-01-0.679D-01 0.138D+00-0.235D+00 0.375D+00-0.643D+00
 Coeff:      0.141D+01
 Gap=     0.555 Goal=   None    Shift=    0.000
 RMSDP=1.07D-07 MaxDP=6.86D-07 DE=-3.68D-10 OVMax= 0.00D+00

 Cycle   8  Pass 1  IDiag  3:
 E=-0.571443720572518E-01 Delta-E=       -0.000000000007 Rises=F Damp=F
 DIIS: error= 2.30D-08 at cycle   8 NSaved=   8.
 NSaved= 8 IEnMin= 8 EnMin=-0.571443720572518E-01 IErMin= 8 ErrMin= 2.30D-08
 ErrMax= 2.30D-08 EMaxC= 1.00D-01 BMatC= 3.96D-14 BMatP= 1.15D-12
 IDIUse=1 WtCom= 1.00D+00 WtEn= 0.00D+00
 Coeff-Com: -0.707D-02 0.235D-01-0.477D-01 0.814D-01-0.130D+00 0.230D+00
 Coeff-Com: -0.606D+00 0.146D+01
 Coeff:     -0.707D-02 0.235D-01-0.477D-01 0.814D-01-0.130D+00 0.230D+00
 Coeff:     -0.606D+00 0.146D+01
 Gap=     0.555 Goal=   None    Shift=    0.000
 RMSDP=1.75D-08 MaxDP=1.62D-07 DE=-6.68D-12 OVMax= 0.00D+00

 Cycle   9  Pass 1  IDiag  3:
 E=-0.571443720573939E-01 Delta-E=        0.000000000000 Rises=F Damp=F
 DIIS: error= 5.75D-09 at cycle   9 NSaved=   9.
 NSaved= 9 IEnMin= 9 EnMin=-0.571443720573939E-01 IErMin= 9 ErrMin= 5.75D-09
 ErrMax= 5.75D-09 EMaxC= 1.00D-01 BMatC= 2.81D-15 BMatP= 3.96D-14
 IDIUse=1 WtCom= 1.00D+00 WtEn= 0.00D+00
 Coeff-Com:  0.155D-02-0.517D-02 0.105D-01-0.179D-01 0.289D-01-0.536D-01
 Coeff-Com:  0.169D+00-0.637D+00 0.150D+01
 Coeff:      0.155D-02-0.517D-02 0.105D-01-0.179D-01 0.289D-01-0.536D-01
 Coeff:      0.169D+00-0.637D+00 0.150D+01
 Gap=     0.555 Goal=   None    Shift=    0.000
 RMSDP=4.94D-09 MaxDP=4.05D-08 DE=-1.42D-13 OVMax= 0.00D+00

 Cycle  10  Pass 2  IDiag  1:
 RMSDP=4.94D-09 MaxDP=4.05D-08 DE=-1.42D-13 OVMax= 0.00D+00

 SCF Done:  E(RPM6) = -0.571443720574E-01 A.U. after   10 cycles
             Convg  =    0.4940D-08             -V/T =  0.9990
 KE=-5.605413884018D+01 PE=-2.429105423653D+02 EE= 1.379740557503D+02
 Leave Link  502 at Mon Sep 14 19:12:22 2015, MaxMem=  402653184 cpu:       0.3
 (Enter /share/apps/g09/l701.exe)
 Compute integral first derivatives.
 ... and contract with generalized density number  0.
 Leave Link  701 at Mon Sep 14 19:12:23 2015, MaxMem=  402653184 cpu:       0.1
 (Enter /share/apps/g09/l702.exe)
 L702 exits ... SP integral derivatives will be done elsewhere.
 Leave Link  702 at Mon Sep 14 19:12:23 2015, MaxMem=  402653184 cpu:       0.0
 (Enter /share/apps/g09/l703.exe)
 Compute integral first derivatives, UseDBF=F ICtDFT=           0.
 Integral derivatives from FoFDir, PRISM(SPDF).
 Calling FoFJK, ICntrl=      2127 FMM=F ISym2X=1 I1Cent= 0 IOpClX= 0 NMat=1 NMatS=1 NMatT=0.
 FoFCou: FMM=F IPFlag=           0 FMFlag=      100000 FMFlg1=         800
         NFxFlg=           0 DoJE=F BraDBF=F KetDBF=F FulRan=T
         Omega=  0.000000  0.000000  1.000000  0.000000  0.000000 ICntrl=    2127 IOpCl=  0
         NMat0=    1 NMatS0=    1 NMatT0=    0 NMatD0=    1 NMtDS0=    0 NMtDT0=    0
         I1Cent=           0 NGrid=           0.
 Symmetry not used in FoFCou.
 Leave Link  703 at Mon Sep 14 19:12:24 2015, MaxMem=  402653184 cpu:       0.0
 (Enter /share/apps/g09/l716.exe)
 Dipole        = 1.55431223D-14 1.68753900D-14-1.99840144D-14
 ***** Axes restored to original set *****
 -------------------------------------------------------------------
 Center     Atomic                   Forces (Hartrees/Bohr)
 Number     Number              X              Y              Z
 -------------------------------------------------------------------
      1        6          -0.001788487    0.001065638    0.000000000
      2        1           0.000140954    0.000532572    0.001251223
      3        1           0.000140954    0.000532572   -0.001251223
      4        1          -0.000905584   -0.001195539    0.000000000
      5        6           0.001497520   -0.000714081    0.000000000
      6        1           0.000150823    0.000314181   -0.001213903
      7        1           0.000150823    0.000314181    0.001213903
      8        6          -0.000352579   -0.000446728    0.000000000
      9        1           0.000050333   -0.000460781   -0.001326523
     10        1           0.000050333   -0.000460781    0.001326523
     11        6           0.000352579    0.000446728    0.000000000
     12        1          -0.000050333    0.000460781    0.001326523
     13        1          -0.000050333    0.000460781   -0.001326523
     14        6          -0.001497520    0.000714081    0.000000000
     15        1          -0.000150823   -0.000314181   -0.001213903
     16        1          -0.000150823   -0.000314181    0.001213903
     17        6           0.001788487   -0.001065638    0.000000000
     18        1          -0.000140954   -0.000532572    0.001251223
     19        1           0.000905584    0.001195539    0.000000000
     20        1          -0.000140954   -0.000532572   -0.001251223
 -------------------------------------------------------------------
 Cartesian Forces:  Max     0.001788487 RMS     0.000827390
 Leave Link  716 at Mon Sep 14 19:12:26 2015, MaxMem=  402653184 cpu:       0.1
 (Enter /share/apps/g09/l103.exe)

 GradGradGradGradGradGradGradGradGradGradGradGradGradGradGradGradGradGrad
 Berny optimization.
 Using GEDIIS/GDIIS optimizer.
 Internal  Forces:  Max     0.002556144 RMS     0.000671537
 Search for a local minimum.
 Step number   2 out of a maximum of  110
 All quantities printed in internal units (Hartrees-Bohrs-Radians)
 RMS Force = .67154D-03 SwitMx=.10000D-02 MixMth= 2
 Mixed Optimization -- En-DIIS/RFO-DIIS
 Update second derivatives using D2CorX and points    1    2
 DE= -2.33D-03 DEPred=-2.05D-03 R= 1.13D+00
 SS=  1.41D+00  RLast= 1.62D-01 DXNew= 5.0454D-01 4.8741D-01
 Trust test= 1.13D+00 RLast= 1.62D-01 DXMaxT set to 4.87D-01
 Use linear search instead of GDIIS.
     Eigenvalues ---    0.00320   0.00324   0.00324   0.00417   0.00417
     Eigenvalues ---    0.03589   0.03589   0.03600   0.03600   0.04518
     Eigenvalues ---    0.04826   0.04849   0.04855   0.05477   0.05483
     Eigenvalues ---    0.05549   0.05549   0.08152   0.08153   0.08225
     Eigenvalues ---    0.08307   0.12074   0.12074   0.12122   0.12122
     Eigenvalues ---    0.15590   0.16000   0.16000   0.16000   0.16000
     Eigenvalues ---    0.16000   0.20847   0.21889   0.21897   0.21904
     Eigenvalues ---    0.28319   0.29099   0.29110   0.29126   0.29758
     Eigenvalues ---    0.31987   0.32030   0.32030   0.32030   0.32055
     Eigenvalues ---    0.32085   0.32085   0.32085   0.32185   0.32185
     Eigenvalues ---    0.32185   0.32213   0.32230   0.333471000.00000
     Eigenvalues --- 1000.000001000.000001000.000001000.000001000.00000
     Eigenvalues --- 1000.000001000.000001000.000001000.000001000.00000
     Eigenvalues --- 1000.000001000.000001000.000001000.000001000.00000
     Eigenvalues --- 1000.000001000.000001000.000001000.000001000.00000
     Eigenvalues --- 1000.000001000.000001000.000001000.000001000.00000
     Eigenvalues --- 1000.000001000.000001000.000001000.000001000.00000
     Eigenvalues --- 1000.000001000.000001000.000001000.000001000.00000
     Eigenvalues --- 1000.000001000.000001000.000001000.000001000.00000
     Eigenvalues --- 1000.000001000.000001000.000001000.000001000.00000
 RFO step:  Lambda=-1.58158563D-04 EMin= 3.20199554D-03
 Quartic linear search produced a step of  0.18954.
 Iteration  1 RMS(Cart)=  0.00723054 RMS(Int)=  0.00002393
 Iteration  2 RMS(Cart)=  0.00002212 RMS(Int)=  0.00001593
 Iteration  3 RMS(Cart)=  0.00000000 RMS(Int)=  0.00001593
 ClnCor:  largest displacement from symmetrization is 1.82D-08 for atom    12.
 Variable       Old X    -DE/DX   Delta X   Delta X   Delta X     New X
                                 (Linear)    (Quad)   (Total)
    R1        2.07449  -0.00131  -0.00579  -0.00011  -0.00590   2.06859
    R2        2.07449  -0.00131  -0.00579  -0.00011  -0.00590   2.06859
    R3        2.07504  -0.00146  -0.00553  -0.00085  -0.00639   2.06866
    R4        2.89399  -0.00256   0.00180  -0.01169  -0.00988   2.88411
    R5        2.09523  -0.00079  -0.00221  -0.00113  -0.00334   2.09188
    R6        2.09523  -0.00079  -0.00221  -0.00113  -0.00334   2.09188
    R7        2.90106   0.00004   0.00063  -0.00036   0.00027   2.90133
    R8        2.09422  -0.00079  -0.00259  -0.00081  -0.00340   2.09082
    R9        2.09422  -0.00079  -0.00259  -0.00081  -0.00340   2.09082
   R10        2.90195  -0.00048   0.00070  -0.00255  -0.00185   2.90009
   R11        2.09422  -0.00079  -0.00259  -0.00081  -0.00340   2.09082
   R12        2.09422  -0.00079  -0.00259  -0.00081  -0.00340   2.09082
   R13        2.90106   0.00004   0.00063  -0.00036   0.00027   2.90133
   R14        2.09523  -0.00079  -0.00221  -0.00113  -0.00334   2.09188
   R15        2.09523  -0.00079  -0.00221  -0.00113  -0.00334   2.09188
   R16        2.89399  -0.00256   0.00180  -0.01169  -0.00988   2.88411
   R17        2.07449  -0.00131  -0.00579  -0.00011  -0.00590   2.06859
   R18        2.07504  -0.00146  -0.00553  -0.00085  -0.00639   2.06866
   R19        2.07449  -0.00131  -0.00579  -0.00011  -0.00590   2.06859
    A1        1.88045  -0.00046  -0.00470  -0.00059  -0.00531   1.87515
    A2        1.87835  -0.00033  -0.00352   0.00112  -0.00245   1.87589
    A3        1.94432   0.00032   0.00348  -0.00076   0.00268   1.94700
    A4        1.87835  -0.00033  -0.00352   0.00112  -0.00245   1.87589
    A5        1.94432   0.00032   0.00348  -0.00076   0.00268   1.94700
    A6        1.93509   0.00040   0.00432  -0.00002   0.00424   1.93933
    A7        1.91008   0.00041   0.00285  -0.00001   0.00284   1.91292
    A8        1.91008   0.00041   0.00285  -0.00001   0.00284   1.91292
    A9        1.95436  -0.00130  -0.00042  -0.00483  -0.00525   1.94912
   A10        1.86263  -0.00073  -0.00557  -0.00573  -0.01132   1.85132
   A11        1.91220   0.00062   0.00004   0.00527   0.00531   1.91752
   A12        1.91220   0.00062   0.00004   0.00527   0.00531   1.91752
   A13        1.91137   0.00048   0.00146   0.00267   0.00413   1.91551
   A14        1.91137   0.00048   0.00146   0.00267   0.00413   1.91551
   A15        1.94907  -0.00112  -0.00100  -0.00270  -0.00371   1.94536
[...]
 ! D8    D(4,1,5,7)             57.939          -DE/DX =    0.0                 !
 ! D9    D(4,1,5,8)            180.0            -DE/DX =    0.0                 !
 ! D10   D(1,5,8,9)             57.9004         -DE/DX =    0.0                 !
 ! D11   D(1,5,8,10)           -57.9004         -DE/DX =    0.0                 !
 ! D12   D(1,5,8,11)           180.0            -DE/DX =    0.0                 !
 ! D13   D(6,5,8,9)            -64.0873         -DE/DX =    0.0                 !
 ! D14   D(6,5,8,10)          -179.888          -DE/DX =    0.0                 !
 ! D15   D(6,5,8,11)            58.0123         -DE/DX =    0.0                 !
 ! D16   D(7,5,8,9)            179.888          -DE/DX =    0.0                 !
 ! D17   D(7,5,8,10)            64.0873         -DE/DX =    0.0                 !
 ! D18   D(7,5,8,11)           -58.0123         -DE/DX =    0.0                 !
 ! D19   D(5,8,11,12)           58.0103         -DE/DX =    0.0                 !
 ! D20   D(5,8,11,13)          -58.0103         -DE/DX =    0.0                 !
 ! D21   D(5,8,11,14)          180.0            -DE/DX =    0.0                 !
 ! D22   D(9,8,11,12)          180.0            -DE/DX =    0.0                 !
 ! D23   D(9,8,11,13)           63.9794         -DE/DX =    0.0                 !
 ! D24   D(9,8,11,14)          -58.0103         -DE/DX =    0.0                 !
 ! D25   D(10,8,11,12)         -63.9794         -DE/DX =    0.0                 !
 ! D26   D(10,8,11,13)         180.0            -DE/DX =    0.0                 !
 ! D27   D(10,8,11,14)          58.0103         -DE/DX =    0.0                 !
 ! D28   D(8,11,14,15)          58.0123         -DE/DX =    0.0                 !
 ! D29   D(8,11,14,16)         -58.0123         -DE/DX =    0.0                 !
 ! D30   D(8,11,14,17)         180.0            -DE/DX =    0.0                 !
 ! D31   D(12,11,14,15)       -179.888          -DE/DX =    0.0                 !
 ! D32   D(12,11,14,16)         64.0873         -DE/DX =    0.0                 !
 ! D33   D(12,11,14,17)        -57.9004         -DE/DX =    0.0                 !
 ! D34   D(13,11,14,15)        -64.0873         -DE/DX =    0.0                 !
 ! D35   D(13,11,14,16)        179.888          -DE/DX =    0.0                 !
 ! D36   D(13,11,14,17)         57.9004         -DE/DX =    0.0                 !
 ! D37   D(11,14,17,18)         60.065          -DE/DX =    0.0                 !
 ! D38   D(11,14,17,19)        180.0            -DE/DX =    0.0                 !
 ! D39   D(11,14,17,20)        -60.065          -DE/DX =    0.0                 !
 ! D40   D(15,14,17,18)       -177.8741         -DE/DX =    0.0                 !
 ! D41   D(15,14,17,19)        -57.939          -DE/DX =    0.0                 !
 ! D42   D(15,14,17,20)         61.996          -DE/DX =    0.0                 !
 ! D43   D(16,14,17,18)        -61.996          -DE/DX =    0.0                 !
 ! D44   D(16,14,17,19)         57.939          -DE/DX =    0.0                 !
 ! D45   D(16,14,17,20)        177.8741         -DE/DX =    0.0                 !
 --------------------------------------------------------------------------------
 GradGradGradGradGradGradGradGradGradGradGradGradGradGradGradGradGradGrad

 Largest change from initial coordinates is atom   15       0.029 Angstoms.
 Leave Link  103 at Mon Sep 14 19:12:59 2015, MaxMem=  402653184 cpu:       0.1
 (Enter /share/apps/g09/l202.exe)
                          Input orientation:                          
 ---------------------------------------------------------------------
 Center     Atomic      Atomic             Coordinates (Angstroms)
 Number     Number       Type             X           Y           Z
 ---------------------------------------------------------------------
      1          6           0        3.189966   -0.209834    0.000000
      2          1           0        3.282858   -0.852168   -0.882967
      3          1           0        3.282858   -0.852168    0.882967
      4          1           0        4.046002    0.473917    0.000000
      5          6           0        1.869877    0.558385    0.000000
      6          1           0        1.825348    1.224602    0.883555
      7          1           0        1.825348    1.224602   -0.883555
      8          6           0        0.661470   -0.388626    0.000000
      9          1           0        0.708136   -1.055208    0.882284
     10          1           0        0.708136   -1.055208   -0.882284
     11          6           0       -0.661470    0.388626    0.000000
     12          1           0       -0.708136    1.055208   -0.882284
     13          1           0       -0.708136    1.055208    0.882284
     14          6           0       -1.869877   -0.558385    0.000000
     15          1           0       -1.825348   -1.224602    0.883555
     16          1           0       -1.825348   -1.224602   -0.883555
     17          6           0       -3.189966    0.209834    0.000000
     18          1           0       -3.282858    0.852168   -0.882967
     19          1           0       -4.046002   -0.473917    0.000000
     20          1           0       -3.282858    0.852168    0.882967
 ---------------------------------------------------------------------
                    Distance matrix (angstroms):
                    1          2          3          4          5
     1  C    0.000000
     2  H    1.095834   0.000000
     3  H    1.095834   1.765934   0.000000
     4  H    1.095588   1.766500   1.766500   0.000000
     5  C    1.527349   2.183073   2.183073   2.177764   0.000000
     6  H    2.168053   3.091587   2.537185   2.505095   1.107473
     7  H    2.168053   2.537185   3.091587   2.505095   1.107473
     8  C    2.534809   2.804670   2.804670   3.492712   1.535277
     9  H    2.766326   3.128343   2.582715   3.775977   2.175259
    10  H    2.766326   2.582715   3.128343   3.775977   2.175259
    11  C    3.897655   4.228111   4.228111   4.708245   2.537033
    12  H    4.192130   4.423361   4.762587   4.870129   2.769731
    13  H    4.192130   4.762587   4.423361   4.870129   2.769731
    14  C    5.071834   5.236088   5.236088   6.005270   3.902939
    15  H    5.192667   5.417848   5.121765   6.175629   4.196951
    16  H    5.192667   5.121765   5.417848   6.175629   4.196951
    17  C    6.393719   6.618529   6.618529   7.240785   5.071834
    18  H    6.618529   6.783317   7.009416   7.391542   5.236088
    19  H    7.240785   7.391542   7.391542   8.147326   6.005270
    20  H    6.618529   7.009416   6.783317   7.391542   5.236088
                    6          7          8          9         10
     6  H    0.000000
     7  H    1.767110   0.000000
     8  C    2.176645   2.176645   0.000000
     9  H    2.538838   3.092553   1.106768   0.000000
    10  H    3.092553   2.538838   1.106768   1.764569   0.000000
    11  C    2.768355   2.768355   1.534370   2.176903   2.176903
    12  H    3.092802   2.539141   2.176903   3.094090   2.541592
    13  H    2.539141   3.092802   2.176903   2.541592   3.094090
    14  C    4.196951   4.196951   2.537033   2.769731   2.769731
    15  H    4.396155   4.738022   2.768355   2.539141   3.092802
    16  H    4.738022   4.396155   2.768355   3.092802   2.539141
    17  C    5.192667   5.192667   3.897655   4.192130   4.192130
    18  H    5.417848   5.121765   4.228111   4.762587   4.423361
    19  H    6.175629   6.175629   4.708245   4.870129   4.870129
    20  H    5.121765   5.417848   4.228111   4.423361   4.762587
                   11         12         13         14         15
    11  C    0.000000
    12  H    1.106768   0.000000
    13  H    1.106768   1.764569   0.000000
    14  C    1.535277   2.175259   2.175259   0.000000
    15  H    2.176645   3.092553   2.538838   1.107473   0.000000
    16  H    2.176645   2.538838   3.092553   1.107473   1.767110
    17  C    2.534809   2.766326   2.766326   1.527349   2.168053
    18  H    2.804670   2.582715   3.128343   2.183073   3.091587
    19  H    3.492712   3.775977   3.775977   2.177764   2.505095
    20  H    2.804670   3.128343   2.582715   2.183073   2.537185
                   16         17         18         19         20
    16  H    0.000000
    17  C    2.168053   0.000000
    18  H    2.537185   1.095834   0.000000
    19  H    2.505095   1.095588   1.766500   0.000000
    20  H    3.091587   1.095834   1.765934   1.766500   0.000000
 Stoichiometry    C6H14
 Framework group  C2H[SGH(C6H2),X(H12)]
 Deg. of freedom    16
 Full point group                 C2H     NOp   4
 Largest Abelian subgroup         C2H     NOp   4
 Largest concise Abelian subgroup C2H     NOp   4
                         Standard orientation:                         
 ---------------------------------------------------------------------
 Center     Atomic      Atomic             Coordinates (Angstroms)
 Number     Number       Type             X           Y           Z
 ---------------------------------------------------------------------
      1          6           0        1.423114    2.862631    0.000000
      2          1           0        0.914667    3.265996    0.882967
      3          1           0        0.914667    3.265996   -0.882967
      4          1           0        2.444646    3.258594    0.000000
      5          6           0        1.423114    1.335282    0.000000
      6          1           0        1.976529    0.961706   -0.883555
      7          1           0        1.976529    0.961706    0.883555
      8          6           0       -0.003186    0.767178    0.000000
      9          1           0       -0.555842    1.142787   -0.882284
     10          1           0       -0.555842    1.142787    0.882284
     11          6           0        0.003186   -0.767178    0.000000
     12          1           0        0.555842   -1.142787    0.882284
     13          1           0        0.555842   -1.142787   -0.882284
     14          6           0       -1.423114   -1.335282    0.000000
     15          1           0       -1.976529   -0.961706   -0.883555
     16          1           0       -1.976529   -0.961706    0.883555
     17          6           0       -1.423114   -2.862631    0.000000
     18          1           0       -0.914667   -3.265996    0.882967
     19          1           0       -2.444646   -3.258594    0.000000
     20          1           0       -0.914667   -3.265996   -0.882967
 ---------------------------------------------------------------------
 Rotational constants (GHZ):     14.2351766      1.1486785      1.1068031
 Leave Link  202 at Mon Sep 14 19:13:00 2015, MaxMem=  402653184 cpu:       0.0
 (Enter /share/apps/g09/l601.exe)
 Copying SCF densities to generalized density rwf, IOpCl= 0 IROHF=0.

 **********************************************************************

            Population analysis using the SCF density.

 **********************************************************************

 Orbital symmetries:
       Occupied  (AG) (BU) (AG) (BU) (BU) (AG) (AU) (BG) (AG) (BU)
                 (AU) (BU) (AG) (BG) (BU) (AG) (AU) (AG) (BG)
       Virtual   (BU) (BU) (AG) (AG) (BU) (AU) (BG) (AU) (BU) (AG)
                 (BG) (AU) (BG) (BU) (AG) (BU) (AG) (AG) (BU)
 The electronic state is 1-AG.
 Alpha  occ. eigenvalues --   -1.05505  -1.00299  -0.91562  -0.81025  -0.74227
 Alpha  occ. eigenvalues --   -0.73561  -0.60289  -0.55695  -0.54559  -0.53165
 Alpha  occ. eigenvalues --   -0.49946  -0.48419  -0.48412  -0.44931  -0.44329
 Alpha  occ. eigenvalues --   -0.42734  -0.41781  -0.41112  -0.40450
 Alpha virt. eigenvalues --    0.14991   0.15764   0.16563   0.18165   0.18515
 Alpha virt. eigenvalues --    0.20202   0.20873   0.21796   0.22023   0.22090
 Alpha virt. eigenvalues --    0.22585   0.23168   0.23625   0.24003   0.24474
 Alpha virt. eigenvalues --    0.24786   0.24940   0.25544   0.25604
          Condensed to atoms (all electrons):
              1          2          3          4          5          6
     1  C    4.464386   0.000000   0.000000   0.000000   0.000000   0.000000
     2  H    0.000000   0.853520   0.000000   0.000000   0.000000   0.000000
     3  H    0.000000   0.000000   0.853520   0.000000   0.000000   0.000000
     4  H    0.000000   0.000000   0.000000   0.856063   0.000000   0.000000
     5  C    0.000000   0.000000   0.000000   0.000000   4.220818   0.000000
     6  H    0.000000   0.000000   0.000000   0.000000   0.000000   0.874153
     7  H    0.000000   0.000000   0.000000   0.000000   0.000000   0.000000
     8  C    0.000000   0.000000   0.000000   0.000000   0.000000   0.000000
     9  H    0.000000   0.000000   0.000000   0.000000   0.000000   0.000000
    10  H    0.000000   0.000000   0.000000   0.000000   0.000000   0.000000
    11  C    0.000000   0.000000   0.000000   0.000000   0.000000   0.000000
    12  H    0.000000   0.000000   0.000000   0.000000   0.000000   0.000000
    13  H    0.000000   0.000000   0.000000   0.000000   0.000000   0.000000
    14  C    0.000000   0.000000   0.000000   0.000000   0.000000   0.000000
    15  H    0.000000   0.000000   0.000000   0.000000   0.000000   0.000000
    16  H    0.000000   0.000000   0.000000   0.000000   0.000000   0.000000
    17  C    0.000000   0.000000   0.000000   0.000000   0.000000   0.000000
    18  H    0.000000   0.000000   0.000000   0.000000   0.000000   0.000000
    19  H    0.000000   0.000000   0.000000   0.000000   0.000000   0.000000
    20  H    0.000000   0.000000   0.000000   0.000000   0.000000   0.000000
              7          8          9         10         11         12
     1  C    0.000000   0.000000   0.000000   0.000000   0.000000   0.000000
     2  H    0.000000   0.000000   0.000000   0.000000   0.000000   0.000000
     3  H    0.000000   0.000000   0.000000   0.000000   0.000000   0.000000
     4  H    0.000000   0.000000   0.000000   0.000000   0.000000   0.000000
     5  C    0.000000   0.000000   0.000000   0.000000   0.000000   0.000000
     6  H    0.000000   0.000000   0.000000   0.000000   0.000000   0.000000
     7  H    0.874153   0.000000   0.000000   0.000000   0.000000   0.000000
     8  C    0.000000   4.267008   0.000000   0.000000   0.000000   0.000000
     9  H    0.000000   0.000000   0.868190   0.000000   0.000000   0.000000
    10  H    0.000000   0.000000   0.000000   0.868190   0.000000   0.000000
    11  C    0.000000   0.000000   0.000000   0.000000   4.267008   0.000000
    12  H    0.000000   0.000000   0.000000   0.000000   0.000000   0.868190
    13  H    0.000000   0.000000   0.000000   0.000000   0.000000   0.000000
    14  C    0.000000   0.000000   0.000000   0.000000   0.000000   0.000000
    15  H    0.000000   0.000000   0.000000   0.000000   0.000000   0.000000
    16  H    0.000000   0.000000   0.000000   0.000000   0.000000   0.000000
    17  C    0.000000   0.000000   0.000000   0.000000   0.000000   0.000000
    18  H    0.000000   0.000000   0.000000   0.000000   0.000000   0.000000
    19  H    0.000000   0.000000   0.000000   0.000000   0.000000   0.000000
    20  H    0.000000   0.000000   0.000000   0.000000   0.000000   0.000000
             13         14         15         16         17         18
     1  C    0.000000   0.000000   0.000000   0.000000   0.000000   0.000000
     2  H    0.000000   0.000000   0.000000   0.000000   0.000000   0.000000
     3  H    0.000000   0.000000   0.000000   0.000000   0.000000   0.000000
     4  H    0.000000   0.000000   0.000000   0.000000   0.000000   0.000000
     5  C    0.000000   0.000000   0.000000   0.000000   0.000000   0.000000
     6  H    0.000000   0.000000   0.000000   0.000000   0.000000   0.000000
     7  H    0.000000   0.000000   0.000000   0.000000   0.000000   0.000000
     8  C    0.000000   0.000000   0.000000   0.000000   0.000000   0.000000
     9  H    0.000000   0.000000   0.000000   0.000000   0.000000   0.000000
    10  H    0.000000   0.000000   0.000000   0.000000   0.000000   0.000000
    11  C    0.000000   0.000000   0.000000   0.000000   0.000000   0.000000
    12  H    0.000000   0.000000   0.000000   0.000000   0.000000   0.000000
    13  H    0.868190   0.000000   0.000000   0.000000   0.000000   0.000000
    14  C    0.000000   4.220818   0.000000   0.000000   0.000000   0.000000
    15  H    0.000000   0.000000   0.874153   0.000000   0.000000   0.000000
    16  H    0.000000   0.000000   0.000000   0.874153   0.000000   0.000000
    17  C    0.000000   0.000000   0.000000   0.000000   4.464386   0.000000
    18  H    0.000000   0.000000   0.000000   0.000000   0.000000   0.853520
    19  H    0.000000   0.000000   0.000000   0.000000   0.000000   0.000000
    20  H    0.000000   0.000000   0.000000   0.000000   0.000000   0.000000
             19         20
     1  C    0.000000   0.000000
     2  H    0.000000   0.000000
     3  H    0.000000   0.000000
     4  H    0.000000   0.000000
     5  C    0.000000   0.000000
     6  H    0.000000   0.000000
     7  H    0.000000   0.000000
     8  C    0.000000   0.000000
     9  H    0.000000   0.000000
    10  H    0.000000   0.000000
    11  C    0.000000   0.000000
    12  H    0.000000   0.000000
    13  H    0.000000   0.000000
    14  C    0.000000   0.000000
    15  H    0.000000   0.000000
    16  H    0.000000   0.000000
    17  C    0.000000   0.000000
    18  H    0.000000   0.000000
    19  H    0.856063   0.000000
    20  H    0.000000   0.853520
 Mulliken atomic charges:
              1
     1  C   -0.464386
     2  H    0.146480
     3  H    0.146480
     4  H    0.143937
     5  C   -0.220818
     6  H    0.125847
     7  H    0.125847
     8  C   -0.267008
     9  H    0.131810
    10  H    0.131810
    11  C   -0.267008
    12  H    0.131810
    13  H    0.131810
    14  C   -0.220818
    15  H    0.125847
    16  H    0.125847
    17  C   -0.464386
    18  H    0.146480
    19  H    0.143937
    20  H    0.146480
 Sum of Mulliken atomic charges =   0.00000
 Mulliken charges with hydrogens summed into heavy atoms:
              1
     1  C   -0.027489
     5  C    0.030876
     8  C   -0.003387
    11  C   -0.003387
    14  C    0.030876
    17  C   -0.027489
 Sum of Mulliken charges with hydrogens summed into heavy atoms =   0.00000
 Charge=              0.0000 electrons
 Dipole moment (field-independent basis, Debye):
    X=              0.0000    Y=              0.0000    Z=              0.0000  Tot=              0.0000
 N-N= 1.610820197232D+02 E-N=-2.431718079478D+02  KE=-5.606673775102D+01
 Leave Link  601 at Mon Sep 14 19:13:00 2015, MaxMem=  402653184 cpu:       0.1
 (Enter /share/apps/g09/l9999.exe)
 1\1\GINC-COMPUTE-0-12\FOpt\RPM6\ZDO\C6H14\HETANJIN\14-Sep-2015\0\\#p P
 M6 opt\\using PM6 to do opt and freq calc.\\0,1\C,3.1899657122,-0.2098
 337498,0.\H,3.2828579684,-0.8521679575,-0.88296715\H,3.2828579684,-0.8
 521679575,0.88296715\H,4.0460021919,0.4739169071,0.\C,1.8698768948,0.5
 583849333,0.\H,1.8253481006,1.2246016268,0.8835549056\H,1.8253481006,1
 .2246016268,-0.8835549056\C,0.6614702921,-0.3886255066,0.\H,0.70813628
 57,-1.055208454,0.8822844737\H,0.7081362857,-1.055208454,-0.8822844737
 \C,-0.6614702921,0.3886255066,0.\H,-0.7081362857,1.055208454,-0.882284
 4737\H,-0.7081362857,1.055208454,0.8822844737\C,-1.8698768948,-0.55838
 49333,0.\H,-1.8253481006,-1.2246016268,0.8835549056\H,-1.8253481006,-1
 .2246016268,-0.8835549056\C,-3.1899657122,0.2098337498,0.\H,-3.2828579
 684,0.8521679575,-0.88296715\H,-4.0460021919,-0.4739169071,0.\H,-3.282
 8579684,0.8521679575,0.88296715\\Version=EM64L-G09RevA.01\State=1-AG\H
 F=-0.0572847\RMSD=2.332e-09\RMSF=4.741e-05\Dipole=0.,0.,0.\PG=C02H [SG
 H(C6H2),X(H12)]\\@


 CURIOUSER AND CURIOUSER

                  -- ALICE, IN WONDERLAND
 Job cpu time:  0 days  0 hours  0 minutes 10.5 seconds.
 File lengths (MBytes):  RWF=      5 Int=      0 D2E=      0 Chk=      3 Scr=      1
 Normal termination of Gaussian 09 at Mon Sep 14 19:13:04 2015.
