 Entering Gaussian System, Link 0=/home/hetanjin/apps/g09D01/g09/g09
 Input=C6H14_5_r011_C9_2_opt_B3L.gjf
 Output=C6H14_5_r011_C9_2_opt_B3L.log
 Initial command:
 /home/hetanjin/apps/g09D01/g09/l1.exe "/state/partition1/Gau-21311.inp" -scrdir="/state/partition1/"
 Entering Link 1 = /home/hetanjin/apps/g09D01/g09/l1.exe PID=     21312.
  
 Copyright (c) 1988,1990,1992,1993,1995,1998,2003,2009,2013,
            Gaussian, Inc.  All Rights Reserved.
  
 This is part of the Gaussian(R) 09 program.  It is based on
 the Gaussian(R) 03 system (copyright 2003, Gaussian, Inc.),
 the Gaussian(R) 98 system (copyright 1998, Gaussian, Inc.),
 the Gaussian(R) 94 system (copyright 1995, Gaussian, Inc.),
 the Gaussian 92(TM) system (copyright 1992, Gaussian, Inc.),
 the Gaussian 90(TM) system (copyright 1990, Gaussian, Inc.),
 the Gaussian 88(TM) system (copyright 1988, Gaussian, Inc.),
 the Gaussian 86(TM) system (copyright 1986, Carnegie Mellon
 University), and the Gaussian 82(TM) system (copyright 1983,
 Carnegie Mellon University). Gaussian is a federally registered
 trademark of Gaussian, Inc.
  
 This software contains proprietary and confidential information,
 including trade secrets, belonging to Gaussian, Inc.
  
 This software is provided under written license and may be
 used, copied, transmitted, or stored only in accord with that
 written license.
  
 The following legend is applicable only to US Government
 contracts under FAR:
  
                    RESTRICTED RIGHTS LEGEND
  
 Use, reproduction and disclosure by the US Government is
 subject to restrictions as set forth in subparagraphs (a)
 and (c) of the Commercial Computer Software - Restricted
 Rights clause in FAR 52.227-19.
  
 Gaussian, Inc.
 340 Quinnipiac St., Bldg. 40, Wallingford CT 06492
  
  
 ---------------------------------------------------------------
 Warning -- This program may not be used in any manner that
 competes with the business of Gaussian, Inc. or will provide
 assistance to any competitor of Gaussian, Inc.  The licensee
 of this program is prohibited from giving any competitor of
 Gaussian, Inc. access to this program.  By using this program,
 the user acknowledges that Gaussian, Inc. is engaged in the
 business of creating and licensing software in the field of
 computational chemistry and represents and warrants to the
 licensee that it is not a competitor of Gaussian, Inc. and that
 it will not use this program in any manner prohibited above.
 ---------------------------------------------------------------
  

 Cite this work as:
 Gaussian 09, Revision D.01,
 M. J. Frisch, G. W. Trucks, H. B. Schlegel, G. E. Scuseria, 
 M. A. Robb, J. R. Cheeseman, G. Scalmani, V. Barone, B. Mennucci, 
 G. A. Petersson, H. Nakatsuji, M. Caricato, X. Li, H. P. Hratchian, 
 A. F. Izmaylov, J. Bloino, G. Zheng, J. L. Sonnenberg, M. Hada, 
 M. Ehara, K. Toyota, R. Fukuda, J. Hasegawa, M. Ishida, T. Nakajima, 
 Y. Honda, O. Kitao, H. Nakai, T. Vreven, J. A. Montgomery, Jr., 
 J. E. Peralta, F. Ogliaro, M. Bearpark, J. J. Heyd, E. Brothers, 
 K. N. Kudin, V. N. Staroverov, T. Keith, R. Kobayashi, J. Normand, 
 K. Raghavachari, A. Rendell, J. C. Burant, S. S. Iyengar, J. Tomasi, 
 M. Cossi, N. Rega, J. M. Millam, M. Klene, J. E. Knox, J. B. Cross, 
 V. Bakken, C. Adamo, J. Jaramillo, R. Gomperts, R. E. Stratmann, 
 O. Yazyev, A. J. Austin, R. Cammi, C. Pomelli, J. W. Ochterski, 
 R. L. Martin, K. Morokuma, V. G. Zakrzewski, G. A. Voth, 
 P. Salvador, J. J. Dannenberg, S. Dapprich, A. D. Daniels, 
 O. Farkas, J. B. Foresman, J. V. Ortiz, J. Cioslowski, 
 and D. J. Fox, Gaussian, Inc., Wallingford CT, 2013.
 
 ******************************************
 Gaussian 09:  ES64L-G09RevD.01 24-Apr-2013
                 7-Nov-2015 
 ******************************************
 %mem=6GB
 %nprocshared=4
 Will use up to    4 processors via shared memory.
 ----------------------------------------------
 #p B3LYP/6-31G(d) opt=tight int=ultrafine freq
 ----------------------------------------------
 1/7=10,14=-1,18=20,19=15,26=4,38=1/1,3;
 2/9=110,12=2,17=6,18=5,40=1/2;
 3/5=1,6=6,7=1,11=2,16=1,25=1,30=1,71=1,74=-5,75=-5/1,2,3;
 4//1;
 5/5=2,38=5/2;
 6/7=2,8=2,9=2,10=2,28=1/1;
 7//1,2,3,16;
 1/7=10,14=-1,18=20,19=15,26=4/3(2);
 2/9=110/2;
 99//99;
 2/9=110/2;
 3/5=1,6=6,7=1,11=2,16=1,25=1,30=1,71=1,74=-5,75=-5/1,2,3;
 4/5=5,16=3,69=1/1;
 5/5=2,38=5/2;
 7//1,2,3,16;
 1/7=10,14=-1,18=20,19=15,26=4/3(-5);
 2/9=110/2;
 6/7=2,8=2,9=2,10=2,19=2,28=1/1;
 99/9=1/99;
 Leave Link    1 at Sat Nov  7 02:14:47 2015, MaxMem=   805306368 cpu:         0.2
 (Enter /home/hetanjin/apps/g09D01/g09/l101.exe)
 ---------------------------------------------
 using B3LYP/6-31G(d) to do opt and freq calc.
 ---------------------------------------------
 Symbolic Z-matrix:
 Charge =  0 Multiplicity = 2
 C                     1.61803   0.98966  -0.00005 
 H                     1.59367   1.63643   0.88596 
 H                     1.59367   1.63635  -0.88611 
 H                     2.57832   0.45929  -0.00002 
 C                     0.43635  -0.0005    0. 
 C                    -0.87859   0.82391  -0.00003 
 H                    -0.86571   1.48649  -0.87756 
 H                    -0.86571   1.48655   0.87745 
 C                    -2.19348   0.03388  0. 
 H                    -3.04849   0.71981  -0.00001 
 H                    -2.28904  -0.60506  -0.88493 
 C                     0.5289   -0.88501  -1.25865 
 H                    -0.26244  -1.64248  -1.28525 
 H                     0.44851  -0.28292  -2.17262 
 H                     1.4897   -1.41334  -1.29204 
 C                     0.52891  -0.8849    1.25873 
 H                     1.4897   -1.41324   1.29215 
 H                     0.44854  -0.28273   2.17265 
 H                    -0.26244  -1.64236   1.2854 
 
 NAtoms=     19 NQM=       19 NQMF=       0 NMMI=      0 NMMIF=      0
                NMic=       0 NMicF=      0.
                    Isotopes and Nuclear Properties:
 (Nuclear quadrupole moments (NQMom) in fm**2, nuclear magnetic moments (NMagM)
  in nuclear magnetons)

  Atom         1           2           3           4           5           6           7           8           9          10
 IAtWgt=          12           1           1           1          12          12           1           1          12           1
 AtmWgt=  12.0000000   1.0078250   1.0078250   1.0078250  12.0000000  12.0000000   1.0078250   1.0078250  12.0000000   1.0078250
 NucSpn=           0           1           1           1           0           0           1           1           0           1
 AtZEff=   0.0000000   0.0000000   0.0000000   0.0000000   0.0000000   0.0000000   0.0000000   0.0000000   0.0000000   0.0000000
 NQMom=    0.0000000   0.0000000   0.0000000   0.0000000   0.0000000   0.0000000   0.0000000   0.0000000   0.0000000   0.0000000
 NMagM=    0.0000000   2.7928460   2.7928460   2.7928460   0.0000000   0.0000000   2.7928460   2.7928460   0.0000000   2.7928460
 AtZNuc=   6.0000000   1.0000000   1.0000000   1.0000000   6.0000000   6.0000000   1.0000000   1.0000000   6.0000000   1.0000000

  Atom        11          12          13          14          15          16          17          18          19
 IAtWgt=           1          12           1           1           1          12           1           1           1
 AtmWgt=   1.0078250  12.0000000   1.0078250   1.0078250   1.0078250  12.0000000   1.0078250   1.0078250   1.0078250
 NucSpn=           1           0           1           1           1           0           1           1           1
 AtZEff=   0.0000000   0.0000000   0.0000000   0.0000000   0.0000000   0.0000000   0.0000000   0.0000000   0.0000000
 NQMom=    0.0000000   0.0000000   0.0000000   0.0000000   0.0000000   0.0000000   0.0000000   0.0000000   0.0000000
 NMagM=    2.7928460   0.0000000   2.7928460   2.7928460   2.7928460   0.0000000   2.7928460   2.7928460   2.7928460
 AtZNuc=   1.0000000   6.0000000   1.0000000   1.0000000   1.0000000   6.0000000   1.0000000   1.0000000   1.0000000
 Leave Link  101 at Sat Nov  7 02:14:47 2015, MaxMem=   805306368 cpu:         0.6
 (Enter /home/hetanjin/apps/g09D01/g09/l103.exe)

 GradGradGradGradGradGradGradGradGradGradGradGradGradGradGradGradGradGrad
 Berny optimization.
 Initialization pass.
                           ----------------------------
                           !    Initial Parameters    !
                           ! (Angstroms and Degrees)  !
 --------------------------                            --------------------------
 ! Name  Definition              Value          Derivative Info.                !
 --------------------------------------------------------------------------------
 ! R1    R(1,2)                  1.0972         estimate D2E/DX2                !
 ! R2    R(1,3)                  1.0972         estimate D2E/DX2                !
 ! R3    R(1,4)                  1.097          estimate D2E/DX2                !
 ! R4    R(1,5)                  1.5417         estimate D2E/DX2                !
 ! R5    R(5,6)                  1.552          estimate D2E/DX2                !
 ! R6    R(5,12)                 1.5411         estimate D2E/DX2                !
 ! R7    R(5,16)                 1.5411         estimate D2E/DX2                !
 ! R8    R(6,7)                  1.0996         estimate D2E/DX2                !
 ! R9    R(6,8)                  1.0996         estimate D2E/DX2                !
 ! R10   R(6,9)                  1.534          estimate D2E/DX2                !
 ! R11   R(9,10)                 1.0961         estimate D2E/DX2                !
 ! R12   R(9,11)                 1.0957         estimate D2E/DX2                !
 ! R13   R(12,13)                1.0958         estimate D2E/DX2                !
 ! R14   R(12,14)                1.0974         estimate D2E/DX2                !
 ! R15   R(12,15)                1.097          estimate D2E/DX2                !
 ! R16   R(16,17)                1.097          estimate D2E/DX2                !
 ! R17   R(16,18)                1.0974         estimate D2E/DX2                !
 ! R18   R(16,19)                1.0958         estimate D2E/DX2                !
 ! A1    A(2,1,3)              107.7092         estimate D2E/DX2                !
 ! A2    A(2,1,4)              107.7219         estimate D2E/DX2                !
 ! A3    A(2,1,5)              111.195          estimate D2E/DX2                !
 ! A4    A(3,1,4)              107.722          estimate D2E/DX2                !
 ! A5    A(3,1,5)              111.195          estimate D2E/DX2                !
 ! A6    A(4,1,5)              111.1274         estimate D2E/DX2                !
 ! A7    A(1,5,6)              107.9534         estimate D2E/DX2                !
 ! A8    A(1,5,12)             108.8179         estimate D2E/DX2                !
 ! A9    A(1,5,16)             108.8179         estimate D2E/DX2                !
 ! A10   A(6,5,12)             110.8381         estimate D2E/DX2                !
 ! A11   A(6,5,16)             110.8381         estimate D2E/DX2                !
 ! A12   A(12,5,16)            109.5162         estimate D2E/DX2                !
 ! A13   A(5,6,7)              108.0687         estimate D2E/DX2                !
 ! A14   A(5,6,8)              108.0687         estimate D2E/DX2                !
 ! A15   A(5,6,9)              116.915          estimate D2E/DX2                !
 ! A16   A(7,6,8)              105.8765         estimate D2E/DX2                !
 ! A17   A(7,6,9)              108.6851         estimate D2E/DX2                !
 ! A18   A(8,6,9)              108.6852         estimate D2E/DX2                !
 ! A19   A(6,9,10)             110.2629         estimate D2E/DX2                !
 ! A20   A(6,9,11)             112.0296         estimate D2E/DX2                !
 ! A21   A(10,9,11)            107.27           estimate D2E/DX2                !
 ! A22   A(5,12,13)            111.913          estimate D2E/DX2                !
 ! A23   A(5,12,14)            111.1551         estimate D2E/DX2                !
 ! A24   A(5,12,15)            110.724          estimate D2E/DX2                !
 ! A25   A(13,12,14)           107.8276         estimate D2E/DX2                !
 ! A26   A(13,12,15)           107.389          estimate D2E/DX2                !
 ! A27   A(14,12,15)           107.6407         estimate D2E/DX2                !
 ! A28   A(5,16,17)            110.7241         estimate D2E/DX2                !
 ! A29   A(5,16,18)            111.155          estimate D2E/DX2                !
 ! A30   A(5,16,19)            111.913          estimate D2E/DX2                !
 ! A31   A(17,16,18)           107.6408         estimate D2E/DX2                !
 ! A32   A(17,16,19)           107.3889         estimate D2E/DX2                !
 ! A33   A(18,16,19)           107.8276         estimate D2E/DX2                !
 ! D1    D(2,1,5,6)             60.0094         estimate D2E/DX2                !
 ! D2    D(2,1,5,12)          -179.6279         estimate D2E/DX2                !
 ! D3    D(2,1,5,16)           -60.3531         estimate D2E/DX2                !
 ! D4    D(3,1,5,6)            -60.01           estimate D2E/DX2                !
 ! D5    D(3,1,5,12)            60.3526         estimate D2E/DX2                !
 ! D6    D(3,1,5,16)           179.6274         estimate D2E/DX2                !
 ! D7    D(4,1,5,6)            179.9997         estimate D2E/DX2                !
 ! D8    D(4,1,5,12)           -59.6377         estimate D2E/DX2                !
 ! D9    D(4,1,5,16)            59.6371         estimate D2E/DX2                !
 ! D10   D(1,5,6,7)             57.0744         estimate D2E/DX2                !
 ! D11   D(1,5,6,8)            -57.0751         estimate D2E/DX2                !
 ! D12   D(1,5,6,9)            179.9996         estimate D2E/DX2                !
 ! D13   D(12,5,6,7)           -62.0124         estimate D2E/DX2                !
 ! D14   D(12,5,6,8)          -176.1619         estimate D2E/DX2                !
 ! D15   D(12,5,6,9)            60.9128         estimate D2E/DX2                !
 ! D16   D(16,5,6,7)           176.1612         estimate D2E/DX2                !
 ! D17   D(16,5,6,8)            62.0117         estimate D2E/DX2                !
 ! D18   D(16,5,6,9)           -60.9136         estimate D2E/DX2                !
 ! D19   D(1,5,12,13)          177.2395         estimate D2E/DX2                !
 ! D20   D(1,5,12,14)          -62.1296         estimate D2E/DX2                !
 ! D21   D(1,5,12,15)           57.4635         estimate D2E/DX2                !
 ! D22   D(6,5,12,13)          -64.1959         estimate D2E/DX2                !
 ! D23   D(6,5,12,14)           56.435          estimate D2E/DX2                !
 ! D24   D(6,5,12,15)          176.0282         estimate D2E/DX2                !
 ! D25   D(16,5,12,13)          58.4016         estimate D2E/DX2                !
 ! D26   D(16,5,12,14)         179.0325         estimate D2E/DX2                !
 ! D27   D(16,5,12,15)         -61.3744         estimate D2E/DX2                !
 ! D28   D(1,5,16,17)          -57.4641         estimate D2E/DX2                !
 ! D29   D(1,5,16,18)           62.129          estimate D2E/DX2                !
 ! D30   D(1,5,16,19)         -177.2401         estimate D2E/DX2                !
 ! D31   D(6,5,16,17)         -176.0287         estimate D2E/DX2                !
 ! D32   D(6,5,16,18)          -56.4356         estimate D2E/DX2                !
 ! D33   D(6,5,16,19)           64.1953         estimate D2E/DX2                !
 ! D34   D(12,5,16,17)          61.3738         estimate D2E/DX2                !
 ! D35   D(12,5,16,18)        -179.0331         estimate D2E/DX2                !
 ! D36   D(12,5,16,19)         -58.4022         estimate D2E/DX2                !
 ! D37   D(5,6,9,10)           179.9992         estimate D2E/DX2                !
 ! D38   D(5,6,9,11)           -60.6101         estimate D2E/DX2                !
 ! D39   D(7,6,9,10)           -57.3938         estimate D2E/DX2                !
 ! D40   D(7,6,9,11)            61.9969         estimate D2E/DX2                !
 ! D41   D(8,6,9,10)            57.3921         estimate D2E/DX2                !
 ! D42   D(8,6,9,11)           176.7828         estimate D2E/DX2                !
 --------------------------------------------------------------------------------
 Trust Radius=3.00D-01 FncErr=1.00D-07 GrdErr=1.00D-06
 Number of steps in this run=    103 maximum allowed number of steps=    114.
 GradGradGradGradGradGradGradGradGradGradGradGradGradGradGradGradGradGrad

 Leave Link  103 at Sat Nov  7 02:14:47 2015, MaxMem=   805306368 cpu:         0.0
 (Enter /home/hetanjin/apps/g09D01/g09/l202.exe)
                          Input orientation:                          
 ---------------------------------------------------------------------
 Center     Atomic      Atomic             Coordinates (Angstroms)
 Number     Number       Type             X           Y           Z
 ---------------------------------------------------------------------
      1          6           0        1.618032    0.989661   -0.000046
      2          1           0        1.593672    1.636429    0.885962
      3          1           0        1.593672    1.636347   -0.886113
      4          1           0        2.578316    0.459293   -0.000021
      5          6           0        0.436353   -0.000500    0.000000
      6          6           0       -0.878586    0.823914   -0.000030
      7          1           0       -0.865713    1.486486   -0.877558
      8          1           0       -0.865712    1.486551    0.877447
      9          6           0       -2.193477    0.033880   -0.000001
     10          1           0       -3.048488    0.719808   -0.000012
     11          1           0       -2.289041   -0.605062   -0.884933
     12          6           0        0.528897   -0.885012   -1.258652
     13          1           0       -0.262439   -1.642476   -1.285245
     14          1           0        0.448512   -0.282917   -2.172624
     15          1           0        1.489696   -1.413344   -1.292039
     16          6           0        0.528906   -0.884904    1.258727
     17          1           0        1.489700   -1.413241    1.292148
     18          1           0        0.448537   -0.282728    2.172647
     19          1           0       -0.262436   -1.642360    1.285396
 ---------------------------------------------------------------------
                    Distance matrix (angstroms):
                    1          2          3          4          5
     1  C    0.000000
     2  H    1.097229   0.000000
     3  H    1.097229   1.772075   0.000000
     4  H    1.097012   1.772044   1.772044   0.000000
     5  C    1.541682   2.191769   2.191769   2.190757   0.000000
     6  C    2.502114   2.749040   2.749045   3.476078   1.552006
     7  H    2.680644   3.030026   2.463961   3.699531   2.162547
     8  H    2.680649   2.463961   3.030042   3.699532   2.162546
     9  C    3.929519   4.206613   4.206613   4.790719   2.630055
    10  H    4.674316   4.814021   4.814028   5.632832   3.558505
    11  H    4.311773   4.820354   4.483233   5.060344   2.928545
    12  C    2.506931   3.477180   2.762206   2.755254   1.541146
    13  H    3.480812   4.348621   3.788817   3.760202   2.199148
    14  H    2.776207   3.788170   2.578774   3.131636   2.190936
    15  H    2.731327   3.749082   3.078344   2.522137   2.185183
    16  C    2.506930   2.762209   3.477179   2.755248   1.541146
    17  H    2.731332   3.078357   3.749082   2.522136   2.185183
    18  H    2.776200   2.578770   3.788165   3.131619   2.190935
    19  H    3.480812   3.788818   4.348621   3.760201   2.199148
                    6          7          8          9         10
     6  C    0.000000
     7  H    1.099647   0.000000
     8  H    1.099645   1.755005   0.000000
     9  C    1.533979   2.154792   2.154792   0.000000
    10  H    2.172398   2.474346   2.474336   1.096148   0.000000
    11  H    2.194176   2.529919   3.083293   1.095666   1.764972
    12  C    2.546677   2.777440   3.483126   3.136859   4.117925
    13  H    2.848595   3.212562   3.851232   2.861980   3.872245
    14  H    2.776046   2.556398   3.763128   3.435223   4.237300
    15  H    3.504764   3.758824   4.320186   4.162882   5.178299
    16  C    2.546677   3.483126   2.777433   3.136866   4.117921
    17  H    3.504763   4.320186   3.758821   4.162884   5.178294
    18  H    2.776047   3.763127   2.556392   3.435241   4.237300
    19  H    2.848591   3.851232   3.212545   2.861983   3.872234
                   11         12         13         14         15
    11  H    0.000000
    12  C    2.856364   0.000000
    13  H    2.311621   1.095752   0.000000
    14  H    3.042388   1.097417   1.772369   0.000000
    15  H    3.885603   1.096989   1.767067   1.771259   0.000000
    16  C    3.551678   2.517379   2.769826   3.484684   2.776468
    17  H    4.435281   2.776463   3.124979   3.790297   2.584187
    18  H    4.116677   3.484683   3.783044   4.345271   3.790297
    19  H    3.145384   2.769831   2.570641   3.783046   3.124994
                   16         17         18         19
    16  C    0.000000
    17  H    1.096988   0.000000
    18  H    1.097417   1.771259   0.000000
    19  H    1.095752   1.767066   1.772370   0.000000
 Stoichiometry    C6H13(2)
 Framework group  C1[X(C6H13)]
 Deg. of freedom    51
 Full point group                 C1      NOp   1
 Largest Abelian subgroup         C1      NOp   1
 Largest concise Abelian subgroup C1      NOp   1
                         Standard orientation:                         
 ---------------------------------------------------------------------
 Center     Atomic      Atomic             Coordinates (Angstroms)
 Number     Number       Type             X           Y           Z
 ---------------------------------------------------------------------
      1          6           0       -1.540899   -0.883877   -0.518552
      2          1           0       -1.535559   -1.867870   -0.033121
      3          1           0       -1.459151   -1.045155   -1.600780
      4          1           0       -2.515626   -0.420202   -0.322720
      5          6           0       -0.390264    0.000537    0.001675
      6          6           0        0.947368   -0.721333   -0.311961
      7          1           0        0.992038   -0.900880   -1.395930
      8          1           0        0.916365   -1.715655    0.156634
      9          6           0        2.236979   -0.013323    0.122453
     10          1           0        3.111199   -0.615446   -0.150911
     11          1           0        2.351585    0.963996   -0.359417
     12          6           0       -0.454691    1.367659   -0.706815
     13          1           0        0.314199    2.055878   -0.338259
     14          1           0       -0.317117    1.259182   -1.790157
     15          1           0       -1.428431    1.845037   -0.541512
     16          6           0       -0.563243    0.198932    1.520177
     17          1           0       -1.539859    0.645301    1.744585
     18          1           0       -0.504499   -0.758170    2.053871
     19          1           0        0.203357    0.862418    1.935849
 ---------------------------------------------------------------------
 Rotational constants (GHZ):      4.3080580      2.5488988      2.5278565
 Leave Link  202 at Sat Nov  7 02:14:47 2015, MaxMem=   805306368 cpu:         0.0
 (Enter /home/hetanjin/apps/g09D01/g09/l301.exe)
 Standard basis: 6-31G(d) (6D, 7F)
 Ernie: Thresh=  0.10000D-02 Tol=  0.10000D-05 Strict=F.
 There are   116 symmetry adapted cartesian basis functions of A   symmetry.
 There are   116 symmetry adapted basis functions of A   symmetry.
   116 basis functions,   220 primitive gaussians,   116 cartesian basis functions
    25 alpha electrons       24 beta electrons
       nuclear repulsion energy       254.4325438587 Hartrees.
 IExCor=  402 DFT=T Ex+Corr=B3LYP ExCW=0 ScaHFX=  0.200000
 ScaDFX=  0.800000  0.720000  1.000000  0.810000 ScalE2=  1.000000  1.000000
 IRadAn=      5 IRanWt=     -1 IRanGd=            0 ICorTp=0 IEmpDi=  4
 NAtoms=   19 NActive=   19 NUniq=   19 SFac= 1.00D+00 NAtFMM=   60 NAOKFM=F Big=F
 Integral buffers will be    131072 words long.
 Raffenetti 2 integral format.
 Two-electron integral symmetry is turned on.
 Leave Link  301 at Sat Nov  7 02:14:47 2015, MaxMem=   805306368 cpu:         0.2
 (Enter /home/hetanjin/apps/g09D01/g09/l302.exe)
 NPDir=0 NMtPBC=     1 NCelOv=     1 NCel=       1 NClECP=     1 NCelD=      1
         NCelK=      1 NCelE2=     1 NClLst=     1 CellRange=     0.0.
 One-electron integrals computed using PRISM.
 NBasis=   116 RedAO= T EigKep=  3.83D-03  NBF=   116
 NBsUse=   116 1.00D-06 EigRej= -1.00D+00 NBFU=   116
 Precomputing XC quadrature grid using
 IXCGrd= 4 IRadAn=           5 IRanWt=          -1 IRanGd=           0 AccXCQ= 0.00D+00.
 Generated NRdTot=       0 NPtTot=           0 NUsed=           0 NTot=          32
 NSgBfM=   116   116   116   116   116 MxSgAt=    19 MxSgA2=    19.
 Leave Link  302 at Sat Nov  7 02:14:48 2015, MaxMem=   805306368 cpu:         1.9
 (Enter /home/hetanjin/apps/g09D01/g09/l303.exe)
 DipDrv:  MaxL=1.
 Leave Link  303 at Sat Nov  7 02:14:48 2015, MaxMem=   805306368 cpu:         0.1
 (Enter /home/hetanjin/apps/g09D01/g09/l401.exe)
 ExpMin= 1.61D-01 ExpMax= 3.05D+03 ExpMxC= 4.57D+02 IAcc=3 IRadAn=         5 AccDes= 0.00D+00
 Harris functional with IExCor=  402 and IRadAn=       5 diagonalized for initial guess.
 HarFok:  IExCor=  402 AccDes= 0.00D+00 IRadAn=         5 IDoV= 1 UseB2=F ITyADJ=14
 ICtDFT=  3500011 ScaDFX=  1.000000  1.000000  1.000000  1.000000
 FoFCou: FMM=F IPFlag=           0 FMFlag=      100000 FMFlg1=           0
         NFxFlg=           0 DoJE=T BraDBF=F KetDBF=T FulRan=T
         wScrn=  0.000000 ICntrl=     500 IOpCl=  0 I1Cent=   200000004 NGrid=           0
         NMat0=    1 NMatS0=      1 NMatT0=    0 NMatD0=    1 NMtDS0=    0 NMtDT0=    0
 Petite list used in FoFCou.
 Harris En= -236.441378462996    
 JPrj=0 DoOrth=F DoCkMO=F.
 Initial guess <Sx>= 0.0000 <Sy>= 0.0000 <Sz>= 0.5000 <S**2>= 0.7500 S= 0.5000
 Leave Link  401 at Sat Nov  7 02:14:51 2015, MaxMem=   805306368 cpu:         9.4
 (Enter /home/hetanjin/apps/g09D01/g09/l502.exe)
 UHF open shell SCF:
 Using DIIS extrapolation, IDIIS=  1040.
 Integral symmetry usage will be decided dynamically.
 Keep R1 and R2 ints in memory in canonical form, NReq=47059932.
 IVT=       60514 IEndB=       60514 NGot=   805306368 MDV=   759189273
 LenX=   759189273 LenY=   759175376
 Requested convergence on RMS density matrix=1.00D-08 within 128 cycles.
 Requested convergence on MAX density matrix=1.00D-06.
 Requested convergence on             energy=1.00D-06.
 No special actions if energy rises.
 FoFCou: FMM=F IPFlag=           0 FMFlag=           0 FMFlg1=           0
         NFxFlg=           0 DoJE=F BraDBF=F KetDBF=F FulRan=T
         wScrn=  0.000000 ICntrl=     600 IOpCl=  0 I1Cent=           0 NGrid=           0
         NMat0=    1 NMatS0=   6786 NMatT0=    0 NMatD0=    1 NMtDS0=    0 NMtDT0=    0
 Symmetry not used in FoFCou.
 Integral accuracy reduced to 1.0D-05 until final iterations.

 Cycle   1  Pass 0  IDiag  1:
 E= -236.142782344101    
 DIIS: error= 5.07D-02 at cycle   1 NSaved=   1.
 NSaved= 1 IEnMin= 1 EnMin= -236.142782344101     IErMin= 1 ErrMin= 5.07D-02
 ErrMax= 5.07D-02  0.00D+00 EMaxC= 1.00D-01 BMatC= 9.26D-01 BMatP= 9.26D-01
 IDIUse=3 WtCom= 4.93D-01 WtEn= 5.07D-01
 Coeff-Com:  0.100D+01
 Coeff-En:   0.100D+01
 Coeff:      0.100D+01
 Gap=     0.279 Goal=   None    Shift=    0.000
 Gap=     0.222 Goal=   None    Shift=    0.000
 GapD=    0.222 DampG=1.000 DampE=0.500 DampFc=0.5000 IDamp=-1.
 Damping current iteration by 5.00D-01
 RMSDP=9.89D-03 MaxDP=1.44D-01              OVMax= 1.80D-01

 Cycle   2  Pass 0  IDiag  1:
 E= -236.256874216682     Delta-E=       -0.114091872582 Rises=F Damp=T
 DIIS: error= 9.41D-03 at cycle   2 NSaved=   2.
 NSaved= 2 IEnMin= 2 EnMin= -236.256874216682     IErMin= 2 ErrMin= 9.41D-03
 ErrMax= 9.41D-03  0.00D+00 EMaxC= 1.00D-01 BMatC= 4.00D-02 BMatP= 9.26D-01
 IDIUse=3 WtCom= 9.06D-01 WtEn= 9.41D-02
 Coeff-Com:  0.770D-01 0.923D+00
 Coeff-En:   0.132D+00 0.868D+00
 Coeff:      0.821D-01 0.918D+00
 Gap=     0.302 Goal=   None    Shift=    0.000
 Gap=     0.260 Goal=   None    Shift=    0.000
 RMSDP=1.80D-03 MaxDP=2.68D-02 DE=-1.14D-01 OVMax= 1.09D-01

 Cycle   3  Pass 0  IDiag  1:
 E= -236.399676093979     Delta-E=       -0.142801877297 Rises=F Damp=F
 DIIS: error= 3.67D-03 at cycle   3 NSaved=   3.
 NSaved= 3 IEnMin= 3 EnMin= -236.399676093979     IErMin= 3 ErrMin= 3.67D-03
 ErrMax= 3.67D-03  0.00D+00 EMaxC= 1.00D-01 BMatC= 6.84D-03 BMatP= 4.00D-02
 IDIUse=3 WtCom= 9.63D-01 WtEn= 3.67D-02
 Coeff-Com:  0.275D-02 0.231D+00 0.766D+00
 Coeff-En:   0.000D+00 0.000D+00 0.100D+01
 Coeff:      0.264D-02 0.222D+00 0.775D+00
 Gap=     0.308 Goal=   None    Shift=    0.000
 Gap=     0.239 Goal=   None    Shift=    0.000
 RMSDP=6.68D-04 MaxDP=1.74D-02 DE=-1.43D-01 OVMax= 1.39D-02

 Cycle   4  Pass 0  IDiag  1:
 E= -236.400604590721     Delta-E=       -0.000928496741 Rises=F Damp=F
 DIIS: error= 2.28D-03 at cycle   4 NSaved=   4.
 NSaved= 4 IEnMin= 4 EnMin= -236.400604590721     IErMin= 4 ErrMin= 2.28D-03
 ErrMax= 2.28D-03  0.00D+00 EMaxC= 1.00D-01 BMatC= 3.45D-03 BMatP= 6.84D-03
 IDIUse=3 WtCom= 9.77D-01 WtEn= 2.28D-02
 Coeff-Com: -0.475D-02 0.306D-01 0.420D+00 0.554D+00
 Coeff-En:   0.000D+00 0.000D+00 0.321D+00 0.679D+00
 Coeff:     -0.464D-02 0.299D-01 0.418D+00 0.557D+00
 Gap=     0.305 Goal=   None    Shift=    0.000
 Gap=     0.246 Goal=   None    Shift=    0.000
 RMSDP=2.58D-04 MaxDP=6.27D-03 DE=-9.28D-04 OVMax= 6.82D-03

 Cycle   5  Pass 0  IDiag  1:
 E= -236.401426662022     Delta-E=       -0.000822071301 Rises=F Damp=F
 DIIS: error= 2.28D-04 at cycle   5 NSaved=   5.
 NSaved= 5 IEnMin= 5 EnMin= -236.401426662022     IErMin= 5 ErrMin= 2.28D-04
 ErrMax= 2.28D-04  0.00D+00 EMaxC= 1.00D-01 BMatC= 4.56D-05 BMatP= 3.45D-03
 IDIUse=3 WtCom= 9.98D-01 WtEn= 2.28D-03
 Coeff-Com: -0.932D-03-0.417D-02 0.809D-01 0.162D+00 0.762D+00
 Coeff-En:   0.000D+00 0.000D+00 0.000D+00 0.000D+00 0.100D+01
 Coeff:     -0.930D-03-0.416D-02 0.807D-01 0.162D+00 0.763D+00
 Gap=     0.305 Goal=   None    Shift=    0.000
 Gap=     0.246 Goal=   None    Shift=    0.000
 RMSDP=3.70D-05 MaxDP=7.79D-04 DE=-8.22D-04 OVMax= 8.92D-04

 Cycle   6  Pass 0  IDiag  1:
 E= -236.401438919368     Delta-E=       -0.000012257345 Rises=F Damp=F
 DIIS: error= 7.09D-05 at cycle   6 NSaved=   6.
 NSaved= 6 IEnMin= 6 EnMin= -236.401438919368     IErMin= 6 ErrMin= 7.09D-05
 ErrMax= 7.09D-05  0.00D+00 EMaxC= 1.00D-01 BMatC= 2.15D-06 BMatP= 4.56D-05
 IDIUse=1 WtCom= 1.00D+00 WtEn= 0.00D+00
 Coeff-Com:  0.155D-03-0.187D-02-0.136D-01-0.142D-01 0.605D-01 0.969D+00
 Coeff:      0.155D-03-0.187D-02-0.136D-01-0.142D-01 0.605D-01 0.969D+00
 Gap=     0.306 Goal=   None    Shift=    0.000
 Gap=     0.246 Goal=   None    Shift=    0.000
 RMSDP=1.30D-05 MaxDP=4.48D-04 DE=-1.23D-05 OVMax= 3.92D-04

 Cycle   7  Pass 0  IDiag  1:
 E= -236.401439876936     Delta-E=       -0.000000957568 Rises=F Damp=F
 DIIS: error= 3.17D-05 at cycle   7 NSaved=   7.
 NSaved= 7 IEnMin= 7 EnMin= -236.401439876936     IErMin= 7 ErrMin= 3.17D-05
 ErrMax= 3.17D-05  0.00D+00 EMaxC= 1.00D-01 BMatC= 9.18D-07 BMatP= 2.15D-06
 IDIUse=1 WtCom= 1.00D+00 WtEn= 0.00D+00
 Coeff-Com:  0.198D-03-0.848D-04-0.192D-01-0.329D-01-0.102D+00 0.430D+00
 Coeff-Com:  0.724D+00
 Coeff:      0.198D-03-0.848D-04-0.192D-01-0.329D-01-0.102D+00 0.430D+00
 Coeff:      0.724D+00
 Gap=     0.306 Goal=   None    Shift=    0.000
 Gap=     0.247 Goal=   None    Shift=    0.000
 RMSDP=5.78D-06 MaxDP=1.89D-04 DE=-9.58D-07 OVMax= 1.63D-04

 Initial convergence to 1.0D-05 achieved.  Increase integral accuracy.
 Cycle   8  Pass 1  IDiag  1:
 E= -236.401438198151     Delta-E=        0.000001678785 Rises=F Damp=F
 DIIS: error= 1.12D-05 at cycle   1 NSaved=   1.
 NSaved= 1 IEnMin= 1 EnMin= -236.401438198151     IErMin= 1 ErrMin= 1.12D-05
 ErrMax= 1.12D-05  0.00D+00 EMaxC= 1.00D-01 BMatC= 9.89D-08 BMatP= 9.89D-08
 IDIUse=1 WtCom= 1.00D+00 WtEn= 0.00D+00
 Coeff-Com:  0.100D+01
 Coeff:      0.100D+01
 Gap=     0.306 Goal=   None    Shift=    0.000
 Gap=     0.247 Goal=   None    Shift=    0.000
 RMSDP=5.78D-06 MaxDP=1.89D-04 DE= 1.68D-06 OVMax= 5.19D-05

 Cycle   9  Pass 1  IDiag  1:
 E= -236.401438213091     Delta-E=       -0.000000014940 Rises=F Damp=F
 DIIS: error= 1.29D-05 at cycle   2 NSaved=   2.
 NSaved= 2 IEnMin= 2 EnMin= -236.401438213091     IErMin= 1 ErrMin= 1.12D-05
 ErrMax= 1.29D-05  0.00D+00 EMaxC= 1.00D-01 BMatC= 8.21D-08 BMatP= 9.89D-08
 IDIUse=1 WtCom= 1.00D+00 WtEn= 0.00D+00
 Coeff-Com:  0.472D+00 0.528D+00
 Coeff:      0.472D+00 0.528D+00
 Gap=     0.306 Goal=   None    Shift=    0.000
 Gap=     0.247 Goal=   None    Shift=    0.000
 RMSDP=1.18D-06 MaxDP=2.76D-05 DE=-1.49D-08 OVMax= 3.06D-05

 Cycle  10  Pass 1  IDiag  1:
 E= -236.401438233129     Delta-E=       -0.000000020037 Rises=F Damp=F
 DIIS: error= 1.99D-06 at cycle   3 NSaved=   3.
 NSaved= 3 IEnMin= 3 EnMin= -236.401438233129     IErMin= 3 ErrMin= 1.99D-06
 ErrMax= 1.99D-06  0.00D+00 EMaxC= 1.00D-01 BMatC= 3.52D-09 BMatP= 8.21D-08
 IDIUse=1 WtCom= 1.00D+00 WtEn= 0.00D+00
 Coeff-Com: -0.361D-01 0.110D+00 0.926D+00
 Coeff:     -0.361D-01 0.110D+00 0.926D+00
 Gap=     0.306 Goal=   None    Shift=    0.000
 Gap=     0.247 Goal=   None    Shift=    0.000
 RMSDP=4.51D-07 MaxDP=9.63D-06 DE=-2.00D-08 OVMax= 1.23D-05

 Cycle  11  Pass 1  IDiag  1:
 E= -236.401438234469     Delta-E=       -0.000000001340 Rises=F Damp=F
 DIIS: error= 9.40D-07 at cycle   4 NSaved=   4.
 NSaved= 4 IEnMin= 4 EnMin= -236.401438234469     IErMin= 4 ErrMin= 9.40D-07
 ErrMax= 9.40D-07  0.00D+00 EMaxC= 1.00D-01 BMatC= 5.87D-10 BMatP= 3.52D-09
 IDIUse=1 WtCom= 1.00D+00 WtEn= 0.00D+00
 Coeff-Com: -0.657D-01-0.288D-01 0.292D+00 0.803D+00
 Coeff:     -0.657D-01-0.288D-01 0.292D+00 0.803D+00
 Gap=     0.306 Goal=   None    Shift=    0.000
 Gap=     0.247 Goal=   None    Shift=    0.000
 RMSDP=1.98D-07 MaxDP=4.94D-06 DE=-1.34D-09 OVMax= 5.05D-06

 Cycle  12  Pass 1  IDiag  1:
 E= -236.401438234707     Delta-E=       -0.000000000238 Rises=F Damp=F
 DIIS: error= 3.58D-07 at cycle   5 NSaved=   5.
 NSaved= 5 IEnMin= 5 EnMin= -236.401438234707     IErMin= 5 ErrMin= 3.58D-07
 ErrMax= 3.58D-07  0.00D+00 EMaxC= 1.00D-01 BMatC= 6.73D-11 BMatP= 5.87D-10
 IDIUse=1 WtCom= 1.00D+00 WtEn= 0.00D+00
 Coeff-Com: -0.111D-01-0.216D-01-0.641D-01 0.182D+00 0.915D+00
 Coeff:     -0.111D-01-0.216D-01-0.641D-01 0.182D+00 0.915D+00
 Gap=     0.306 Goal=   None    Shift=    0.000
 Gap=     0.247 Goal=   None    Shift=    0.000
 RMSDP=6.77D-08 MaxDP=2.82D-06 DE=-2.38D-10 OVMax= 2.30D-06

 Cycle  13  Pass 1  IDiag  1:
 E= -236.401438234734     Delta-E=       -0.000000000027 Rises=F Damp=F
 DIIS: error= 1.98D-07 at cycle   6 NSaved=   6.
 NSaved= 6 IEnMin= 6 EnMin= -236.401438234734     IErMin= 6 ErrMin= 1.98D-07
 ErrMax= 1.98D-07  0.00D+00 EMaxC= 1.00D-01 BMatC= 1.96D-11 BMatP= 6.73D-11
 IDIUse=1 WtCom= 1.00D+00 WtEn= 0.00D+00
 Coeff-Com:  0.406D-02-0.619D-02-0.746D-01-0.249D-01 0.450D+00 0.652D+00
 Coeff:      0.406D-02-0.619D-02-0.746D-01-0.249D-01 0.450D+00 0.652D+00
 Gap=     0.306 Goal=   None    Shift=    0.000
 Gap=     0.247 Goal=   None    Shift=    0.000
 RMSDP=2.30D-08 MaxDP=9.68D-07 DE=-2.68D-11 OVMax= 8.19D-07

 Cycle  14  Pass 1  IDiag  1:
 E= -236.401438234743     Delta-E=       -0.000000000009 Rises=F Damp=F
 DIIS: error= 1.47D-08 at cycle   7 NSaved=   7.
 NSaved= 7 IEnMin= 7 EnMin= -236.401438234743     IErMin= 7 ErrMin= 1.47D-08
 ErrMax= 1.47D-08  0.00D+00 EMaxC= 1.00D-01 BMatC= 1.36D-13 BMatP= 1.96D-11
 IDIUse=1 WtCom= 1.00D+00 WtEn= 0.00D+00
 Coeff-Com:  0.995D-03-0.527D-03-0.118D-01-0.811D-02 0.550D-01 0.115D+00
 Coeff-Com:  0.849D+00
 Coeff:      0.995D-03-0.527D-03-0.118D-01-0.811D-02 0.550D-01 0.115D+00
 Coeff:      0.849D+00
 Gap=     0.306 Goal=   None    Shift=    0.000
 Gap=     0.247 Goal=   None    Shift=    0.000
 RMSDP=2.70D-09 MaxDP=7.68D-08 DE=-9.27D-12 OVMax= 8.42D-08

 SCF Done:  E(UB3LYP) =  -236.401438235     A.U. after   14 cycles
            NFock= 14  Conv=0.27D-08     -V/T= 2.0104
 <Sx>= 0.0000 <Sy>= 0.0000 <Sz>= 0.5000 <S**2>= 0.7527 S= 0.5013
 <L.S>= 0.000000000000E+00
 KE= 2.339689123559D+02 PE=-1.054426325419D+03 EE= 3.296234309693D+02
 Annihilation of the first spin contaminant:
 S**2 before annihilation     0.7527,   after     0.7500
 Leave Link  502 at Sat Nov  7 02:15:38 2015, MaxMem=   805306368 cpu:       178.7
 (Enter /home/hetanjin/apps/g09D01/g09/l601.exe)
 Copying SCF densities to generalized density rwf, IOpCl= 1 IROHF=0.

 **********************************************************************

            Population analysis using the SCF density.

 **********************************************************************

 Orbital symmetries:
 Alpha Orbitals:
       Occupied  (A) (A) (A) (A) (A) (A) (A) (A) (A) (A) (A) (A)
                 (A) (A) (A) (A) (A) (A) (A) (A) (A) (A) (A) (A)
                 (A)
       Virtual   (A) (A) (A) (A) (A) (A) (A) (A) (A) (A) (A) (A)
                 (A) (A) (A) (A) (A) (A) (A) (A) (A) (A) (A) (A)
                 (A) (A) (A) (A) (A) (A) (A) (A) (A) (A) (A) (A)
                 (A) (A) (A) (A) (A) (A) (A) (A) (A) (A) (A) (A)
                 (A) (A) (A) (A) (A) (A) (A) (A) (A) (A) (A) (A)
                 (A) (A) (A) (A) (A) (A) (A) (A) (A) (A) (A) (A)
                 (A) (A) (A) (A) (A) (A) (A) (A) (A) (A) (A) (A)
                 (A) (A) (A) (A) (A) (A) (A)
 Beta  Orbitals:
       Occupied  (A) (A) (A) (A) (A) (A) (A) (A) (A) (A) (A) (A)
                 (A) (A) (A) (A) (A) (A) (A) (A) (A) (A) (A) (A)
       Virtual   (A) (A) (A) (A) (A) (A) (A) (A) (A) (A) (A) (A)
                 (A) (A) (A) (A) (A) (A) (A) (A) (A) (A) (A) (A)
                 (A) (A) (A) (A) (A) (A) (A) (A) (A) (A) (A) (A)
                 (A) (A) (A) (A) (A) (A) (A) (A) (A) (A) (A) (A)
                 (A) (A) (A) (A) (A) (A) (A) (A) (A) (A) (A) (A)
                 (A) (A) (A) (A) (A) (A) (A) (A) (A) (A) (A) (A)
                 (A) (A) (A) (A) (A) (A) (A) (A) (A) (A) (A) (A)
                 (A) (A) (A) (A) (A) (A) (A) (A)
 The electronic state is 2-A.
 Alpha  occ. eigenvalues --  -10.19536 -10.19336 -10.18253 -10.16885 -10.16877
 Alpha  occ. eigenvalues --  -10.16652  -0.81858  -0.73122  -0.67930  -0.67739
 Alpha  occ. eigenvalues --   -0.61274  -0.52310  -0.45514  -0.44956  -0.43210
 Alpha  occ. eigenvalues --   -0.41013  -0.39695  -0.37833  -0.36529  -0.35936
 Alpha  occ. eigenvalues --   -0.35410  -0.31900  -0.31266  -0.30852  -0.22820
 Alpha virt. eigenvalues --    0.07753   0.12498   0.13539   0.13622   0.14356
 Alpha virt. eigenvalues --    0.15583   0.16190   0.17657   0.18806   0.19700
 Alpha virt. eigenvalues --    0.20462   0.22215   0.22454   0.23073   0.24844
 Alpha virt. eigenvalues --    0.25894   0.26134   0.27127   0.49451   0.50528
 Alpha virt. eigenvalues --    0.50904   0.51694   0.52255   0.58726   0.59915
 Alpha virt. eigenvalues --    0.61850   0.63133   0.67114   0.69864   0.71678
 Alpha virt. eigenvalues --    0.74895   0.75505   0.81884   0.85837   0.86734
 Alpha virt. eigenvalues --    0.88113   0.89000   0.90844   0.91002   0.91209
 Alpha virt. eigenvalues --    0.92410   0.93273   0.95174   0.95372   0.95706
 Alpha virt. eigenvalues --    0.97080   0.98045   0.98551   1.00767   1.01537
 Alpha virt. eigenvalues --    1.16563   1.38933   1.40354   1.48628   1.50878
 Alpha virt. eigenvalues --    1.53714   1.62125   1.67693   1.72816   1.73141
 Alpha virt. eigenvalues --    1.79993   1.83561   1.87230   1.87956   1.92822
 Alpha virt. eigenvalues --    1.94374   2.03737   2.09360   2.10226   2.11366
 Alpha virt. eigenvalues --    2.12441   2.21012   2.24940   2.25311   2.25771
 Alpha virt. eigenvalues --    2.27264   2.27744   2.30370   2.35182   2.48732
 Alpha virt. eigenvalues --    2.58104   2.68912   2.71613   2.73844   2.76009
 Alpha virt. eigenvalues --    4.09597   4.20472   4.31249   4.31385   4.41545
 Alpha virt. eigenvalues --    4.67454
  Beta  occ. eigenvalues --  -10.19320 -10.18281 -10.18093 -10.16886 -10.16879
  Beta  occ. eigenvalues --  -10.16643  -0.81659  -0.71679  -0.67922  -0.67711
  Beta  occ. eigenvalues --   -0.59527  -0.51993  -0.45271  -0.44542  -0.43048
  Beta  occ. eigenvalues --   -0.40431  -0.39367  -0.37433  -0.36066  -0.35908
  Beta  occ. eigenvalues --   -0.35012  -0.31703  -0.31078  -0.30630
  Beta virt. eigenvalues --   -0.05976   0.07957   0.13005   0.13598   0.13759
  Beta virt. eigenvalues --    0.14537   0.15911   0.16278   0.17787   0.19338
  Beta virt. eigenvalues --    0.19994   0.20813   0.22279   0.22553   0.23205
  Beta virt. eigenvalues --    0.24920   0.26169   0.26566   0.28043   0.49775
  Beta virt. eigenvalues --    0.51071   0.51423   0.52307   0.52888   0.59767
  Beta virt. eigenvalues --    0.61625   0.63218   0.64382   0.67629   0.70278
  Beta virt. eigenvalues --    0.72410   0.75012   0.75876   0.82374   0.86466
  Beta virt. eigenvalues --    0.86958   0.88282   0.89603   0.91015   0.91229
  Beta virt. eigenvalues --    0.91457   0.92635   0.93448   0.95260   0.95719
  Beta virt. eigenvalues --    0.95807   0.97911   0.98333   0.98888   1.01070
  Beta virt. eigenvalues --    1.02061   1.18047   1.39449   1.40696   1.48748
  Beta virt. eigenvalues --    1.50933   1.54784   1.63620   1.68416   1.72933
  Beta virt. eigenvalues --    1.73161   1.80329   1.86765   1.87630   1.89808
  Beta virt. eigenvalues --    1.93373   1.96607   2.06179   2.09395   2.10288
  Beta virt. eigenvalues --    2.11671   2.13509   2.22805   2.25010   2.25384
  Beta virt. eigenvalues --    2.26289   2.27294   2.28448   2.31188   2.36799
  Beta virt. eigenvalues --    2.49538   2.58160   2.69427   2.71652   2.74223
  Beta virt. eigenvalues --    2.76385   4.11546   4.21664   4.31257   4.31393
  Beta virt. eigenvalues --    4.42147   4.67501
          Condensed to atoms (all electrons):
               1          2          3          4          5          6
     1  C    5.157469   0.366072   0.365289   0.364849   0.384494  -0.057287
     2  H    0.366072   0.583404  -0.031140  -0.030470  -0.029385  -0.005308
     3  H    0.365289  -0.031140   0.586947  -0.030576  -0.029572  -0.005428
     4  H    0.364849  -0.030470  -0.030576   0.582266  -0.027754   0.005389
     5  C    0.384494  -0.029385  -0.029572  -0.027754   4.718849   0.387945
     6  C   -0.057287  -0.005308  -0.005428   0.005389   0.387945   5.067003
     7  H   -0.005016  -0.000254   0.005329  -0.000044  -0.035650   0.356328
     8  H   -0.005254   0.005305  -0.000258  -0.000051  -0.035606   0.364600
     9  C    0.004537  -0.000006  -0.000010  -0.000145  -0.037738   0.367367
    10  H   -0.000167  -0.000003  -0.000002   0.000002   0.004236  -0.035560
    11  H    0.000048   0.000003  -0.000003   0.000002  -0.006967  -0.044123
    12  C   -0.061898   0.005898  -0.004994  -0.004955   0.387027  -0.058156
    13  H    0.005718  -0.000194  -0.000050  -0.000056  -0.028082  -0.005206
    14  H   -0.004644  -0.000069   0.003997  -0.000134  -0.030154  -0.004762
    15  H   -0.005816  -0.000022  -0.000145   0.004410  -0.028922   0.005515
    16  C   -0.062623  -0.004888   0.005896  -0.004838   0.390866  -0.058556
    17  H   -0.005551  -0.000175  -0.000013   0.004441  -0.030489   0.005675
    18  H   -0.004616   0.003968  -0.000067  -0.000140  -0.029124  -0.005192
    19  H    0.005629  -0.000053  -0.000191  -0.000041  -0.028025  -0.005834
               7          8          9         10         11         12
     1  C   -0.005016  -0.005254   0.004537  -0.000167   0.000048  -0.061898
     2  H   -0.000254   0.005305  -0.000006  -0.000003   0.000003   0.005898
     3  H    0.005329  -0.000258  -0.000010  -0.000002  -0.000003  -0.004994
     4  H   -0.000044  -0.000051  -0.000145   0.000002   0.000002  -0.004955
     5  C   -0.035650  -0.035606  -0.037738   0.004236  -0.006967   0.387027
     6  C    0.356328   0.364600   0.367367  -0.035560  -0.044123  -0.058156
     7  H    0.613579  -0.036982  -0.039026  -0.000729  -0.001769  -0.006836
     8  H   -0.036982   0.608790  -0.039613  -0.004568   0.005283   0.006189
     9  C   -0.039026  -0.039613   5.323450   0.353125   0.360827  -0.005649
    10  H   -0.000729  -0.004568   0.353125   0.596383  -0.045393   0.000095
    11  H   -0.001769   0.005283   0.360827  -0.045393   0.588947   0.003523
    12  C   -0.006836   0.006189  -0.005649   0.000095   0.003523   5.153315
    13  H   -0.000062  -0.000063   0.002175  -0.000092   0.002632   0.367198
    14  H    0.004707  -0.000036  -0.000305  -0.000026   0.000289   0.365460
    15  H   -0.000083  -0.000178   0.000077   0.000000  -0.000117   0.367555
    16  C    0.006295  -0.006618  -0.003043   0.000116  -0.000385  -0.063188
    17  H   -0.000175  -0.000095   0.000054   0.000001  -0.000022  -0.004870
    18  H   -0.000043   0.004588  -0.000023  -0.000026   0.000048   0.005750
    19  H    0.000027  -0.000140   0.006919  -0.000105   0.000001  -0.004855
              13         14         15         16         17         18
     1  C    0.005718  -0.004644  -0.005816  -0.062623  -0.005551  -0.004616
     2  H   -0.000194  -0.000069  -0.000022  -0.004888  -0.000175   0.003968
     3  H   -0.000050   0.003997  -0.000145   0.005896  -0.000013  -0.000067
     4  H   -0.000056  -0.000134   0.004410  -0.004838   0.004441  -0.000140
     5  C   -0.028082  -0.030154  -0.028922   0.390866  -0.030489  -0.029124
     6  C   -0.005206  -0.004762   0.005515  -0.058556   0.005675  -0.005192
     7  H   -0.000062   0.004707  -0.000083   0.006295  -0.000175  -0.000043
     8  H   -0.000063  -0.000036  -0.000178  -0.006618  -0.000095   0.004588
     9  C    0.002175  -0.000305   0.000077  -0.003043   0.000054  -0.000023
    10  H   -0.000092  -0.000026   0.000000   0.000116   0.000001  -0.000026
    11  H    0.002632   0.000289  -0.000117  -0.000385  -0.000022   0.000048
    12  C    0.367198   0.365460   0.367555  -0.063188  -0.004870   0.005750
    13  H    0.575601  -0.031468  -0.030668  -0.004818  -0.000161  -0.000032
    14  H   -0.031468   0.588177  -0.030812   0.005769  -0.000061  -0.000196
    15  H   -0.030668  -0.030812   0.581375  -0.004365   0.003836  -0.000066
    16  C   -0.004818   0.005769  -0.004365   5.142696   0.367180   0.366105
    17  H   -0.000161  -0.000061   0.003836   0.367180   0.587499  -0.031252
    18  H   -0.000032  -0.000196  -0.000066   0.366105  -0.031252   0.583803
    19  H    0.003961  -0.000020  -0.000214   0.367681  -0.031159  -0.029629
              19
     1  C    0.005629
     2  H   -0.000053
     3  H   -0.000191
     4  H   -0.000041
     5  C   -0.028025
     6  C   -0.005834
     7  H    0.000027
     8  H   -0.000140
     9  C    0.006919
    10  H   -0.000105
    11  H    0.000001
    12  C   -0.004855
    13  H    0.003961
    14  H   -0.000020
    15  H   -0.000214
    16  C    0.367681
    17  H   -0.031159
    18  H   -0.029629
    19  H    0.568828
          Atomic-Atomic Spin Densities.
               1          2          3          4          5          6
     1  C   -0.001480   0.000068  -0.000291   0.000399  -0.000953   0.000386
     2  H    0.000068  -0.000036   0.000015   0.000001   0.000032  -0.000009
     3  H   -0.000291   0.000015   0.000032   0.000030  -0.000403   0.000254
     4  H    0.000399   0.000001   0.000030  -0.000772  -0.000074  -0.000046
     5  C   -0.000953   0.000032  -0.000403  -0.000074   0.019496   0.004522
     6  C    0.000386  -0.000009   0.000254  -0.000046   0.004522  -0.039075
     7  H    0.000598  -0.000050   0.000692   0.000015  -0.008471   0.013973
     8  H   -0.000342   0.000024  -0.000084  -0.000013   0.004466   0.003414
     9  C    0.000129  -0.000002  -0.000044  -0.000004  -0.006839  -0.035411
    10  H   -0.000001   0.000001  -0.000002   0.000000   0.000168   0.002404
    11  H   -0.000025   0.000000  -0.000004   0.000000   0.001011   0.002551
    12  C    0.000331  -0.000003  -0.000122  -0.000049   0.000697   0.000142
    13  H   -0.000029   0.000000   0.000006   0.000005   0.000038  -0.000134
    14  H   -0.000036  -0.000001   0.000046   0.000004   0.000088   0.000085
    15  H    0.000022   0.000001  -0.000023  -0.000015  -0.000220  -0.000038
    16  C    0.001310  -0.000039   0.000107   0.000069  -0.006850   0.000045
    17  H    0.000038   0.000000   0.000006   0.000002  -0.000107  -0.000089
    18  H    0.000052  -0.000005   0.000001   0.000001  -0.000173   0.000006
    19  H   -0.000018   0.000001   0.000004   0.000003  -0.000225  -0.000729
               7          8          9         10         11         12
     1  C    0.000598  -0.000342   0.000129  -0.000001  -0.000025   0.000331
     2  H   -0.000050   0.000024  -0.000002   0.000001   0.000000  -0.000003
     3  H    0.000692  -0.000084  -0.000044  -0.000002  -0.000004  -0.000122
     4  H    0.000015  -0.000013  -0.000004   0.000000   0.000000  -0.000049
     5  C   -0.008471   0.004466  -0.006839   0.000168   0.001011   0.000697
     6  C    0.013973   0.003414  -0.035411   0.002404   0.002551   0.000142
     7  H    0.081078  -0.007007  -0.024656  -0.002674  -0.002552  -0.001837
     8  H   -0.007007   0.010232  -0.004436   0.001205   0.000165   0.000134
     9  C   -0.024656  -0.004436   1.130664  -0.011951  -0.013311   0.000189
    10  H   -0.002674   0.001205  -0.011951  -0.027198   0.006218   0.000046
    11  H   -0.002552   0.000165  -0.013311   0.006218  -0.022366   0.000728
    12  C   -0.001837   0.000134   0.000189   0.000046   0.000728   0.000450
    13  H    0.000214  -0.000018   0.000233  -0.000004  -0.000486  -0.000420
    14  H    0.000525  -0.000016  -0.000185  -0.000007  -0.000094  -0.000689
    15  H   -0.000053   0.000004  -0.000011   0.000001   0.000005   0.000566
    16  C    0.000920  -0.001004   0.001077  -0.000055  -0.000049  -0.000700
    17  H    0.000015  -0.000021   0.000089  -0.000001  -0.000004  -0.000050
    18  H    0.000006  -0.000031   0.000090  -0.000001  -0.000002  -0.000013
    19  H    0.000092  -0.000103   0.002906  -0.000026  -0.000173   0.000005
              13         14         15         16         17         18
     1  C   -0.000029  -0.000036   0.000022   0.001310   0.000038   0.000052
     2  H    0.000000  -0.000001   0.000001  -0.000039   0.000000  -0.000005
     3  H    0.000006   0.000046  -0.000023   0.000107   0.000006   0.000001
     4  H    0.000005   0.000004  -0.000015   0.000069   0.000002   0.000001
     5  C    0.000038   0.000088  -0.000220  -0.006850  -0.000107  -0.000173
     6  C   -0.000134   0.000085  -0.000038   0.000045  -0.000089   0.000006
     7  H    0.000214   0.000525  -0.000053   0.000920   0.000015   0.000006
     8  H   -0.000018  -0.000016   0.000004  -0.001004  -0.000021  -0.000031
     9  C    0.000233  -0.000185  -0.000011   0.001077   0.000089   0.000090
    10  H   -0.000004  -0.000007   0.000001  -0.000055  -0.000001  -0.000001
    11  H   -0.000486  -0.000094   0.000005  -0.000049  -0.000004  -0.000002
    12  C   -0.000420  -0.000689   0.000566  -0.000700  -0.000050  -0.000013
    13  H    0.000414   0.000182  -0.000191   0.000072   0.000018   0.000001
    14  H    0.000182   0.000394  -0.000166   0.000044   0.000006   0.000000
    15  H   -0.000191  -0.000166   0.000428  -0.000060  -0.000043  -0.000001
    16  C    0.000072   0.000044  -0.000060   0.012659  -0.000164  -0.000047
    17  H    0.000018   0.000006  -0.000043  -0.000164  -0.000023   0.000007
    18  H    0.000001   0.000000  -0.000001  -0.000047   0.000007  -0.000193
    19  H    0.000041   0.000010  -0.000039   0.000019   0.000018   0.000209
              19
     1  C   -0.000018
     2  H    0.000001
     3  H    0.000004
     4  H    0.000003
     5  C   -0.000225
     6  C   -0.000729
     7  H    0.000092
     8  H   -0.000103
     9  C    0.002906
    10  H   -0.000026
    11  H   -0.000173
    12  C    0.000005
    13  H    0.000041
    14  H    0.000010
    15  H   -0.000039
    16  C    0.000019
    17  H    0.000018
    18  H    0.000209
    19  H   -0.002708
 Mulliken charges and spin densities:
               1          2
     1  C   -0.441233   0.000158
     2  H    0.137317  -0.000002
     3  H    0.134991   0.000222
     4  H    0.137847  -0.000445
     5  C    0.104051   0.006204
     6  C   -0.274409  -0.047748
     7  H    0.140402   0.050829
     8  H    0.134706   0.006569
     9  C   -0.292973   1.038526
    10  H    0.132714  -0.031876
    11  H    0.137177  -0.028388
    12  C   -0.446609  -0.000595
    13  H    0.143669  -0.000057
    14  H    0.134287   0.000190
    15  H    0.138639   0.000166
    16  C   -0.439281   0.007353
    17  H    0.135336  -0.000303
    18  H    0.136146  -0.000090
    19  H    0.147223  -0.000713
 Sum of Mulliken charges =   0.00000   1.00000
 Mulliken charges and spin densities with hydrogens summed into heavy atoms:
               1          2
     1  C   -0.031078  -0.000067
     5  C    0.104051   0.006204
     6  C    0.000699   0.009650
     9  C   -0.023082   0.978262
    12  C   -0.030014  -0.000296
    16  C   -0.020576   0.006247
 Electronic spatial extent (au):  <R**2>=            681.1888
 Charge=              0.0000 electrons
 Dipole moment (field-independent basis, Debye):
    X=             -0.1417    Y=             -0.1487    Z=             -0.5891  Tot=              0.6238
 Quadrupole moment (field-independent basis, Debye-Ang):
   XX=            -41.3353   YY=            -40.6291   ZZ=            -41.3583
   XY=             -0.4680   XZ=             -1.5541   YZ=             -0.0523
 Traceless Quadrupole moment (field-independent basis, Debye-Ang):
   XX=             -0.2278   YY=              0.4785   ZZ=             -0.2507
   XY=             -0.4680   XZ=             -1.5541   YZ=             -0.0523
 Octapole moment (field-independent basis, Debye-Ang**2):
  XXX=             -2.2807  YYY=             -1.0972  ZZZ=             -3.1268  XYY=              0.7832
  XXY=              0.5782  XXZ=             -3.0516  XZZ=             -0.8279  YZZ=             -0.7475
  YYZ=              1.1651  XYZ=             -0.0143
 Hexadecapole moment (field-independent basis, Debye-Ang**3):
 XXXX=           -474.5669 YYYY=           -239.5189 ZZZZ=           -232.8836 XXXY=             -8.5927
 XXXZ=            -12.6018 YYYX=              0.9333 YYYZ=             -0.9947 ZZZX=             -1.3066
 ZZZY=              0.5835 XXYY=           -117.7439 XXZZ=           -122.8174 YYZZ=            -78.9884
 XXYZ=             -0.1096 YYXZ=             -1.6128 ZZXY=              0.3193
 N-N= 2.544325438587D+02 E-N=-1.054426327055D+03  KE= 2.339689123559D+02
                          Isotropic Fermi Contact Couplings
        Atom                 a.u.       MegaHertz       Gauss      10(-4) cm-1
     1  C(13)             -0.00088      -0.99166      -0.35385      -0.33078
     2  H(1)               0.00003       0.12606       0.04498       0.04205
     3  H(1)               0.00004       0.18107       0.06461       0.06040
     4  H(1)              -0.00016      -0.70224      -0.25058      -0.23424
     5  C(13)              0.00615       6.91438       2.46722       2.30639
     6  C(13)             -0.01194     -13.42405      -4.79004      -4.47778
     7  H(1)               0.02700     120.66921      43.05777      40.25092
     8  H(1)               0.00452      20.21468       7.21310       6.74289
     9  C(13)              0.30729     345.45652     123.26747     115.23189
    10  H(1)              -0.00494     -22.07043      -7.87528      -7.36190
    11  H(1)              -0.00330     -14.74616      -5.26180      -4.91879
    12  C(13)             -0.00058      -0.65353      -0.23319      -0.21799
    13  H(1)               0.00005       0.21115       0.07534       0.07043
    14  H(1)               0.00006       0.25588       0.09130       0.08535
    15  H(1)               0.00007       0.32082       0.11448       0.10701
    16  C(13)             -0.00025      -0.28410      -0.10137      -0.09476
    17  H(1)              -0.00011      -0.47778      -0.17048      -0.15937
    18  H(1)              -0.00002      -0.07498      -0.02675      -0.02501
    19  H(1)               0.00066       2.93890       1.04867       0.98031
 --------------------------------------------------------
       Center         ----  Spin Dipole Couplings  ----
                      3XX-RR        3YY-RR        3ZZ-RR
 --------------------------------------------------------
     1   Atom        0.003426     -0.002534     -0.000892
     2   Atom        0.002677     -0.000958     -0.001720
     3   Atom        0.003221     -0.002110     -0.001110
     4   Atom        0.002575     -0.001447     -0.001129
     5   Atom        0.016628     -0.007242     -0.009386
     6   Atom        0.004809     -0.017336      0.012527
     7   Atom        0.000014     -0.006992      0.006978
     8   Atom       -0.000689      0.009669     -0.008980
     9   Atom       -0.480046     -0.456058      0.936104
    10   Atom        0.024190     -0.019110     -0.005080
    11   Atom       -0.058608      0.052183      0.006425
    12   Atom        0.004047     -0.001729     -0.002318
    13   Atom        0.001227      0.002591     -0.003818
    14   Atom        0.001527     -0.001166     -0.000361
    15   Atom        0.002220     -0.000690     -0.001530
    16   Atom        0.008634     -0.005710     -0.002925
    17   Atom        0.003775     -0.002187     -0.001587
    18   Atom        0.004048     -0.002878     -0.001170
    19   Atom        0.007722     -0.005643     -0.002079
 --------------------------------------------------------
                        XY            XZ            YZ
 --------------------------------------------------------
     1   Atom        0.000799      0.000470      0.000026
     2   Atom        0.002308      0.000143      0.000203
     3   Atom        0.001071      0.001862      0.000633
     4   Atom        0.000267      0.000425      0.000100
     5   Atom       -0.005487      0.001183      0.001426
     6   Atom        0.015848      0.028059      0.015126
     7   Atom        0.006353      0.005744      0.006636
     8   Atom        0.014921      0.001394      0.001717
     9   Atom       -0.002736     -0.004486      0.178123
    10   Atom       -0.058027     -0.017329      0.017634
    11   Atom        0.011546     -0.005214     -0.034626
    12   Atom       -0.004643      0.003025     -0.001269
    13   Atom       -0.007410      0.002582     -0.002653
    14   Atom       -0.002872      0.003658     -0.001909
    15   Atom       -0.002243      0.001001     -0.000484
    16   Atom        0.003013      0.000041      0.004132
    17   Atom       -0.001172     -0.001904      0.000677
    18   Atom        0.002422     -0.004462     -0.001500
    19   Atom       -0.004158     -0.008881      0.004074
 --------------------------------------------------------


 ---------------------------------------------------------------------------------
              Anisotropic Spin Dipole Couplings in Principal Axis System
 ---------------------------------------------------------------------------------

       Atom             a.u.   MegaHertz   Gauss  10(-4) cm-1        Axes

              Baa    -0.0026    -0.354    -0.126    -0.118 -0.1321  0.9910  0.0206
     1 C(13)  Bbb    -0.0009    -0.126    -0.045    -0.042 -0.1007 -0.0341  0.9943
              Bcc     0.0036     0.481     0.171     0.160  0.9861  0.1293  0.1043
 
              Baa    -0.0021    -1.129    -0.403    -0.376 -0.4071  0.8637 -0.2972
     2 H(1)   Bbb    -0.0017    -0.902    -0.322    -0.301 -0.1638  0.2511  0.9540
              Bcc     0.0038     2.031     0.725     0.677  0.8986  0.4370  0.0393
 
              Baa    -0.0024    -1.294    -0.462    -0.432 -0.0538  0.9273 -0.3703
     3 H(1)   Bbb    -0.0017    -0.920    -0.328    -0.307 -0.3938  0.3211  0.8613
              Bcc     0.0042     2.215     0.790     0.739  0.9176  0.1922  0.3479
 
              Baa    -0.0015    -0.790    -0.282    -0.264 -0.0401  0.9729 -0.2277
     4 H(1)   Bbb    -0.0012    -0.619    -0.221    -0.207 -0.1258  0.2212  0.9671
              Bcc     0.0026     1.410     0.503     0.470  0.9912  0.0674  0.1135
 
              Baa    -0.0106    -1.428    -0.510    -0.476 -0.1514 -0.5799  0.8005
     5 C(13)  Bbb    -0.0072    -0.968    -0.345    -0.323  0.1514  0.7867  0.5985
              Bcc     0.0179     2.396     0.855     0.799  0.9768 -0.2118  0.0313
 
              Baa    -0.0256    -3.437    -1.226    -1.146 -0.4344  0.8999 -0.0373
     6 C(13)  Bbb    -0.0191    -2.558    -0.913    -0.853 -0.6461 -0.2824  0.7091
              Bcc     0.0447     5.995     2.139     2.000  0.6276  0.3322  0.7041
 
              Baa    -0.0113    -6.036    -2.154    -2.013 -0.4009  0.8943 -0.1985
     7 H(1)   Bbb    -0.0027    -1.452    -0.518    -0.484  0.7705  0.2119 -0.6012
              Bcc     0.0140     7.488     2.672     2.498  0.4956  0.3940  0.7740
 
              Baa    -0.0113    -6.036    -2.154    -2.013  0.8157 -0.5748 -0.0643
     8 H(1)   Bbb    -0.0091    -4.875    -1.739    -1.626  0.0093 -0.0982  0.9951
              Bcc     0.0204    10.911     3.893     3.639  0.5784  0.8124  0.0748
 
              Baa    -0.4816   -64.622   -23.059   -21.556  0.8195  0.5689 -0.0689
     9 C(13)  Bbb    -0.4770   -64.006   -22.839   -21.350 -0.5730  0.8129 -0.1043
              Bcc     0.9585   128.628    45.898    42.906 -0.0033  0.1249  0.9922
 
              Baa    -0.0598   -31.916   -11.388   -10.646  0.5531  0.8281 -0.0917
    10 H(1)   Bbb    -0.0123    -6.570    -2.344    -2.192  0.2996 -0.0950  0.9493
              Bcc     0.0721    38.486    13.733    12.838  0.7774 -0.5525 -0.3007
 
              Baa    -0.0598   -31.931   -11.394   -10.651  0.9952 -0.0935  0.0295
    11 H(1)   Bbb    -0.0122    -6.500    -2.319    -2.168  0.0181  0.4712  0.8819
              Bcc     0.0720    38.431    13.713    12.819  0.0963  0.8771 -0.4706
 
              Baa    -0.0044    -0.593    -0.212    -0.198  0.5387  0.7875 -0.2994
    12 C(13)  Bbb    -0.0033    -0.439    -0.156    -0.146 -0.1083  0.4172  0.9023
              Bcc     0.0077     1.032     0.368     0.344  0.8355 -0.4537  0.3101
 
              Baa    -0.0055    -2.961    -1.057    -0.988  0.7548  0.6396 -0.1455
    13 H(1)   Bbb    -0.0048    -2.545    -0.908    -0.849 -0.0582  0.2862  0.9564
              Bcc     0.0103     5.506     1.965     1.836 -0.6534  0.7134 -0.2532
 
              Baa    -0.0033    -1.761    -0.628    -0.587  0.6918  0.3839 -0.6115
    14 H(1)   Bbb    -0.0027    -1.446    -0.516    -0.482  0.0561  0.8158  0.5756
              Bcc     0.0060     3.207     1.144     1.070  0.7199 -0.4326  0.5428
 
              Baa    -0.0019    -1.027    -0.367    -0.343  0.5092  0.8054 -0.3035
    15 H(1)   Bbb    -0.0017    -0.934    -0.333    -0.311 -0.0269  0.3674  0.9297
              Bcc     0.0037     1.961     0.700     0.654  0.8603 -0.4652  0.2087
 
              Baa    -0.0090    -1.210    -0.432    -0.404 -0.1387  0.8200 -0.5553
    16 C(13)  Bbb    -0.0003    -0.039    -0.014    -0.013 -0.1827  0.5299  0.8282
              Bcc     0.0093     1.249     0.446     0.417  0.9733  0.2163  0.0764
 
              Baa    -0.0026    -1.403    -0.501    -0.468 -0.0186  0.8224 -0.5687
    17 H(1)   Bbb    -0.0020    -1.072    -0.383    -0.358  0.3600  0.5361  0.7635
              Bcc     0.0046     2.475     0.883     0.826  0.9328 -0.1905 -0.3060
 
              Baa    -0.0038    -2.025    -0.723    -0.676  0.2716  0.5610  0.7820
    18 H(1)   Bbb    -0.0036    -1.921    -0.686    -0.641 -0.4790  0.7835 -0.3957
              Bcc     0.0074     3.947     1.408     1.316  0.8347  0.2671 -0.4815
 
              Baa    -0.0086    -4.600    -1.641    -1.534  0.2150 -0.6708  0.7097
    19 H(1)   Bbb    -0.0059    -3.166    -1.130    -1.056  0.5302  0.6905  0.4920
              Bcc     0.0146     7.765     2.771     2.590  0.8201 -0.2705 -0.5042
 

 ---------------------------------------------------------------------------------

 No NMR shielding tensors so no spin-rotation constants.
 Leave Link  601 at Sat Nov  7 02:15:39 2015, MaxMem=   805306368 cpu:         1.9
 (Enter /home/hetanjin/apps/g09D01/g09/l701.exe)
 Compute integral first derivatives.
 ... and contract with generalized density number  0.
 Leave Link  701 at Sat Nov  7 02:15:39 2015, MaxMem=   805306368 cpu:         0.8
 (Enter /home/hetanjin/apps/g09D01/g09/l702.exe)
 L702 exits ... SP integral derivatives will be done elsewhere.
 Leave Link  702 at Sat Nov  7 02:15:39 2015, MaxMem=   805306368 cpu:         0.1
 (Enter /home/hetanjin/apps/g09D01/g09/l703.exe)
 Compute integral first derivatives, UseDBF=F ICtDFT=           0.
 Integral derivatives from FoFJK, PRISM(SPDF).
 Calling FoFJK, ICntrl=      2127 FMM=F ISym2X=0 I1Cent= 0 IOpClX= 1 NMat=1 NMatS=1 NMatT=0.
 FoFJK:  IHMeth= 1 ICntrl=    2127 DoSepK=F KAlg= 0 I1Cent=   0 FoldK=F
 IRaf=         0 NMat=   1 IRICut=       1 DoRegI=T DoRafI=F ISym2E= 0.
 FoFCou: FMM=F IPFlag=           0 FMFlag=      100000 FMFlg1=         800
         NFxFlg=           0 DoJE=F BraDBF=F KetDBF=F FulRan=T
         wScrn=  0.000000 ICntrl=    2127 IOpCl=  1 I1Cent=           0 NGrid=           0
         NMat0=    1 NMatS0=      1 NMatT0=    0 NMatD0=    1 NMtDS0=    0 NMtDT0=    0
 Symmetry not used in FoFCou.
 Leave Link  703 at Sat Nov  7 02:15:48 2015, MaxMem=   805306368 cpu:        36.0
 (Enter /home/hetanjin/apps/g09D01/g09/l716.exe)
 Dipole        =-5.57308387D-02-5.85032209D-02-2.31756204D-01
 ***** Axes restored to original set *****
 -------------------------------------------------------------------
 Center     Atomic                   Forces (Hartrees/Bohr)
 Number     Number              X              Y              Z
 -------------------------------------------------------------------
      1        6           0.000053012    0.000177940   -0.000188846
      2        1           0.000010147   -0.000039150    0.000007807
      3        1           0.000195843    0.000127700   -0.000098559
      4        1          -0.000149982    0.000041312   -0.000036989
      5        6           0.001633956   -0.000226178   -0.000631324
      6        6          -0.005109835   -0.014976885    0.016580254
      7        1          -0.002707475    0.001031304   -0.003045656
      8        1           0.000321884    0.001169070   -0.000515575
      9        6           0.011705941    0.029168064   -0.034245812
     10        1          -0.003823300   -0.005782187    0.013485951
     11        1          -0.000211367   -0.011894190    0.009138098
     12        6          -0.000354934    0.000073935   -0.000099860
     13        1           0.000039362    0.000015340    0.000163267
     14        1           0.000143737    0.000014340   -0.000197439
     15        1          -0.000100423    0.000102537    0.000062503
     16        6          -0.000529643    0.000082895    0.000292871
     17        1           0.000272472    0.000227562   -0.000146510
     18        1          -0.000116670   -0.000105765   -0.000159458
     19        1          -0.001272724    0.000792356   -0.000364724
 -------------------------------------------------------------------
 Cartesian Forces:  Max     0.034245812 RMS     0.007453646
 Leave Link  716 at Sat Nov  7 02:15:48 2015, MaxMem=   805306368 cpu:         0.1
 (Enter /home/hetanjin/apps/g09D01/g09/l103.exe)

 GradGradGradGradGradGradGradGradGradGradGradGradGradGradGradGradGradGrad
 Berny optimization.
 FormGI is forming the generalized inverse of G from B-inverse, IUseBI=4.
 Internal  Forces:  Max     0.014068147 RMS     0.003373940
 Search for a local minimum.
 Step number   1 out of a maximum of  103
 All quantities printed in internal units (Hartrees-Bohrs-Radians)
 RMS Force = .33739D-02 SwitMx=.10000D-02 MixMth= 1
 Mixed Optimization -- RFO/linear search
 Second derivative matrix not updated -- first step.
 ITU=  0
     Eigenvalues ---    0.00230   0.00230   0.00230   0.00230   0.00316
     Eigenvalues ---    0.03500   0.03655   0.04397   0.04896   0.04922
     Eigenvalues ---    0.05229   0.05319   0.05319   0.05397   0.05404
     Eigenvalues ---    0.05447   0.05447   0.09922   0.13242   0.14244
     Eigenvalues ---    0.14513   0.16000   0.16000   0.16000   0.16000
     Eigenvalues ---    0.16000   0.16000   0.16000   0.16000   0.16000
     Eigenvalues ---    0.16000   0.16000   0.22005   0.27481   0.28370
     Eigenvalues ---    0.28418   0.28418   0.29059   0.33721   0.33721
     Eigenvalues ---    0.33969   0.33969   0.33990   0.33990   0.34015
     Eigenvalues ---    0.34017   0.34017   0.34112   0.34156   0.34156
     Eigenvalues ---    0.34166
 RFO step:  Lambda=-1.40980676D-02 EMin= 2.30000000D-03
 Linear search not attempted -- first point.
 Iteration  1 RMS(Cart)=  0.05225166 RMS(Int)=  0.00881235
 Iteration  2 RMS(Cart)=  0.00711647 RMS(Int)=  0.00570464
 Iteration  3 RMS(Cart)=  0.00010216 RMS(Int)=  0.00570410
 Iteration  4 RMS(Cart)=  0.00000210 RMS(Int)=  0.00570410
 Iteration  5 RMS(Cart)=  0.00000006 RMS(Int)=  0.00570410
 ITry= 1 IFail=0 DXMaxC= 2.22D-01 DCOld= 1.00D+10 DXMaxT= 3.00D-01 DXLimC= 3.00D+00 Rises=F
 Variable       Old X    -DE/DX   Delta X   Delta X   Delta X     New X
                                 (Linear)    (Quad)   (Total)
    R1        2.07346  -0.00002   0.00000  -0.00005  -0.00005   2.07342
    R2        2.07346   0.00015   0.00000   0.00042   0.00042   2.07389
    R3        2.07305  -0.00015   0.00000  -0.00043  -0.00043   2.07262
    R4        2.91336   0.00028   0.00000   0.00094   0.00094   2.91430
    R5        2.93287  -0.00083   0.00000  -0.00288  -0.00288   2.92999
    R6        2.91234  -0.00008   0.00000  -0.00026  -0.00026   2.91209
    R7        2.91234  -0.00098   0.00000  -0.00328  -0.00328   2.90906
    R8        2.07803   0.00302   0.00000   0.00860   0.00860   2.08663
    R9        2.07803   0.00030   0.00000   0.00084   0.00084   2.07887
   R10        2.89880  -0.01249   0.00000  -0.04101  -0.04101   2.85779
   R11        2.07142  -0.00064   0.00000  -0.00179  -0.00179   2.06963
   R12        2.07051  -0.00042   0.00000  -0.00119  -0.00119   2.06931
   R13        2.07067  -0.00004   0.00000  -0.00012  -0.00012   2.07055
   R14        2.07382   0.00016   0.00000   0.00046   0.00046   2.07427
   R15        2.07301  -0.00014   0.00000  -0.00039  -0.00039   2.07262
   R16        2.07301   0.00012   0.00000   0.00035   0.00035   2.07336
   R17        2.07382  -0.00018   0.00000  -0.00051  -0.00051   2.07330
   R18        2.07067   0.00036   0.00000   0.00102   0.00102   2.07169
    A1        1.87988  -0.00007   0.00000   0.00008   0.00008   1.87996
    A2        1.88010   0.00003   0.00000  -0.00017  -0.00017   1.87994
    A3        1.94072  -0.00004   0.00000  -0.00020  -0.00020   1.94052
    A4        1.88010  -0.00011   0.00000  -0.00076  -0.00076   1.87935
    A5        1.94072   0.00030   0.00000   0.00192   0.00192   1.94264
    A6        1.93954  -0.00012   0.00000  -0.00092  -0.00092   1.93862
    A7        1.88414   0.00075   0.00000   0.00643   0.00646   1.89060
    A8        1.89923  -0.00058   0.00000   0.00176   0.00174   1.90097
    A9        1.89923   0.00072   0.00000   0.00719   0.00720   1.90644
   A10        1.93449   0.00028   0.00000  -0.00062  -0.00066   1.93383
   A11        1.93449  -0.00166   0.00000  -0.01581  -0.01582   1.91867
   A12        1.91142   0.00051   0.00000   0.00158   0.00152   1.91294
   A13        1.88615   0.00200   0.00000   0.00902   0.00890   1.89506
   A14        1.88616   0.00003   0.00000   0.00756   0.00748   1.89363
   A15        2.04055  -0.00040   0.00000  -0.00177  -0.00183   2.03872
   A16        1.84789  -0.00022   0.00000  -0.00087  -0.00086   1.84703
   A17        1.89691  -0.00248   0.00000  -0.02576  -0.02574   1.87118
   A18        1.89691   0.00110   0.00000   0.01199   0.01198   1.90889
   A19        1.92445   0.01391   0.00000   0.14716   0.11922   2.04367
   A20        1.95528   0.01407   0.00000   0.14597   0.11830   2.07359
   A21        1.87221  -0.00072   0.00000   0.12188   0.08669   1.95891
   A22        1.95325  -0.00019   0.00000  -0.00102  -0.00102   1.95223
   A23        1.94002   0.00023   0.00000   0.00165   0.00165   1.94168
   A24        1.93250  -0.00014   0.00000  -0.00116  -0.00116   1.93134
   A25        1.88195   0.00007   0.00000   0.00110   0.00110   1.88304
   A26        1.87429   0.00009   0.00000  -0.00005  -0.00006   1.87424
   A27        1.87869  -0.00007   0.00000  -0.00051  -0.00051   1.87818
   A28        1.93250   0.00001   0.00000   0.00181   0.00182   1.93432
   A29        1.94002   0.00016   0.00000  -0.00019  -0.00020   1.93982
   A30        1.95325  -0.00147   0.00000  -0.00914  -0.00915   1.94410
   A31        1.87869   0.00010   0.00000   0.00191   0.00191   1.88059
   A32        1.87429   0.00106   0.00000   0.00809   0.00810   1.88239
   A33        1.88195   0.00024   0.00000  -0.00191  -0.00194   1.88001
    D1        1.04736  -0.00048   0.00000  -0.00434  -0.00433   1.04303
    D2       -3.13510  -0.00003   0.00000  -0.00032  -0.00032  -3.13542
    D3       -1.05336   0.00066   0.00000   0.00679   0.00678  -1.04658
    D4       -1.04737  -0.00056   0.00000  -0.00559  -0.00558  -1.05296
    D5        1.05335  -0.00012   0.00000  -0.00157  -0.00157   1.05178
    D6        3.13509   0.00058   0.00000   0.00554   0.00553   3.14062
    D7        3.14159  -0.00054   0.00000  -0.00530  -0.00530   3.13629
    D8       -1.04087  -0.00010   0.00000  -0.00128  -0.00128  -1.04215
    D9        1.04086   0.00060   0.00000   0.00583   0.00582   1.04668
   D10        0.99614   0.00083   0.00000   0.01709   0.01713   1.01327
   D11       -0.99615   0.00006   0.00000   0.00975   0.00974  -0.98641
   D12        3.14159  -0.00113   0.00000  -0.01111  -0.01113   3.13046
   D13       -1.08232   0.00091   0.00000   0.01135   0.01140  -1.07092
   D14       -3.07460   0.00014   0.00000   0.00400   0.00401  -3.07060
   D15        1.06313  -0.00105   0.00000  -0.01685  -0.01686   1.04627
   D16        3.07459   0.00120   0.00000   0.02059   0.02060   3.09519
   D17        1.08231   0.00044   0.00000   0.01324   0.01321   1.09551
   D18       -1.06314  -0.00075   0.00000  -0.00762  -0.00766  -1.07081
   D19        3.09341  -0.00003   0.00000   0.00019   0.00019   3.09360
   D20       -1.08437   0.00009   0.00000   0.00204   0.00204  -1.08233
   D21        1.00293   0.00007   0.00000   0.00172   0.00172   1.00465
   D22       -1.12043   0.00070   0.00000   0.00878   0.00879  -1.11164
   D23        0.98498   0.00082   0.00000   0.01063   0.01064   0.99562
   D24        3.07227   0.00080   0.00000   0.01031   0.01032   3.08259
   D25        1.01930  -0.00086   0.00000  -0.01048  -0.01049   1.00881
   D26        3.12471  -0.00074   0.00000  -0.00863  -0.00864   3.11607
   D27       -1.07118  -0.00076   0.00000  -0.00894  -0.00896  -1.08014
   D28       -1.00294   0.00000   0.00000  -0.01044  -0.01046  -1.01340
   D29        1.08436   0.00024   0.00000  -0.00697  -0.00699   1.07736
   D30       -3.09342  -0.00036   0.00000  -0.01583  -0.01583  -3.10926
   D31       -3.07228  -0.00038   0.00000  -0.01334  -0.01333  -3.08561
   D32       -0.98499  -0.00014   0.00000  -0.00987  -0.00986  -0.99485
   D33        1.12042  -0.00074   0.00000  -0.01873  -0.01870   1.10172
   D34        1.07117   0.00003   0.00000  -0.00313  -0.00314   1.06804
   D35       -3.12472   0.00026   0.00000   0.00034   0.00033  -3.12439
   D36       -1.01931  -0.00034   0.00000  -0.00852  -0.00851  -1.02782
   D37        3.14158  -0.00883   0.00000  -0.17120  -0.17758   2.96399
   D38       -1.05785   0.00878   0.00000   0.17646   0.18277  -0.87508
   D39       -1.00171  -0.00848   0.00000  -0.18153  -0.18779  -1.18950
   D40        1.08205   0.00913   0.00000   0.16613   0.17256   1.25461
   D41        1.00168  -0.00947   0.00000  -0.18983  -0.19622   0.80546
   D42        3.08544   0.00814   0.00000   0.15783   0.16414  -3.03361
         Item               Value     Threshold  Converged?
 Maximum Force            0.014068     0.000015     NO 
 RMS     Force            0.003374     0.000010     NO 
 Maximum Displacement     0.222253     0.000060     NO 
 RMS     Displacement     0.050636     0.000040     NO 
 Predicted change in Energy=-1.011572D-02
 Lowest energy point so far.  Saving SCF results.
 GradGradGradGradGradGradGradGradGradGradGradGradGradGradGradGradGradGrad

 Leave Link  103 at Sat Nov  7 02:15:51 2015, MaxMem=   805306368 cpu:         7.7
 (Enter /home/hetanjin/apps/g09D01/g09/l202.exe)
                          Input orientation:                          
 ---------------------------------------------------------------------
 Center     Atomic      Atomic             Coordinates (Angstroms)
 Number     Number       Type             X           Y           Z
 ---------------------------------------------------------------------
      1          6           0        1.639218    0.987708    0.004155
      2          1           0        1.612547    1.632484    0.891517
      3          1           0        1.635671    1.636998   -0.880612
      4          1           0        2.592004    0.444547    0.014871
      5          6           0        0.444907    0.012163   -0.011951
      6          6           0       -0.863682    0.843755   -0.018727
      7          1           0       -0.855790    1.504897   -0.903079
      8          1           0       -0.857247    1.511727    0.855329
      9          6           0       -2.163018    0.070607   -0.049633
     10          1           0       -3.084954    0.637645    0.117599
     11          1           0       -2.290966   -0.716487   -0.800107
     12          6           0        0.538384   -0.871291   -1.271110
     13          1           0       -0.263206   -1.617446   -1.306266
     14          1           0        0.477632   -0.267768   -2.185945
     15          1           0        1.491708   -1.413133   -1.293708
     16          6           0        0.497046   -0.873982    1.245748
     17          1           0        1.443468   -1.426885    1.294450
     18          1           0        0.414683   -0.270828    2.158518
     19          1           0       -0.320003   -1.604886    1.254002
 ---------------------------------------------------------------------
                    Distance matrix (angstroms):
                    1          2          3          4          5
     1  C    0.000000
     2  H    1.097205   0.000000
     3  H    1.097453   1.772286   0.000000
     4  H    1.096786   1.771733   1.771553   0.000000
     5  C    1.542182   2.192049   2.193759   2.190365   0.000000
     6  C    2.507140   2.753606   2.760225   3.478830   1.550482
     7  H    2.704741   3.054430   2.495063   3.722131   2.171216
     8  H    2.689132   2.473010   3.040366   3.707098   2.167134
     9  C    3.911645   4.192865   4.192153   4.770139   2.608852
    10  H    4.738483   4.863659   4.927417   5.681170   3.587190
    11  H    4.358608   4.859699   4.578630   5.084839   2.938898
    12  C    2.508787   3.478458   2.765509   2.757269   1.541009
    13  H    3.481845   4.348649   3.791876   3.761575   2.198250
    14  H    2.778856   3.790748   2.583231   3.133936   2.192187
    15  H    2.733175   3.750413   3.081343   2.524679   2.184070
    16  C    2.512369   2.766260   3.481795   2.764494   1.539409
    17  H    2.744710   3.090417   3.762341   2.541400   2.185101
    18  H    2.779331   2.581234   3.790373   3.138107   2.189049
    19  H    3.481695   3.787705   4.346383   3.770332   2.191477
                    6          7          8          9         10
     6  C    0.000000
     7  H    1.104197   0.000000
[...]
 1555941,-0.11885650,0.00822569,0.01642725,-0.01041950,0.00247771,0.015
 08432,-0.00965250,-0.00014611,-0.12522846,0.12768126,-0.01346071,0.008
 20989,-0.05031898,0.02364782,-0.01348784,0.00253462,-0.02464951,0.0141
 3038,-0.00083237,0.01500795,-0.00904406,0.04918098,-0.13496880,-0.0472
 3711,-0.00156639,0.00143713,0.00255246,-0.00005700,-0.00089719,0.00076
 763,0.00008491,-0.02263467,-0.01782148,-0.00056014,0.45192154,-0.04851
 441,-0.11427246,-0.00145164,-0.01517107,-0.01341529,0.00009139,-0.0137
 7238,-0.01240949,-0.00088881,0.01436237,0.01027024,0.00039216,0.019469
 79,0.48356761,-0.00152735,-0.00138424,-0.07799725,-0.02149198,-0.01651
 049,-0.00160657,0.02250593,0.01741665,-0.00027790,-0.00154376,-0.00130
 717,-0.00175275,-0.00275048,0.00130782,0.49256574,-0.03531497,0.013414
 94,-0.00230546,0.00129321,0.00122181,0.00054789,0.00121447,0.00118949,
 -0.00046895,-0.00375495,-0.00308717,-0.00008330,-0.09493778,0.01275325
 ,-0.00166600,0.40335096,-0.01299183,0.00898519,-0.00094283,-0.00102448
 ,0.00026521,-0.00002844,-0.00094388,0.00026364,-0.00010338,-0.00486625
 ,-0.00187628,-0.00021155,0.03680981,-0.09051004,0.00254738,0.06873340,
 0.48644279,-0.00149832,0.00045144,0.00048911,-0.00114540,0.00003665,-0
 .00022771,0.00135822,0.00006281,-0.00014741,-0.00002888,-0.00011759,-0
 .00038879,-0.00240143,0.00127713,-0.07093117,-0.01210420,0.00687790,0.
 59192692,0.00107991,0.00087759,-0.00128627,-0.00007467,-0.00005127,0.0
 0002137,-0.00050194,-0.00031486,0.00046421,0.00045321,-0.00005217,0.00
 024411,-0.00114446,0.01632060,-0.02221738,-0.04317430,-0.01450247,0.01
 705033,0.05951870,-0.00143601,0.00041864,-0.00021423,0.00008028,0.0000
 3742,-0.00012238,0.00037050,0.00072415,-0.00029435,-0.00009839,-0.0000
 1580,-0.00037609,0.00180138,-0.01327172,0.01773430,-0.01407918,-0.1291
 1508,0.11321023,0.01363006,0.13734019,0.00079424,-0.00011305,-0.000135
 83,-0.00001410,0.00011196,-0.00006534,-0.00064764,-0.00034978,0.000502
 42,-0.00008589,-0.00026039,0.00032513,0.00070685,0.00180824,-0.0041709
 8,0.01442505,0.11172750,-0.21997547,-0.01805232,-0.12749729,0.23658656
 ,0.00101310,0.00094306,0.00135327,-0.00051003,-0.00038003,-0.00054814,
 -0.00007372,-0.00004011,-0.00001944,0.00046765,-0.00009454,-0.00022244
 ,-0.00336421,0.01771259,0.02120021,-0.04185406,-0.00285442,0.00160736,
 -0.00088652,0.00167051,0.00184457,0.05770286,-0.00149071,0.00043478,0.
 00002656,0.00037380,0.00076268,0.00031816,0.00006798,0.00003777,0.0001
 2388,-0.00013250,0.00002364,0.00038186,0.00358052,-0.01436356,-0.01675
 663,-0.00211812,-0.14322346,-0.11883267,-0.00001141,0.01296610,0.01446
 385,0.00036674,0.15330377,-0.00058211,0.00017608,-0.00008513,0.0005197
 3,0.00029757,0.00047198,0.00000871,-0.00012312,-0.00006664,0.00011013,
 0.00027060,0.00027124,-0.00084827,0.00068236,-0.00085946,0.00419748,-0
 .11741097,-0.20718559,0.00015169,-0.01640806,-0.02018682,-0.00048556,0
 .13341807,0.22243743,-0.00267045,0.00265027,-0.00022177,0.00019941,-0.
 00004580,-0.00020591,0.00020598,0.00000509,0.00019855,-0.00058709,-0.0
 0079986,-0.00004960,-0.03400672,-0.00617443,-0.00151731,-0.17442419,-0
 .09035718,-0.00166278,-0.00869508,-0.00392286,0.00213695,-0.00572448,-
 0.00254260,-0.00279924,0.41683960,0.00224766,-0.00184303,0.00017488,0.
 00016443,0.00007995,0.00026801,0.00017490,0.00004223,-0.00023645,0.000
 99393,0.00072713,0.00005518,-0.00084058,0.01369788,-0.00051508,-0.0784
 8966,-0.09842263,-0.00390535,-0.01612724,-0.00762970,-0.00025402,-0.01
 765798,-0.00853835,-0.00097893,0.21836463,0.19511171,-0.00020953,0.000
 19620,-0.00002164,0.00025577,0.00037010,0.00026793,-0.00027474,-0.0003
 5861,0.00029908,-0.00010446,-0.00003956,0.00081101,-0.00168039,-0.0007
 9686,-0.00176319,-0.00202566,-0.00453191,-0.09059632,0.02569675,0.0146
 3820,0.00196381,-0.02552361,-0.01442843,-0.00009850,-0.01812472,0.0249
 3373,0.63209044,-0.00036615,0.00036944,-0.00016955,0.00003134,-0.00002
 305,0.00001324,0.00017684,0.00015771,-0.00011382,-0.00026895,0.0000095
 3,-0.00012247,-0.00016469,-0.00108780,0.00017432,-0.00462160,-0.005636
 02,0.02326725,-0.00370313,-0.00167264,-0.00093633,0.00112521,0.0004377
 2,-0.00090826,-0.10677661,-0.05718322,0.11402529,0.10720863,-0.0003037
 7,0.00039308,0.00008671,-0.00000178,-0.00002390,-0.00003165,0.00006406
 ,0.00003492,-0.00005144,-0.00015621,-0.00006051,-0.00008207,0.00011711
 ,-0.00135494,0.00097042,-0.00503618,-0.00141645,0.01005080,-0.00347697
 ,-0.00129321,0.00100636,0.00092967,0.00072420,0.00076202,-0.05806108,-
 0.04232104,0.06400100,0.06112852,0.04013992,0.00002260,-0.00001004,0.0
 0005277,0.00000740,0.00000521,-0.00000220,-0.00001256,-0.00002068,0.00
 001566,-0.00000985,0.00003275,-0.00003966,-0.00033440,-0.00002631,-0.0
 0008315,-0.00356384,-0.00109110,0.00495412,-0.00057695,-0.00062731,0.0
 0126189,0.00055396,0.00023913,0.00099412,0.11629949,0.06164240,-0.2652
 7837,-0.12447937,-0.06807787,0.27366413,-0.00037668,0.00037569,0.00010
 102,0.00016251,0.00016185,0.00011983,0.00003304,-0.00002309,-0.0000080
 1,-0.00028075,0.00001951,0.00009621,-0.00018351,-0.00109779,-0.0001210
 8,-0.00248521,-0.00717167,-0.02369151,0.00109140,0.00051423,0.00088626
 ,-0.00382273,-0.00169379,0.00049979,-0.08476285,-0.05594443,-0.0918853
 5,0.00793179,0.00426197,0.01250679,0.08335223,-0.00029409,0.00038741,-
 0.00013835,0.00005949,0.00003997,0.00005691,-0.00000549,-0.00002229,0.
 00003243,-0.00016393,-0.00005789,0.00006666,0.00023422,-0.00141079,-0.
 00087014,-0.00377071,-0.00197527,-0.01015670,0.00096848,0.00066878,-0.
 00064071,-0.00333483,-0.00132314,-0.00120388,-0.05670618,-0.05119872,-
 0.08387036,0.00270673,0.00531854,0.00769320,0.05975621,0.04972187,-0.0
 0005007,0.00002930,0.00006895,0.00002456,0.00003650,0.00002493,-0.0000
 0336,-0.00000647,-0.00000551,-0.00000573,-0.00002971,-0.00003050,0.000
 31016,-0.00000731,-0.00000878,0.00301703,0.00077372,0.00337725,-0.0006
 0490,-0.00016780,0.00108329,0.00024573,0.00061177,0.00141133,-0.094109
 24,-0.08142503,-0.27841512,-0.01024100,-0.00860041,-0.01547186,0.10110
 005,0.08893195,0.28793897,0.00017854,-0.01846951,-0.02210281,-0.004374
 27,-0.00438164,-0.00116838,0.00070753,0.00071557,-0.00022756,0.0005500
 7,-0.00047134,-0.00076220,-0.07818216,0.00406466,0.00619201,-0.0057696
 7,0.01950781,0.02250796,0.00092851,-0.00099607,0.00036548,-0.00500558,
 0.00372111,0.00052119,0.00068165,0.00130076,0.00158027,-0.00014540,0.0
 0011449,0.00003673,-0.00021235,0.00006881,-0.00017357,0.58124132,-0.00
 326153,-0.01849978,-0.02023587,-0.00276533,-0.00238830,-0.00018450,0.0
 0082031,0.00052694,-0.00066645,0.00142431,0.00108518,0.00059086,0.0023
 4226,-0.11298054,-0.04679172,0.00706208,-0.01443966,-0.01534109,-0.000
 61641,0.00030943,-0.00080881,0.00269948,-0.00132037,0.00018517,0.00014
 741,-0.00042759,0.00054265,-0.00013712,-0.00010424,-0.00016046,-0.0000
 3381,-0.00004055,-0.00069587,0.00804078,0.53946835,-0.00367528,-0.0058
 9496,-0.00334460,0.00067329,0.00127771,0.00093889,0.00082487,0.0015147
 7,0.00069422,0.00058635,0.00030872,0.00006464,0.00462645,-0.04686656,-
 0.14000705,0.00401042,-0.00296840,-0.00025042,-0.00074572,0.00142141,0
 .00065583,-0.00122563,0.00177359,0.00090495,0.00042086,-0.00007146,0.0
 0029359,-0.00014971,-0.00008617,0.00001260,-0.00017709,-0.00010170,-0.
 00003996,0.00811970,-0.05526863,0.50570856,0.00060992,0.00006990,-0.00
 034332,0.00030152,-0.00010568,0.00015184,-0.00007420,0.00006073,0.0001
 2387,0.00045971,0.00016477,0.00023493,0.00231585,0.00241006,-0.0001598
 4,0.00024577,-0.00003507,-0.00037648,-0.00005078,0.00006126,-0.0000115
 0,0.00009030,-0.00018962,-0.00007268,-0.00052520,0.00030609,0.00005966
 ,0.00000477,0.00002573,0.00000263,-0.00042821,0.00059012,0.00038463,-0
 .20502848,-0.12899028,-0.00742630,0.22143665,0.00178533,-0.00201804,-0
 .00405710,-0.00132621,-0.00070563,-0.00039655,0.00033797,0.00037284,0.
 00002353,-0.00016330,0.00023270,-0.00000573,-0.01579920,-0.01325758,0.
 00053652,-0.00059517,-0.00008562,0.00054099,0.00001420,0.00001199,-0.0
 0007030,0.00003286,0.00024763,-0.00000695,-0.00047348,0.00038963,-0.00
 020699,0.00014349,0.00006024,0.00017308,0.00068740,-0.00007168,0.00031
 649,-0.12804599,-0.15534168,-0.00531500,0.14208985,0.16722585,0.001449
 17,-0.00275483,-0.00464145,-0.00131586,-0.00147623,0.00010435,0.000076
 89,-0.00027075,0.00023665,0.00021302,0.00025036,-0.00008009,-0.0221097
 9,-0.01616979,-0.00091466,-0.00014471,0.00067142,0.00083543,0.00008864
 ,-0.00000210,-0.00002332,-0.00016101,0.00021435,-0.00004952,0.00010710
 ,0.00043348,0.00015946,0.00011729,-0.00012606,-0.00005862,0.00015261,-
 0.00013156,0.00000488,-0.00680372,-0.00468259,-0.04978859,0.00760560,0
 .00816980,0.05194770,0.00006065,0.00045732,-0.00078138,-0.00012027,0.0
 0000016,0.00016416,0.00018596,-0.00028621,-0.00006742,-0.00000884,0.00
 007059,-0.00011532,-0.00181905,-0.00149892,0.00230391,0.00025430,-0.00
 073091,0.00086589,0.00007493,0.00032164,-0.00005680,0.00000178,-0.0000
 0228,-0.00016744,-0.00007141,0.00021509,-0.00003270,0.00007721,-0.0000
 9326,-0.00009241,-0.00011795,-0.00007799,-0.00000101,-0.04988808,-0.00
 139685,0.00173381,0.00080041,-0.01350546,0.02278309,0.04817502,0.00035
 030,0.00111707,-0.00040998,0.00021598,0.00023440,0.00015651,-0.0000134
 7,-0.00003651,0.00016176,-0.00008050,-0.00009352,0.00005374,0.00002967
 ,0.01090019,-0.01684981,-0.00018946,0.00103412,-0.00036103,-0.00003953
 ,-0.00004467,0.00023832,-0.00027639,0.00019822,0.00011036,-0.00007631,
 0.00016472,0.00009178,-0.00001357,-0.00007457,-0.00004483,-0.00005905,
 -0.00005026,0.00002180,-0.00130543,-0.12499348,0.11804959,0.00147724,-
 0.01123588,0.01716116,0.00102093,0.13381258,0.00059489,0.00159104,0.00
 057658,0.00014988,-0.00019197,0.00044829,-0.00055011,-0.00099845,0.000
 47530,-0.00000572,-0.00007814,-0.00003174,0.00008439,0.01566911,-0.022
 60213,-0.00067334,0.00150829,0.00040742,0.00052240,-0.00100486,0.00056
 678,-0.00025068,-0.00016103,0.00043688,0.00021603,-0.00022340,0.000041
 42,-0.00012930,0.00000924,0.00007070,0.00013514,0.00007806,-0.00004333
 ,0.00161629,0.11724029,-0.23149238,0.00048069,-0.00109755,0.00203413,-
 0.00226209,-0.12801825,0.25409969,0.00058457,-0.00081318,-0.00035926,0
 .00022064,-0.00002508,0.00016813,-0.00001958,-0.00003340,0.00004791,0.
 00057936,0.00017968,-0.00001825,-0.00311094,0.00089660,-0.00031491,0.0
 0116645,-0.00034774,0.00103651,0.00003668,-0.00005911,-0.00012876,-0.0
 0014041,0.00029637,0.00002643,0.00002935,0.00038567,-0.00004958,-0.000
 02542,0.00000639,0.00009546,0.00019372,-0.00006421,0.00016743,-0.23608
 616,0.11622913,-0.01006875,-0.02057681,0.01404131,-0.00162679,0.001319
 52,-0.00133571,-0.00044958,0.25530584,0.00139887,0.00034849,0.00081217
 ,-0.00029669,0.00037360,0.00009715,0.00002156,-0.00010830,-0.00003212,
 -0.00093426,-0.00008395,-0.00042032,0.01692094,-0.01158885,0.00186947,
 -0.00051097,-0.00195887,-0.00391419,-0.00037789,0.00044305,-0.00002678
 ,0.00135453,-0.00067714,-0.00036832,-0.00082630,0.00002929,-0.00002891
 ,0.00008467,0.00009373,0.00002496,0.00016436,0.00002826,0.00019075,0.1
 1592645,-0.12131681,0.00679715,-0.01826304,0.01305337,-0.00117529,0.01
 515681,-0.00957741,0.00029824,-0.12894650,0.12995343,0.00084846,0.0006
 6111,0.00081003,0.00008654,0.00036767,-0.00000944,-0.00018235,0.000009
 61,-0.00003600,-0.00054705,-0.00002824,0.00011558,0.02327163,-0.013640
 11,0.00089841,-0.00010399,-0.00259516,-0.00444158,-0.00010659,-0.00024
 425,0.00021332,0.00137029,-0.00119261,0.00020999,-0.00070822,-0.000183
 98,-0.00004599,0.00004656,0.00004817,0.00003370,0.00019073,0.00009014,
 0.00005204,-0.01058393,0.00719620,-0.04956433,-0.00034591,0.00058981,-
 0.00101123,-0.02485633,0.01388105,-0.00045457,0.01131357,-0.00487441,0
 .05195977,-0.00263611,-0.01764784,0.02336767,0.00077508,0.00088305,0.0
 0018457,-0.00438972,-0.00417168,0.00086232,0.00052963,-0.00038438,0.00
 083461,-0.07774622,-0.00096697,0.00060669,-0.00285516,0.01762950,-0.02
 385841,-0.00499262,0.00382174,-0.00138239,0.00088077,-0.00086193,-0.00
 028678,0.00089155,0.00118681,-0.00159438,-0.00024730,0.00006767,0.0001
 5002,-0.00015562,0.00010146,-0.00006033,0.00044674,-0.00132180,0.00244
 647,-0.00001259,0.00018619,-0.00113961,-0.00000310,0.00025799,0.000489
 20,-0.00006771,-0.00024303,0.00105247,0.58211792,-0.00518389,-0.016919
 78,0.02070431,0.00069341,0.00048081,0.00075755,-0.00283338,-0.00246531
 ,0.00009788,0.00144483,0.00102977,-0.00049776,-0.00257337,-0.10736894,
 0.04475887,0.00510083,-0.01319360,0.01668878,0.00274695,-0.00141044,0.
 00024535,-0.00065204,0.00026842,0.00076678,0.00017732,-0.00044925,-0.0
 0048650,-0.00009649,0.00000811,0.00068717,-0.00014475,-0.00008887,0.00
 015213,0.00009863,0.01128876,-0.01521927,0.00007883,0.00047632,-0.0006
 5373,0.00041326,-0.00216519,-0.00545090,-0.00002860,0.00041605,-0.0005
 5596,0.00204986,0.54611205,0.00409446,0.00490231,-0.00211026,-0.000865
 32,-0.00141925,0.00067280,-0.00106966,-0.00152033,0.00103131,-0.000627
 83,-0.00041231,0.00014042,0.00227407,0.04500942,-0.14605614,-0.0045974
 0,0.00563470,-0.00441054,0.00042851,-0.00123238,0.00098211,0.00080635,
 -0.00149453,0.00074466,-0.00036890,0.00024187,0.00010547,0.00016169,0.
 00010707,-0.00005370,0.00014133,0.00010412,0.00000744,0.00121619,0.012
 39335,-0.03374241,0.00023140,0.00118282,0.00146355,0.00036969,-0.00289
 516,-0.00346962,-0.00055619,0.00109478,0.00145090,0.00001623,0.0532887
 4,0.49818971,0.00064061,-0.00071809,0.00038346,-0.00003387,-0.00003527
 ,-0.00004551,0.00024388,0.00000549,-0.00014225,0.00051253,0.00017722,0
 .00005086,-0.00061190,-0.00056847,0.00018423,0.00119697,-0.00065386,-0
 .00038797,0.00001435,0.00016392,-0.00005609,0.00001253,-0.00007638,0.0
 0011249,-0.00005226,0.00036672,0.00002662,0.00023004,-0.00006399,-0.00
 014558,-0.00000959,0.00000564,-0.00010065,0.00000033,-0.00006112,0.000
 40369,-0.00009961,0.00009775,-0.00000394,0.00024823,-0.00022386,-0.000
 12739,0.00042751,-0.00024196,-0.00048273,-0.23543647,0.11590242,-0.016
 74788,0.25459575,0.00141997,0.00026242,-0.00063142,0.00002891,-0.00010
 667,0.00003954,-0.00028758,0.00034285,-0.00015035,-0.00093751,-0.00005
 824,0.00033403,0.01553231,-0.01077419,0.00048380,-0.00088521,-0.001575
 26,0.00366304,0.00121911,-0.00057393,0.00054761,-0.00037127,0.00045730
 ,-0.00002699,-0.00077981,0.00004068,-0.00005873,0.00017203,0.00001153,
 -0.00017165,0.00008387,0.00008933,-0.00001993,-0.00019830,0.00038616,-
 0.00105478,-0.00010455,0.00002203,0.00001008,-0.00025976,-0.00004708,-
 0.00008526,-0.00024648,0.00058337,0.00030903,0.11559131,-0.12115101,0.
 00984231,-0.12828335,0.12942343,-0.00095729,-0.00071004,0.00084005,0.0
 0018112,-0.00000848,-0.00002333,-0.00004340,-0.00039105,-0.00000190,0.
 00064778,0.00005962,0.00015673,-0.02438438,0.01429693,-0.00241554,0.00
 076461,0.00236483,-0.00485567,-0.00146453,0.00126031,-0.00004799,0.000
 10908,0.00022289,0.00022320,0.00075733,0.00022086,0.00002421,-0.000183
 07,-0.00009557,0.00003245,-0.00005654,-0.00005141,0.00002227,-0.001194
 24,0.00061453,0.00141274,-0.00001479,-0.00003713,-0.00010026,0.0002907
 9,-0.00012206,0.00036698,0.00058746,-0.00039634,-0.00041879,-0.0162138
 8,0.00947563,-0.05037994,0.01803105,-0.01348592,0.05320022,0.00004983,
 0.00066871,0.00068732,0.00012331,-0.00038766,0.00005350,-0.00008044,-0
 .00003243,-0.00021903,-0.00002180,0.00006871,0.00011219,-0.00180419,0.
 00019540,-0.00006129,0.00027361,-0.00061821,-0.00084257,-0.00003806,-0
 .00001130,0.00011775,0.00012974,0.00021375,-0.00000328,-0.00005057,0.0
 0019210,0.00001092,-0.00010351,-0.00006937,-0.00000118,0.00005358,-0.0
 0008649,0.00009622,0.00004769,-0.00016858,0.00002212,0.00017791,0.0002
 8326,0.00023561,0.00063760,0.00002690,0.00006597,0.00026501,-0.0002861
 4,-0.00028418,-0.05147789,0.01172142,0.01624373,-0.00129906,0.01655487
 ,0.02375284,0.04990220,0.00026813,0.00104586,0.00041447,0.00003453,0.0
 0001542,-0.00013056,0.00021932,0.00023797,-0.00012177,-0.00007406,-0.0
 0009182,-0.00005783,-0.00157360,0.01084242,0.01471772,-0.00018367,0.00
 095909,0.00030689,-0.00024975,0.00020136,-0.00012246,-0.00004920,0.000
 00500,-0.00021023,-0.00007912,0.00017267,-0.00010862,-0.00006479,-0.00
 005678,-0.00002796,-0.00001082,-0.00007216,0.00005299,-0.00006112,-0.0
 0166065,0.00279269,0.00021328,0.00000017,0.00015833,-0.00007797,0.0008
 6888,0.00094698,-0.00022890,-0.00003452,0.00012218,0.01190452,-0.13970
 000,-0.12308600,0.00012728,-0.01035594,-0.01325695,-0.01331479,0.14982
 938,-0.00067346,-0.00155980,0.00065856,0.00051495,0.00099297,0.0004860
 4,-0.00021903,0.00020203,0.00040488,0.00001158,0.00008956,-0.00002048,
 0.00216589,-0.01778849,-0.02255919,0.00066679,-0.00161391,0.00046323,0
 .00021665,0.00017599,0.00047356,-0.00056342,0.00106591,0.00046229,-0.0
 0022060,0.00023627,0.00001263,-0.00013806,-0.00008547,-0.00005127,0.00
 012835,-0.00000928,0.00009192,-0.00009585,0.00535096,-0.00402494,-0.00
 012382,0.00008230,0.00034493,0.00019100,-0.00111168,-0.00177190,0.0001
 3114,0.00008046,0.00033764,0.01635291,-0.12229123,-0.21519590,0.000352
 13,0.00206387,0.00294256,-0.01814787,0.13372838,0.23635553,0.00067109,
 -0.00017262,0.00093081,-0.00004856,0.00002382,-0.00015588,0.00017233,-
 0.00027147,-0.00012698,0.00050069,0.00017841,-0.00018474,-0.00009803,0
 .00066692,0.00020408,0.00019615,0.00005348,0.00030442,0.00006387,-0.00
 015996,0.00009466,-0.00004219,0.00006135,0.00000598,-0.00050062,0.0003
 4432,-0.00015017,-0.00036307,0.00054702,-0.00045895,0.00001717,0.00001
 274,0.00000405,-0.00009022,-0.00001292,-0.00039957,0.00035309,0.000209
 19,0.00047642,0.00019312,0.00023426,0.00009332,-0.00010163,-0.00010142
 ,0.00002102,-0.20562118,-0.12891523,-0.00115048,-0.02057997,-0.0182485
 6,-0.00060991,0.00321503,0.00320074,-0.00054928,0.22206291,0.00128392,
 -0.00160792,0.00403087,0.00033282,0.00038861,0.00000190,-0.00127996,-0
 .00059313,0.00030540,-0.00017284,0.00021659,-0.00003152,-0.01431278,-0
 .01229993,-0.00135767,-0.00053028,-0.00015782,-0.00053804,0.00004298,0
 .00023345,-0.00000558,0.00000137,0.00001650,0.00006844,-0.00049973,0.0
 0037442,0.00014181,0.00070485,-0.00007863,-0.00023970,0.00015411,0.000
 05748,-0.00016486,0.00037034,0.00044885,-0.00108869,0.00014036,0.00062
 333,0.00037393,0.00027383,-0.00001160,-0.00003146,0.00009375,0.0000232
 0,0.00003976,-0.12808245,-0.15516789,-0.00174154,0.01407993,0.01302324
 ,0.00003934,-0.01495016,-0.01220636,0.00039117,0.14234994,0.16671762,-
 0.00095862,0.00256114,-0.00511276,-0.00012681,0.00026521,0.00019525,0.
 00140885,0.00150278,0.00012106,-0.00014206,-0.00025175,-0.00010496,0.0
 2316832,0.01710133,0.00054178,0.00010757,-0.00060809,0.00095722,0.0001
 7000,-0.00024934,-0.00000893,-0.00009088,0.00000588,-0.00003641,-0.000
 14801,-0.00041296,0.00015010,-0.00023473,0.00019491,-0.00005330,-0.000
 11852,0.00012061,-0.00006823,0.00095644,0.00072197,0.00156868,-0.00040
 061,-0.00042204,-0.00046334,-0.00026945,-0.00011328,0.00034150,-0.0000
 0197,-0.00002846,-0.00009943,-0.00182738,-0.00246782,-0.04936986,-0.00
 130453,-0.00160829,-0.00097797,-0.02183877,-0.01611825,0.00058993,0.00
 165118,-0.00019355,0.05182967\\0.00000123,-0.00000081,0.00000024,0.000
 00069,-0.00000078,0.00000004,0.00000095,-0.00000076,0.00000014,0.00000
 022,-0.00000131,-0.00000007,-0.00000235,0.00000066,0.00000057,0.000002
 30,-0.00000037,-0.00000015,0.00000063,0.00000059,-0.00000003,0.0000004
 2,0.00000061,0.00000022,-0.00000014,0.00000109,-0.00000077,0.00000013,
 0.00000166,0.00000017,-0.00000020,0.00000149,0.00000016,-0.00000033,-0
 .00000040,-0.00000037,-0.00000093,0.00000018,0.00000002,-0.00000015,-0
 .00000019,0.00000010,-0.00000077,-0.00000072,-0.00000003,0.00000015,-0
 .00000023,-0.00000009,-0.00000080,-0.00000064,-0.00000017,-0.00000027,
 -0.00000025,-0.00000004,-0.00000080,0.00000018,0.00000008\\\@


 Standing in the middle of the road is very dangerous;
 you get knocked down by the traffic from both sides.
                                -- Margaret Thatcher
 Job cpu time:       0 days  0 hours 30 minutes 39.1 seconds.
 File lengths (MBytes):  RWF=     64 Int=      0 D2E=      0 Chk=      3 Scr=      1
 Normal termination of Gaussian 09 at Sat Nov  7 02:40:05 2015.
