 Entering Gaussian System, Link 0=/home/hetanjin/apps/g09D01/g09/g09
 Input=C6H14_1_r002_C17_2_opt_B3L.gjf
 Output=C6H14_1_r002_C17_2_opt_B3L.log
 Initial command:
 /home/hetanjin/apps/g09D01/g09/l1.exe "/state/partition1/Gau-821.inp" -scrdir="/state/partition1/"
 Entering Link 1 = /home/hetanjin/apps/g09D01/g09/l1.exe PID=       822.
  
 Copyright (c) 1988,1990,1992,1993,1995,1998,2003,2009,2013,
            Gaussian, Inc.  All Rights Reserved.
  
 This is part of the Gaussian(R) 09 program.  It is based on
 the Gaussian(R) 03 system (copyright 2003, Gaussian, Inc.),
 the Gaussian(R) 98 system (copyright 1998, Gaussian, Inc.),
 the Gaussian(R) 94 system (copyright 1995, Gaussian, Inc.),
 the Gaussian 92(TM) system (copyright 1992, Gaussian, Inc.),
 the Gaussian 90(TM) system (copyright 1990, Gaussian, Inc.),
 the Gaussian 88(TM) system (copyright 1988, Gaussian, Inc.),
 the Gaussian 86(TM) system (copyright 1986, Carnegie Mellon
 University), and the Gaussian 82(TM) system (copyright 1983,
 Carnegie Mellon University). Gaussian is a federally registered
 trademark of Gaussian, Inc.
  
 This software contains proprietary and confidential information,
 including trade secrets, belonging to Gaussian, Inc.
  
 This software is provided under written license and may be
 used, copied, transmitted, or stored only in accord with that
 written license.
  
 The following legend is applicable only to US Government
 contracts under FAR:
  
                    RESTRICTED RIGHTS LEGEND
  
 Use, reproduction and disclosure by the US Government is
 subject to restrictions as set forth in subparagraphs (a)
 and (c) of the Commercial Computer Software - Restricted
 Rights clause in FAR 52.227-19.
  
 Gaussian, Inc.
 340 Quinnipiac St., Bldg. 40, Wallingford CT 06492
  
  
 ---------------------------------------------------------------
 Warning -- This program may not be used in any manner that
 competes with the business of Gaussian, Inc. or will provide
 assistance to any competitor of Gaussian, Inc.  The licensee
 of this program is prohibited from giving any competitor of
 Gaussian, Inc. access to this program.  By using this program,
 the user acknowledges that Gaussian, Inc. is engaged in the
 business of creating and licensing software in the field of
 computational chemistry and represents and warrants to the
 licensee that it is not a competitor of Gaussian, Inc. and that
 it will not use this program in any manner prohibited above.
 ---------------------------------------------------------------
  

 Cite this work as:
 Gaussian 09, Revision D.01,
 M. J. Frisch, G. W. Trucks, H. B. Schlegel, G. E. Scuseria, 
 M. A. Robb, J. R. Cheeseman, G. Scalmani, V. Barone, B. Mennucci, 
 G. A. Petersson, H. Nakatsuji, M. Caricato, X. Li, H. P. Hratchian, 
 A. F. Izmaylov, J. Bloino, G. Zheng, J. L. Sonnenberg, M. Hada, 
 M. Ehara, K. Toyota, R. Fukuda, J. Hasegawa, M. Ishida, T. Nakajima, 
 Y. Honda, O. Kitao, H. Nakai, T. Vreven, J. A. Montgomery, Jr., 
 J. E. Peralta, F. Ogliaro, M. Bearpark, J. J. Heyd, E. Brothers, 
 K. N. Kudin, V. N. Staroverov, T. Keith, R. Kobayashi, J. Normand, 
 K. Raghavachari, A. Rendell, J. C. Burant, S. S. Iyengar, J. Tomasi, 
 M. Cossi, N. Rega, J. M. Millam, M. Klene, J. E. Knox, J. B. Cross, 
 V. Bakken, C. Adamo, J. Jaramillo, R. Gomperts, R. E. Stratmann, 
 O. Yazyev, A. J. Austin, R. Cammi, C. Pomelli, J. W. Ochterski, 
 R. L. Martin, K. Morokuma, V. G. Zakrzewski, G. A. Voth, 
 P. Salvador, J. J. Dannenberg, S. Dapprich, A. D. Daniels, 
 O. Farkas, J. B. Foresman, J. V. Ortiz, J. Cioslowski, 
 and D. J. Fox, Gaussian, Inc., Wallingford CT, 2013.
 
 ******************************************
 Gaussian 09:  ES64L-G09RevD.01 24-Apr-2013
                 7-Nov-2015 
 ******************************************
 %mem=6GB
 %nprocshared=4
 Will use up to    4 processors via shared memory.
 ----------------------------------------------
 #p B3LYP/6-31G(d) opt=tight int=ultrafine freq
 ----------------------------------------------
 1/7=10,14=-1,18=20,19=15,26=4,38=1/1,3;
 2/9=110,12=2,17=6,18=5,40=1/2;
 3/5=1,6=6,7=1,11=2,16=1,25=1,30=1,71=1,74=-5,75=-5/1,2,3;
 4//1;
 5/5=2,38=5/2;
 6/7=2,8=2,9=2,10=2,28=1/1;
 7//1,2,3,16;
 1/7=10,14=-1,18=20,19=15,26=4/3(2);
 2/9=110/2;
 99//99;
 2/9=110/2;
 3/5=1,6=6,7=1,11=2,16=1,25=1,30=1,71=1,74=-5,75=-5/1,2,3;
 4/5=5,16=3,69=1/1;
 5/5=2,38=5/2;
 7//1,2,3,16;
 1/7=10,14=-1,18=20,19=15,26=4/3(-5);
 2/9=110/2;
 6/7=2,8=2,9=2,10=2,19=2,28=1/1;
 99/9=1/99;
 Leave Link    1 at Sat Nov  7 01:56:33 2015, MaxMem=   805306368 cpu:         0.2
 (Enter /home/hetanjin/apps/g09D01/g09/l101.exe)
 ---------------------------------------------
 using B3LYP/6-31G(d) to do opt and freq calc.
 ---------------------------------------------
 Symbolic Z-matrix:
 Charge =  0 Multiplicity = 2
 C                    -1.41423   2.90508   0. 
 H                    -0.9005    3.3015   -0.8846 
 H                    -0.9005    3.3015    0.8846 
 H                    -2.43424   3.30628   0. 
 C                    -1.41423   1.37295   0. 
 H                    -1.9654    1.00688   0.878 
 H                    -1.9654    1.00688  -0.878 
 C                    -0.00489   0.76692   0. 
 H                     0.54683   1.1341    0.87848 
 H                     0.54683   1.1341   -0.87848 
 C                     0.00489  -0.76692   0. 
 H                    -0.54683  -1.1341   -0.87848 
 H                    -0.54683  -1.1341    0.87848 
 C                     1.41423  -1.37295   0. 
 H                     1.9654   -1.00688   0.878 
 H                     1.9654   -1.00688  -0.878 
 C                     1.41423  -2.90508   0. 
 H                     2.43424  -3.30628   0. 
 H                     0.9005   -3.3015    0.8846 
 
 NAtoms=     19 NQM=       19 NQMF=       0 NMMI=      0 NMMIF=      0
                NMic=       0 NMicF=      0.
                    Isotopes and Nuclear Properties:
 (Nuclear quadrupole moments (NQMom) in fm**2, nuclear magnetic moments (NMagM)
  in nuclear magnetons)

  Atom         1           2           3           4           5           6           7           8           9          10
 IAtWgt=          12           1           1           1          12           1           1          12           1           1
 AtmWgt=  12.0000000   1.0078250   1.0078250   1.0078250  12.0000000   1.0078250   1.0078250  12.0000000   1.0078250   1.0078250
 NucSpn=           0           1           1           1           0           1           1           0           1           1
 AtZEff=   0.0000000   0.0000000   0.0000000   0.0000000   0.0000000   0.0000000   0.0000000   0.0000000   0.0000000   0.0000000
 NQMom=    0.0000000   0.0000000   0.0000000   0.0000000   0.0000000   0.0000000   0.0000000   0.0000000   0.0000000   0.0000000
 NMagM=    0.0000000   2.7928460   2.7928460   2.7928460   0.0000000   2.7928460   2.7928460   0.0000000   2.7928460   2.7928460
 AtZNuc=   6.0000000   1.0000000   1.0000000   1.0000000   6.0000000   1.0000000   1.0000000   6.0000000   1.0000000   1.0000000

  Atom        11          12          13          14          15          16          17          18          19
 IAtWgt=          12           1           1          12           1           1          12           1           1
 AtmWgt=  12.0000000   1.0078250   1.0078250  12.0000000   1.0078250   1.0078250  12.0000000   1.0078250   1.0078250
 NucSpn=           0           1           1           0           1           1           0           1           1
 AtZEff=   0.0000000   0.0000000   0.0000000   0.0000000   0.0000000   0.0000000   0.0000000   0.0000000   0.0000000
 NQMom=    0.0000000   0.0000000   0.0000000   0.0000000   0.0000000   0.0000000   0.0000000   0.0000000   0.0000000
 NMagM=    0.0000000   2.7928460   2.7928460   0.0000000   2.7928460   2.7928460   0.0000000   2.7928460   2.7928460
 AtZNuc=   6.0000000   1.0000000   1.0000000   6.0000000   1.0000000   1.0000000   6.0000000   1.0000000   1.0000000
 Leave Link  101 at Sat Nov  7 01:56:33 2015, MaxMem=   805306368 cpu:         0.5
 (Enter /home/hetanjin/apps/g09D01/g09/l103.exe)

 GradGradGradGradGradGradGradGradGradGradGradGradGradGradGradGradGradGrad
 Berny optimization.
 Initialization pass.
                           ----------------------------
                           !    Initial Parameters    !
                           ! (Angstroms and Degrees)  !
 --------------------------                            --------------------------
 ! Name  Definition              Value          Derivative Info.                !
 --------------------------------------------------------------------------------
 ! R1    R(1,2)                  1.0971         estimate D2E/DX2                !
 ! R2    R(1,3)                  1.0971         estimate D2E/DX2                !
 ! R3    R(1,4)                  1.0961         estimate D2E/DX2                !
 ! R4    R(1,5)                  1.5321         estimate D2E/DX2                !
 ! R5    R(5,6)                  1.0994         estimate D2E/DX2                !
 ! R6    R(5,7)                  1.0994         estimate D2E/DX2                !
 ! R7    R(5,8)                  1.5341         estimate D2E/DX2                !
 ! R8    R(8,9)                  1.1004         estimate D2E/DX2                !
 ! R9    R(8,10)                 1.1004         estimate D2E/DX2                !
 ! R10   R(8,11)                 1.5339         estimate D2E/DX2                !
 ! R11   R(11,12)                1.1004         estimate D2E/DX2                !
 ! R12   R(11,13)                1.1004         estimate D2E/DX2                !
 ! R13   R(11,14)                1.5341         estimate D2E/DX2                !
 ! R14   R(14,15)                1.0994         estimate D2E/DX2                !
 ! R15   R(14,16)                1.0994         estimate D2E/DX2                !
 ! R16   R(14,17)                1.5321         estimate D2E/DX2                !
 ! R17   R(17,18)                1.0961         estimate D2E/DX2                !
 ! R18   R(17,19)                1.0971         estimate D2E/DX2                !
 ! A1    A(2,1,3)              107.4766         estimate D2E/DX2                !
 ! A2    A(2,1,4)              107.6687         estimate D2E/DX2                !
 ! A3    A(2,1,5)              111.1823         estimate D2E/DX2                !
 ! A4    A(3,1,4)              107.6687         estimate D2E/DX2                !
 ! A5    A(3,1,5)              111.1823         estimate D2E/DX2                !
 ! A6    A(4,1,5)              111.4711         estimate D2E/DX2                !
 ! A7    A(1,5,6)              109.4494         estimate D2E/DX2                !
 ! A8    A(1,5,7)              109.4494         estimate D2E/DX2                !
 ! A9    A(1,5,8)              113.2685         estimate D2E/DX2                !
 ! A10   A(6,5,7)              105.9962         estimate D2E/DX2                !
 ! A11   A(6,5,8)              109.2096         estimate D2E/DX2                !
 ! A12   A(7,5,8)              109.2096         estimate D2E/DX2                !
 ! A13   A(5,8,9)              109.1945         estimate D2E/DX2                !
 ! A14   A(5,8,10)             109.1945         estimate D2E/DX2                !
 ! A15   A(5,8,11)             113.634          estimate D2E/DX2                !
 ! A16   A(9,8,10)             105.9372         estimate D2E/DX2                !
 ! A17   A(9,8,11)             109.2971         estimate D2E/DX2                !
 ! A18   A(10,8,11)            109.2971         estimate D2E/DX2                !
 ! A19   A(8,11,12)            109.2971         estimate D2E/DX2                !
 ! A20   A(8,11,13)            109.2971         estimate D2E/DX2                !
 ! A21   A(8,11,14)            113.634          estimate D2E/DX2                !
 ! A22   A(12,11,13)           105.9372         estimate D2E/DX2                !
 ! A23   A(12,11,14)           109.1945         estimate D2E/DX2                !
 ! A24   A(13,11,14)           109.1945         estimate D2E/DX2                !
 ! A25   A(11,14,15)           109.2096         estimate D2E/DX2                !
 ! A26   A(11,14,16)           109.2096         estimate D2E/DX2                !
 ! A27   A(11,14,17)           113.2685         estimate D2E/DX2                !
 ! A28   A(15,14,16)           105.9962         estimate D2E/DX2                !
 ! A29   A(15,14,17)           109.4494         estimate D2E/DX2                !
 ! A30   A(16,14,17)           109.4494         estimate D2E/DX2                !
 ! A31   A(14,17,18)           111.4711         estimate D2E/DX2                !
 ! A32   A(14,17,19)           111.1823         estimate D2E/DX2                !
 ! A33   A(18,17,19)           107.6687         estimate D2E/DX2                !
 ! D1    D(2,1,5,6)           -178.0268         estimate D2E/DX2                !
 ! D2    D(2,1,5,7)            -62.2647         estimate D2E/DX2                !
 ! D3    D(2,1,5,8)             59.8542         estimate D2E/DX2                !
 ! D4    D(3,1,5,6)             62.2647         estimate D2E/DX2                !
 ! D5    D(3,1,5,7)            178.0268         estimate D2E/DX2                !
 ! D6    D(3,1,5,8)            -59.8542         estimate D2E/DX2                !
 ! D7    D(4,1,5,6)            -57.881          estimate D2E/DX2                !
 ! D8    D(4,1,5,7)             57.881          estimate D2E/DX2                !
 ! D9    D(4,1,5,8)            180.0            estimate D2E/DX2                !
 ! D10   D(1,5,8,9)             57.7038         estimate D2E/DX2                !
 ! D11   D(1,5,8,10)           -57.7038         estimate D2E/DX2                !
 ! D12   D(1,5,8,11)           180.0            estimate D2E/DX2                !
 ! D13   D(6,5,8,9)            -64.5489         estimate D2E/DX2                !
 ! D14   D(6,5,8,10)          -179.9565         estimate D2E/DX2                !
 ! D15   D(6,5,8,11)            57.7473         estimate D2E/DX2                !
 ! D16   D(7,5,8,9)            179.9565         estimate D2E/DX2                !
 ! D17   D(7,5,8,10)            64.5489         estimate D2E/DX2                !
 ! D18   D(7,5,8,11)           -57.7473         estimate D2E/DX2                !
 ! D19   D(5,8,11,12)           57.7606         estimate D2E/DX2                !
 ! D20   D(5,8,11,13)          -57.7606         estimate D2E/DX2                !
 ! D21   D(5,8,11,14)          180.0            estimate D2E/DX2                !
 ! D22   D(9,8,11,12)          180.0            estimate D2E/DX2                !
 ! D23   D(9,8,11,13)           64.4789         estimate D2E/DX2                !
 ! D24   D(9,8,11,14)          -57.7606         estimate D2E/DX2                !
 ! D25   D(10,8,11,12)         -64.4789         estimate D2E/DX2                !
 ! D26   D(10,8,11,13)         180.0            estimate D2E/DX2                !
 ! D27   D(10,8,11,14)          57.7606         estimate D2E/DX2                !
 ! D28   D(8,11,14,15)          57.7473         estimate D2E/DX2                !
 ! D29   D(8,11,14,16)         -57.7473         estimate D2E/DX2                !
 ! D30   D(8,11,14,17)         180.0            estimate D2E/DX2                !
 ! D31   D(12,11,14,15)       -179.9565         estimate D2E/DX2                !
 ! D32   D(12,11,14,16)         64.5489         estimate D2E/DX2                !
 ! D33   D(12,11,14,17)        -57.7038         estimate D2E/DX2                !
 ! D34   D(13,11,14,15)        -64.5489         estimate D2E/DX2                !
 ! D35   D(13,11,14,16)        179.9565         estimate D2E/DX2                !
 ! D36   D(13,11,14,17)         57.7038         estimate D2E/DX2                !
 ! D37   D(11,14,17,18)        180.0            estimate D2E/DX2                !
 ! D38   D(11,14,17,19)        -59.8542         estimate D2E/DX2                !
 ! D39   D(15,14,17,18)        -57.881          estimate D2E/DX2                !
 ! D40   D(15,14,17,19)         62.2647         estimate D2E/DX2                !
 ! D41   D(16,14,17,18)         57.881          estimate D2E/DX2                !
 ! D42   D(16,14,17,19)        178.0268         estimate D2E/DX2                !
 --------------------------------------------------------------------------------
 Trust Radius=3.00D-01 FncErr=1.00D-07 GrdErr=1.00D-06
 Number of steps in this run=    103 maximum allowed number of steps=    114.
 GradGradGradGradGradGradGradGradGradGradGradGradGradGradGradGradGradGrad

 Leave Link  103 at Sat Nov  7 01:56:33 2015, MaxMem=   805306368 cpu:         0.0
 (Enter /home/hetanjin/apps/g09D01/g09/l202.exe)
                          Input orientation:                          
 ---------------------------------------------------------------------
 Center     Atomic      Atomic             Coordinates (Angstroms)
 Number     Number       Type             X           Y           Z
 ---------------------------------------------------------------------
      1          6           0       -1.414227    2.905083    0.000000
      2          1           0       -0.900497    3.301499   -0.884602
      3          1           0       -0.900497    3.301499    0.884602
      4          1           0       -2.434236    3.306282    0.000000
      5          6           0       -1.414227    1.372954    0.000000
      6          1           0       -1.965398    1.006883    0.877995
      7          1           0       -1.965398    1.006883   -0.877995
      8          6           0       -0.004893    0.766918    0.000000
      9          1           0        0.546827    1.134100    0.878477
     10          1           0        0.546827    1.134100   -0.878477
     11          6           0        0.004893   -0.766918    0.000000
     12          1           0       -0.546827   -1.134100   -0.878477
     13          1           0       -0.546827   -1.134100    0.878477
     14          6           0        1.414227   -1.372954    0.000000
     15          1           0        1.965398   -1.006883    0.877995
     16          1           0        1.965398   -1.006883   -0.877995
     17          6           0        1.414227   -2.905083    0.000000
     18          1           0        2.434236   -3.306282    0.000000
     19          1           0        0.900497   -3.301499    0.884602
 ---------------------------------------------------------------------
                    Distance matrix (angstroms):
                    1          2          3          4          5
     1  C    0.000000
     2  H    1.097080   0.000000
     3  H    1.097080   1.769204   0.000000
     4  H    1.096074   1.770565   1.770565   0.000000
     5  C    1.532129   2.183054   2.183054   2.185904   0.000000
     6  H    2.162829   3.083184   2.529688   2.505578   1.099397
     7  H    2.162829   2.529688   3.083184   2.505578   1.099397
     8  C    2.560854   2.829970   2.829970   3.514268   1.534113
     9  H    2.784571   3.146556   2.606224   3.791679   2.162061
    10  H    2.784571   2.606224   3.146556   3.791679   2.162061
    11  C    3.936686   4.260783   4.260783   4.747663   2.567675
    12  H    4.223636   4.449681   4.786237   4.904185   2.794535
    13  H    4.223636   4.786237   4.449681   4.904185   2.794535
    14  C    5.128523   5.290650   5.290650   6.058541   3.942101
    15  H    5.243684   5.466467   5.174510   6.223427   4.225679
    16  H    5.243684   5.174510   5.466467   6.223427   4.225679
    17  C    6.462057   6.682973   6.682973   7.306964   5.128523
    18  H    7.306964   7.454243   7.454243   8.211457   6.058541
    19  H    6.682973   7.069176   6.844206   7.454243   5.290650
                    6          7          8          9         10
     6  H    0.000000
     7  H    1.755990   0.000000
     8  C    2.161490   2.161490   0.000000
     9  H    2.515444   3.068005   1.100427   0.000000
    10  H    3.068005   2.515444   1.100427   1.756954   0.000000
    11  C    2.792721   2.792721   1.533867   2.163165   2.163165
    12  H    3.111486   2.568298   2.163165   3.070456   2.518097
    13  H    2.568298   3.111486   2.163165   2.518097   3.070456
    14  C    4.225679   4.225679   2.567675   2.794535   2.794535
    15  H    4.416606   4.752885   2.792721   2.568298   3.111486
    16  H    4.752885   4.416606   2.792721   3.111486   2.568298
    17  C    5.243684   5.243684   3.936686   4.223636   4.223636
    18  H    6.223427   6.223427   4.747663   4.904185   4.904185
    19  H    5.174510   5.466467   4.260783   4.449681   4.786237
                   11         12         13         14         15
    11  C    0.000000
    12  H    1.100427   0.000000
    13  H    1.100427   1.756954   0.000000
    14  C    1.534113   2.162061   2.162061   0.000000
    15  H    2.161490   3.068005   2.515444   1.099397   0.000000
    16  H    2.161490   2.515444   3.068005   1.099397   1.755990
    17  C    2.560854   2.784571   2.784571   1.532129   2.162829
    18  H    3.514268   3.791679   3.791679   2.185904   2.505578
    19  H    2.829970   3.146556   2.606224   2.183054   2.529688
                   16         17         18         19
    16  H    0.000000
    17  C    2.162829   0.000000
    18  H    2.505578   1.096074   0.000000
    19  H    3.083184   1.097080   1.770565   0.000000
 Stoichiometry    C6H13(2)
 Framework group  C1[X(C6H13)]
 Deg. of freedom    51
 Full point group                 C1      NOp   1
 Largest Abelian subgroup         C1      NOp   1
 Largest concise Abelian subgroup C1      NOp   1
                         Standard orientation:                         
 ---------------------------------------------------------------------
 Center     Atomic      Atomic             Coordinates (Angstroms)
 Number     Number       Type             X           Y           Z
 ---------------------------------------------------------------------
      1          6           0        3.154077   -0.227233    0.038174
      2          1           0        3.247238   -0.938573   -0.791827
      3          1           0        3.225823   -0.798990    0.971732
      4          1           0        4.015676    0.448912   -0.004880
      5          6           0        1.832078    0.543352   -0.038870
      6          1           0        1.784100    1.271135    0.783750
      7          1           0        1.805354    1.132594   -0.966637
      8          6           0        0.597004   -0.364865    0.018017
      9          1           0        0.624403   -0.955100    0.946355
     10          1           0        0.645669   -1.093717   -0.804993
     11          6           0       -0.731413    0.398156   -0.058506
     12          1           0       -0.758812    0.988391   -0.986844
     13          1           0       -0.780078    1.127008    0.764504
     14          6           0       -1.966487   -0.510061   -0.001619
     15          1           0       -1.939764   -1.099303    0.926149
     16          1           0       -1.918509   -1.237844   -0.824239
     17          6           0       -3.288486    0.260524   -0.078663
     18          1           0       -4.150085   -0.415621   -0.035609
     19          1           0       -3.381647    0.971864    0.751338
 ---------------------------------------------------------------------
 Rotational constants (GHZ):     15.2891076      1.1558497      1.1149809
 Leave Link  202 at Sat Nov  7 01:56:33 2015, MaxMem=   805306368 cpu:         0.1
 (Enter /home/hetanjin/apps/g09D01/g09/l301.exe)
 Standard basis: 6-31G(d) (6D, 7F)
 Ernie: Thresh=  0.10000D-02 Tol=  0.10000D-05 Strict=F.
 There are   116 symmetry adapted cartesian basis functions of A   symmetry.
 There are   116 symmetry adapted basis functions of A   symmetry.
   116 basis functions,   220 primitive gaussians,   116 cartesian basis functions
    25 alpha electrons       24 beta electrons
       nuclear repulsion energy       233.8452327015 Hartrees.
 IExCor=  402 DFT=T Ex+Corr=B3LYP ExCW=0 ScaHFX=  0.200000
 ScaDFX=  0.800000  0.720000  1.000000  0.810000 ScalE2=  1.000000  1.000000
 IRadAn=      5 IRanWt=     -1 IRanGd=            0 ICorTp=0 IEmpDi=  4
 NAtoms=   19 NActive=   19 NUniq=   19 SFac= 1.00D+00 NAtFMM=   60 NAOKFM=F Big=F
 Integral buffers will be    131072 words long.
 Raffenetti 2 integral format.
 Two-electron integral symmetry is turned on.
 Leave Link  301 at Sat Nov  7 01:56:33 2015, MaxMem=   805306368 cpu:         0.1
 (Enter /home/hetanjin/apps/g09D01/g09/l302.exe)
 NPDir=0 NMtPBC=     1 NCelOv=     1 NCel=       1 NClECP=     1 NCelD=      1
         NCelK=      1 NCelE2=     1 NClLst=     1 CellRange=     0.0.
 One-electron integrals computed using PRISM.
 NBasis=   116 RedAO= T EigKep=  3.40D-03  NBF=   116
 NBsUse=   116 1.00D-06 EigRej= -1.00D+00 NBFU=   116
 Precomputing XC quadrature grid using
 IXCGrd= 4 IRadAn=           5 IRanWt=          -1 IRanGd=           0 AccXCQ= 0.00D+00.
 Generated NRdTot=       0 NPtTot=           0 NUsed=           0 NTot=          32
 NSgBfM=   116   116   116   116   116 MxSgAt=    19 MxSgA2=    19.
 Leave Link  302 at Sat Nov  7 01:56:34 2015, MaxMem=   805306368 cpu:         1.3
 (Enter /home/hetanjin/apps/g09D01/g09/l303.exe)
 DipDrv:  MaxL=1.
 Leave Link  303 at Sat Nov  7 01:56:34 2015, MaxMem=   805306368 cpu:         0.2
 (Enter /home/hetanjin/apps/g09D01/g09/l401.exe)
 ExpMin= 1.61D-01 ExpMax= 3.05D+03 ExpMxC= 4.57D+02 IAcc=3 IRadAn=         5 AccDes= 0.00D+00
 Harris functional with IExCor=  402 and IRadAn=       5 diagonalized for initial guess.
 HarFok:  IExCor=  402 AccDes= 0.00D+00 IRadAn=         5 IDoV= 1 UseB2=F ITyADJ=14
 ICtDFT=  3500011 ScaDFX=  1.000000  1.000000  1.000000  1.000000
 FoFCou: FMM=F IPFlag=           0 FMFlag=      100000 FMFlg1=           0
         NFxFlg=           0 DoJE=T BraDBF=F KetDBF=T FulRan=T
         wScrn=  0.000000 ICntrl=     500 IOpCl=  0 I1Cent=   200000004 NGrid=           0
         NMat0=    1 NMatS0=      1 NMatT0=    0 NMatD0=    1 NMtDS0=    0 NMtDT0=    0
 Petite list used in FoFCou.
 Harris En= -236.441496856075    
 JPrj=0 DoOrth=F DoCkMO=F.
 Initial guess <Sx>= 0.0000 <Sy>= 0.0000 <Sz>= 0.5000 <S**2>= 0.7500 S= 0.5000
 Leave Link  401 at Sat Nov  7 01:56:35 2015, MaxMem=   805306368 cpu:         5.8
 (Enter /home/hetanjin/apps/g09D01/g09/l502.exe)
 UHF open shell SCF:
 Using DIIS extrapolation, IDIIS=  1040.
 Integral symmetry usage will be decided dynamically.
 Keep R1 and R2 ints in memory in canonical form, NReq=47059932.
 IVT=       60514 IEndB=       60514 NGot=   805306368 MDV=   759189273
 LenX=   759189273 LenY=   759175376
 Requested convergence on RMS density matrix=1.00D-08 within 128 cycles.
 Requested convergence on MAX density matrix=1.00D-06.
 Requested convergence on             energy=1.00D-06.
 No special actions if energy rises.
 FoFCou: FMM=F IPFlag=           0 FMFlag=           0 FMFlg1=           0
         NFxFlg=           0 DoJE=F BraDBF=F KetDBF=F FulRan=T
         wScrn=  0.000000 ICntrl=     600 IOpCl=  0 I1Cent=           0 NGrid=           0
         NMat0=    1 NMatS0=   6786 NMatT0=    0 NMatD0=    1 NMtDS0=    0 NMtDT0=    0
 Symmetry not used in FoFCou.
 Integral accuracy reduced to 1.0D-05 until final iterations.

 Cycle   1  Pass 0  IDiag  1:
 E= -236.157991765846    
 DIIS: error= 4.69D-02 at cycle   1 NSaved=   1.
 NSaved= 1 IEnMin= 1 EnMin= -236.157991765846     IErMin= 1 ErrMin= 4.69D-02
 ErrMax= 4.69D-02  0.00D+00 EMaxC= 1.00D-01 BMatC= 8.51D-01 BMatP= 8.51D-01
 IDIUse=3 WtCom= 5.31D-01 WtEn= 4.69D-01
 Coeff-Com:  0.100D+01
 Coeff-En:   0.100D+01
 Coeff:      0.100D+01
 Gap=     0.296 Goal=   None    Shift=    0.000
 Gap=     0.248 Goal=   None    Shift=    0.000
 GapD=    0.248 DampG=1.000 DampE=0.500 DampFc=0.5000 IDamp=-1.
 Damping current iteration by 5.00D-01
 RMSDP=9.34D-03 MaxDP=1.39D-01              OVMax= 1.85D-01

 Cycle   2  Pass 0  IDiag  1:
 E= -236.269311947886     Delta-E=       -0.111320182041 Rises=F Damp=T
 DIIS: error= 8.86D-03 at cycle   2 NSaved=   2.
 NSaved= 2 IEnMin= 2 EnMin= -236.269311947886     IErMin= 2 ErrMin= 8.86D-03
 ErrMax= 8.86D-03  0.00D+00 EMaxC= 1.00D-01 BMatC= 3.54D-02 BMatP= 8.51D-01
 IDIUse=3 WtCom= 9.11D-01 WtEn= 8.86D-02
 Coeff-Com:  0.596D-01 0.940D+00
 Coeff-En:   0.920D-01 0.908D+00
 Coeff:      0.625D-01 0.938D+00
 Gap=     0.343 Goal=   None    Shift=    0.000
 Gap=     0.259 Goal=   None    Shift=    0.000
 RMSDP=1.37D-03 MaxDP=2.06D-02 DE=-1.11D-01 OVMax= 9.48D-02

 Cycle   3  Pass 0  IDiag  1:
 E= -236.401602512892     Delta-E=       -0.132290565005 Rises=F Damp=F
 DIIS: error= 2.13D-03 at cycle   3 NSaved=   3.
 NSaved= 3 IEnMin= 3 EnMin= -236.401602512892     IErMin= 3 ErrMin= 2.13D-03
 ErrMax= 2.13D-03  0.00D+00 EMaxC= 1.00D-01 BMatC= 3.06D-03 BMatP= 3.54D-02
 IDIUse=3 WtCom= 9.79D-01 WtEn= 2.13D-02
 Coeff-Com: -0.847D-02 0.158D+00 0.850D+00
 Coeff-En:   0.000D+00 0.000D+00 0.100D+01
 Coeff:     -0.829D-02 0.155D+00 0.853D+00
 Gap=     0.327 Goal=   None    Shift=    0.000
 Gap=     0.241 Goal=   None    Shift=    0.000
 RMSDP=4.30D-04 MaxDP=1.07D-02 DE=-1.32D-01 OVMax= 1.11D-02

 Cycle   4  Pass 0  IDiag  1:
 E= -236.402117427701     Delta-E=       -0.000514914810 Rises=F Damp=F
 DIIS: error= 1.32D-03 at cycle   4 NSaved=   4.
 NSaved= 4 IEnMin= 4 EnMin= -236.402117427701     IErMin= 4 ErrMin= 1.32D-03
 ErrMax= 1.32D-03  0.00D+00 EMaxC= 1.00D-01 BMatC= 1.23D-03 BMatP= 3.06D-03
 IDIUse=3 WtCom= 9.87D-01 WtEn= 1.32D-02
 Coeff-Com: -0.522D-02 0.284D-01 0.402D+00 0.575D+00
 Coeff-En:   0.000D+00 0.000D+00 0.230D+00 0.770D+00
 Coeff:     -0.515D-02 0.281D-01 0.400D+00 0.577D+00
 Gap=     0.320 Goal=   None    Shift=    0.000
 Gap=     0.248 Goal=   None    Shift=    0.000
 RMSDP=1.75D-04 MaxDP=4.56D-03 DE=-5.15D-04 OVMax= 4.26D-03

 Cycle   5  Pass 0  IDiag  1:
 E= -236.402428475123     Delta-E=       -0.000311047422 Rises=F Damp=F
 DIIS: error= 3.46D-04 at cycle   5 NSaved=   5.
 NSaved= 5 IEnMin= 5 EnMin= -236.402428475123     IErMin= 5 ErrMin= 3.46D-04
 ErrMax= 3.46D-04  0.00D+00 EMaxC= 1.00D-01 BMatC= 5.84D-05 BMatP= 1.23D-03
 IDIUse=3 WtCom= 9.97D-01 WtEn= 3.46D-03
 Coeff-Com: -0.959D-03-0.354D-02 0.801D-01 0.221D+00 0.703D+00
 Coeff-En:   0.000D+00 0.000D+00 0.000D+00 0.000D+00 0.100D+01
 Coeff:     -0.955D-03-0.353D-02 0.798D-01 0.220D+00 0.704D+00
 Gap=     0.321 Goal=   None    Shift=    0.000
 Gap=     0.247 Goal=   None    Shift=    0.000
 RMSDP=3.81D-05 MaxDP=1.06D-03 DE=-3.11D-04 OVMax= 1.09D-03

 Cycle   6  Pass 0  IDiag  1:
 E= -236.402444392092     Delta-E=       -0.000015916969 Rises=F Damp=F
 DIIS: error= 5.00D-05 at cycle   6 NSaved=   6.
 NSaved= 6 IEnMin= 6 EnMin= -236.402444392092     IErMin= 6 ErrMin= 5.00D-05
 ErrMax= 5.00D-05  0.00D+00 EMaxC= 1.00D-01 BMatC= 2.63D-06 BMatP= 5.84D-05
 IDIUse=1 WtCom= 1.00D+00 WtEn= 0.00D+00
 Coeff-Com:  0.120D-03-0.231D-02-0.970D-02 0.400D-02 0.120D+00 0.888D+00
 Coeff:      0.120D-03-0.231D-02-0.970D-02 0.400D-02 0.120D+00 0.888D+00
 Gap=     0.321 Goal=   None    Shift=    0.000
 Gap=     0.247 Goal=   None    Shift=    0.000
 RMSDP=1.18D-05 MaxDP=3.59D-04 DE=-1.59D-05 OVMax= 3.10D-04

 Cycle   7  Pass 0  IDiag  1:
 E= -236.402445325636     Delta-E=       -0.000000933544 Rises=F Damp=F
 DIIS: error= 3.91D-05 at cycle   7 NSaved=   7.
 NSaved= 7 IEnMin= 7 EnMin= -236.402445325636     IErMin= 7 ErrMin= 3.91D-05
 ErrMax= 3.91D-05  0.00D+00 EMaxC= 1.00D-01 BMatC= 1.12D-06 BMatP= 2.63D-06
 IDIUse=1 WtCom= 1.00D+00 WtEn= 0.00D+00
 Coeff-Com:  0.236D-03-0.267D-03-0.208D-01-0.440D-01-0.922D-01 0.426D+00
 Coeff-Com:  0.731D+00
 Coeff:      0.236D-03-0.267D-03-0.208D-01-0.440D-01-0.922D-01 0.426D+00
 Coeff:      0.731D+00
 Gap=     0.321 Goal=   None    Shift=    0.000
 Gap=     0.247 Goal=   None    Shift=    0.000
 RMSDP=5.81D-06 MaxDP=1.93D-04 DE=-9.34D-07 OVMax= 1.83D-04

 Initial convergence to 1.0D-05 achieved.  Increase integral accuracy.
 Cycle   8  Pass 1  IDiag  1:
 E= -236.402434199145     Delta-E=        0.000011126491 Rises=F Damp=F
 DIIS: error= 1.07D-05 at cycle   1 NSaved=   1.
 NSaved= 1 IEnMin= 1 EnMin= -236.402434199145     IErMin= 1 ErrMin= 1.07D-05
 ErrMax= 1.07D-05  0.00D+00 EMaxC= 1.00D-01 BMatC= 5.82D-08 BMatP= 5.82D-08
 IDIUse=1 WtCom= 1.00D+00 WtEn= 0.00D+00
 Coeff-Com:  0.100D+01
 Coeff:      0.100D+01
 Gap=     0.321 Goal=   None    Shift=    0.000
 Gap=     0.247 Goal=   None    Shift=    0.000
 RMSDP=5.81D-06 MaxDP=1.93D-04 DE= 1.11D-05 OVMax= 5.97D-05

 Cycle   9  Pass 1  IDiag  1:
 E= -236.402434208934     Delta-E=       -0.000000009788 Rises=F Damp=F
 DIIS: error= 7.79D-06 at cycle   2 NSaved=   2.
 NSaved= 2 IEnMin= 2 EnMin= -236.402434208934     IErMin= 2 ErrMin= 7.79D-06
 ErrMax= 7.79D-06  0.00D+00 EMaxC= 1.00D-01 BMatC= 4.99D-08 BMatP= 5.82D-08
 IDIUse=1 WtCom= 1.00D+00 WtEn= 0.00D+00
 Coeff-Com:  0.477D+00 0.523D+00
 Coeff:      0.477D+00 0.523D+00
 Gap=     0.321 Goal=   None    Shift=    0.000
 Gap=     0.247 Goal=   None    Shift=    0.000
 RMSDP=1.02D-06 MaxDP=1.93D-05 DE=-9.79D-09 OVMax= 2.72D-05

 Cycle  10  Pass 1  IDiag  1:
 E= -236.402434221663     Delta-E=       -0.000000012730 Rises=F Damp=F
 DIIS: error= 1.67D-06 at cycle   3 NSaved=   3.
 NSaved= 3 IEnMin= 3 EnMin= -236.402434221663     IErMin= 3 ErrMin= 1.67D-06
 ErrMax= 1.67D-06  0.00D+00 EMaxC= 1.00D-01 BMatC= 2.53D-09 BMatP= 4.99D-08
 IDIUse=1 WtCom= 1.00D+00 WtEn= 0.00D+00
 Coeff-Com: -0.407D-01 0.954D-01 0.945D+00
 Coeff:     -0.407D-01 0.954D-01 0.945D+00
 Gap=     0.321 Goal=   None    Shift=    0.000
 Gap=     0.247 Goal=   None    Shift=    0.000
 RMSDP=3.68D-07 MaxDP=8.73D-06 DE=-1.27D-08 OVMax= 8.50D-06

 Cycle  11  Pass 1  IDiag  1:
 E= -236.402434222764     Delta-E=       -0.000000001100 Rises=F Damp=F
 DIIS: error= 6.99D-07 at cycle   4 NSaved=   4.
 NSaved= 4 IEnMin= 4 EnMin= -236.402434222764     IErMin= 4 ErrMin= 6.99D-07
 ErrMax= 6.99D-07  0.00D+00 EMaxC= 1.00D-01 BMatC= 5.13D-10 BMatP= 2.53D-09
 IDIUse=1 WtCom= 1.00D+00 WtEn= 0.00D+00
 Coeff-Com: -0.123D+00-0.885D-01 0.299D+00 0.912D+00
 Coeff:     -0.123D+00-0.885D-01 0.299D+00 0.912D+00
 Gap=     0.321 Goal=   None    Shift=    0.000
 Gap=     0.247 Goal=   None    Shift=    0.000
 RMSDP=1.94D-07 MaxDP=5.63D-06 DE=-1.10D-09 OVMax= 5.50D-06

 Cycle  12  Pass 1  IDiag  1:
 E= -236.402434222986     Delta-E=       -0.000000000222 Rises=F Damp=F
 DIIS: error= 2.85D-07 at cycle   5 NSaved=   5.
 NSaved= 5 IEnMin= 5 EnMin= -236.402434222986     IErMin= 5 ErrMin= 2.85D-07
 ErrMax= 2.85D-07  0.00D+00 EMaxC= 1.00D-01 BMatC= 5.35D-11 BMatP= 5.13D-10
 IDIUse=1 WtCom= 1.00D+00 WtEn= 0.00D+00
 Coeff-Com: -0.543D-01-0.451D-01 0.894D-01 0.411D+00 0.599D+00
 Coeff:     -0.543D-01-0.451D-01 0.894D-01 0.411D+00 0.599D+00
 Gap=     0.321 Goal=   None    Shift=    0.000
 Gap=     0.247 Goal=   None    Shift=    0.000
 RMSDP=3.88D-08 MaxDP=1.25D-06 DE=-2.22D-10 OVMax= 1.07D-06

 Cycle  13  Pass 1  IDiag  1:
 E= -236.402434223001     Delta-E=       -0.000000000015 Rises=F Damp=F
 DIIS: error= 7.80D-08 at cycle   6 NSaved=   6.
 NSaved= 6 IEnMin= 6 EnMin= -236.402434223001     IErMin= 6 ErrMin= 7.80D-08
 ErrMax= 7.80D-08  0.00D+00 EMaxC= 1.00D-01 BMatC= 2.93D-12 BMatP= 5.35D-11
 IDIUse=1 WtCom= 1.00D+00 WtEn= 0.00D+00
 Coeff-Com:  0.151D-03-0.151D-02-0.121D-01 0.491D-03 0.179D+00 0.834D+00
 Coeff:      0.151D-03-0.151D-02-0.121D-01 0.491D-03 0.179D+00 0.834D+00
 Gap=     0.321 Goal=   None    Shift=    0.000
 Gap=     0.247 Goal=   None    Shift=    0.000
 RMSDP=1.10D-08 MaxDP=3.31D-07 DE=-1.52D-11 OVMax= 3.38D-07

 Cycle  14  Pass 1  IDiag  1:
 E= -236.402434223003     Delta-E=       -0.000000000002 Rises=F Damp=F
 DIIS: error= 1.65D-08 at cycle   7 NSaved=   7.
 NSaved= 7 IEnMin= 7 EnMin= -236.402434223003     IErMin= 7 ErrMin= 1.65D-08
 ErrMax= 1.65D-08  0.00D+00 EMaxC= 1.00D-01 BMatC= 2.55D-13 BMatP= 2.93D-12
 IDIUse=1 WtCom= 1.00D+00 WtEn= 0.00D+00
 Coeff-Com:  0.349D-02 0.238D-02-0.973D-02-0.264D-01 0.233D-01 0.288D+00
 Coeff-Com:  0.719D+00
 Coeff:      0.349D-02 0.238D-02-0.973D-02-0.264D-01 0.233D-01 0.288D+00
 Coeff:      0.719D+00
 Gap=     0.321 Goal=   None    Shift=    0.000
 Gap=     0.247 Goal=   None    Shift=    0.000
 RMSDP=3.43D-09 MaxDP=8.92D-08 DE=-1.88D-12 OVMax= 7.13D-08

 SCF Done:  E(UB3LYP) =  -236.402434223     A.U. after   14 cycles
            NFock= 14  Conv=0.34D-08     -V/T= 2.0104
 <Sx>= 0.0000 <Sy>= 0.0000 <Sz>= 0.5000 <S**2>= 0.7527 S= 0.5013
 <L.S>= 0.000000000000E+00
 KE= 2.339626048415D+02 PE=-1.013243632043D+03 EE= 3.090333602766D+02
 Annihilation of the first spin contaminant:
 S**2 before annihilation     0.7527,   after     0.7500
 Leave Link  502 at Sat Nov  7 01:57:06 2015, MaxMem=   805306368 cpu:       118.6
 (Enter /home/hetanjin/apps/g09D01/g09/l601.exe)
 Copying SCF densities to generalized density rwf, IOpCl= 1 IROHF=0.

 **********************************************************************

            Population analysis using the SCF density.

 **********************************************************************

 Orbital symmetries:
 Alpha Orbitals:
       Occupied  (A) (A) (A) (A) (A) (A) (A) (A) (A) (A) (A) (A)
                 (A) (A) (A) (A) (A) (A) (A) (A) (A) (A) (A) (A)
                 (A)
       Virtual   (A) (A) (A) (A) (A) (A) (A) (A) (A) (A) (A) (A)
                 (A) (A) (A) (A) (A) (A) (A) (A) (A) (A) (A) (A)
                 (A) (A) (A) (A) (A) (A) (A) (A) (A) (A) (A) (A)
                 (A) (A) (A) (A) (A) (A) (A) (A) (A) (A) (A) (A)
                 (A) (A) (A) (A) (A) (A) (A) (A) (A) (A) (A) (A)
                 (A) (A) (A) (A) (A) (A) (A) (A) (A) (A) (A) (A)
                 (A) (A) (A) (A) (A) (A) (A) (A) (A) (A) (A) (A)
                 (A) (A) (A) (A) (A) (A) (A)
 Beta  Orbitals:
       Occupied  (A) (A) (A) (A) (A) (A) (A) (A) (A) (A) (A) (A)
                 (A) (A) (A) (A) (A) (A) (A) (A) (A) (A) (A) (A)
       Virtual   (A) (A) (A) (A) (A) (A) (A) (A) (A) (A) (A) (A)
                 (A) (A) (A) (A) (A) (A) (A) (A) (A) (A) (A) (A)
                 (A) (A) (A) (A) (A) (A) (A) (A) (A) (A) (A) (A)
                 (A) (A) (A) (A) (A) (A) (A) (A) (A) (A) (A) (A)
                 (A) (A) (A) (A) (A) (A) (A) (A) (A) (A) (A) (A)
                 (A) (A) (A) (A) (A) (A) (A) (A) (A) (A) (A) (A)
                 (A) (A) (A) (A) (A) (A) (A) (A) (A) (A) (A) (A)
                 (A) (A) (A) (A) (A) (A) (A) (A)
 The electronic state is 2-A.
 Alpha  occ. eigenvalues --  -10.19521 -10.18396 -10.17716 -10.17609 -10.17547
 Alpha  occ. eigenvalues --  -10.17088  -0.80155  -0.76323  -0.70270  -0.63170
 Alpha  occ. eigenvalues --   -0.57666  -0.57155  -0.47429  -0.43951  -0.43213
 Alpha  occ. eigenvalues --   -0.41595  -0.38991  -0.38031  -0.37042  -0.34511
 Alpha  occ. eigenvalues --   -0.33328  -0.32338  -0.31932  -0.30848  -0.22885
 Alpha virt. eigenvalues --    0.09260   0.10621   0.12265   0.13174   0.13934
 Alpha virt. eigenvalues --    0.16382   0.16689   0.17391   0.18586   0.19205
 Alpha virt. eigenvalues --    0.19737   0.20378   0.20471   0.22686   0.23926
 Alpha virt. eigenvalues --    0.26351   0.28118   0.28998   0.49351   0.49887
 Alpha virt. eigenvalues --    0.51028   0.54894   0.55700   0.57334   0.58459
 Alpha virt. eigenvalues --    0.59693   0.62855   0.64271   0.67803   0.68784
 Alpha virt. eigenvalues --    0.72317   0.74963   0.78263   0.81868   0.82466
 Alpha virt. eigenvalues --    0.84736   0.85860   0.88592   0.90271   0.90939
 Alpha virt. eigenvalues --    0.92955   0.93625   0.93864   0.94658   0.95803
 Alpha virt. eigenvalues --    0.96220   0.98130   0.98589   1.01502   1.09618
 Alpha virt. eigenvalues --    1.19145   1.34730   1.40310   1.44107   1.45523
 Alpha virt. eigenvalues --    1.52068   1.53776   1.63437   1.75197   1.81477
 Alpha virt. eigenvalues --    1.82185   1.87058   1.88298   1.90437   1.93678
 Alpha virt. eigenvalues --    1.94560   1.97880   2.00165   2.02382   2.05861
 Alpha virt. eigenvalues --    2.07885   2.15795   2.22613   2.23751   2.29554
 Alpha virt. eigenvalues --    2.32598   2.33191   2.41193   2.42506   2.44404
 Alpha virt. eigenvalues --    2.56324   2.60381   2.62891   2.77335   2.82013
 Alpha virt. eigenvalues --    4.08481   4.15146   4.25196   4.34897   4.44008
 Alpha virt. eigenvalues --    4.55648
  Beta  occ. eigenvalues --  -10.18425 -10.18074 -10.17717 -10.17590 -10.17547
  Beta  occ. eigenvalues --  -10.17088  -0.79953  -0.75767  -0.69400  -0.62197
  Beta  occ. eigenvalues --   -0.57365  -0.56340  -0.47261  -0.43559  -0.42865
  Beta  occ. eigenvalues --   -0.41256  -0.38494  -0.37578  -0.36665  -0.34191
  Beta  occ. eigenvalues --   -0.33107  -0.32234  -0.31896  -0.30586
  Beta virt. eigenvalues --   -0.05859   0.09333   0.10925   0.12332   0.13244
  Beta virt. eigenvalues --    0.14343   0.16662   0.16956   0.17657   0.18991
  Beta virt. eigenvalues --    0.19500   0.19885   0.20417   0.20694   0.22927
  Beta virt. eigenvalues --    0.24385   0.26622   0.28488   0.29394   0.49586
  Beta virt. eigenvalues --    0.50275   0.51315   0.55435   0.56941   0.58709
  Beta virt. eigenvalues --    0.59815   0.61532   0.63363   0.65664   0.68202
  Beta virt. eigenvalues --    0.68865   0.72659   0.75514   0.78524   0.82056
  Beta virt. eigenvalues --    0.82792   0.84895   0.86240   0.89029   0.90383
  Beta virt. eigenvalues --    0.91539   0.93100   0.93915   0.94212   0.95133
  Beta virt. eigenvalues --    0.96111   0.96696   0.98455   0.98910   1.01821
  Beta virt. eigenvalues --    1.10365   1.20198   1.34933   1.40937   1.44215
  Beta virt. eigenvalues --    1.45889   1.52597   1.54192   1.64275   1.75970
  Beta virt. eigenvalues --    1.82879   1.84507   1.87875   1.89996   1.91711
  Beta virt. eigenvalues --    1.93826   1.95265   1.98694   2.00334   2.02974
  Beta virt. eigenvalues --    2.06764   2.09202   2.18489   2.23301   2.24387
  Beta virt. eigenvalues --    2.30205   2.33386   2.33645   2.41541   2.42586
  Beta virt. eigenvalues --    2.44921   2.56714   2.60523   2.63610   2.77686
  Beta virt. eigenvalues --    2.82180   4.10149   4.16193   4.25748   4.35134
  Beta virt. eigenvalues --    4.44215   4.55750
          Condensed to atoms (all electrons):
               1          2          3          4          5          6
     1  C    5.065356   0.377494   0.377374   0.371680   0.370981  -0.038579
     2  H    0.377494   0.579533  -0.032936  -0.031330  -0.034715   0.005264
     3  H    0.377374  -0.032936   0.580148  -0.031361  -0.034725  -0.004505
     4  H    0.371680  -0.031330  -0.031361   0.578124  -0.027169  -0.002716
     5  C    0.370981  -0.034715  -0.034725  -0.027169   4.951413   0.376646
     6  H   -0.038579   0.005264  -0.004505  -0.002716   0.376646   0.612768
     7  H   -0.038554  -0.004501   0.005257  -0.002702   0.376903  -0.040099
     8  C   -0.042030  -0.004521  -0.004543   0.004079   0.386983  -0.040351
     9  H   -0.002914  -0.000393   0.004889  -0.000034  -0.040313  -0.005505
    10  H   -0.002883   0.004877  -0.000392  -0.000035  -0.040318   0.005979
    11  C    0.003519   0.000032   0.000031  -0.000127  -0.035264  -0.003576
    12  H    0.000029   0.000003   0.000006   0.000002  -0.003342  -0.000450
    13  H    0.000035   0.000006   0.000003   0.000002  -0.003563   0.005116
    14  C   -0.000120   0.000001   0.000001   0.000001   0.003397   0.000021
    15  H    0.000001   0.000000  -0.000001   0.000000   0.000022   0.000005
    16  H    0.000002  -0.000001   0.000000   0.000000   0.000004   0.000006
    17  C    0.000001   0.000000   0.000000   0.000000  -0.000106   0.000002
    18  H    0.000000   0.000000   0.000000   0.000000   0.000001   0.000000
    19  H    0.000000   0.000000   0.000000   0.000000  -0.000001  -0.000001
               7          8          9         10         11         12
     1  C   -0.038554  -0.042030  -0.002914  -0.002883   0.003519   0.000029
     2  H   -0.004501  -0.004521  -0.000393   0.004877   0.000032   0.000003
     3  H    0.005257  -0.004543   0.004889  -0.000392   0.000031   0.000006
     4  H   -0.002702   0.004079  -0.000034  -0.000035  -0.000127   0.000002
     5  C    0.376903   0.386983  -0.040313  -0.040318  -0.035264  -0.003342
     6  H   -0.040099  -0.040351  -0.005505   0.005979  -0.003576  -0.000450
     7  H    0.611383  -0.040315   0.005999  -0.005496  -0.003459   0.005056
     8  C   -0.040315   4.984390   0.371418   0.372404   0.376565  -0.039610
     9  H    0.005999   0.371418   0.621276  -0.041148  -0.039693   0.005881
    10  H   -0.005496   0.372404  -0.041148   0.617948  -0.039415  -0.005373
    11  C   -0.003459   0.376565  -0.039693  -0.039415   4.988174   0.375144
    12  H    0.005056  -0.039610   0.005881  -0.005373   0.375144   0.605867
    13  H   -0.000457  -0.039599  -0.005364   0.005939   0.372618  -0.039683
    14  C    0.000027  -0.035166  -0.003491  -0.003597   0.376165  -0.040005
    15  H    0.000006  -0.003203   0.005260  -0.000469  -0.040631   0.005951
    16  H    0.000005  -0.003441  -0.000448   0.005110  -0.040084  -0.005320
    17  C    0.000000   0.003581   0.000014   0.000032  -0.041211   0.000638
    18  H    0.000000  -0.000153   0.000001   0.000002   0.004128   0.000017
    19  H    0.000000   0.000048   0.000002   0.000007  -0.005883  -0.000287
              13         14         15         16         17         18
     1  C    0.000035  -0.000120   0.000001   0.000002   0.000001   0.000000
     2  H    0.000006   0.000001   0.000000  -0.000001   0.000000   0.000000
     3  H    0.000003   0.000001  -0.000001   0.000000   0.000000   0.000000
     4  H    0.000002   0.000001   0.000000   0.000000   0.000000   0.000000
     5  C   -0.003563   0.003397   0.000022   0.000004  -0.000106   0.000001
     6  H    0.005116   0.000021   0.000005   0.000006   0.000002   0.000000
     7  H   -0.000457   0.000027   0.000006   0.000005   0.000000   0.000000
     8  C   -0.039599  -0.035166  -0.003203  -0.003441   0.003581  -0.000153
     9  H   -0.005364  -0.003491   0.005260  -0.000448   0.000014   0.000001
    10  H    0.005939  -0.003597  -0.000469   0.005110   0.000032   0.000002
    11  C    0.372618   0.376165  -0.040631  -0.040084  -0.041211   0.004128
    12  H   -0.039683  -0.040005   0.005951  -0.005320   0.000638   0.000017
    13  H    0.617122  -0.040863  -0.005345   0.005868  -0.003176  -0.000039
    14  C   -0.040863   4.996367   0.365483   0.373394   0.367614  -0.036225
    15  H   -0.005345   0.365483   0.608412  -0.039453  -0.037817  -0.000320
    16  H    0.005868   0.373394  -0.039453   0.602334  -0.038681  -0.003930
    17  C   -0.003176   0.367614  -0.037817  -0.038681   5.320374   0.353252
    18  H   -0.000039  -0.036225  -0.000320  -0.003930   0.353252   0.596628
    19  H    0.004920  -0.044249  -0.002196   0.005315   0.360578  -0.045358
              19
     1  C    0.000000
     2  H    0.000000
     3  H    0.000000
     4  H    0.000000
     5  C   -0.000001
     6  H   -0.000001
     7  H    0.000000
     8  C    0.000048
     9  H    0.000002
    10  H    0.000007
    11  C   -0.005883
    12  H   -0.000287
    13  H    0.004920
    14  C   -0.044249
    15  H   -0.002196
    16  H    0.005315
    17  C    0.360578
    18  H   -0.045358
    19  H    0.594835
          Atomic-Atomic Spin Densities.
               1          2          3          4          5          6
     1  C    0.000117  -0.000001  -0.000047   0.000017   0.000179   0.000036
     2  H   -0.000001  -0.000006  -0.000002   0.000002   0.000008   0.000001
     3  H   -0.000047  -0.000002   0.000021   0.000008  -0.000003  -0.000005
     4  H    0.000017   0.000002   0.000008  -0.000055  -0.000002  -0.000002
     5  C    0.000179   0.000008  -0.000003  -0.000002  -0.000771  -0.000006
     6  H    0.000036   0.000001  -0.000005  -0.000002  -0.000006   0.000068
     7  H   -0.000056  -0.000003   0.000004   0.000004  -0.000020  -0.000039
     8  C   -0.000190  -0.000005   0.000035   0.000005   0.000455  -0.000016
     9  H    0.000004   0.000000  -0.000001  -0.000001  -0.000038   0.000003
    10  H    0.000015   0.000001  -0.000001   0.000000   0.000007   0.000002
    11  C   -0.000022  -0.000001   0.000002   0.000000  -0.000082  -0.000028
    12  H    0.000010   0.000000   0.000000   0.000000  -0.000018   0.000025
    13  H   -0.000001   0.000000   0.000000   0.000000  -0.000007  -0.000015
    14  C    0.000003   0.000000   0.000000   0.000000  -0.000035   0.000002
    15  H    0.000002   0.000000   0.000000   0.000000   0.000002   0.000004
    16  H    0.000000   0.000000   0.000000   0.000000  -0.000007  -0.000001
    17  C    0.000000   0.000000   0.000000   0.000000  -0.000001   0.000000
    18  H    0.000000   0.000000   0.000000   0.000000   0.000000   0.000000
    19  H    0.000000   0.000000   0.000000   0.000000   0.000000   0.000000
               7          8          9         10         11         12
     1  C   -0.000056  -0.000190   0.000004   0.000015  -0.000022   0.000010
     2  H   -0.000003  -0.000005   0.000000   0.000001  -0.000001   0.000000
     3  H    0.000004   0.000035  -0.000001  -0.000001   0.000002   0.000000
     4  H    0.000004   0.000005  -0.000001   0.000000   0.000000   0.000000
     5  C   -0.000020   0.000455  -0.000038   0.000007  -0.000082  -0.000018
     6  H   -0.000039  -0.000016   0.000003   0.000002  -0.000028   0.000025
     7  H    0.000273  -0.000056  -0.000004  -0.000009   0.000116  -0.000117
     8  C   -0.000056   0.000162   0.000048   0.000217  -0.002965   0.001575
     9  H   -0.000004   0.000048  -0.000197   0.000025   0.000111  -0.000003
    10  H   -0.000009   0.000217   0.000025   0.000043  -0.000274   0.000060
    11  C    0.000116  -0.002965   0.000111  -0.000274   0.019095  -0.005586
    12  H   -0.000117   0.001575  -0.000003   0.000060  -0.005586   0.003004
    13  H    0.000009  -0.000024   0.000004  -0.000013   0.000509  -0.000249
    14  C    0.000000   0.000538  -0.000002   0.000005   0.005604  -0.000998
    15  H   -0.000003   0.001546   0.000106   0.000033  -0.007921   0.000798
    16  H    0.000002  -0.000616  -0.000013  -0.000050   0.004019  -0.000754
    17  C   -0.000002   0.000140  -0.000004   0.000001  -0.007470   0.004434
    18  H    0.000000  -0.000007   0.000000   0.000000   0.000188  -0.000077
    19  H    0.000000  -0.000069  -0.000001   0.000000   0.001101  -0.000282
              13         14         15         16         17         18
     1  C   -0.000001   0.000003   0.000002   0.000000   0.000000   0.000000
     2  H    0.000000   0.000000   0.000000   0.000000   0.000000   0.000000
     3  H    0.000000   0.000000   0.000000   0.000000   0.000000   0.000000
     4  H    0.000000   0.000000   0.000000   0.000000   0.000000   0.000000
     5  C   -0.000007  -0.000035   0.000002  -0.000007  -0.000001   0.000000
     6  H   -0.000015   0.000002   0.000004  -0.000001   0.000000   0.000000
     7  H    0.000009   0.000000  -0.000003   0.000002  -0.000002   0.000000
     8  C   -0.000024   0.000538   0.001546  -0.000616   0.000140  -0.000007
     9  H    0.000004  -0.000002   0.000106  -0.000013  -0.000004   0.000000
    10  H   -0.000013   0.000005   0.000033  -0.000050   0.000001   0.000000
    11  C    0.000509   0.005604  -0.007921   0.004019  -0.007470   0.000188
    12  H   -0.000249  -0.000998   0.000798  -0.000754   0.004434  -0.000077
    13  H   -0.000759   0.000436  -0.000547   0.000044  -0.000158   0.000024
    14  C    0.000436  -0.038661   0.011812   0.004025  -0.036534   0.002725
    15  H   -0.000547   0.011812   0.079355  -0.007468  -0.023146  -0.002624
    16  H    0.000044   0.004025  -0.007468   0.011401  -0.005015   0.001229
    17  C   -0.000158  -0.036534  -0.023146  -0.005015   1.137955  -0.012642
    18  H    0.000024   0.002725  -0.002624   0.001229  -0.012642  -0.026033
    19  H    0.000065   0.003107  -0.002497   0.000183  -0.013632   0.006325
              19
     1  C    0.000000
     2  H    0.000000
     3  H    0.000000
     4  H    0.000000
     5  C    0.000000
     6  H    0.000000
     7  H    0.000000
     8  C   -0.000069
     9  H   -0.000001
    10  H    0.000000
    11  C    0.001101
    12  H   -0.000282
    13  H    0.000065
    14  C    0.003107
    15  H   -0.002497
    16  H    0.000183
    17  C   -0.013632
    18  H    0.006325
    19  H   -0.024032
 Mulliken charges and spin densities:
               1          2
     1  C   -0.441392   0.000065
     2  H    0.141187  -0.000006
     3  H    0.140753   0.000010
     4  H    0.141585  -0.000024
     5  C   -0.246837  -0.000341
     6  H    0.129976   0.000029
     7  H    0.130946   0.000100
     8  C   -0.246537   0.000772
     9  H    0.124560   0.000036
    10  H    0.126825   0.000061
    11  C   -0.247032   0.006398
    12  H    0.135476   0.001821
    13  H    0.126460  -0.000680
    14  C   -0.278756  -0.047971
    15  H    0.144296   0.049452
    16  H    0.139320   0.006979
    17  C   -0.285095   1.043925
    18  H    0.131996  -0.030891
    19  H    0.132268  -0.029732
 Sum of Mulliken charges =   0.00000   1.00000
 Mulliken charges and spin densities with hydrogens summed into heavy atoms:
               1          2
     1  C   -0.017867   0.000045
     5  C    0.014084  -0.000212
     8  C    0.004848   0.000869
    11  C    0.014904   0.007538
    14  C    0.004861   0.008459
    17  C   -0.020830   0.983301
 Electronic spatial extent (au):  <R**2>=           1098.8057
 Charge=              0.0000 electrons
 Dipole moment (field-independent basis, Debye):
    X=              0.2274    Y=             -0.3575    Z=              0.4753  Tot=              0.6368
 Quadrupole moment (field-independent basis, Debye-Ang):
   XX=            -42.4467   YY=            -41.0485   ZZ=            -40.3654
   XY=              1.5543   XZ=             -1.7730   YZ=              0.4616
 Traceless Quadrupole moment (field-independent basis, Debye-Ang):
   XX=             -1.1598   YY=              0.2384   ZZ=              0.9214
   XY=              1.5543   XZ=             -1.7730   YZ=              0.4616
 Octapole moment (field-independent basis, Debye-Ang**2):
  XXX=              4.3602  YYY=             -0.6653  ZZZ=              0.8043  XYY=              1.0299
  XXY=             -3.8942  XXZ=              5.9814  XZZ=              1.6671  YZZ=             -0.5544
  YYZ=              0.4670  XYZ=             -1.4376
 Hexadecapole moment (field-independent basis, Debye-Ang**3):
 XXXX=          -1343.9364 YYYY=           -135.2768 ZZZZ=            -79.5290 XXXY=             27.8906
 XXXZ=            -23.0297 YYYX=              2.9727 YYYZ=              1.4361 ZZZX=             -2.6552
 ZZZY=              0.0851 XXYY=           -243.6501 XXZZ=           -236.4914 YYZZ=            -32.8316
 XXYZ=              5.3818 YYXZ=             -2.1352 ZZXY=             -0.1302
 N-N= 2.338452327015D+02 E-N=-1.013243635698D+03  KE= 2.339626048415D+02
                          Isotropic Fermi Contact Couplings
        Atom                 a.u.       MegaHertz       Gauss      10(-4) cm-1
     1  C(13)              0.00006       0.07191       0.02566       0.02399
     2  H(1)               0.00000      -0.01119      -0.00399      -0.00373
     3  H(1)               0.00000      -0.01305      -0.00466      -0.00435
     4  H(1)              -0.00001      -0.04041      -0.01442      -0.01348
     5  C(13)             -0.00021      -0.23488      -0.08381      -0.07835
     6  H(1)               0.00000       0.01678       0.00599       0.00560
     7  H(1)               0.00006       0.26804       0.09564       0.08941
     8  C(13)             -0.00127      -1.42222      -0.50748      -0.47440
     9  H(1)               0.00023       1.00608       0.35900       0.33559
    10  H(1)               0.00007       0.31719       0.11318       0.10580
    11  C(13)              0.00921      10.35224       3.69394       3.45314
    12  H(1)              -0.00030      -1.34354      -0.47941      -0.44816
    13  H(1)              -0.00026      -1.14275      -0.40776      -0.38118
    14  C(13)             -0.01178     -13.24845      -4.72737      -4.41921
    15  H(1)               0.02612     116.75414      41.66078      38.94499
    16  H(1)               0.00463      20.70869       7.38937       6.90768
    17  C(13)              0.31175     350.46792     125.05566     116.90351
    18  H(1)              -0.00449     -20.05100      -7.15470      -6.68830
    19  H(1)              -0.00377     -16.84729      -6.01153      -5.61965
 --------------------------------------------------------
       Center         ----  Spin Dipole Couplings  ----
                      3XX-RR        3YY-RR        3ZZ-RR
 --------------------------------------------------------
     1   Atom        0.001141     -0.000558     -0.000583
     2   Atom        0.000946     -0.000460     -0.000486
     3   Atom        0.000931     -0.000472     -0.000459
     4   Atom        0.000765     -0.000382     -0.000384
     5   Atom        0.002006     -0.001079     -0.000927
     6   Atom        0.001755     -0.000864     -0.000890
     7   Atom        0.001934     -0.000957     -0.000977
     8   Atom        0.003312     -0.002196     -0.001116
     9   Atom        0.003391     -0.001765     -0.001626
    10   Atom        0.003019     -0.001328     -0.001691
    11   Atom        0.018752     -0.008930     -0.009822
    12   Atom        0.011351     -0.005544     -0.005807
    13   Atom        0.006831     -0.003712     -0.003119
    14   Atom        0.006353     -0.002014     -0.004339
    15   Atom        0.000855     -0.000736     -0.000119
    16   Atom        0.000202      0.006930     -0.007132
    17   Atom       -0.479515     -0.112266      0.591780
    18   Atom        0.022669     -0.002339     -0.020330
    19   Atom       -0.059040      0.019483      0.039556
 --------------------------------------------------------
                        XY            XZ            YZ
 --------------------------------------------------------
     1   Atom       -0.000152      0.000034     -0.000009
     2   Atom       -0.000267     -0.000140      0.000015
     3   Atom       -0.000216      0.000251     -0.000053
     4   Atom        0.000036      0.000034     -0.000007
     5   Atom       -0.000088      0.000165     -0.000076
     6   Atom        0.000578      0.000577      0.000064
     7   Atom        0.000480     -0.000399     -0.000097
     8   Atom       -0.000888      0.001045     -0.001205
     9   Atom       -0.001120      0.001082     -0.000636
    10   Atom       -0.001743     -0.000900      0.000180
    11   Atom        0.004758      0.005956      0.001289
    12   Atom        0.003985     -0.004291     -0.002028
    13   Atom        0.004322      0.005573      0.001654
    14   Atom       -0.025051      0.018535     -0.019712
    15   Atom       -0.008417      0.003280     -0.009132
    16   Atom       -0.014290     -0.004983      0.005658
    17   Atom       -0.020859      0.039029     -0.626085
    18   Atom        0.060142      0.005959     -0.018943
    19   Atom       -0.007877     -0.006322      0.040618
 --------------------------------------------------------


 ---------------------------------------------------------------------------------
              Anisotropic Spin Dipole Couplings in Principal Axis System
 ---------------------------------------------------------------------------------

       Atom             a.u.   MegaHertz   Gauss  10(-4) cm-1        Axes

              Baa    -0.0006    -0.079    -0.028    -0.026  0.0147  0.3770  0.9261
     1 C(13)  Bbb    -0.0006    -0.076    -0.027    -0.025  0.0893  0.9220 -0.3767
              Bcc     0.0012     0.155     0.055     0.052  0.9959 -0.0883  0.0201
 
              Baa    -0.0005    -0.275    -0.098    -0.092  0.2013  0.8235  0.5305
     2 H(1)   Bbb    -0.0005    -0.263    -0.094    -0.088 -0.0178 -0.5384  0.8425
              Bcc     0.0010     0.538     0.192     0.179  0.9794 -0.1790 -0.0937
 
              Baa    -0.0005    -0.277    -0.099    -0.092 -0.0123  0.7217  0.6921
     3 H(1)   Bbb    -0.0005    -0.261    -0.093    -0.087 -0.2268 -0.6762  0.7010
              Bcc     0.0010     0.538     0.192     0.180  0.9739 -0.1484  0.1720
 
              Baa    -0.0004    -0.209    -0.075    -0.070 -0.0425  0.6634  0.7470
     4 H(1)   Bbb    -0.0004    -0.201    -0.072    -0.067 -0.0038  0.7476 -0.6641
              Bcc     0.0008     0.409     0.146     0.137  0.9991  0.0311  0.0293
 
              Baa    -0.0011    -0.149    -0.053    -0.050  0.0062  0.9260  0.3774
     5 C(13)  Bbb    -0.0009    -0.122    -0.043    -0.041 -0.0636 -0.3762  0.9243
              Bcc     0.0020     0.271     0.097     0.090  0.9980 -0.0297  0.0565
 
              Baa    -0.0011    -0.562    -0.200    -0.187 -0.2776  0.5967  0.7529
     6 H(1)   Bbb    -0.0009    -0.501    -0.179    -0.167 -0.0322  0.7775 -0.6281
              Bcc     0.0020     1.063     0.379     0.355  0.9601  0.1986  0.1966
 
              Baa    -0.0011    -0.568    -0.203    -0.189 -0.0256  0.7289  0.6841
     7 H(1)   Bbb    -0.0010    -0.535    -0.191    -0.178  0.2062 -0.6658  0.7171
              Bcc     0.0021     1.103     0.393     0.368  0.9782  0.1595 -0.1333
 
              Baa    -0.0030    -0.400    -0.143    -0.133  0.0317  0.8478  0.5294
     8 C(13)  Bbb    -0.0008    -0.105    -0.038    -0.035 -0.3138 -0.4945  0.8106
              Bcc     0.0038     0.506     0.180     0.169  0.9490 -0.1919  0.2504
 
              Baa    -0.0023    -1.248    -0.445    -0.416  0.0292  0.7675  0.6403
     9 H(1)   Bbb    -0.0015    -0.823    -0.294    -0.275 -0.2991 -0.6045  0.7383
              Bcc     0.0039     2.071     0.739     0.691  0.9538 -0.2131  0.2119
 
              Baa    -0.0020    -1.082    -0.386    -0.361  0.3581  0.7491  0.5573
    10 H(1)   Bbb    -0.0018    -0.936    -0.334    -0.312 -0.0576 -0.5781  0.8139
              Bcc     0.0038     2.018     0.720     0.673  0.9319 -0.3236 -0.1639
 
              Baa    -0.0111    -1.489    -0.531    -0.497 -0.1546 -0.2322  0.9603
    11 C(13)  Bbb    -0.0097    -1.297    -0.463    -0.433 -0.2023  0.9588  0.1993
              Bcc     0.0208     2.786     0.994     0.929  0.9670  0.1635  0.1952
 
              Baa    -0.0077    -4.121    -1.470    -1.375  0.0378  0.6429  0.7650
    12 H(1)   Bbb    -0.0056    -3.010    -1.074    -1.004 -0.3231  0.7323 -0.5994
              Bcc     0.0134     7.131     2.545     2.379  0.9456  0.2245 -0.2354
 
              Baa    -0.0057    -3.055    -1.090    -1.019 -0.4827  0.3934  0.7824
    13 H(1)   Bbb    -0.0051    -2.706    -0.966    -0.903 -0.0860  0.8678 -0.4894
              Bcc     0.0108     5.761     2.056     1.922  0.8715  0.3035  0.3851
 
              Baa    -0.0247    -3.311    -1.181    -1.104  0.4073  0.8127  0.4166
    14 C(13)  Bbb    -0.0182    -2.447    -0.873    -0.816 -0.6438 -0.0680  0.7622
              Bcc     0.0429     5.758     2.055     1.921  0.6478 -0.5786  0.4955
 
              Baa    -0.0112    -5.978    -2.133    -1.994  0.3934  0.7633  0.5124
    15 H(1)   Bbb    -0.0029    -1.522    -0.543    -0.508  0.7413  0.0663 -0.6679
              Bcc     0.0141     7.500     2.676     2.502 -0.5438  0.6426 -0.5398
 
              Baa    -0.0112    -5.969    -2.130    -1.991  0.7989  0.5735  0.1815
    16 H(1)   Bbb    -0.0091    -4.869    -1.737    -1.624  0.0149 -0.3205  0.9471
              Bcc     0.0203    10.838     3.867     3.615 -0.6013  0.7539  0.2646
 
              Baa    -0.4818   -64.648   -23.068   -21.564  0.8859 -0.3860 -0.2573
    17 C(13)  Bbb    -0.4776   -64.092   -22.869   -21.379  0.4629  0.7722  0.4352
              Bcc     0.9594   128.740    45.937    42.943  0.0307 -0.5047  0.8628
 
              Baa    -0.0599   -31.986   -11.413   -10.669 -0.5524  0.7167  0.4257
    18 H(1)   Bbb    -0.0122    -6.532    -2.331    -2.179  0.3301 -0.2809  0.9012
              Bcc     0.0722    38.518    13.744    12.848  0.7654  0.6383 -0.0814
 
              Baa    -0.0599   -31.954   -11.402   -10.659  0.9960  0.0840  0.0290
    19 H(1)   Bbb    -0.0122    -6.514    -2.324    -2.173 -0.0480  0.7830 -0.6202
              Bcc     0.0721    38.468    13.726    12.832 -0.0748  0.6164  0.7839
 

 ---------------------------------------------------------------------------------

 No NMR shielding tensors so no spin-rotation constants.
 Leave Link  601 at Sat Nov  7 01:57:07 2015, MaxMem=   805306368 cpu:         1.1
 (Enter /home/hetanjin/apps/g09D01/g09/l701.exe)
 Compute integral first derivatives.
 ... and contract with generalized density number  0.
 Leave Link  701 at Sat Nov  7 01:57:07 2015, MaxMem=   805306368 cpu:         0.6
 (Enter /home/hetanjin/apps/g09D01/g09/l702.exe)
 L702 exits ... SP integral derivatives will be done elsewhere.
 Leave Link  702 at Sat Nov  7 01:57:07 2015, MaxMem=   805306368 cpu:         0.1
 (Enter /home/hetanjin/apps/g09D01/g09/l703.exe)
 Compute integral first derivatives, UseDBF=F ICtDFT=           0.
 Integral derivatives from FoFJK, PRISM(SPDF).
 Calling FoFJK, ICntrl=      2127 FMM=F ISym2X=0 I1Cent= 0 IOpClX= 1 NMat=1 NMatS=1 NMatT=0.
 FoFJK:  IHMeth= 1 ICntrl=    2127 DoSepK=F KAlg= 0 I1Cent=   0 FoldK=F
 IRaf=         0 NMat=   1 IRICut=       1 DoRegI=T DoRafI=F ISym2E= 0.
 FoFCou: FMM=F IPFlag=           0 FMFlag=      100000 FMFlg1=         800
         NFxFlg=           0 DoJE=F BraDBF=F KetDBF=F FulRan=T
         wScrn=  0.000000 ICntrl=    2127 IOpCl=  1 I1Cent=           0 NGrid=           0
         NMat0=    1 NMatS0=      1 NMatT0=    0 NMatD0=    1 NMtDS0=    0 NMtDT0=    0
 Symmetry not used in FoFCou.
 Leave Link  703 at Sat Nov  7 01:57:13 2015, MaxMem=   805306368 cpu:        24.6
 (Enter /home/hetanjin/apps/g09D01/g09/l716.exe)
 Dipole        = 8.94493641D-02-1.40657521D-01 1.87012072D-01
 ***** Axes restored to original set *****
 -------------------------------------------------------------------
 Center     Atomic                   Forces (Hartrees/Bohr)
 Number     Number              X              Y              Z
 -------------------------------------------------------------------
      1        6           0.000065723    0.000011655   -0.000001536
      2        1          -0.000012240   -0.000003821    0.000000627
      3        1          -0.000006663    0.000012137    0.000009766
      4        1           0.000016014   -0.000037683   -0.000001359
      5        6          -0.000081781   -0.000074562    0.000016269
      6        1           0.000010961   -0.000002204   -0.000007171
      7        1           0.000063067   -0.000015974    0.000031827
      8        6           0.000182770   -0.000028850    0.000097299
      9        1           0.000092940    0.000187824    0.000141265
     10        1          -0.000008621    0.000002017    0.000003359
     11        6          -0.002133491    0.001327519   -0.000086996
     12        1           0.000799665    0.000043941    0.000686856
     13        1           0.000117911   -0.000041255   -0.000008794
     14        6          -0.009451122   -0.012730047   -0.016417108
     15        1           0.002238035   -0.001632931    0.002941201
     16        1           0.000837505    0.000921013    0.000474878
     17        6           0.020458099    0.024159152    0.034635954
     18        1          -0.002954833   -0.005998966   -0.013185348
     19        1          -0.010233939   -0.006098967   -0.009330991
 -------------------------------------------------------------------
 Cartesian Forces:  Max     0.034635954 RMS     0.007488003
 Leave Link  716 at Sat Nov  7 01:57:13 2015, MaxMem=   805306368 cpu:         0.1
 (Enter /home/hetanjin/apps/g09D01/g09/l103.exe)

 GradGradGradGradGradGradGradGradGradGradGradGradGradGradGradGradGradGrad
 Berny optimization.
 FormGI is forming the generalized inverse of G from B-inverse, IUseBI=4.
 Internal  Forces:  Max     0.013632816 RMS     0.003308635
 Search for a local minimum.
 Step number   1 out of a maximum of  103
 All quantities printed in internal units (Hartrees-Bohrs-Radians)
 RMS Force = .33086D-02 SwitMx=.10000D-02 MixMth= 1
 Mixed Optimization -- RFO/linear search
 Second derivative matrix not updated -- first step.
 ITU=  0
     Eigenvalues ---    0.00315   0.00315   0.00318   0.00341   0.00341
     Eigenvalues ---    0.03382   0.03382   0.03425   0.03604   0.03892
     Eigenvalues ---    0.04763   0.04763   0.04780   0.05320   0.05434
     Eigenvalues ---    0.05477   0.08440   0.08496   0.08496   0.09390
     Eigenvalues ---    0.12286   0.12327   0.12327   0.12889   0.16000
     Eigenvalues ---    0.16000   0.16000   0.16000   0.16000   0.21899
     Eigenvalues ---    0.21905   0.21905   0.21929   0.29047   0.29047
     Eigenvalues ---    0.29069   0.29228   0.29228   0.33635   0.33635
     Eigenvalues ---    0.33635   0.33635   0.33749   0.33749   0.33749
     Eigenvalues ---    0.33749   0.34007   0.34007   0.34007   0.34120
     Eigenvalues ---    0.34120
 RFO step:  Lambda=-1.39027859D-02 EMin= 3.14701035D-03
 Linear search not attempted -- first point.
 Iteration  1 RMS(Cart)=  0.04265213 RMS(Int)=  0.00826751
 Iteration  2 RMS(Cart)=  0.00633851 RMS(Int)=  0.00572501
 Iteration  3 RMS(Cart)=  0.00008258 RMS(Int)=  0.00572467
 Iteration  4 RMS(Cart)=  0.00000182 RMS(Int)=  0.00572466
 Iteration  5 RMS(Cart)=  0.00000005 RMS(Int)=  0.00572466
 ITry= 1 IFail=0 DXMaxC= 1.60D-01 DCOld= 1.00D+10 DXMaxT= 3.00D-01 DXLimC= 3.00D+00 Rises=F
 Variable       Old X    -DE/DX   Delta X   Delta X   Delta X     New X
                                 (Linear)    (Quad)   (Total)
    R1        2.07318  -0.00001   0.00000  -0.00002  -0.00002   2.07316
    R2        2.07318   0.00001   0.00000   0.00003   0.00003   2.07321
    R3        2.07128  -0.00003   0.00000  -0.00008  -0.00008   2.07120
    R4        2.89530  -0.00002   0.00000  -0.00006  -0.00006   2.89525
    R5        2.07756  -0.00001   0.00000  -0.00003  -0.00003   2.07753
    R6        2.07756  -0.00005   0.00000  -0.00015  -0.00015   2.07741
    R7        2.89905  -0.00009   0.00000  -0.00031  -0.00031   2.89874
    R8        2.07951   0.00022   0.00000   0.00063   0.00063   2.08014
    R9        2.07951  -0.00001   0.00000  -0.00002  -0.00002   2.07949
   R10        2.89859   0.00005   0.00000   0.00016   0.00016   2.89875
   R11        2.07951  -0.00096   0.00000  -0.00275  -0.00275   2.07675
   R12        2.07951  -0.00005   0.00000  -0.00015  -0.00015   2.07936
   R13        2.89905   0.00137   0.00000   0.00449   0.00449   2.90354
   R14        2.07756   0.00293   0.00000   0.00833   0.00833   2.08589
   R15        2.07756   0.00035   0.00000   0.00099   0.00099   2.07855
   R16        2.89530  -0.01206   0.00000  -0.03939  -0.03939   2.85591
   R17        2.07128  -0.00055   0.00000  -0.00156  -0.00156   2.06972
   R18        2.07318  -0.00053   0.00000  -0.00149  -0.00149   2.07169
    A1        1.87582   0.00000   0.00000   0.00010   0.00010   1.87592
    A2        1.87917   0.00001   0.00000   0.00001   0.00001   1.87918
    A3        1.94050   0.00000   0.00000   0.00004   0.00004   1.94054
    A4        1.87917   0.00001   0.00000   0.00001   0.00001   1.87919
    A5        1.94050   0.00002   0.00000   0.00018   0.00018   1.94067
    A6        1.94554  -0.00005   0.00000  -0.00033  -0.00033   1.94520
    A7        1.91025   0.00002   0.00000   0.00017   0.00017   1.91042
    A8        1.91025   0.00004   0.00000   0.00024   0.00024   1.91050
    A9        1.97691  -0.00004   0.00000  -0.00022  -0.00022   1.97669
   A10        1.84998   0.00000   0.00000   0.00010   0.00010   1.85008
   A11        1.90607   0.00002   0.00000   0.00008   0.00008   1.90615
   A12        1.90607  -0.00003   0.00000  -0.00036  -0.00036   1.90571
   A13        1.90580  -0.00001   0.00000  -0.00025  -0.00025   1.90555
   A14        1.90580   0.00007   0.00000   0.00007   0.00007   1.90587
   A15        1.98329  -0.00019   0.00000  -0.00082  -0.00082   1.98246
   A16        1.84895  -0.00004   0.00000  -0.00014  -0.00014   1.84881
   A17        1.90759   0.00015   0.00000   0.00117   0.00117   1.90876
   A18        1.90759   0.00003   0.00000   0.00002   0.00002   1.90762
   A19        1.90759   0.00037   0.00000   0.00310   0.00310   1.91069
   A20        1.90759   0.00002   0.00000   0.00014   0.00014   1.90773
   A21        1.98329  -0.00018   0.00000  -0.00098  -0.00098   1.98231
   A22        1.84895   0.00002   0.00000   0.00089   0.00089   1.84984
   A23        1.90580  -0.00026   0.00000  -0.00240  -0.00240   1.90341
   A24        1.90580   0.00003   0.00000  -0.00062  -0.00062   1.90518
   A25        1.90607   0.00065   0.00000   0.00129   0.00133   1.90740
   A26        1.90607  -0.00062   0.00000   0.00765   0.00741   1.91347
   A27        1.97691   0.00284   0.00000   0.01317   0.01303   1.98994
   A28        1.84998   0.00018   0.00000  -0.00294  -0.00290   1.84708
   A29        1.91025  -0.00345   0.00000  -0.03164  -0.03159   1.87867
   A30        1.91025   0.00025   0.00000   0.01147   0.01125   1.92150
   A31        1.94554   0.01345   0.00000   0.14424   0.11617   2.06171
   A32        1.94050   0.01363   0.00000   0.14559   0.11749   2.05799
   A33        1.87917  -0.00066   0.00000   0.12173   0.08656   1.96573
    D1       -3.10715   0.00000   0.00000   0.00003   0.00003  -3.10712
    D2       -1.08672   0.00003   0.00000   0.00038   0.00038  -1.08634
    D3        1.04465   0.00000   0.00000  -0.00005  -0.00005   1.04460
    D4        1.08672  -0.00002   0.00000  -0.00024  -0.00024   1.08648
    D5        3.10715   0.00001   0.00000   0.00011   0.00011   3.10726
    D6       -1.04465  -0.00002   0.00000  -0.00033  -0.00033  -1.04498
    D7       -1.01021  -0.00001   0.00000  -0.00015  -0.00015  -1.01037
    D8        1.01021   0.00002   0.00000   0.00020   0.00020   1.01041
    D9        3.14159  -0.00002   0.00000  -0.00024  -0.00024   3.14136
   D10        1.00712  -0.00003   0.00000  -0.00018  -0.00018   1.00694
   D11       -1.00712   0.00000   0.00000   0.00009   0.00009  -1.00703
   D12        3.14159   0.00003   0.00000   0.00057   0.00057  -3.14102
   D13       -1.12659  -0.00003   0.00000  -0.00031  -0.00031  -1.12690
   D14       -3.14083  -0.00001   0.00000  -0.00004  -0.00004  -3.14088
   D15        1.00788   0.00003   0.00000   0.00044   0.00044   1.00832
   D16        3.14083  -0.00002   0.00000  -0.00028  -0.00028   3.14056
   D17        1.12659   0.00000   0.00000  -0.00001  -0.00001   1.12658
   D18       -1.00788   0.00004   0.00000   0.00047   0.00048  -1.00741
   D19        1.00811   0.00016   0.00000   0.00177   0.00177   1.00989
   D20       -1.00811  -0.00009   0.00000  -0.00109  -0.00109  -1.00920
   D21        3.14159  -0.00003   0.00000   0.00029   0.00029  -3.14131
   D22        3.14159   0.00012   0.00000   0.00174   0.00174  -3.13986
   D23        1.12537  -0.00012   0.00000  -0.00113  -0.00113   1.12424
   D24       -1.00811  -0.00006   0.00000   0.00025   0.00025  -1.00786
   D25       -1.12537   0.00018   0.00000   0.00223   0.00223  -1.12314
   D26        3.14159  -0.00007   0.00000  -0.00063  -0.00063   3.14096
   D27        1.00811  -0.00001   0.00000   0.00075   0.00075   1.00886
   D28        1.00788   0.00063   0.00000   0.00715   0.00715   1.01503
   D29       -1.00788   0.00040   0.00000   0.00573   0.00577  -1.00211
   D30        3.14159  -0.00140   0.00000  -0.02358  -0.02363   3.11797
   D31       -3.14083   0.00079   0.00000   0.00870   0.00871  -3.13213
   D32        1.12659   0.00057   0.00000   0.00729   0.00733   1.13392
   D33       -1.00712  -0.00124   0.00000  -0.02203  -0.02207  -1.02919
   D34       -1.12659   0.00070   0.00000   0.00810   0.00811  -1.11848
   D35        3.14083   0.00047   0.00000   0.00669   0.00672  -3.13563
   D36        1.00712  -0.00133   0.00000  -0.02263  -0.02267   0.98445
   D37        3.14159  -0.00829   0.00000  -0.15512  -0.16128   2.98031
   D38       -1.04465   0.00925   0.00000   0.19603   0.20234  -0.84232
   D39       -1.01021  -0.00803   0.00000  -0.16749  -0.17373  -1.18394
   D40        1.08672   0.00951   0.00000   0.18366   0.18989   1.27662
   D41        1.01021  -0.00962   0.00000  -0.18237  -0.18868   0.82153
   D42        3.10715   0.00792   0.00000   0.16878   0.17494  -3.00110
         Item               Value     Threshold  Converged?
 Maximum Force            0.013633     0.000015     NO 
 RMS     Force            0.003309     0.000010     NO 
 Maximum Displacement     0.159572     0.000060     NO 
 RMS     Displacement     0.039976     0.000040     NO 
 Predicted change in Energy=-1.000499D-02
 Lowest energy point so far.  Saving SCF results.
 GradGradGradGradGradGradGradGradGradGradGradGradGradGradGradGradGradGrad

 Leave Link  103 at Sat Nov  7 01:57:13 2015, MaxMem=   805306368 cpu:         0.1
 (Enter /home/hetanjin/apps/g09D01/g09/l202.exe)
                          Input orientation:                          
 ---------------------------------------------------------------------
 Center     Atomic      Atomic             Coordinates (Angstroms)
 Number     Number       Type             X           Y           Z
 ---------------------------------------------------------------------
      1          6           0       -1.423239    2.905793   -0.012222
      2          1           0       -0.914437    3.296146   -0.902338
      3          1           0       -0.908977    3.313715    0.866839
      4          1           0       -2.445391    3.301380   -0.013004
      5          6           0       -1.415337    1.373789    0.002842
      6          1           0       -1.961757    1.013389    0.886117
      7          1           0       -1.967023    0.996041   -0.869769
      8          6           0       -0.002923    0.775389    0.004100
      9          1           0        0.549700    1.154559    0.877322
     10          1           0        0.544015    1.136873   -0.879702
     11          6           0        0.013847   -0.758406    0.018350
     12          1           0       -0.535956   -1.138943   -0.853799
     13          1           0       -0.532477   -1.119975    0.902410
     14          6           0        1.428694   -1.357570    0.020010
     15          1           0        1.981201   -0.985351    0.900110
     16          1           0        1.984148   -0.996126   -0.857857
     17          6           0        1.456989   -2.867870    0.066624
     18          1           0        2.417930   -3.371199   -0.084442
     19          1           0        0.830497   -3.370134    0.813012
 ---------------------------------------------------------------------
                    Distance matrix (angstroms):
                    1          2          3          4          5
     1  C    0.000000
     2  H    1.097069   0.000000
     3  H    1.097093   1.769273   0.000000
     4  H    1.096031   1.770527   1.770549   0.000000
     5  C    1.532099   2.183051   2.183164   2.185606   0.000000
     6  H    2.162917   3.083250   2.529865   2.505439   1.099380
     7  H    2.162924   2.529720   3.083323   2.505488   1.099319
     8  C    2.560505   2.829612   2.829903   3.513769   1.533948
     9  H    2.783990   3.145995   2.605726   3.791055   2.161977
    10  H    2.784186   2.605774   3.146464   3.791149   2.161960
    11  C    3.936052   4.260137   4.260717   4.746651   2.566916
    12  H    4.225567   4.451474   4.788101   4.906052   2.796599
    13  H    4.223366   4.785932   4.449790   4.903632   2.794195
    14  C    5.129409   5.291320   5.291761   6.059327   3.943238
    15  H    5.250102   5.474008   5.180368   6.229331   4.231678
    16  H    5.248844   5.179515   5.469871   6.229218   4.232470
    17  C    6.452683   6.675151   6.667094   7.300312   5.123084
    18  H    7.359377   7.498474   7.527372   8.257137   6.100530
    19  H    6.719197   7.101163   6.906701   7.478158   5.310833
                    6          7          8          9         10
     6  H    0.000000
     7  H    1.755979   0.000000
     8  C    2.161395   2.161024   0.000000
[...]
 .01027507,0.00067807,0.00158986,-0.00068259,0.04814593,-0.08107150,-0.
 00149466,0.00004298,-0.00054534,-0.01629833,-0.00033033,-0.00053820,-0
 .01640828,0.00111297,0.00220778,0.03373382,-0.00080290,0.50711389,-0.0
 0251468,-0.19448677,0.00266642,-0.00029125,-0.01226562,0.00016856,-0.0
 0026514,-0.01364291,0.00049474,-0.00149941,-0.01066488,0.00022766,0.03
 832576,0.48777029,0.00007472,0.00266806,-0.08169114,-0.00057030,0.0296
 9805,0.00029963,0.00059293,-0.02895985,0.00167546,0.00002689,0.0001342
 4,-0.00136972,-0.00065962,0.00242452,0.59311060,0.00035089,0.00020191,
 -0.00095838,0.00093069,0.00047131,-0.00004907,-0.00017225,-0.00013155,
 0.00021013,0.00047498,-0.00030605,-0.00038983,-0.10901873,-0.03904934,
 0.09806914,0.11976498,-0.01669563,-0.01281941,0.02923779,0.00012036,-0
 .00710299,-0.00020947,-0.00024337,0.00154023,-0.00050334,0.00049571,0.
 00137746,-0.00006708,-0.03894002,-0.07320028,0.06285691,0.04024859,0.0
 8273452,-0.00043223,-0.00013577,0.00023672,-0.00039851,-0.00020632,0.0
 0168567,-0.00006144,0.00042327,0.00086645,-0.00035376,0.00047703,0.000
 04234,0.09834495,0.06314662,-0.21846495,-0.10974710,-0.07077558,0.2344
 6350,0.00036444,0.00025099,0.00095237,-0.00017281,-0.00014463,-0.00019
 921,0.00093298,0.00047579,0.00002960,0.00047823,-0.00029021,0.00040155
 ,-0.10997761,-0.04401205,-0.09667461,0.00859022,0.00642318,0.01294369,
 0.12083052,-0.01679625,-0.01416959,-0.02846657,-0.00023655,0.00154265,
 0.00047022,0.00014212,-0.00706242,0.00062294,0.00051209,0.00135716,0.0
 0000152,-0.04392442,-0.07947430,-0.06927291,0.00585153,0.00379551,0.00
 829285,0.04580313,0.08977222,0.00122992,0.00081623,0.00158010,0.000078
 02,-0.00045251,0.00086376,0.00039619,0.00062211,0.00164420,0.00032796,
 -0.00053648,0.00006080,-0.09696739,-0.06955501,-0.21137154,-0.01337495
 ,-0.00953751,-0.02231873,0.10830034,0.07742468,0.22650803,0.00013685,0
 .00583916,-0.00014282,0.00070769,-0.00166697,0.00015438,0.00071391,-0.
 00168625,-0.00008298,0.00110702,-0.00284109,0.00006528,-0.17515394,0.0
 3316564,-0.00050208,-0.01786587,0.00634524,-0.00021548,-0.01798862,0.0
 0639154,-0.00001020,0.51047184,0.03507909,-0.01656384,0.00031486,0.000
 29640,0.00164093,-0.00031965,0.00034921,0.00161022,0.00024337,0.000541
 89,-0.00704299,0.00017068,0.03199544,-0.09116177,0.00008293,-0.0088364
 9,0.00311879,-0.00031454,-0.01013661,0.00365500,0.00022309,0.03490000,
 0.48387717,-0.00081361,0.00038321,-0.00012468,-0.00099607,0.00087003,0
 .00002308,0.00097866,-0.00093904,0.00004529,-0.00001396,0.00017211,0.0
 0022574,-0.00061054,0.00011609,-0.08168705,0.02753918,-0.01074100,0.00
 019098,-0.02699281,0.01056439,-0.00017630,-0.00044622,0.00214772,0.589
 00784,0.00111487,-0.00159974,-0.00029799,0.00001629,0.00016194,0.00006
 244,0.00036496,0.00106274,0.00052578,0.00022563,-0.00014827,0.00047432
 ,-0.01785493,-0.01025655,-0.02693005,0.00124664,-0.00064510,0.00038644
 ,-0.00583176,0.00269465,0.00017822,-0.10835730,-0.04320330,-0.09522448
 ,0.11978314,0.00026081,0.00116152,0.00100625,0.00002196,-0.00002894,0.
 00005095,-0.00010588,0.00000363,-0.00038873,-0.00017819,0.00014057,-0.
 00008513,0.00642239,0.00351753,0.01052403,-0.00065404,0.00016354,-0.00
 030294,0.00279150,-0.00063977,0.00007997,-0.04325017,-0.07923181,-0.06
 852827,0.04554200,0.08933535,0.00021356,-0.00017582,0.00006101,-0.0000
 4460,-0.00006464,-0.00005031,-0.00017781,0.00068487,0.00023039,0.00014
 521,0.00028126,0.00025687,0.00010501,-0.00001222,-0.00025028,-0.000383
 23,0.00034026,0.00095684,0.00019035,0.00003929,0.00174154,-0.09535225,
 -0.06861428,-0.20935332,0.10725263,0.07680443,0.22485841,0.00112627,-0
 .00158712,0.00037401,0.00036348,0.00103575,-0.00057532,0.00001509,0.00
 015937,-0.00007064,0.00022273,-0.00017598,-0.00046815,-0.01778142,-0.0
 0898891,0.02750384,-0.00584654,0.00269239,-0.00026549,0.00124897,-0.00
 066225,-0.00035344,-0.10748896,-0.03841933,0.09667773,0.00849385,0.005
 75031,-0.01338848,0.11875770,0.00024229,0.00112139,-0.00106357,-0.0000
 9244,-0.00001273,0.00039792,0.00002549,-0.00003013,-0.00005198,-0.0001
 8594,0.00013580,0.00009060,0.00637641,0.00304708,-0.01070126,0.0027846
 0,-0.00063777,0.00001791,-0.00063857,0.00016542,0.00034165,-0.03848218
 ,-0.07322796,0.06244058,0.00628962,0.00372971,-0.00955679,0.04009943,0
 .08256023,-0.00023360,0.00013558,0.00010013,0.00018523,-0.00068261,0.0
 0024700,0.00004233,0.00006263,-0.00004962,-0.00013747,-0.00027354,0.00
 026957,-0.00030042,-0.00009133,0.00010603,-0.00028243,0.00005432,0.001
 74679,0.00040778,-0.00029895,0.00095614,0.09683831,0.06250068,-0.21660
 246,0.01293917,0.00832015,-0.02229023,-0.10873943,-0.07045979,0.232948
 06,-0.00683643,0.00106154,-0.00001159,0.00011193,0.00000003,-0.0003261
 6,0.00011461,0.00001859,0.00032922,-0.00003459,0.00238608,-0.00005240,
 0.00088079,0.03440319,-0.00084780,0.00084626,0.00025629,-0.00014602,0.
 00082910,0.00027714,0.00012440,-0.08082437,-0.00442649,-0.00021240,-0.
 00061299,-0.01652828,0.00055490,-0.00052707,-0.01623968,0.00010663,0.5
 0477873,0.00054436,0.00011767,-0.00002891,0.00013371,-0.00009193,-0.00
 002953,0.00013807,-0.00007949,0.00004725,-0.00041527,0.00016009,0.0000
 1355,0.00633346,-0.01556770,0.00032635,-0.00183008,0.00114073,0.000298
 45,-0.00185552,0.00116218,-0.00035941,-0.00531287,-0.18626216,0.002129
 00,-0.00037607,-0.01453735,0.00045188,-0.00032819,-0.01297671,0.000259
 55,0.03895421,0.48324636,-0.00002004,-0.00001677,-0.00063951,-0.000098
 27,-0.00022564,0.00029539,0.00009514,0.00024108,0.00028364,0.00000744,
 0.00001394,0.00059460,-0.00014580,0.00033888,-0.00070003,0.00060729,-0
 .00105872,-0.00001614,-0.00053220,0.00100362,-0.00006402,-0.00021809,0
 .00277979,-0.08180045,-0.00004408,-0.02885924,0.00068133,-0.00005049,0
 .02946957,-0.00060090,0.00153504,0.00324707,0.59223110,0.00011869,0.00
 007030,0.00014657,-0.00002192,-0.00003366,0.00000183,-0.00010570,0.000
 07385,-0.00003658,0.00000859,-0.00004051,-0.00000195,0.00059033,0.0003
 5278,0.00072068,0.00003201,0.00001840,0.00007019,0.00037070,-0.0000279
 3,-0.00011598,-0.00045809,-0.00034956,0.00008563,0.00048192,0.00023296
 ,0.00004071,-0.00010857,-0.00010574,-0.00015706,-0.10834407,-0.0445289
 4,-0.09627177,0.11969867,0.00008059,-0.00004816,0.00029146,-0.00004028
 ,-0.00000478,-0.00001995,0.00005247,0.00031774,0.00017801,0.00009508,0
 .00001048,0.00008714,-0.00168258,0.00135486,-0.00092594,0.00014297,-0.
 00003109,0.00005471,0.00107441,-0.00002293,0.00069669,-0.01618691,-0.0
 1417043,-0.02856415,0.00023061,-0.00684313,0.00040886,-0.00010586,0.00
 152906,0.00047002,-0.04480882,-0.08098355,-0.07103197,0.04658496,0.090
 74916,0.00036020,0.00002620,0.00032039,-0.00000954,0.00002062,-0.00001
 878,-0.00003936,0.00019048,-0.00002506,0.00002163,-0.00010775,-0.00002
 010,-0.00018714,0.00018356,-0.00002170,-0.00008479,-0.00004415,-0.0000
 2171,0.00056761,-0.00034647,0.00032599,0.00082408,0.00046805,0.0009758
 2,0.00007294,0.00050118,0.00170110,0.00017790,-0.00049614,0.00092782,-
 0.09676949,-0.07075980,-0.21265374,0.10774769,0.07895104,0.22754111,0.
 00011126,0.00006421,-0.00014923,-0.00010659,0.00007363,0.00003370,-0.0
 0002235,-0.00003501,-0.00000050,0.00000843,-0.00003925,0.00000375,0.00
 059702,0.00033574,-0.00076259,0.00037433,-0.00002667,0.00012603,0.0000
 3103,0.00001269,-0.00007340,-0.00046986,-0.00035718,-0.00002184,-0.000
 11295,-0.00010357,0.00017391,0.00048181,0.00022220,-0.00005857,-0.1068
 1685,-0.03860596,0.09671124,0.00850850,0.00576772,-0.01331454,0.118294
 00,0.00005047,-0.00005720,-0.00026862,0.00005421,0.00029787,-0.0001946
 2,-0.00004042,-0.00000604,0.00001881,0.00009527,0.00001279,-0.00008920
 ,-0.00168525,0.00142997,0.00086208,0.00104167,-0.00003364,-0.00069069,
 0.00014617,-0.00003088,-0.00005427,-0.01620179,-0.01305515,0.02945899,
 -0.00010141,0.00152668,-0.00049480,0.00023861,-0.00692344,-0.00002833,
 -0.03879643,-0.07329914,0.06307505,0.00632471,0.00378375,-0.00966136,0
 .04014984,0.08276243,-0.00036855,-0.00001152,0.00033713,0.00003811,-0.
 00020851,-0.00000502,0.00001353,-0.00002020,-0.00001845,-0.00003067,0.
 00011145,-0.00002010,0.00029712,-0.00027609,-0.00004848,-0.00062896,0.
 00036252,0.00034517,0.00007553,0.00004370,-0.00002358,0.00007503,0.000
 21476,-0.00063556,-0.00015869,0.00046799,0.00095039,-0.00005655,-0.000
 01194,0.00171368,0.09707198,0.06308723,-0.21797958,0.01296604,0.008467
 96,-0.02216270,-0.10871765,-0.07102560,0.23410502,0.00075829,-0.000415
 65,-0.00000212,-0.00002867,0.00005236,0.00002383,-0.00002990,0.0000424
 7,-0.00002821,0.00011535,-0.00032440,0.00000419,-0.00025182,-0.0016834
 8,0.00010375,0.00000179,0.00011224,-0.00015363,0.00000464,0.00011372,0
 .00014094,-0.00034186,0.00559519,0.00021523,0.00065430,-0.00146997,-0.
 00010141,0.00062965,-0.00162712,0.00022796,-0.16884584,0.03222216,0.00
 019598,-0.01728300,0.00688421,0.00065155,-0.01810491,0.00658008,-0.000
 53328,0.48031177,0.00224229,0.00005786,-0.00000717,-0.00006190,0.00004
 810,0.00007982,-0.00006237,0.00003625,-0.00008791,0.00006528,-0.000826
 42,0.00001679,-0.00237938,-0.00624557,0.00011885,0.00010689,0.00005828
 ,-0.00034133,0.00007477,0.00008741,0.00033117,0.03473972,-0.01504468,0
 .00057104,0.00042665,0.00136037,0.00018709,0.00029091,0.00144165,-0.00
 031903,0.02718431,-0.08662337,0.00365269,-0.00897329,0.00390075,0.0005
 5502,-0.00858556,0.00301366,-0.00043694,0.02641827,0.48986295,-0.00020
 001,0.00001141,0.00063073,0.00000280,-0.00009237,-0.00003416,0.0000069
 8,0.00007531,-0.00002938,-0.00000145,0.00006703,-0.00000996,0.00029107
 ,0.00043270,-0.00065175,-0.00030491,-0.00004765,0.00034695,0.00027670,
 0.00004060,0.00027721,-0.00208137,0.00030067,-0.00036993,0.00078848,-0
 .00072657,0.00009410,-0.00071902,0.00069041,-0.00001717,0.00043983,0.0
 0548139,-0.07980508,-0.02557974,0.01076621,0.00041167,0.02728742,-0.01
 067465,0.00035538,-0.03280217,-0.01746655,0.53098341,0.00008972,0.0000
 3464,0.00007807,-0.00000082,0.00000573,0.00000145,-0.00000396,0.000075
 29,0.00001325,-0.00000828,-0.00001661,0.00000051,-0.00009773,-0.000012
 63,0.00026868,-0.00003409,-0.00002590,-0.00002252,0.00030887,-0.000058
 81,0.00019362,0.00113767,-0.00188667,-0.00066404,0.00035870,0.00106938
 ,0.00057897,0.00002232,0.00014573,0.00009620,-0.01979865,-0.01028411,-
 0.02706696,-0.00595737,0.00269381,0.00025551,0.00131664,-0.00068997,0.
 00042038,-0.09789449,-0.03894425,-0.08590675,0.11122443,-0.00010776,-0
 .00001506,-0.00002477,0.00000519,-0.00000411,0.00000045,0.00000290,-0.
 00002257,-0.00000442,-0.00000872,0.00004007,-0.00000606,0.00016659,0.0
 0018850,0.00015504,-0.00004471,0.00000405,0.00001221,-0.00003958,-0.00
 012561,-0.00009898,0.00030850,0.00102380,0.00105423,-0.00005343,0.0000
 9771,-0.00030933,-0.00001985,-0.00006869,0.00006181,0.00679615,0.00440
 507,0.00918225,0.00265139,-0.00077226,0.00004649,-0.00065425,0.0001099
 2,-0.00023599,-0.04765423,-0.07448618,-0.07512274,0.04636704,0.0898320
 4,-0.00006876,0.00000549,-0.00002468,-0.00000318,0.00000338,-0.0000084
 0,-0.00000967,0.00002563,0.00002462,0.00000129,0.00002799,0.00000341,0
 .00011350,0.00033402,0.00030243,0.00003130,-0.00001383,-0.00002608,0.0
 0019804,-0.00010289,0.00000511,0.00032751,-0.00045197,-0.00010649,-0.0
 0015396,0.00070392,0.00033350,-0.00007526,-0.00002511,-0.00005348,-0.0
 0037535,-0.00070402,-0.00115485,-0.00025440,0.00002023,0.00152704,-0.0
 0019504,0.00029727,0.00096133,-0.08643142,-0.06161150,-0.18719570,0.09
 815677,0.07759948,0.20537208,0.00002545,0.00001089,-0.00007849,-0.0000
 0026,0.00007269,-0.00001837,0.00000271,0.00000708,0.00000152,-0.000012
 98,0.00001046,0.00000051,-0.00000603,0.00011065,-0.00026203,0.00029644
 ,-0.00007768,-0.00017662,-0.00003569,-0.00002979,0.00001326,0.00077569
 ,-0.00177071,0.00059588,0.00002029,0.00013995,-0.00008755,0.00037224,0
 .00099780,-0.00060049,-0.01638785,-0.00883234,0.02670224,0.00118631,-0
 .00074731,-0.00042726,-0.00578034,0.00276248,-0.00034149,-0.10894417,-
 0.03371189,0.09894190,0.00780892,0.00448041,-0.01316939,0.11916022,-0.
 00005416,-0.00000423,0.00003113,0.00000312,-0.00002841,0.00001253,0.00
 000402,-0.00000370,-0.00000338,-0.00000729,0.00001903,0.00000438,0.000
 14148,0.00000150,-0.00005283,-0.00009135,-0.00009488,0.00010831,-0.000
 03942,0.00000532,-0.00000955,0.00029133,0.00116040,-0.00104222,0.00001
 470,-0.00004857,-0.00006800,-0.00003026,-0.00004970,0.00038656,0.00591
 353,0.00284857,-0.01082613,-0.00076043,0.00010602,0.00031570,0.0026739
 7,-0.00072323,0.00005143,-0.03501032,-0.07011961,0.06396947,0.00606563
 ,0.00460500,-0.01030016,0.03952123,0.08091346,0.00008828,-0.00000819,-
 0.00003423,0.00000848,-0.00001774,0.00002394,0.00000182,-0.00000134,-0
 .00000737,-0.00000031,-0.00003356,0.00000466,-0.00015146,-0.00031560,0
 .00032248,-0.00017196,0.00010319,-0.00001725,-0.00001928,0.00000802,-0
 .00002086,-0.00010191,0.00019314,-0.00003157,0.00006888,0.00004542,-0.
 00003367,0.00013448,-0.00064857,0.00033182,-0.00037996,-0.00087219,0.0
 0085113,0.00025352,-0.00030747,0.00091313,-0.00043247,0.00004827,0.001
 65453,0.09998861,0.06285011,-0.21403024,0.01260536,0.00724630,-0.02442
 498,-0.11052305,-0.06831628,0.23225281,-0.00074827,0.00005089,0.000002
 01,0.00001931,-0.00001379,-0.00002603,0.00002809,0.,0.00003367,-0.0000
 5662,0.00029661,-0.00000715,0.00087952,0.00194177,-0.00017077,0.000035
 15,-0.00005784,0.00010323,0.00004398,-0.00006891,-0.00007758,-0.006330
 35,0.00078513,0.00014188,0.00000623,0.00007424,0.00029326,0.00010555,-
 0.00000435,-0.00036609,0.00031126,0.03319703,-0.00067390,0.00128459,0.
 00012524,0.00018688,0.00087865,0.00060671,-0.00000171,-0.07798137,0.00
 229842,0.01983945,0.00199663,-0.01291483,0.00241529,0.00015140,-0.0199
 4180,-0.00008345,0.49718772,0.00004636,-0.00007206,0.00001400,0.000004
 28,0.00001246,-0.00000140,0.00000665,0.00002299,0.00000385,-0.00002231
 ,0.00001813,-0.00000145,-0.00031714,0.00004772,0.00001638,0.00001746,-
 0.00000245,-0.00000218,0.00007212,-0.00002386,0.00002706,0.00126824,-0
 .00052573,0.00012275,0.00002655,0.00013229,0.00009343,0.00005749,-0.00
 011251,-0.00001651,0.00859366,-0.01929526,-0.00155715,-0.00185604,0.00
 108254,-0.00020581,-0.00188724,0.00125462,0.00051582,0.00499436,-0.231
 08948,0.01364114,-0.00386726,-0.02360388,-0.00488781,-0.00253551,-0.01
 455371,0.00010161,-0.02933073,0.54400151,0.00014870,-0.00001932,-0.000
 00514,-0.00000295,-0.00000410,0.00000849,-0.00000406,0.00001900,0.0000
 0846,0.00001243,-0.00006078,-0.00000479,-0.00014284,-0.00037909,0.0004
 5050,-0.00008992,0.00003231,-0.00002625,0.00010558,-0.00003628,0.00004
 107,0.00136089,-0.00013616,0.00017172,0.00006510,0.00054699,0.00016767
 ,-0.00015433,-0.00028151,0.00029079,-0.00081674,-0.00303030,-0.0004616
 7,0.00058040,0.00030233,0.00059316,-0.00014409,-0.00088665,0.00029088,
 0.01964477,0.01036035,-0.05597564,0.00150093,-0.02068186,0.00530692,-0
 .00029507,0.02555771,0.00130607,-0.24413905,-0.04283993,0.19837251,-0.
 00003101,-0.00001018,-0.00000061,0.00000831,0.00000190,-0.00000290,0.0
 0000466,-0.00000228,-0.00000004,-0.00001498,0.00001879,0.00000097,0.00
 006804,-0.00000949,0.00001621,-0.00000398,-0.00000200,-0.00000550,-0.0
 0001823,0.00000123,-0.00000625,0.00010426,-0.00019061,-0.00010601,0.00
 001936,0.00001393,0.00001672,-0.00000053,0.00010782,-0.00001790,-0.000
 04053,0.00053311,0.00025367,0.00001189,-0.00005802,0.00006230,0.000266
 54,-0.00020526,-0.00022282,0.00491824,-0.00349208,-0.00120376,-0.00070
 127,0.00032835,-0.00017577,0.00032283,0.00037183,-0.00013813,-0.231149
 51,0.12116152,0.09942932,0.23700003,0.00030391,0.00002267,-0.00000317,
 -0.00001967,-0.00000272,0.00001509,-0.00002056,-0.00000342,-0.00001354
 ,0.00003443,-0.00013459,0.00000254,-0.00038691,-0.00066283,0.00007389,
 0.00001108,0.00001564,-0.00003667,0.00002414,0.00001545,0.00003423,0.0
 0215459,0.00021579,-0.00003292,-0.00003974,0.00007300,-0.00005245,-0.0
 0005595,0.00002152,0.00009043,-0.00308770,-0.00527123,-0.00011523,0.00
 002938,0.00010572,0.00021346,0.00006001,0.00010074,-0.00034259,0.02478
 634,-0.00720251,-0.00833777,-0.00036466,-0.00058337,-0.00052908,-0.000
 32760,0.00143040,0.00043392,0.11908594,-0.13130363,-0.04468787,-0.1298
 3287,0.13310225,0.00000781,0.00002332,-0.00000270,-0.00000021,0.000000
 58,0.00000013,-0.00000204,-0.00000636,-0.00000500,-0.00000349,-0.00000
 035,-0.00000153,-0.00004473,-0.00001168,-0.00001789,0.00000446,0.00000
 754,0.00000316,-0.00001920,0.00000931,-0.00000906,-0.00012870,0.000379
 95,0.00024999,0.00000774,-0.00007011,-0.00003623,0.00000184,-0.0000708
 2,-0.00000156,-0.00109098,0.00092885,0.00056888,0.00005826,-0.00000380
 ,0.00001028,-0.00026494,0.00005214,0.00012916,0.00034564,0.00243584,0.
 00200937,-0.00086142,0.00065717,0.00008976,-0.00103699,-0.00069765,0.0
 0068025,0.09459189,-0.04354652,-0.05191456,-0.10247344,0.04795867,0.04
 971184,0.00001912,-0.00000567,0.00000820,-0.00000081,-0.00000251,-0.00
 000148,-0.00000381,-0.00000506,-0.00000314,0.00000658,-0.00001163,0.00
 000058,-0.00004012,-0.00005259,0.00000303,-0.00000290,0.00000180,0.000
 00377,-0.00000898,0.00000510,-0.00000369,0.00012429,0.00003460,-0.0001
 3221,-0.00001622,-0.00002934,-0.00002989,-0.00008656,0.00008462,0.0000
 4986,0.00119655,0.00031326,-0.00098644,-0.00001349,-0.00010229,-0.0000
 9617,0.00054565,-0.00032970,0.00010264,0.00231202,0.00236321,0.0009245
 4,0.00023276,0.00039083,-0.00033147,0.00104481,0.00093419,-0.00114745,
 -0.18666196,-0.09643246,0.12294091,-0.01076410,-0.01235414,0.01090849,
 0.19211717,0.00000811,0.00001197,-0.00000398,-0.00000523,0.00000843,-0
 .00000507,-0.00000636,-0.00000090,0.00000145,0.00000433,-0.00001054,0.
 00000143,0.00002162,0.00001518,-0.00002854,0.00006561,-0.00002625,-0.0
 0002533,0.00002039,-0.00000896,0.00000683,0.00022427,-0.00001559,-0.00
 018253,-0.00002584,0.00008767,0.00005698,0.00004944,0.00028778,-0.0001
 7164,-0.00195733,0.00190723,0.00068691,0.00033738,-0.00006375,0.000149
 69,0.00093469,-0.00016369,-0.00075347,-0.01961624,-0.00822946,0.016991
 97,-0.00030638,-0.00062442,-0.00039105,-0.00008081,-0.00546366,-0.0005
 0905,-0.09612972,-0.12598970,0.07622516,0.01126429,0.01006114,-0.00804
 608,0.10519778,0.12821752,-0.00003532,-0.00000460,-0.00000235,0.000002
 38,-0.00000007,-0.00000003,0.00000009,-0.00000607,-0.00000245,-0.00000
 239,0.00001575,0.00000027,0.00003557,0.00010724,0.00000742,0.00000404,
 0.00000348,0.00000654,-0.00001182,0.00000295,-0.00001985,-0.00036337,-
 0.00018308,-0.00000265,-0.00001288,-0.00009030,-0.00001910,0.00004680,
 -0.00008115,-0.00002240,0.00086687,-0.00048640,0.00036990,-0.00025405,
 0.00015863,-0.00032371,-0.00020119,0.00025618,0.00005082,-0.00149021,-
 0.00088832,0.00301020,0.00035198,0.00046873,-0.00093154,0.00076150,0.0
 0087898,0.00025935,0.12793816,0.07852271,-0.09862019,0.00457394,0.0053
 2904,-0.00146429,-0.13221009,-0.08400369,0.09770406\\-0.00000006,-0.00
 000013,-0.00000039,0.00000034,-0.00000004,-0.00000024,-0.00000012,-0.0
 0000006,-0.00000019,0.00000011,0.,-0.00000061,0.00000018,-0.00000030,-
 0.00000028,-0.00000047,0.00000022,-0.00000047,0.00000004,0.00000026,-0
 .00000052,0.00000009,0.00000091,0.00000004,-0.00000001,-0.00000014,0.0
 0000018,0.00000052,-0.00000025,0.00000017,0.00000126,-0.00000092,-0.00
 000034,-0.00000005,0.00000016,-0.00000015,-0.00000028,0.00000006,-0.00
 000004,-0.00000065,0.00000051,0.00000088,-0.00000053,-0.00000009,0.000
 00032,0.00000018,-0.00000005,0.00000032,-0.00000045,-0.00000052,0.0000
 0086,0.00000014,0.00000033,0.00000038,-0.00000024,0.00000004,0.0000000
 9\\\@


 THERE IS AN OLD, OLD RECIPE IN MAINE FOR STEWING COOT. PLACE THE
 BIRD IN A KETTLE OF WATER WITH A RED BUILDING BRICK FREE OF MORTAR AND
 BLEMISHES. PARBOIL THE COOT AND BRICK TOGETHER FOR THREE HOURS.
 POUR OFF THE WATER, REFILL THE KETTLE, AND AGAIN PARBOIL FOR THREE HOURS.
 ONCE AGAIN POUR OFF THE WATER, FOR THE LAST TIME ADD FRESH WATER,
 AND LET THE COOT AND BRICK SIMMER TOGETHER OVERNIGHT. IN THE MORNING,
 THROW AWAY THE COOT AND EAT THE BRICK.
 Job cpu time:       0 days  0 hours 24 minutes 16.6 seconds.
 File lengths (MBytes):  RWF=     64 Int=      0 D2E=      0 Chk=      3 Scr=      1
 Normal termination of Gaussian 09 at Sat Nov  7 02:09:57 2015.
