 Entering Gaussian System, Link 0=/share/apps/g09/g09
 Input=C6H14_1_01_1_opt_B3L.gjf
 Output=C6H14_1_01_1_opt_B3L.log
 Initial command:
 /share/apps/g09/l1.exe /state/partition1/Gau-10741.inp -scrdir=/state/partition1/
 Entering Link 1 = /share/apps/g09/l1.exe PID=     10742.
  
 Copyright (c) 1988,1990,1992,1993,1995,1998,2003,2009, Gaussian, Inc.
                  All Rights Reserved.
  
 This is part of the Gaussian(R) 09 program.  It is based on
 the Gaussian(R) 03 system (copyright 2003, Gaussian, Inc.),
 the Gaussian(R) 98 system (copyright 1998, Gaussian, Inc.),
 the Gaussian(R) 94 system (copyright 1995, Gaussian, Inc.),
 the Gaussian 92(TM) system (copyright 1992, Gaussian, Inc.),
 the Gaussian 90(TM) system (copyright 1990, Gaussian, Inc.),
 the Gaussian 88(TM) system (copyright 1988, Gaussian, Inc.),
 the Gaussian 86(TM) system (copyright 1986, Carnegie Mellon
 University), and the Gaussian 82(TM) system (copyright 1983,
 Carnegie Mellon University). Gaussian is a federally registered
 trademark of Gaussian, Inc.
  
 This software contains proprietary and confidential information,
 including trade secrets, belonging to Gaussian, Inc.
  
 This software is provided under written license and may be
 used, copied, transmitted, or stored only in accord with that
 written license.
  
 The following legend is applicable only to US Government
 contracts under FAR:
  
                    RESTRICTED RIGHTS LEGEND
  
 Use, reproduction and disclosure by the US Government is
 subject to restrictions as set forth in subparagraphs (a)
 and (c) of the Commercial Computer Software - Restricted
 Rights clause in FAR 52.227-19.
  
 Gaussian, Inc.
 340 Quinnipiac St., Bldg. 40, Wallingford CT 06492
  
  
 ---------------------------------------------------------------
 Warning -- This program may not be used in any manner that
 competes with the business of Gaussian, Inc. or will provide
 assistance to any competitor of Gaussian, Inc.  The licensee
 of this program is prohibited from giving any competitor of
 Gaussian, Inc. access to this program.  By using this program,
 the user acknowledges that Gaussian, Inc. is engaged in the
 business of creating and licensing software in the field of
 computational chemistry and represents and warrants to the
 licensee that it is not a competitor of Gaussian, Inc. and that
 it will not use this program in any manner prohibited above.
 ---------------------------------------------------------------
  

 Cite this work as:
 Gaussian 09, Revision A.01,
 M. J. Frisch, G. W. Trucks, H. B. Schlegel, G. E. Scuseria, 
 M. A. Robb, J. R. Cheeseman, G. Scalmani, V. Barone, B. Mennucci, 
 G. A. Petersson, H. Nakatsuji, M. Caricato, X. Li, H. P. Hratchian, 
 A. F. Izmaylov, J. Bloino, G. Zheng, J. L. Sonnenberg, M. Hada, 
 M. Ehara, K. Toyota, R. Fukuda, J. Hasegawa, M. Ishida, T. Nakajima, 
 Y. Honda, O. Kitao, H. Nakai, T. Vreven, J. A. Montgomery, Jr., 
 J. E. Peralta, F. Ogliaro, M. Bearpark, J. J. Heyd, E. Brothers, 
 K. N. Kudin, V. N. Staroverov, R. Kobayashi, J. Normand, 
 K. Raghavachari, A. Rendell, J. C. Burant, S. S. Iyengar, J. Tomasi, 
 M. Cossi, N. Rega, J. M. Millam, M. Klene, J. E. Knox, J. B. Cross, 
 V. Bakken, C. Adamo, J. Jaramillo, R. Gomperts, R. E. Stratmann, 
 O. Yazyev, A. J. Austin, R. Cammi, C. Pomelli, J. W. Ochterski, 
 R. L. Martin, K. Morokuma, V. G. Zakrzewski, G. A. Voth, 
 P. Salvador, J. J. Dannenberg, S. Dapprich, A. D. Daniels, 
 O. Farkas, J. B. Foresman, J. V. Ortiz, J. Cioslowski, 
 and D. J. Fox, Gaussian, Inc., Wallingford CT, 2009.
 
 ******************************************
 Gaussian 09:  EM64L-G09RevA.01  8-May-2009
                18-Sep-2015 
 ******************************************
 %mem=3GB
 %nprocshared=2
 Will use up to    2 processors via shared memory.
 -----------------------------------------
 #p B3LYP/6-31G(d) opt=tight int=ultrafine
 -----------------------------------------
 1/7=10,14=-1,18=20,19=15,26=3,38=1/1,3;
 2/9=110,12=2,17=6,18=5,40=1/2;
 3/5=1,6=6,7=1,11=2,16=1,25=1,30=1,71=1,74=-5,75=-5/1,2,3;
 4//1;
 5/5=2,38=5/2;
 6/7=2,8=2,9=2,10=2,28=1/1;
 7//1,2,3,16;
 1/7=10,14=-1,18=20,19=15/3(2);
 2/9=110/2;
 99//99;
 2/9=110/2;
 3/5=1,6=6,7=1,11=2,16=1,25=1,30=1,71=1,74=-5,75=-5/1,2,3;
 4/5=5,16=3/1;
 5/5=2,38=5/2;
 7//1,2,3,16;
 1/7=10,14=-1,18=20,19=15/3(-5);
 2/9=110/2;
 6/7=2,8=2,9=2,10=2,19=2,28=1/1;
 99/9=1/99;
 Leave Link    1 at Fri Sep 18 13:20:31 2015, MaxMem=  402653184 cpu:       0.1
 (Enter /share/apps/g09/l101.exe)
 ---------------------------------------------
 using B3LYP/6-31G(d) to do opt and freq calc.
 ---------------------------------------------
 Symbolic Z-matrix:
 Charge =  0 Multiplicity = 1
 C                    -2.58615   0.85713  -0.2584 
 H                    -2.73126   0.71978  -1.33579 
 H                    -1.90825   1.70857  -0.12787 
 H                    -3.55352   1.13664   0.17257 
 C                    -2.03148  -0.40533   0.39816 
 H                    -1.93729  -0.24786   1.49051 
 H                    -2.75865  -1.23269   0.27629 
 C                    -0.67799  -0.83708  -0.18513 
 H                    -0.73579  -0.85603  -1.29045 
 H                    -0.46523  -1.87945   0.1224 
 C                     0.47138   0.07612   0.26137 
 H                     0.52808   0.09818   1.36633 
 H                     0.26424   1.11864  -0.0481 
 C                     1.81546  -0.38318  -0.32106 
 H                     1.75955  -0.40106  -1.42702 
 H                     2.02298  -1.42625  -0.01215 
 C                     2.96246   0.52273   0.1219 
 H                     3.06949   0.53373   1.21247 
 H                     3.91703   0.18748  -0.2984 
 H                     2.80656   1.55802  -0.2018 
 
 NAtoms=     20 NQM=     20 NQMF=      0 NMic=      0 NMicF=      0 NTot=     20.
                    Isotopes and Nuclear Properties:
 (Nuclear quadrupole moments (NQMom) in fm**2, nuclear magnetic moments (NMagM)
  in nuclear magnetons)

  Atom         1           2           3           4           5           6           7           8           9          10
 IAtWgt=          12           1           1           1          12           1           1          12           1           1
 AtmWgt=  12.0000000   1.0078250   1.0078250   1.0078250  12.0000000   1.0078250   1.0078250  12.0000000   1.0078250   1.0078250
 NucSpn=           0           1           1           1           0           1           1           0           1           1
 AtZEff=   0.0000000   0.0000000   0.0000000   0.0000000   0.0000000   0.0000000   0.0000000   0.0000000   0.0000000   0.0000000
 NQMom=    0.0000000   0.0000000   0.0000000   0.0000000   0.0000000   0.0000000   0.0000000   0.0000000   0.0000000   0.0000000
 NMagM=    0.0000000   2.7928460   2.7928460   2.7928460   0.0000000   2.7928460   2.7928460   0.0000000   2.7928460   2.7928460

  Atom        11          12          13          14          15          16          17          18          19          20
 IAtWgt=          12           1           1          12           1           1          12           1           1           1
 AtmWgt=  12.0000000   1.0078250   1.0078250  12.0000000   1.0078250   1.0078250  12.0000000   1.0078250   1.0078250   1.0078250
 NucSpn=           0           1           1           0           1           1           0           1           1           1
 AtZEff=   0.0000000   0.0000000   0.0000000   0.0000000   0.0000000   0.0000000   0.0000000   0.0000000   0.0000000   0.0000000
 NQMom=    0.0000000   0.0000000   0.0000000   0.0000000   0.0000000   0.0000000   0.0000000   0.0000000   0.0000000   0.0000000
 NMagM=    0.0000000   2.7928460   2.7928460   0.0000000   2.7928460   2.7928460   0.0000000   2.7928460   2.7928460   2.7928460
 Leave Link  101 at Fri Sep 18 13:20:31 2015, MaxMem=  402653184 cpu:       0.2
 (Enter /share/apps/g09/l103.exe)

 GradGradGradGradGradGradGradGradGradGradGradGradGradGradGradGradGradGrad
 Berny optimization.
 Initialization pass.
                           ----------------------------
                           !    Initial Parameters    !
                           ! (Angstroms and Degrees)  !
 --------------------------                            --------------------------
 ! Name  Definition              Value          Derivative Info.                !
 --------------------------------------------------------------------------------
 ! R1    R(1,2)                  1.0958         estimate D2E/DX2                !
 ! R2    R(1,3)                  1.0961         estimate D2E/DX2                !
 ! R3    R(1,4)                  1.0953         estimate D2E/DX2                !
 ! R4    R(1,5)                  1.5273         estimate D2E/DX2                !
 ! R5    R(5,6)                  1.1076         estimate D2E/DX2                !
 ! R6    R(5,7)                  1.1082         estimate D2E/DX2                !
 ! R7    R(5,8)                  1.5358         estimate D2E/DX2                !
 ! R8    R(8,9)                  1.107          estimate D2E/DX2                !
 ! R9    R(8,10)                 1.1074         estimate D2E/DX2                !
 ! R10   R(8,11)                 1.5344         estimate D2E/DX2                !
 ! R11   R(11,12)                1.1066         estimate D2E/DX2                !
 ! R12   R(11,13)                1.107          estimate D2E/DX2                !
 ! R13   R(11,14)                1.5352         estimate D2E/DX2                !
 ! R14   R(14,15)                1.1075         estimate D2E/DX2                !
 ! R15   R(14,16)                1.1075         estimate D2E/DX2                !
 ! R16   R(14,17)                1.5273         estimate D2E/DX2                !
 ! R17   R(17,18)                1.0959         estimate D2E/DX2                !
 ! R18   R(17,19)                1.0956         estimate D2E/DX2                !
 ! R19   R(17,20)                1.0959         estimate D2E/DX2                !
 ! A1    A(2,1,3)              107.2386         estimate D2E/DX2                !
 ! A2    A(2,1,4)              107.5718         estimate D2E/DX2                !
 ! A3    A(2,1,5)              111.5412         estimate D2E/DX2                !
 ! A4    A(3,1,4)              107.5253         estimate D2E/DX2                !
 ! A5    A(3,1,5)              111.4866         estimate D2E/DX2                !
 ! A6    A(4,1,5)              111.2573         estimate D2E/DX2                !
 ! A7    A(1,5,6)              109.7137         estimate D2E/DX2                !
 ! A8    A(1,5,7)              109.3625         estimate D2E/DX2                !
 ! A9    A(1,5,8)              112.9036         estimate D2E/DX2                !
 ! A10   A(6,5,7)              105.6876         estimate D2E/DX2                !
 ! A11   A(6,5,8)              109.851          estimate D2E/DX2                !
 ! A12   A(7,5,8)              109.0648         estimate D2E/DX2                !
 ! A13   A(5,8,9)              109.7568         estimate D2E/DX2                !
 ! A14   A(5,8,10)             109.1753         estimate D2E/DX2                !
 ! A15   A(5,8,11)             112.4785         estimate D2E/DX2                !
 ! A16   A(9,8,10)             105.7353         estimate D2E/DX2                !
 ! A17   A(9,8,11)             109.8681         estimate D2E/DX2                !
 ! A18   A(10,8,11)            109.6016         estimate D2E/DX2                !
 ! A19   A(8,11,12)            109.9252         estimate D2E/DX2                !
 ! A20   A(8,11,13)            109.814          estimate D2E/DX2                !
 ! A21   A(8,11,14)            111.5535         estimate D2E/DX2                !
 ! A22   A(12,11,13)           105.6604         estimate D2E/DX2                !
 ! A23   A(12,11,14)           109.8726         estimate D2E/DX2                !
 ! A24   A(13,11,14)           109.8475         estimate D2E/DX2                !
 ! A25   A(11,14,15)           109.846          estimate D2E/DX2                !
 ! A26   A(11,14,16)           109.8786         estimate D2E/DX2                !
 ! A27   A(11,14,17)           111.7177         estimate D2E/DX2                !
 ! A28   A(15,14,16)           105.8309         estimate D2E/DX2                !
 ! A29   A(15,14,17)           109.7011         estimate D2E/DX2                !
 ! A30   A(16,14,17)           109.6966         estimate D2E/DX2                !
 ! A31   A(14,17,18)           111.5883         estimate D2E/DX2                !
 ! A32   A(14,17,19)           111.1979         estimate D2E/DX2                !
 ! A33   A(14,17,20)           111.5842         estimate D2E/DX2                !
 ! A34   A(18,17,19)           107.4429         estimate D2E/DX2                !
 ! A35   A(18,17,20)           107.3597         estimate D2E/DX2                !
 ! A36   A(19,17,20)           107.4414         estimate D2E/DX2                !
 ! D1    D(2,1,5,6)           -177.6125         estimate D2E/DX2                !
 ! D2    D(2,1,5,7)            -62.1217         estimate D2E/DX2                !
 ! D3    D(2,1,5,8)             59.501          estimate D2E/DX2                !
 ! D4    D(3,1,5,6)             62.5338         estimate D2E/DX2                !
 ! D5    D(3,1,5,7)            178.0246         estimate D2E/DX2                !
 ! D6    D(3,1,5,8)            -60.3527         estimate D2E/DX2                !
 ! D7    D(4,1,5,6)            -57.4913         estimate D2E/DX2                !
 ! D8    D(4,1,5,7)             57.9995         estimate D2E/DX2                !
 ! D9    D(4,1,5,8)            179.6222         estimate D2E/DX2                !
 ! D10   D(1,5,8,9)            -49.2758         estimate D2E/DX2                !
 ! D11   D(1,5,8,10)          -164.7424         estimate D2E/DX2                !
 ! D12   D(1,5,8,11)            73.3683         estimate D2E/DX2                !
 ! D13   D(6,5,8,9)           -172.0859         estimate D2E/DX2                !
 ! D14   D(6,5,8,10)            72.4476         estimate D2E/DX2                !
 ! D15   D(6,5,8,11)           -49.4417         estimate D2E/DX2                !
 ! D16   D(7,5,8,9)             72.5148         estimate D2E/DX2                !
 ! D17   D(7,5,8,10)           -42.9518         estimate D2E/DX2                !
 ! D18   D(7,5,8,11)          -164.8411         estimate D2E/DX2                !
 ! D19   D(5,8,11,12)           57.2476         estimate D2E/DX2                !
 ! D20   D(5,8,11,13)          -58.5883         estimate D2E/DX2                !
 ! D21   D(5,8,11,14)          179.3841         estimate D2E/DX2                !
 ! D22   D(9,8,11,12)          179.8291         estimate D2E/DX2                !
 ! D23   D(9,8,11,13)           63.9931         estimate D2E/DX2                !
 ! D24   D(9,8,11,14)          -58.0344         estimate D2E/DX2                !
 ! D25   D(10,8,11,12)         -64.3994         estimate D2E/DX2                !
 ! D26   D(10,8,11,13)         179.7646         estimate D2E/DX2                !
 ! D27   D(10,8,11,14)          57.7371         estimate D2E/DX2                !
 ! D28   D(8,11,14,15)          58.0672         estimate D2E/DX2                !
 ! D29   D(8,11,14,16)         -57.9666         estimate D2E/DX2                !
 ! D30   D(8,11,14,17)        -179.9582         estimate D2E/DX2                !
 ! D31   D(12,11,14,15)       -179.7659         estimate D2E/DX2                !
 ! D32   D(12,11,14,16)         64.2002         estimate D2E/DX2                !
 ! D33   D(12,11,14,17)        -57.7914         estimate D2E/DX2                !
 ! D34   D(13,11,14,15)        -63.941          estimate D2E/DX2                !
 ! D35   D(13,11,14,16)       -179.9749         estimate D2E/DX2                !
 ! D36   D(13,11,14,17)         58.0336         estimate D2E/DX2                !
 ! D37   D(11,14,17,18)         60.0554         estimate D2E/DX2                !
 ! D38   D(11,14,17,19)       -179.9958         estimate D2E/DX2                !
 ! D39   D(11,14,17,20)        -60.0515         estimate D2E/DX2                !
 ! D40   D(15,14,17,18)       -177.8868         estimate D2E/DX2                !
 ! D41   D(15,14,17,19)        -57.9379         estimate D2E/DX2                !
 ! D42   D(15,14,17,20)         62.0063         estimate D2E/DX2                !
 ! D43   D(16,14,17,18)        -62.0408         estimate D2E/DX2                !
 ! D44   D(16,14,17,19)         57.908          estimate D2E/DX2                !
 ! D45   D(16,14,17,20)        177.8523         estimate D2E/DX2                !
 --------------------------------------------------------------------------------
 Trust Radius=3.00D-01 FncErr=1.00D-07 GrdErr=1.00D-06
 Number of steps in this run= 110 maximum allowed number of steps= 120.
 GradGradGradGradGradGradGradGradGradGradGradGradGradGradGradGradGradGrad

 Leave Link  103 at Fri Sep 18 13:20:31 2015, MaxMem=  402653184 cpu:       0.0
 (Enter /share/apps/g09/l202.exe)
                          Input orientation:                          
 ---------------------------------------------------------------------
 Center     Atomic      Atomic             Coordinates (Angstroms)
 Number     Number       Type             X           Y           Z
 ---------------------------------------------------------------------
      1          6           0       -2.586150    0.857128   -0.258401
      2          1           0       -2.731262    0.719780   -1.335794
      3          1           0       -1.908252    1.708567   -0.127865
      4          1           0       -3.553523    1.136642    0.172568
      5          6           0       -2.031483   -0.405334    0.398161
      6          1           0       -1.937288   -0.247862    1.490506
      7          1           0       -2.758654   -1.232693    0.276286
      8          6           0       -0.677987   -0.837078   -0.185128
      9          1           0       -0.735785   -0.856034   -1.290449
     10          1           0       -0.465231   -1.879449    0.122402
     11          6           0        0.471381    0.076121    0.261368
     12          1           0        0.528075    0.098181    1.366327
     13          1           0        0.264243    1.118640   -0.048097
     14          6           0        1.815457   -0.383183   -0.321062
     15          1           0        1.759551   -0.401058   -1.427019
     16          1           0        2.022983   -1.426253   -0.012152
     17          6           0        2.962460    0.522732    0.121898
     18          1           0        3.069488    0.533727    1.212467
     19          1           0        3.917028    0.187482   -0.298395
     20          1           0        2.806562    1.558023   -0.201798
 ---------------------------------------------------------------------
                    Distance matrix (angstroms):
                    1          2          3          4          5
     1  C    0.000000
     2  H    1.095763   0.000000
     3  H    1.096145   1.764692   0.000000
     4  H    1.095296   1.767779   1.767562   0.000000
     5  C    1.527265   2.182240   2.181849   2.178345   0.000000
     6  H    2.168110   3.091067   2.539209   2.503203   1.107650
     7  H    2.164024   2.532134   3.088289   2.501264   1.108221
     8  C    2.552800   2.822017   2.827921   3.506027   1.535767
     9  H    2.724683   2.543064   3.050157   3.748443   2.175630
    10  H    3.483125   3.743958   3.875410   4.317044   2.168456
    11  C    3.198223   3.636227   2.911878   4.163225   2.552418
    12  H    3.593625   4.279150   3.280494   4.377545   2.782483
    13  H    2.870080   3.284860   2.252579   3.824180   2.791416
    14  C    4.573450   4.787365   4.275366   5.601739   3.913658
    15  H    4.672667   4.629471   4.426183   5.757773   4.207522
    16  H    5.149619   5.381480   5.029423   6.140030   4.201110
    17  C    5.571671   5.880660   5.019205   6.545035   5.086953
    18  H    5.852716   6.338529   5.287214   6.731209   5.250222
    19  H    6.537687   6.749763   6.023011   7.545319   6.018422
    20  H    5.438364   5.714551   4.717796   6.385013   5.255607
                    6          7          8          9         10
     6  H    0.000000
     7  H    1.766031   0.000000
     8  C    2.177330   2.167623   0.000000
     9  H    3.089853   2.586219   1.106993   0.000000
    10  H    2.588578   2.387836   1.107419   1.765425   0.000000
    11  C    2.723496   3.485160   1.534385   2.175844   2.172742
    12  H    2.492625   3.709717   2.176306   3.092948   2.538706
    13  H    3.013530   3.843423   2.175180   2.538273   3.090265
    14  C    4.169315   4.690521   2.538063   2.769862   2.763514
    15  H    4.711904   4.899698   2.770198   2.540149   3.088042
    16  H    4.396627   4.794238   2.769889   3.093541   2.532726
    17  C    5.145331   5.986359   3.898231   4.191985   4.185635
    18  H    5.075036   6.161486   4.227996   4.761946   4.416548
    19  H    6.136995   6.849225   4.709216   4.870500   4.863483
    20  H    5.350629   6.244060   4.228341   4.422788   4.756674
                   11         12         13         14         15
    11  C    0.000000
    12  H    1.106632   0.000000
    13  H    1.107032   1.763956   0.000000
    14  C    1.535163   2.176315   2.176292   0.000000
    15  H    2.176633   3.093308   2.539066   1.107513   0.000000
    16  H    2.177019   2.541427   3.093693   1.107469   1.766995
    17  C    2.534638   2.766781   2.768462   1.527256   2.167838
    18  H    2.804310   2.583051   3.130582   2.182895   3.091382
    19  H    3.492595   3.776808   3.777902   2.177791   2.504971
    20  H    2.804216   3.127564   2.584583   2.182841   2.536808
                   16         17         18         19         20
    16  H    0.000000
    17  C    2.167747   0.000000
    18  H    2.537003   1.095863   0.000000
    19  H    2.504692   1.095554   1.766611   0.000000
    20  H    3.091256   1.095861   1.765916   1.766592   0.000000
 Stoichiometry    C6H14
 Framework group  C1[X(C6H14)]
 Deg. of freedom    54
 Full point group                 C1      NOp   1
 Largest Abelian subgroup         C1      NOp   1
 Largest concise Abelian subgroup C1      NOp   1
                         Standard orientation:                         
 ---------------------------------------------------------------------
 Center     Atomic      Atomic             Coordinates (Angstroms)
 Number     Number       Type             X           Y           Z
 ---------------------------------------------------------------------
      1          6           0       -2.586150    0.857128   -0.258401
      2          1           0       -2.731262    0.719780   -1.335794
      3          1           0       -1.908252    1.708567   -0.127865
      4          1           0       -3.553523    1.136642    0.172568
      5          6           0       -2.031483   -0.405334    0.398161
      6          1           0       -1.937288   -0.247862    1.490506
      7          1           0       -2.758654   -1.232693    0.276286
      8          6           0       -0.677987   -0.837078   -0.185128
      9          1           0       -0.735785   -0.856034   -1.290449
     10          1           0       -0.465231   -1.879449    0.122402
     11          6           0        0.471381    0.076121    0.261368
     12          1           0        0.528075    0.098181    1.366327
     13          1           0        0.264243    1.118640   -0.048097
     14          6           0        1.815457   -0.383183   -0.321062
     15          1           0        1.759551   -0.401058   -1.427019
     16          1           0        2.022983   -1.426253   -0.012152
     17          6           0        2.962460    0.522732    0.121898
     18          1           0        3.069488    0.533727    1.212467
     19          1           0        3.917028    0.187482   -0.298395
     20          1           0        2.806562    1.558023   -0.201798
 ---------------------------------------------------------------------
 Rotational constants (GHZ):      8.7201232      1.3433670      1.2613740
 Leave Link  202 at Fri Sep 18 13:20:31 2015, MaxMem=  402653184 cpu:       0.0
 (Enter /share/apps/g09/l301.exe)
 Standard basis: 6-31G(d) (6D, 7F)
 Ernie: Thresh=  0.10000D-02 Tol=  0.10000D-05 Strict=F.
 There are   118 symmetry adapted basis functions of A   symmetry.
 Integral buffers will be    131072 words long.
 Raffenetti 2 integral format.
 Two-electron integral symmetry is turned on.
   118 basis functions,   224 primitive gaussians,   118 cartesian basis functions
    25 alpha electrons       25 beta electrons
       nuclear repulsion energy       247.0955255320 Hartrees.
 IExCor=  402 DFT=T Ex+Corr=B3LYP ExCW=0 ScaHFX=  0.200000
 ScaDFX=  0.800000  0.720000  1.000000  0.810000 ScalE2=  1.000000  1.000000
 IRadAn=      5 IRanWt=     -1 IRanGd=            0 ICorTp=0
 NAtoms=   20 NActive=   20 NUniq=   20 SFac= 7.50D-01 NAtFMM=   80 NAOKFM=F Big=F
 Leave Link  301 at Fri Sep 18 13:20:31 2015, MaxMem=  402653184 cpu:       0.1
 (Enter /share/apps/g09/l302.exe)
 NPDir=0 NMtPBC=     1 NCelOv=     1 NCel=       1 NClECP=     1 NCelD=      1
         NCelK=      1 NCelE2=     1 NClLst=     1 CellRange=     0.0.
 One-electron integrals computed using PRISM.
 NBasis=   118 RedAO= T  NBF=   118
 NBsUse=   118 1.00D-06 NBFU=   118
 Precomputing XC quadrature grid using
 IXCGrd= 2 IRadAn=           5 IRanWt=          -1 IRanGd=           0 AccXCQ= 1.00D-10.
 NRdTot=    1655 NPtTot=      442746 NUsed=      454604 NTot=      454636
 NSgBfM=   118   118   118   118   118 NAtAll=    20    20.
 Leave Link  302 at Fri Sep 18 13:20:32 2015, MaxMem=  402653184 cpu:       1.2
 (Enter /share/apps/g09/l303.exe)
 DipDrv:  MaxL=1.
 Leave Link  303 at Fri Sep 18 13:20:32 2015, MaxMem=  402653184 cpu:       0.1
 (Enter /share/apps/g09/l401.exe)
 Harris functional with IExCor=  402 diagonalized for initial guess.
 ExpMin= 1.61D-01 ExpMax= 3.05D+03 ExpMxC= 4.57D+02 IAcc=3 IRadAn=         5 AccDes= 0.00D+00
 HarFok:  IExCor=  402 AccDes= 0.00D+00 IRadAn=         5 IDoV= 1
 ScaDFX=  1.000000  1.000000  1.000000  1.000000
 FoFCou: FMM=F IPFlag=           0 FMFlag=      100000 FMFlg1=           0
         NFxFlg=           0 DoJE=T BraDBF=F KetDBF=T FulRan=T
         Omega=  0.000000  0.000000  1.000000  0.000000  0.000000 ICntrl=     500 IOpCl=  0
         NMat0=    1 NMatS0=    1 NMatT0=    0 NMatD0=    1 NMtDS0=    0 NMtDT0=    0
         I1Cent=           4 NGrid=           0.
 Petite list used in FoFCou.
 Harris En= -237.178911915765    
 Initial guess orbital symmetries:
       Occupied  (A) (A) (A) (A) (A) (A) (A) (A) (A) (A) (A) (A)
                 (A) (A) (A) (A) (A) (A) (A) (A) (A) (A) (A) (A)
                 (A)
       Virtual   (A) (A) (A) (A) (A) (A) (A) (A) (A) (A) (A) (A)
                 (A) (A) (A) (A) (A) (A) (A) (A) (A) (A) (A) (A)
                 (A) (A) (A) (A) (A) (A) (A) (A) (A) (A) (A) (A)
                 (A) (A) (A) (A) (A) (A) (A) (A) (A) (A) (A) (A)
                 (A) (A) (A) (A) (A) (A) (A) (A) (A) (A) (A) (A)
                 (A) (A) (A) (A) (A) (A) (A) (A) (A) (A) (A) (A)
                 (A) (A) (A) (A) (A) (A) (A) (A) (A) (A) (A) (A)
                 (A) (A) (A) (A) (A) (A) (A) (A) (A)
 The electronic state of the initial guess is 1-A.
 Leave Link  401 at Fri Sep 18 13:20:37 2015, MaxMem=  402653184 cpu:       9.8
 (Enter /share/apps/g09/l502.exe)
 Closed shell SCF:
 Requested convergence on RMS density matrix=1.00D-08 within 128 cycles.
 Requested convergence on MAX density matrix=1.00D-06.
 Requested convergence on             energy=1.00D-06.
 No special actions if energy rises.
 Using DIIS extrapolation, IDIIS=  1040.
 Integral symmetry usage will be decided dynamically.
       454411 words used for storage of precomputed grid.
 Keep R1 ints in memory in canonical form, NReq=26108466.
 IEnd=      515955 IEndB=      515955 NGot=   402653184 MDV=   377517153
 LenX=   377517153 LenY=   377502788
 Symmetry not used in FoFDir.
 MinBra= 0 MaxBra= 2 Meth= 1.
 IRaf=       0 NMat=   1 IRICut=       1 DoRegI=T DoRafI=F ISym2E= 0 JSym2E=0.
 Integral accuracy reduced to 1.0D-05 until final iterations.

 Cycle   1  Pass 0  IDiag  1:
 E= -236.793199008944    
 DIIS: error= 4.70D-02 at cycle   1 NSaved=   1.
 NSaved= 1 IEnMin= 1 EnMin= -236.793199008944     IErMin= 1 ErrMin= 4.70D-02
 ErrMax= 4.70D-02 EMaxC= 1.00D-01 BMatC= 2.54D-01 BMatP= 2.54D-01
 IDIUse=3 WtCom= 5.30D-01 WtEn= 4.70D-01
 Coeff-Com:  0.100D+01
 Coeff-En:   0.100D+01
 Coeff:      0.100D+01
 Gap=     0.359 Goal=   None    Shift=    0.000
 GapD=    0.359 DampG=1.000 DampE=0.500 DampFc=0.5000 IDamp=-1.
 Damping current iteration by 5.00D-01
 RMSDP=1.01D-02 MaxDP=1.48D-01              OVMax= 1.85D-01

 Cycle   2  Pass 0  IDiag  1:
 E= -236.920675787882     Delta-E=       -0.127476778938 Rises=F Damp=T
 DIIS: error= 8.80D-03 at cycle   2 NSaved=   2.
 NSaved= 2 IEnMin= 2 EnMin= -236.920675787882     IErMin= 2 ErrMin= 8.80D-03
 ErrMax= 8.80D-03 EMaxC= 1.00D-01 BMatC= 9.82D-03 BMatP= 2.54D-01
 IDIUse=3 WtCom= 9.12D-01 WtEn= 8.80D-02
 Coeff-Com:  0.865D-01 0.914D+00
 Coeff-En:   0.140D+00 0.860D+00
 Coeff:      0.912D-01 0.909D+00
 Gap=     0.397 Goal=   None    Shift=    0.000
 RMSDP=1.47D-03 MaxDP=2.48D-02 DE=-1.27D-01 OVMax= 9.80D-02

 Cycle   3  Pass 0  IDiag  1:
 E= -237.082227366361     Delta-E=       -0.161551578479 Rises=F Damp=F
 DIIS: error= 1.83D-03 at cycle   3 NSaved=   3.
 NSaved= 3 IEnMin= 3 EnMin= -237.082227366361     IErMin= 3 ErrMin= 1.83D-03
 ErrMax= 1.83D-03 EMaxC= 1.00D-01 BMatC= 6.51D-04 BMatP= 9.82D-03
 IDIUse=3 WtCom= 9.82D-01 WtEn= 1.83D-02
 Coeff-Com:  0.588D-02 0.149D+00 0.845D+00
 Coeff-En:   0.000D+00 0.000D+00 0.100D+01
 Coeff:      0.577D-02 0.146D+00 0.848D+00
 Gap=     0.390 Goal=   None    Shift=    0.000
 RMSDP=3.82D-04 MaxDP=6.08D-03 DE=-1.62D-01 OVMax= 7.04D-03

 Cycle   4  Pass 0  IDiag  1:
 E= -237.082679185602     Delta-E=       -0.000451819241 Rises=F Damp=F
 DIIS: error= 7.61D-04 at cycle   4 NSaved=   4.
 NSaved= 4 IEnMin= 4 EnMin= -237.082679185602     IErMin= 4 ErrMin= 7.61D-04
 ErrMax= 7.61D-04 EMaxC= 1.00D-01 BMatC= 2.04D-04 BMatP= 6.51D-04
 IDIUse=3 WtCom= 9.92D-01 WtEn= 7.61D-03
 Coeff-Com:  0.270D-03 0.209D-01 0.361D+00 0.618D+00
 Coeff-En:   0.000D+00 0.000D+00 0.169D+00 0.831D+00
 Coeff:      0.268D-03 0.207D-01 0.359D+00 0.620D+00
 Gap=     0.391 Goal=   None    Shift=    0.000
 RMSDP=1.49D-04 MaxDP=2.67D-03 DE=-4.52D-04 OVMax= 3.25D-03

 Cycle   5  Pass 0  IDiag  1:
 E= -237.082868721964     Delta-E=       -0.000189536362 Rises=F Damp=F
 DIIS: error= 2.20D-04 at cycle   5 NSaved=   5.
 NSaved= 5 IEnMin= 5 EnMin= -237.082868721964     IErMin= 5 ErrMin= 2.20D-04
 ErrMax= 2.20D-04 EMaxC= 1.00D-01 BMatC= 1.85D-05 BMatP= 2.04D-04
 IDIUse=3 WtCom= 9.98D-01 WtEn= 2.20D-03
 Coeff-Com:  0.135D-03-0.117D-02 0.110D+00 0.296D+00 0.595D+00
 Coeff-En:   0.000D+00 0.000D+00 0.000D+00 0.000D+00 0.100D+01
 Coeff:      0.135D-03-0.117D-02 0.110D+00 0.295D+00 0.596D+00
 Gap=     0.391 Goal=   None    Shift=    0.000
 RMSDP=3.45D-05 MaxDP=7.25D-04 DE=-1.90D-04 OVMax= 7.61D-04

 Cycle   6  Pass 0  IDiag  1:
 E= -237.082886508918     Delta-E=       -0.000017786954 Rises=F Damp=F
 DIIS: error= 3.37D-05 at cycle   6 NSaved=   6.
 NSaved= 6 IEnMin= 6 EnMin= -237.082886508918     IErMin= 6 ErrMin= 3.37D-05
 ErrMax= 3.37D-05 EMaxC= 1.00D-01 BMatC= 2.46D-07 BMatP= 1.85D-05
 IDIUse=1 WtCom= 1.00D+00 WtEn= 0.00D+00
 Coeff-Com:  0.141D-03-0.106D-02 0.289D-01 0.873D-01 0.212D+00 0.673D+00
 Coeff:      0.141D-03-0.106D-02 0.289D-01 0.873D-01 0.212D+00 0.673D+00
 Gap=     0.391 Goal=   None    Shift=    0.000
 RMSDP=6.18D-06 MaxDP=9.73D-05 DE=-1.78D-05 OVMax= 1.33D-04

 Initial convergence to 1.0D-05 achieved.  Increase integral accuracy.
 Cycle   7  Pass 1  IDiag  1:
 E= -237.082867514312     Delta-E=        0.000018994607 Rises=F Damp=F
 DIIS: error= 7.34D-06 at cycle   1 NSaved=   1.
 NSaved= 1 IEnMin= 1 EnMin= -237.082867514312     IErMin= 1 ErrMin= 7.34D-06
 ErrMax= 7.34D-06 EMaxC= 1.00D-01 BMatC= 1.90D-08 BMatP= 1.90D-08
 IDIUse=1 WtCom= 1.00D+00 WtEn= 0.00D+00
 Coeff-Com:  0.100D+01
 Coeff:      0.100D+01
 Gap=     0.391 Goal=   None    Shift=    0.000
 RMSDP=6.18D-06 MaxDP=9.73D-05 DE= 1.90D-05 OVMax= 4.88D-05

 Cycle   8  Pass 1  IDiag  1:
 E= -237.082867513880     Delta-E=        0.000000000432 Rises=F Damp=F
 DIIS: error= 9.39D-06 at cycle   2 NSaved=   2.
 NSaved= 2 IEnMin= 1 EnMin= -237.082867514312     IErMin= 1 ErrMin= 7.34D-06
 ErrMax= 9.39D-06 EMaxC= 1.00D-01 BMatC= 2.17D-08 BMatP= 1.90D-08
 IDIUse=1 WtCom= 1.00D+00 WtEn= 0.00D+00
 Coeff-Com:  0.518D+00 0.482D+00
 Coeff:      0.518D+00 0.482D+00
 Gap=     0.391 Goal=   None    Shift=    0.000
 RMSDP=1.13D-06 MaxDP=2.80D-05 DE= 4.32D-10 OVMax= 2.75D-05

 Cycle   9  Pass 1  IDiag  1:
 E= -237.082867534524     Delta-E=       -0.000000020644 Rises=F Damp=F
 DIIS: error= 8.50D-07 at cycle   3 NSaved=   3.
 NSaved= 3 IEnMin= 3 EnMin= -237.082867534524     IErMin= 3 ErrMin= 8.50D-07
 ErrMax= 8.50D-07 EMaxC= 1.00D-01 BMatC= 1.93D-10 BMatP= 1.90D-08
 IDIUse=1 WtCom= 1.00D+00 WtEn= 0.00D+00
 Coeff-Com:  0.248D-01 0.912D-01 0.884D+00
 Coeff:      0.248D-01 0.912D-01 0.884D+00
 Gap=     0.391 Goal=   None    Shift=    0.000
 RMSDP=1.53D-07 MaxDP=3.13D-06 DE=-2.06D-08 OVMax= 2.89D-06

 Cycle  10  Pass 1  IDiag  1:
 E= -237.082867534691     Delta-E=       -0.000000000168 Rises=F Damp=F
 DIIS: error= 3.04D-07 at cycle   4 NSaved=   4.
 NSaved= 4 IEnMin= 4 EnMin= -237.082867534691     IErMin= 4 ErrMin= 3.04D-07
 ErrMax= 3.04D-07 EMaxC= 1.00D-01 BMatC= 2.51D-11 BMatP= 1.93D-10
 IDIUse=1 WtCom= 1.00D+00 WtEn= 0.00D+00
 Coeff-Com: -0.994D-02 0.195D-01 0.369D+00 0.622D+00
 Coeff:     -0.994D-02 0.195D-01 0.369D+00 0.622D+00
 Gap=     0.391 Goal=   None    Shift=    0.000
 RMSDP=5.37D-08 MaxDP=8.32D-07 DE=-1.68D-10 OVMax= 1.06D-06

 Cycle  11  Pass 1  IDiag  1:
 E= -237.082867534716     Delta-E=       -0.000000000024 Rises=F Damp=F
 DIIS: error= 7.41D-08 at cycle   5 NSaved=   5.
 NSaved= 5 IEnMin= 5 EnMin= -237.082867534716     IErMin= 5 ErrMin= 7.41D-08
 ErrMax= 7.41D-08 EMaxC= 1.00D-01 BMatC= 2.04D-12 BMatP= 2.51D-11
 IDIUse=1 WtCom= 1.00D+00 WtEn= 0.00D+00
 Coeff-Com: -0.574D-02 0.561D-02 0.139D+00 0.309D+00 0.552D+00
 Coeff:     -0.574D-02 0.561D-02 0.139D+00 0.309D+00 0.552D+00
 Gap=     0.391 Goal=   None    Shift=    0.000
 RMSDP=1.29D-08 MaxDP=2.48D-07 DE=-2.44D-11 OVMax= 2.62D-07

 Cycle  12  Pass 1  IDiag  1:
 E= -237.082867534719     Delta-E=       -0.000000000003 Rises=F Damp=F
 DIIS: error= 1.27D-08 at cycle   6 NSaved=   6.
 NSaved= 6 IEnMin= 6 EnMin= -237.082867534719     IErMin= 6 ErrMin= 1.27D-08
 ErrMax= 1.27D-08 EMaxC= 1.00D-01 BMatC= 2.43D-14 BMatP= 2.04D-12
 IDIUse=1 WtCom= 1.00D+00 WtEn= 0.00D+00
 Coeff-Com: -0.112D-02 0.596D-03 0.203D-01 0.543D-01 0.144D+00 0.782D+00
 Coeff:     -0.112D-02 0.596D-03 0.203D-01 0.543D-01 0.144D+00 0.782D+00
 Gap=     0.391 Goal=   None    Shift=    0.000
 RMSDP=2.19D-09 MaxDP=3.05D-08 DE=-2.84D-12 OVMax= 3.79D-08

 SCF Done:  E(RB3LYP) =  -237.082867535     A.U. after   12 cycles
             Convg  =    0.2187D-08             -V/T =  2.0107
 KE= 2.345844076948D+02 PE=-1.041092614846D+03 EE= 3.223298140841D+02
 Leave Link  502 at Fri Sep 18 13:21:26 2015, MaxMem=  402653184 cpu:      98.5
 (Enter /share/apps/g09/l601.exe)
 Copying SCF densities to generalized density rwf, IOpCl= 0 IROHF=0.

 **********************************************************************

            Population analysis using the SCF density.

 **********************************************************************

 Orbital symmetries:
       Occupied  (A) (A) (A) (A) (A) (A) (A) (A) (A) (A) (A) (A)
                 (A) (A) (A) (A) (A) (A) (A) (A) (A) (A) (A) (A)
                 (A)
       Virtual   (A) (A) (A) (A) (A) (A) (A) (A) (A) (A) (A) (A)
                 (A) (A) (A) (A) (A) (A) (A) (A) (A) (A) (A) (A)
                 (A) (A) (A) (A) (A) (A) (A) (A) (A) (A) (A) (A)
                 (A) (A) (A) (A) (A) (A) (A) (A) (A) (A) (A) (A)
                 (A) (A) (A) (A) (A) (A) (A) (A) (A) (A) (A) (A)
                 (A) (A) (A) (A) (A) (A) (A) (A) (A) (A) (A) (A)
                 (A) (A) (A) (A) (A) (A) (A) (A) (A) (A) (A) (A)
                 (A) (A) (A) (A) (A) (A) (A) (A) (A)
 The electronic state is 1-A.
 Alpha  occ. eigenvalues --  -10.17720 -10.17674 -10.17483 -10.17457 -10.16870
 Alpha  occ. eigenvalues --  -10.16854  -0.79983  -0.76043  -0.69991  -0.63701
 Alpha  occ. eigenvalues --   -0.58066  -0.56220  -0.46614  -0.44586  -0.43027
 Alpha  occ. eigenvalues --   -0.40692  -0.40482  -0.38013  -0.36351  -0.35340
 Alpha  occ. eigenvalues --   -0.33745  -0.32747  -0.32085  -0.31249  -0.29882
 Alpha virt. eigenvalues --    0.09176   0.10594   0.11694   0.12390   0.14649
 Alpha virt. eigenvalues --    0.15993   0.16317   0.17318   0.17918   0.19063
 Alpha virt. eigenvalues --    0.19189   0.19803   0.20467   0.22398   0.23344
 Alpha virt. eigenvalues --    0.26149   0.26650   0.28100   0.29017   0.50463
 Alpha virt. eigenvalues --    0.50923   0.51503   0.53804   0.55228   0.55853
 Alpha virt. eigenvalues --    0.58736   0.62345   0.64483   0.65889   0.68425
 Alpha virt. eigenvalues --    0.69564   0.71327   0.77864   0.78358   0.80485
 Alpha virt. eigenvalues --    0.84351   0.85815   0.87247   0.88653   0.89860
 Alpha virt. eigenvalues --    0.90479   0.91584   0.93514   0.93795   0.94816
 Alpha virt. eigenvalues --    0.95542   0.97181   0.98175   1.00078   1.02252
 Alpha virt. eigenvalues --    1.04617   1.14015   1.23805   1.40019   1.42389
 Alpha virt. eigenvalues --    1.44435   1.50841   1.54438   1.59782   1.67504
 Alpha virt. eigenvalues --    1.72043   1.79966   1.80805   1.87493   1.91053
 Alpha virt. eigenvalues --    1.92841   1.94799   1.96899   1.99247   2.01682
 Alpha virt. eigenvalues --    2.03335   2.06225   2.14170   2.21950   2.24010
 Alpha virt. eigenvalues --    2.26868   2.32081   2.33472   2.36791   2.41297
 Alpha virt. eigenvalues --    2.42561   2.45745   2.56638   2.58226   2.64645
 Alpha virt. eigenvalues --    2.74297   2.81609   4.11708   4.19044   4.29202
 Alpha virt. eigenvalues --    4.38415   4.45680   4.56076
          Condensed to atoms (all electrons):
              1          2          3          4          5          6
     1  C    5.066752   0.377618   0.378292   0.372474   0.379392  -0.040225
     2  H    0.377618   0.579402  -0.033541  -0.031255  -0.034983   0.005271
     3  H    0.378292  -0.033541   0.575559  -0.030727  -0.037107  -0.004361
     4  H    0.372474  -0.031255  -0.030727   0.579156  -0.029071  -0.002716
     5  C    0.379392  -0.034983  -0.037107  -0.029071   4.966022   0.375840
     6  H   -0.040225   0.005271  -0.004361  -0.002716   0.375840   0.614554
     7  H   -0.038947  -0.004508   0.005326  -0.003111   0.370842  -0.038785
     8  C   -0.046936  -0.004863  -0.004599   0.004533   0.374335  -0.039693
     9  H   -0.007425   0.005729  -0.000032   0.000049  -0.039466   0.005612
    10  H    0.005053   0.000044  -0.000011  -0.000175  -0.034169  -0.001334
    11  C   -0.005357  -0.000293   0.002352   0.000098  -0.041338  -0.007988
    12  H   -0.000259   0.000040   0.000252  -0.000020  -0.003881   0.006027
    13  H    0.001965   0.000230   0.003764  -0.000129  -0.003369  -0.000152
    14  C    0.000126  -0.000016  -0.000152   0.000000   0.003918   0.000104
    15  H   -0.000007  -0.000003   0.000014   0.000000   0.000065   0.000007
    16  H   -0.000002   0.000001   0.000000   0.000000   0.000011   0.000008
    17  C    0.000002   0.000000   0.000008   0.000000  -0.000150  -0.000002
    18  H    0.000000   0.000000   0.000001   0.000000   0.000001  -0.000002
    19  H    0.000000   0.000000   0.000000   0.000000   0.000002   0.000000
    20  H   -0.000003   0.000000  -0.000004   0.000000   0.000002   0.000001
              7          8          9         10         11         12
     1  C   -0.038947  -0.046936  -0.007425   0.005053  -0.005357  -0.000259
     2  H   -0.004508  -0.004863   0.005729   0.000044  -0.000293   0.000040
     3  H    0.005326  -0.004599  -0.000032  -0.000011   0.002352   0.000252
     4  H   -0.003111   0.004533   0.000049  -0.000175   0.000098  -0.000020
     5  C    0.370842   0.374335  -0.039466  -0.034169  -0.041338  -0.003881
     6  H   -0.038785  -0.039693   0.005612  -0.001334  -0.007988   0.006027
     7  H    0.618291  -0.033635  -0.001265  -0.005082   0.004695   0.000048
     8  C   -0.033635   4.993079   0.371718   0.369681   0.384168  -0.038639
     9  H   -0.001265   0.371718   0.617659  -0.039418  -0.040219   0.005653
    10  H   -0.005082   0.369681  -0.039418   0.617813  -0.038608  -0.005113
    11  C    0.004695   0.384168  -0.040219  -0.038608   4.985477   0.371999
    12  H    0.000048  -0.038639   0.005653  -0.005113   0.371999   0.616332
    13  H   -0.000013  -0.040360  -0.005159   0.005659   0.373352  -0.041605
    14  C   -0.000152  -0.039302  -0.003559  -0.004214   0.386046  -0.038782
    15  H    0.000004  -0.003455   0.005032  -0.000435  -0.039055   0.005604
    16  H   -0.000004  -0.003519  -0.000434   0.005244  -0.039237  -0.005259
    17  C    0.000002   0.003942   0.000043   0.000055  -0.046297  -0.002932
    18  H    0.000000   0.000049   0.000005   0.000004  -0.004768   0.004862
    19  H    0.000000  -0.000151   0.000002   0.000002   0.004448  -0.000033
    20  H    0.000000   0.000050   0.000004   0.000006  -0.004790  -0.000399
             13         14         15         16         17         18
     1  C    0.001965   0.000126  -0.000007  -0.000002   0.000002   0.000000
     2  H    0.000230  -0.000016  -0.000003   0.000001   0.000000   0.000000
     3  H    0.003764  -0.000152   0.000014   0.000000   0.000008   0.000001
     4  H   -0.000129   0.000000   0.000000   0.000000   0.000000   0.000000
     5  C   -0.003369   0.003918   0.000065   0.000011  -0.000150   0.000001
     6  H   -0.000152   0.000104   0.000007   0.000008  -0.000002  -0.000002
     7  H   -0.000013  -0.000152   0.000004  -0.000004   0.000002   0.000000
     8  C   -0.040360  -0.039302  -0.003455  -0.003519   0.003942   0.000049
     9  H   -0.005159  -0.003559   0.005032  -0.000434   0.000043   0.000005
    10  H    0.005659  -0.004214  -0.000435   0.005244   0.000055   0.000004
    11  C    0.373352   0.386046  -0.039055  -0.039237  -0.046297  -0.004768
    12  H   -0.041605  -0.038782   0.005604  -0.005259  -0.002932   0.004862
    13  H    0.611804  -0.038324  -0.005258   0.005550  -0.002646  -0.000406
    14  C   -0.038324   4.952552   0.376276   0.376330   0.370354  -0.034346
    15  H   -0.005258   0.376276   0.613023  -0.040372  -0.038160   0.005202
    16  H    0.005550   0.376330  -0.040372   0.613197  -0.038355  -0.004530
    17  C   -0.002646   0.370354  -0.038160  -0.038355   5.069231   0.378093
    18  H   -0.000406  -0.034346   0.005202  -0.004530   0.378093   0.580081
    19  H   -0.000031  -0.028061  -0.002751  -0.002660   0.370153  -0.031607
    20  H    0.004923  -0.034234  -0.004544   0.005207   0.377892  -0.033404
             19         20
     1  C    0.000000  -0.000003
     2  H    0.000000   0.000000
     3  H    0.000000  -0.000004
     4  H    0.000000   0.000000
     5  C    0.000002   0.000002
     6  H    0.000000   0.000001
     7  H    0.000000   0.000000
     8  C   -0.000151   0.000050
     9  H    0.000002   0.000004
    10  H    0.000002   0.000006
    11  C    0.004448  -0.004790
    12  H   -0.000033  -0.000399
    13  H   -0.000031   0.004923
    14  C   -0.028061  -0.034234
    15  H   -0.002751  -0.004544
    16  H   -0.002660   0.005207
    17  C    0.370153   0.377892
    18  H   -0.031607  -0.033404
    19  H    0.582964  -0.031528
    20  H   -0.031528   0.580070
 Mulliken atomic charges:
              1
     1  C   -0.442515
     2  H    0.141127
     3  H    0.144965
     4  H    0.140894
     5  C   -0.246897
     6  H    0.127833
     7  H    0.126294
     8  C   -0.246402
     9  H    0.125470
    10  H    0.124997
    11  C   -0.244686
    12  H    0.126107
    13  H    0.130206
    14  C   -0.244564
    15  H    0.128812
    16  H    0.128823
    17  C   -0.441232
    18  H    0.140764
    19  H    0.139250
    20  H    0.140753
 Sum of Mulliken atomic charges =   0.00000
 Mulliken charges with hydrogens summed into heavy atoms:
              1
     1  C   -0.015529
     5  C    0.007231
     8  C    0.004065
    11  C    0.011627
    14  C    0.013071
    17  C   -0.020465
 Sum of Mulliken charges with hydrogens summed into heavy atoms =   0.00000
 Electronic spatial extent (au):  <R**2>=           1022.7117
 Charge=              0.0000 electrons
 Dipole moment (field-independent basis, Debye):
    X=             -0.0135    Y=             -0.0414    Z=              0.0009  Tot=              0.0435
 Quadrupole moment (field-independent basis, Debye-Ang):
   XX=            -42.2467   YY=            -41.5980   ZZ=            -41.1563
   XY=             -0.0739   XZ=             -0.0403   YZ=             -0.1080
 Traceless Quadrupole moment (field-independent basis, Debye-Ang):
   XX=             -0.5797   YY=              0.0690   ZZ=              0.5107
   XY=             -0.0739   XZ=             -0.0403   YZ=             -0.1080
 Octapole moment (field-independent basis, Debye-Ang**2):
  XXX=             -1.7301  YYY=             -0.2831  ZZZ=             -0.0031  XYY=              0.3784
  XXY=             -1.7348  XXZ=             -0.2051  XZZ=              0.1538  YZZ=             -0.0500
  YYZ=              0.2000  XYZ=             -0.7185
 Hexadecapole moment (field-independent basis, Debye-Ang**3):
 XXXX=          -1129.1170 YYYY=           -181.9601 ZZZZ=           -104.8747 XXXY=             -4.9242
 XXXZ=             -5.6059 YYYX=              1.8618 YYYZ=             -1.5757 ZZZX=              2.2338
 ZZZY=              0.4880 XXYY=           -220.9724 XXZZ=           -204.8796 YYZZ=            -50.7405
 XXYZ=              1.3671 YYXZ=             -0.8881 ZZXY=             -0.0768
 N-N= 2.470955255320D+02 E-N=-1.041092616269D+03  KE= 2.345844076948D+02
 No NMR shielding tensors so no spin-rotation constants.
 Leave Link  601 at Fri Sep 18 13:21:26 2015, MaxMem=  402653184 cpu:       0.3
 (Enter /share/apps/g09/l701.exe)
 Compute integral first derivatives.
 ... and contract with generalized density number  0.
 Leave Link  701 at Fri Sep 18 13:21:26 2015, MaxMem=  402653184 cpu:       0.3
 (Enter /share/apps/g09/l702.exe)
 L702 exits ... SP integral derivatives will be done elsewhere.
 Leave Link  702 at Fri Sep 18 13:21:26 2015, MaxMem=  402653184 cpu:       0.0
 (Enter /share/apps/g09/l703.exe)
 Compute integral first derivatives, UseDBF=F ICtDFT=           0.
 Integral derivatives from FoFDir, PRISM(SPDF).
 Calling FoFJK, ICntrl=      2127 FMM=F ISym2X=0 I1Cent= 0 IOpClX= 0 NMat=1 NMatS=1 NMatT=0.
 FoFCou: FMM=F IPFlag=           0 FMFlag=      100000 FMFlg1=         800
         NFxFlg=           0 DoJE=F BraDBF=F KetDBF=F FulRan=T
         Omega=  0.000000  0.000000  1.000000  0.000000  0.000000 ICntrl=    2127 IOpCl=  0
         NMat0=    1 NMatS0=    1 NMatT0=    0 NMatD0=    1 NMtDS0=    0 NMtDT0=    0
         I1Cent=           0 NGrid=           0.
 Symmetry not used in FoFCou.
 Leave Link  703 at Fri Sep 18 13:21:37 2015, MaxMem=  402653184 cpu:      21.0
 (Enter /share/apps/g09/l716.exe)
 Dipole        =-5.30214451D-03-1.62835786D-02 3.58231516D-04
 ***** Axes restored to original set *****
 -------------------------------------------------------------------
 Center     Atomic                   Forces (Hartrees/Bohr)
 Number     Number              X              Y              Z
 -------------------------------------------------------------------
      1        6          -0.002142523    0.003405122    0.001293531
      2        1          -0.000009646   -0.001110033   -0.000771106
      3        1          -0.000754303    0.000418253    0.000216801
      4        1          -0.000552428    0.000665249    0.000125011
      5        6          -0.005552914   -0.007485698    0.000743535
      6        1           0.000502415   -0.000996020   -0.005265483
      7        1           0.002960252    0.005007334    0.000226804
      8        6          -0.001748069   -0.002886146    0.004177893
      9        1          -0.000007152    0.000783353    0.004501658
     10        1           0.000522123    0.005296256   -0.000589888
     11        6           0.000411380   -0.002734110   -0.004299744
     12        1          -0.000085789   -0.001580100   -0.004251678
     13        1           0.002543705   -0.005045987    0.000458426
     14        6           0.000929323    0.001080884    0.000191533
     15        1          -0.000509608    0.000607917    0.005295509
     16        1          -0.001796192    0.004987353   -0.000745015
     17        6           0.005480473   -0.000883375   -0.001704818
     18        1          -0.000558046   -0.000428316    0.000819710
     19        1           0.001165020    0.000370238    0.000069298
     20        1          -0.000798019    0.000527825   -0.000491977
 -------------------------------------------------------------------
 Cartesian Forces:  Max     0.007485698 RMS     0.002663668
 Leave Link  716 at Fri Sep 18 13:21:37 2015, MaxMem=  402653184 cpu:       0.1
 (Enter /share/apps/g09/l103.exe)

 GradGradGradGradGradGradGradGradGradGradGradGradGradGradGradGradGradGrad
 Berny optimization.
 Internal  Forces:  Max     0.009023771 RMS     0.002490576
 Search for a local minimum.
 Step number   1 out of a maximum of  110
 All quantities printed in internal units (Hartrees-Bohrs-Radians)
 RMS Force = .24906D-02 SwitMx=.10000D-02 MixMth= 1
 Mixed Optimization -- RFO/linear search
 Second derivative matrix not updated -- first step.
     Eigenvalues ---    0.00293   0.00301   0.00311   0.00405   0.00405
     Eigenvalues ---    0.03459   0.03461   0.03543   0.03573   0.04768
     Eigenvalues ---    0.04785   0.04794   0.04821   0.05446   0.05464
     Eigenvalues ---    0.05479   0.05486   0.08167   0.08211   0.08311
     Eigenvalues ---    0.08405   0.12087   0.12114   0.12195   0.12258
     Eigenvalues ---    0.16000   0.16000   0.16000   0.16000   0.16000
     Eigenvalues ---    0.16000   0.21844   0.21855   0.21869   0.21878
     Eigenvalues ---    0.28897   0.28952   0.29022   0.29677   0.29678
     Eigenvalues ---    0.32789   0.32850   0.32865   0.32869   0.32875
     Eigenvalues ---    0.32916   0.32920   0.32959   0.34112   0.34144
     Eigenvalues ---    0.34144   0.34155   0.34179   0.342081000.00000
     Eigenvalues --- 1000.000001000.000001000.000001000.000001000.00000
     Eigenvalues --- 1000.000001000.000001000.000001000.000001000.00000
     Eigenvalues --- 1000.000001000.000001000.000001000.000001000.00000
     Eigenvalues --- 1000.000001000.000001000.000001000.000001000.00000
     Eigenvalues --- 1000.000001000.000001000.000001000.000001000.00000
     Eigenvalues --- 1000.000001000.000001000.000001000.000001000.00000
     Eigenvalues --- 1000.000001000.000001000.000001000.000001000.00000
     Eigenvalues --- 1000.000001000.000001000.000001000.000001000.00000
     Eigenvalues --- 1000.000001000.000001000.000001000.000001000.00000
 RFO step:  Lambda=-2.63936668D-03 EMin= 2.92818240D-03
 Linear search not attempted -- first point.
 Iteration  1 RMS(Cart)=  0.03957479 RMS(Int)=  0.00043516
 Iteration  2 RMS(Cart)=  0.00070556 RMS(Int)=  0.00008839
 Iteration  3 RMS(Cart)=  0.00000048 RMS(Int)=  0.00008839
 Variable       Old X    -DE/DX   Delta X   Delta X   Delta X     New X
                                 (Linear)    (Quad)   (Total)
    R1        2.07069   0.00090   0.00000   0.00261   0.00261   2.07330
    R2        2.07141  -0.00012   0.00000  -0.00034  -0.00034   2.07107
    R3        2.06981   0.00071   0.00000   0.00205   0.00205   2.07186
    R4        2.88611   0.00367   0.00000   0.01227   0.01227   2.89838
    R5        2.09315  -0.00529   0.00000  -0.01598  -0.01598   2.07717
    R6        2.09423  -0.00570   0.00000  -0.01726  -0.01726   2.07698
    R7        2.90218   0.00356   0.00000   0.01221   0.01221   2.91439
    R8        2.09191  -0.00451   0.00000  -0.01358  -0.01358   2.07833
    R9        2.09272  -0.00505   0.00000  -0.01523  -0.01523   2.07748
   R10        2.89957   0.00189   0.00000   0.00644   0.00644   2.90601
   R11        2.09123  -0.00428   0.00000  -0.01289  -0.01289   2.07835
   R12        2.09199  -0.00536   0.00000  -0.01614  -0.01614   2.07585
   R13        2.90104   0.00025   0.00000   0.00085   0.00085   2.90188
   R14        2.09290  -0.00527   0.00000  -0.01591  -0.01591   2.07698
   R15        2.09281  -0.00524   0.00000  -0.01582  -0.01582   2.07699
   R16        2.88610   0.00335   0.00000   0.01119   0.01119   2.89729
   R17        2.07088   0.00076   0.00000   0.00220   0.00220   2.07308
   R18        2.07030   0.00087   0.00000   0.00254   0.00254   2.07284
   R19        2.07088   0.00076   0.00000   0.00221   0.00221   2.07308
    A1        1.87167   0.00045   0.00000   0.00402   0.00405   1.87571
    A2        1.87748   0.00029   0.00000  -0.00015  -0.00016   1.87733
    A3        1.94676  -0.00164   0.00000  -0.01042  -0.01041   1.93635
    A4        1.87667  -0.00085   0.00000  -0.00451  -0.00453   1.87214
    A5        1.94581   0.00106   0.00000   0.00753   0.00753   1.95334
    A6        1.94181   0.00068   0.00000   0.00349   0.00348   1.94528
    A7        1.91487  -0.00123   0.00000  -0.00500  -0.00493   1.90994
    A8        1.90874  -0.00243   0.00000  -0.01079  -0.01093   1.89780
    A9        1.97054   0.00567   0.00000   0.02719   0.02719   1.99773
   A10        1.84460   0.00109   0.00000  -0.00043  -0.00049   1.84411
   A11        1.91726  -0.00257   0.00000  -0.01522  -0.01519   1.90207
   A12        1.90354  -0.00084   0.00000   0.00243   0.00243   1.90597
   A13        1.91562  -0.00311   0.00000  -0.01322  -0.01311   1.90250
   A14        1.90547  -0.00174   0.00000  -0.00010   0.00001   1.90548
   A15        1.96312   0.00902   0.00000   0.04299   0.04303   2.00615
   A16        1.84543   0.00185   0.00000   0.00096   0.00074   1.84616
   A17        1.91756  -0.00275   0.00000  -0.01364  -0.01367   1.90389
   A18        1.91291  -0.00375   0.00000  -0.01968  -0.01994   1.89297
   A19        1.91856  -0.00314   0.00000  -0.01595  -0.01580   1.90275
   A20        1.91662  -0.00138   0.00000   0.00286   0.00296   1.91958
   A21        1.94698   0.00833   0.00000   0.03870   0.03876   1.98574
   A22        1.84412   0.00199   0.00000   0.00560   0.00541   1.84954
   A23        1.91764  -0.00249   0.00000  -0.01389  -0.01384   1.90380
   A24        1.91720  -0.00373   0.00000  -0.01946  -0.01973   1.89747
   A25        1.91717  -0.00254   0.00000  -0.01341  -0.01353   1.90364
   A26        1.91774  -0.00271   0.00000  -0.01522  -0.01532   1.90242
   A27        1.94984   0.00694   0.00000   0.03305   0.03308   1.98293
   A28        1.84710   0.00146   0.00000   0.00105   0.00089   1.84799
   A29        1.91465  -0.00180   0.00000  -0.00393  -0.00386   1.91079
   A30        1.91457  -0.00169   0.00000  -0.00347  -0.00337   1.91120
   A31        1.94758  -0.00118   0.00000  -0.00833  -0.00836   1.93923
   A32        1.94077   0.00170   0.00000   0.01253   0.01256   1.95333
   A33        1.94751  -0.00117   0.00000  -0.00817  -0.00820   1.93931
   A34        1.87523  -0.00007   0.00000   0.00144   0.00147   1.87670
   A35        1.87378   0.00083   0.00000   0.00126   0.00118   1.87496
   A36        1.87521  -0.00007   0.00000   0.00157   0.00159   1.87680
    D1       -3.09992   0.00027   0.00000  -0.00194  -0.00195  -3.10187
    D2       -1.08423  -0.00047   0.00000  -0.01134  -0.01131  -1.09553
    D3        1.03849   0.00053   0.00000   0.00237   0.00233   1.04082
    D4        1.09142   0.00009   0.00000  -0.00509  -0.00508   1.08634
    D5        3.10712  -0.00065   0.00000  -0.01449  -0.01444   3.09267
    D6       -1.05335   0.00035   0.00000  -0.00078  -0.00081  -1.05416
    D7       -1.00341  -0.00001   0.00000  -0.00682  -0.00683  -1.01025
    D8        1.01228  -0.00075   0.00000  -0.01623  -0.01619   0.99609
    D9        3.13500   0.00025   0.00000  -0.00252  -0.00256   3.13244
   D10       -0.86003  -0.00038   0.00000  -0.03916  -0.03923  -0.89926
   D11       -2.87530   0.00011   0.00000  -0.03290  -0.03289  -2.90819
   D12        1.28052   0.00009   0.00000  -0.03648  -0.03665   1.24387
   D13       -3.00346  -0.00087   0.00000  -0.04059  -0.04055  -3.04402
   D14        1.26445  -0.00038   0.00000  -0.03433  -0.03421   1.23024
   D15       -0.86292  -0.00041   0.00000  -0.03791  -0.03797  -0.90089
   D16        1.26562  -0.00028   0.00000  -0.03302  -0.03297   1.23265
   D17       -0.74965   0.00021   0.00000  -0.02676  -0.02663  -0.77628
   D18       -2.87702   0.00018   0.00000  -0.03034  -0.03038  -2.90740
   D19        0.99916   0.00013   0.00000   0.00151   0.00147   1.00063
   D20       -1.02256   0.00033   0.00000   0.00228   0.00232  -1.02024
   D21        3.13084   0.00042   0.00000  -0.00103  -0.00120   3.12964
   D22        3.13861   0.00041   0.00000   0.00448   0.00441  -3.14016
   D23        1.11689   0.00061   0.00000   0.00525   0.00526   1.12215
   D24       -1.01289   0.00070   0.00000   0.00194   0.00174  -1.01115
   D25       -1.12398  -0.00108   0.00000  -0.01341  -0.01325  -1.13723
   D26        3.13748  -0.00088   0.00000  -0.01264  -0.01240   3.12508
   D27        1.00770  -0.00079   0.00000  -0.01596  -0.01592   0.99178
   D28        1.01346  -0.00018   0.00000  -0.00063  -0.00060   1.01287
   D29       -1.01171   0.00110   0.00000   0.01466   0.01451  -0.99719
   D30       -3.14086   0.00045   0.00000   0.00734   0.00729  -3.13357
   D31       -3.13751  -0.00027   0.00000  -0.00438  -0.00438   3.14130
   D32        1.12050   0.00101   0.00000   0.01091   0.01073   1.13124
   D33       -1.00865   0.00036   0.00000   0.00358   0.00351  -1.00514
   D34       -1.11598  -0.00145   0.00000  -0.01683  -0.01661  -1.13259
   D35       -3.14115  -0.00017   0.00000  -0.00154  -0.00150   3.14053
   D36        1.01288  -0.00083   0.00000  -0.00886  -0.00872   1.00416
   D37        1.04816  -0.00032   0.00000  -0.00576  -0.00573   1.04243
   D38       -3.14152  -0.00005   0.00000  -0.00103  -0.00103   3.14064
   D39       -1.04810   0.00023   0.00000   0.00397   0.00395  -1.04415
   D40       -3.10471  -0.00014   0.00000  -0.00330  -0.00324  -3.10795
   D41       -1.01121   0.00013   0.00000   0.00143   0.00146  -1.00975
   D42        1.08221   0.00042   0.00000   0.00643   0.00643   1.08865
   D43       -1.08282  -0.00037   0.00000  -0.00626  -0.00627  -1.08908
   D44        1.01069  -0.00010   0.00000  -0.00153  -0.00156   1.00912
   D45        3.10411   0.00018   0.00000   0.00347   0.00341   3.10752
         Item               Value     Threshold  Converged?
 Maximum Force            0.009024     0.000015     NO 
 RMS     Force            0.002491     0.000010     NO 
 Maximum Displacement     0.146621     0.000060     NO 
 RMS     Displacement     0.039869     0.000040     NO 
 Predicted change in Energy=-1.347954D-03
 GradGradGradGradGradGradGradGradGradGradGradGradGradGradGradGradGradGrad

 Leave Link  103 at Fri Sep 18 13:21:37 2015, MaxMem=  402653184 cpu:       0.1
 (Enter /share/apps/g09/l202.exe)
                          Input orientation:                          
 ---------------------------------------------------------------------
 Center     Atomic      Atomic             Coordinates (Angstroms)
 Number     Number       Type             X           Y           Z
 ---------------------------------------------------------------------
      1          6           0       -2.638149    0.865668   -0.244867
      2          1           0       -2.766623    0.746126   -1.327885
      3          1           0       -1.985841    1.731648   -0.084518
      4          1           0       -3.618324    1.113642    0.179185
      5          6           0       -2.061589   -0.409436    0.382903
      6          1           0       -1.981427   -0.277260    1.471172
      7          1           0       -2.777506   -1.230280    0.235685
      8          6           0       -0.686238   -0.829862   -0.173980
      9          1           0       -0.739818   -0.864657   -1.271929
     10          1           0       -0.465485   -1.857806    0.147245
     11          6           0        0.486222    0.073227    0.243841
     12          1           0        0.539725    0.106085    1.341861
     13          1           0        0.298885    1.105836   -0.080667
     14          6           0        1.844526   -0.379106   -0.311591
     15          1           0        1.790805   -0.412182   -1.408872
     16          1           0        2.037226   -1.411854    0.011376
     17          6           0        3.012352    0.517382    0.116339
     18          1           0        3.111747    0.542231    1.208572
     19          1           0        3.967876    0.168969   -0.294473
     20          1           0        2.863250    1.549708   -0.223575
 ---------------------------------------------------------------------
                    Distance matrix (angstroms):
                    1          2          3          4          5
     1  C    0.000000
     2  H    1.097144   0.000000
     3  H    1.095965   1.768287   0.000000
     4  H    1.096382   1.769667   1.765353   0.000000
     5  C    1.533756   2.181558   2.192821   2.187393   0.000000
     6  H    2.163876   3.081975   2.540847   2.506645   1.099193
     7  H    2.154843   2.520128   3.082577   2.490810   1.099088
     8  C    2.586466   2.853636   2.873727   3.535401   1.542228
     9  H    2.766323   2.589535   3.115015   3.782221   2.166281
    10  H    3.505929   3.775144   3.905045   4.332541   2.168147
    11  C    3.260137   3.674795   2.994874   4.234848   2.596852
    12  H    3.632293   4.297573   3.324980   4.433548   2.819964
    13  H    2.951409   3.329007   2.368888   3.925826   2.843024
    14  C    4.652772   4.854039   4.379332   5.684354   3.967489
    15  H    4.754308   4.703019   4.540151   5.840269   4.248695
    16  H    5.206909   5.433918   5.106454   6.196090   4.235937
    17  C    5.672736   5.961096   5.147496   6.657727   5.164777
    18  H    5.939562   6.405499   5.391864   6.832276   5.324547
    19  H    6.642847   6.837729   6.158960   7.659451   6.094903
    20  H    5.543803   5.793161   4.854494   6.508699   5.334801
                    6          7          8          9         10
     6  H    0.000000
     7  H    1.751689   0.000000
     8  C    2.165504   2.168308   0.000000
     9  H    3.067773   2.561005   1.099806   0.000000
    10  H    2.559099   2.397301   1.099357   1.753756   0.000000
    11  C    2.778214   3.514415   1.537792   2.163414   2.154986
    12  H    2.553406   3.743463   2.162580   3.067811   2.508868
    13  H    3.085609   3.875783   2.173959   2.526035   3.069100
    14  C    4.222147   4.731509   2.574273   2.799436   2.780868
    15  H    4.747904   4.923750   2.799134   2.574401   3.098737
    16  H    4.423559   4.823373   2.791115   3.107776   2.545760
    17  C    5.234964   6.049050   3.947013   4.232741   4.211629
    18  H    5.165360   6.226684   4.268345   4.792366   4.436572
    19  H    6.221803   6.909351   4.761613   4.917945   4.894652
    20  H    5.448015   6.305344   4.273602   4.462096   4.777984
                   11         12         13         14         15
    11  C    0.000000
    12  H    1.099813   0.000000
    13  H    1.098490   1.755303   0.000000
    14  C    1.535610   2.161438   2.155779   0.000000
    15  H    2.160791   3.065996   2.508851   1.099093   0.000000
    16  H    2.159889   2.513332   3.060893   1.099095   1.754187
    17  C    2.568046   2.790152   2.783521   1.533177   2.163916
    18  H    2.836204   2.612142   3.145152   2.183027   3.083311
    19  H    3.524325   3.799179   3.792747   2.193011   2.513814
    20  H    2.837029   3.151730   2.606417   2.183087   2.530628
                   16         17         18         19         20
    16  H    0.000000
    17  C    2.164218   0.000000
    18  H    2.531071   1.097028   0.000000
    19  H    2.513952   1.096898   1.769584   0.000000
    20  H    3.083564   1.097028   1.768561   1.769651   0.000000
 Stoichiometry    C6H14
 Framework group  C1[X(C6H14)]
 Deg. of freedom    54
 Full point group                 C1      NOp   1
 Largest Abelian subgroup         C1      NOp   1
 Largest concise Abelian subgroup C1      NOp   1
                         Standard orientation:                         
 ---------------------------------------------------------------------
 Center     Atomic      Atomic             Coordinates (Angstroms)
 Number     Number       Type             X           Y           Z
 ---------------------------------------------------------------------
      1          6           0       -2.639863    0.861883   -0.240362
      2          1           0       -2.767462    0.749293   -1.324228
      3          1           0       -1.989179    1.727926   -0.073872
      4          1           0       -3.620732    1.105318    0.184711
      5          6           0       -2.061443   -0.416338    0.379308
      6          1           0       -1.982181   -0.291235    1.468478
      7          1           0       -2.775822   -1.237445    0.226207
      8          6           0       -0.685012   -0.830648   -0.179489
      9          1           0       -0.737857   -0.858262   -1.277677
     10          1           0       -0.462645   -1.860308    0.135058
     11          6           0        0.485599    0.071712    0.245038
     12          1           0        0.538371    0.097388    1.343285
     13          1           0        0.296643    1.106117   -0.072739
     14          6           0        1.845038   -0.374544   -0.312529
     15          1           0        1.792048   -0.400443   -1.410038
     16          1           0        2.039359   -1.409069    0.003710
     17          6           0        3.011020    0.521140    0.122061
     18          1           0        3.109701    0.538926    1.214496
     19          1           0        3.967409    0.177136   -0.290454
     20          1           0        2.860309    1.555431   -0.211101
 ---------------------------------------------------------------------
 Rotational constants (GHZ):      8.8483952      1.3031432      1.2239766
 Leave Link  202 at Fri Sep 18 13:21:37 2015, MaxMem=  402653184 cpu:       0.0
 (Enter /share/apps/g09/l301.exe)
 Standard basis: 6-31G(d) (6D, 7F)
 Ernie: Thresh=  0.10000D-02 Tol=  0.10000D-05 Strict=F.
 There are   118 symmetry adapted basis functions of A   symmetry.
 Integral buffers will be    131072 words long.
 Raffenetti 2 integral format.
 Two-electron integral symmetry is turned on.
   118 basis functions,   224 primitive gaussians,   118 cartesian basis functions
    25 alpha electrons       25 beta electrons
       nuclear repulsion energy       245.6992186551 Hartrees.
 IExCor=  402 DFT=T Ex+Corr=B3LYP ExCW=0 ScaHFX=  0.200000
 ScaDFX=  0.800000  0.720000  1.000000  0.810000 ScalE2=  1.000000  1.000000
 IRadAn=      5 IRanWt=     -1 IRanGd=            0 ICorTp=0
 NAtoms=   20 NActive=   20 NUniq=   20 SFac= 7.50D-01 NAtFMM=   80 NAOKFM=F Big=F
 Leave Link  301 at Fri Sep 18 13:21:37 2015, MaxMem=  402653184 cpu:       0.2
 (Enter /share/apps/g09/l302.exe)
 NPDir=0 NMtPBC=     1 NCelOv=     1 NCel=       1 NClECP=     1 NCelD=      1
         NCelK=      1 NCelE2=     1 NClLst=     1 CellRange=     0.0.
 One-electron integrals computed using PRISM.
 NBasis=   118 RedAO= T  NBF=   118
 NBsUse=   118 1.00D-06 NBFU=   118
 Precomputing XC quadrature grid using
 IXCGrd= 2 IRadAn=           5 IRanWt=          -1 IRanGd=           0 AccXCQ= 1.00D-10.
 NRdTot=    1655 NPtTot=      443048 NUsed=      454906 NTot=      454938
 NSgBfM=   118   118   118   118   118 NAtAll=    20    20.
 Leave Link  302 at Fri Sep 18 13:21:38 2015, MaxMem=  402653184 cpu:       1.2
 (Enter /share/apps/g09/l303.exe)
 DipDrv:  MaxL=1.
 Leave Link  303 at Fri Sep 18 13:21:38 2015, MaxMem=  402653184 cpu:       0.1
 (Enter /share/apps/g09/l401.exe)
 Initial guess read from the read-write file.
 B after Tr=     0.000000    0.000000    0.000000
         Rot=    1.000000    0.000000    0.000000    0.000000 Ang=   0.00 deg.
 Guess basis will be translated and rotated to current coordinates.
 Initial guess orbital symmetries:
       Occupied  (A) (A) (A) (A) (A) (A) (A) (A) (A) (A) (A) (A)
                 (A) (A) (A) (A) (A) (A) (A) (A) (A) (A) (A) (A)
                 (A)
       Virtual   (A) (A) (A) (A) (A) (A) (A) (A) (A) (A) (A) (A)
                 (A) (A) (A) (A) (A) (A) (A) (A) (A) (A) (A) (A)
                 (A) (A) (A) (A) (A) (A) (A) (A) (A) (A) (A) (A)
                 (A) (A) (A) (A) (A) (A) (A) (A) (A) (A) (A) (A)
                 (A) (A) (A) (A) (A) (A) (A) (A) (A) (A) (A) (A)
                 (A) (A) (A) (A) (A) (A) (A) (A) (A) (A) (A) (A)
                 (A) (A) (A) (A) (A) (A) (A) (A) (A) (A) (A) (A)
                 (A) (A) (A) (A) (A) (A) (A) (A) (A)
 The electronic state of the initial guess is 1-A.
 Generating alternative initial guess.
 Harris functional with IExCor=  402 diagonalized for initial guess.
 ExpMin= 1.61D-01 ExpMax= 3.05D+03 ExpMxC= 4.57D+02 IAcc=3 IRadAn=         5 AccDes= 0.00D+00
 HarFok:  IExCor=  402 AccDes= 0.00D+00 IRadAn=         5 IDoV= 1
 ScaDFX=  1.000000  1.000000  1.000000  1.000000
 FoFCou: FMM=F IPFlag=           0 FMFlag=      100000 FMFlg1=           0
         NFxFlg=           0 DoJE=T BraDBF=F KetDBF=T FulRan=T
         Omega=  0.000000  0.000000  1.000000  0.000000  0.000000 ICntrl=     500 IOpCl=  0
         NMat0=    1 NMatS0=    1 NMatT0=    0 NMatD0=    1 NMtDS0=    0 NMtDT0=    0
         I1Cent=           4 NGrid=           0.
 Petite list used in FoFCou.
 Harris En= -237.182666666593    
 Leave Link  401 at Fri Sep 18 13:21:43 2015, MaxMem=  402653184 cpu:       9.9
 (Enter /share/apps/g09/l502.exe)
 Closed shell SCF:
 Requested convergence on RMS density matrix=1.00D-08 within 128 cycles.
 Requested convergence on MAX density matrix=1.00D-06.
 Requested convergence on             energy=1.00D-06.
 No special actions if energy rises.
 Using DIIS extrapolation, IDIIS=  1040.
 Integral symmetry usage will be decided dynamically.
       454713 words used for storage of precomputed grid.
 Keep R1 ints in memory in canonical form, NReq=26108768.
 IEnd=      516257 IEndB=      516257 NGot=   402653184 MDV=   377516851
 LenX=   377516851 LenY=   377502486
 Symmetry not used in FoFDir.
 MinBra= 0 MaxBra= 2 Meth= 1.
 IRaf=       0 NMat=   1 IRICut=       1 DoRegI=T DoRafI=F ISym2E= 0 JSym2E=0.
 Integral accuracy reduced to 1.0D-05 until final iterations.

 Cycle   1  Pass 0  IDiag  1:
 E= -237.082883556681    
 DIIS: error= 1.67D-03 at cycle   1 NSaved=   1.
 NSaved= 1 IEnMin= 1 EnMin= -237.082883556681     IErMin= 1 ErrMin= 1.67D-03
 ErrMax= 1.67D-03 EMaxC= 1.00D-01 BMatC= 5.67D-04 BMatP= 5.67D-04
 IDIUse=3 WtCom= 9.83D-01 WtEn= 1.67D-02
 Coeff-Com:  0.100D+01
 Coeff-En:   0.100D+01
 Coeff:      0.100D+01
 Gap=     0.398 Goal=   None    Shift=    0.000
 GapD=    0.398 DampG=1.000 DampE=1.000 DampFc=1.0000 IDamp=-1.
 RMSDP=3.12D-04 MaxDP=4.31D-03              OVMax= 8.58D-03

 Cycle   2  Pass 0  IDiag  1:
 E= -237.083929357813     Delta-E=       -0.001045801132 Rises=F Damp=F
 DIIS: error= 3.97D-04 at cycle   2 NSaved=   2.
 NSaved= 2 IEnMin= 2 EnMin= -237.083929357813     IErMin= 2 ErrMin= 3.97D-04
 ErrMax= 3.97D-04 EMaxC= 1.00D-01 BMatC= 2.93D-05 BMatP= 5.67D-04
 IDIUse=3 WtCom= 9.96D-01 WtEn= 3.97D-03
 Coeff-Com:  0.279D-01 0.972D+00
 Coeff-En:   0.000D+00 0.100D+01
 Coeff:      0.278D-01 0.972D+00
 Gap=     0.396 Goal=   None    Shift=    0.000
 RMSDP=1.03D-04 MaxDP=1.65D-03 DE=-1.05D-03 OVMax= 2.11D-03

 Cycle   3  Pass 0  IDiag  1:
 E= -237.083933569601     Delta-E=       -0.000004211788 Rises=F Damp=F
 DIIS: error= 4.38D-04 at cycle   3 NSaved=   3.
 NSaved= 3 IEnMin= 3 EnMin= -237.083933569601     IErMin= 2 ErrMin= 3.97D-04
 ErrMax= 4.38D-04 EMaxC= 1.00D-01 BMatC= 3.12D-05 BMatP= 2.93D-05
 IDIUse=3 WtCom= 9.96D-01 WtEn= 4.38D-03
 Coeff-Com: -0.334D-01 0.522D+00 0.512D+00
 Coeff-En:   0.000D+00 0.465D+00 0.535D+00
 Coeff:     -0.333D-01 0.522D+00 0.512D+00
 Gap=     0.397 Goal=   None    Shift=    0.000
 RMSDP=5.13D-05 MaxDP=8.54D-04 DE=-4.21D-06 OVMax= 1.01D-03

 Cycle   4  Pass 0  IDiag  1:
 E= -237.083965543982     Delta-E=       -0.000031974381 Rises=F Damp=F
 DIIS: error= 3.80D-05 at cycle   4 NSaved=   4.
 NSaved= 4 IEnMin= 4 EnMin= -237.083965543982     IErMin= 4 ErrMin= 3.80D-05
 ErrMax= 3.80D-05 EMaxC= 1.00D-01 BMatC= 3.19D-07 BMatP= 2.93D-05
 IDIUse=1 WtCom= 1.00D+00 WtEn= 0.00D+00
 Coeff-Com: -0.130D-01 0.130D+00 0.164D+00 0.719D+00
 Coeff:     -0.130D-01 0.130D+00 0.164D+00 0.719D+00
 Gap=     0.397 Goal=   None    Shift=    0.000
 RMSDP=6.09D-06 MaxDP=7.49D-05 DE=-3.20D-05 OVMax= 1.15D-04

 Initial convergence to 1.0D-05 achieved.  Increase integral accuracy.
 Cycle   5  Pass 1  IDiag  1:
 E= -237.083953360690     Delta-E=        0.000012183292 Rises=F Damp=F
 DIIS: error= 1.05D-05 at cycle   1 NSaved=   1.
 NSaved= 1 IEnMin= 1 EnMin= -237.083953360690     IErMin= 1 ErrMin= 1.05D-05
 ErrMax= 1.05D-05 EMaxC= 1.00D-01 BMatC= 1.90D-08 BMatP= 1.90D-08
 IDIUse=1 WtCom= 1.00D+00 WtEn= 0.00D+00
 Coeff-Com:  0.100D+01
 Coeff:      0.100D+01
 Gap=     0.397 Goal=   None    Shift=    0.000
 RMSDP=6.09D-06 MaxDP=7.49D-05 DE= 1.22D-05 OVMax= 5.50D-05

 Cycle   6  Pass 1  IDiag  1:
 E= -237.083953360064     Delta-E=        0.000000000626 Rises=F Damp=F
 DIIS: error= 1.08D-05 at cycle   2 NSaved=   2.
 NSaved= 2 IEnMin= 1 EnMin= -237.083953360690     IErMin= 1 ErrMin= 1.05D-05
 ErrMax= 1.08D-05 EMaxC= 1.00D-01 BMatC= 2.18D-08 BMatP= 1.90D-08
 IDIUse=1 WtCom= 1.00D+00 WtEn= 0.00D+00
 Coeff-Com:  0.518D+00 0.482D+00
 Coeff:      0.518D+00 0.482D+00
 Gap=     0.397 Goal=   None    Shift=    0.000
 RMSDP=1.26D-06 MaxDP=2.43D-05 DE= 6.26D-10 OVMax= 2.73D-05

 Cycle   7  Pass 1  IDiag  1:
 E= -237.083953381361     Delta-E=       -0.000000021297 Rises=F Damp=F
 DIIS: error= 1.12D-06 at cycle   3 NSaved=   3.
 NSaved= 3 IEnMin= 3 EnMin= -237.083953381361     IErMin= 3 ErrMin= 1.12D-06
 ErrMax= 1.12D-06 EMaxC= 1.00D-01 BMatC= 3.02D-10 BMatP= 1.90D-08
 IDIUse=1 WtCom= 1.00D+00 WtEn= 0.00D+00
 Coeff-Com:  0.987D-01 0.145D+00 0.756D+00
 Coeff:      0.987D-01 0.145D+00 0.756D+00
 Gap=     0.397 Goal=   None    Shift=    0.000
 RMSDP=2.03D-07 MaxDP=3.32D-06 DE=-2.13D-08 OVMax= 4.38D-06

 Cycle   8  Pass 1  IDiag  1:
 E= -237.083953381640     Delta-E=       -0.000000000279 Rises=F Damp=F
 DIIS: error= 3.30D-07 at cycle   4 NSaved=   4.
 NSaved= 4 IEnMin= 4 EnMin= -237.083953381640     IErMin= 4 ErrMin= 3.30D-07
 ErrMax= 3.30D-07 EMaxC= 1.00D-01 BMatC= 2.42D-11 BMatP= 3.02D-10
 IDIUse=1 WtCom= 1.00D+00 WtEn= 0.00D+00
 Coeff-Com: -0.103D-01 0.884D-02 0.251D+00 0.750D+00
 Coeff:     -0.103D-01 0.884D-02 0.251D+00 0.750D+00
 Gap=     0.397 Goal=   None    Shift=    0.000
 RMSDP=6.39D-08 MaxDP=1.17D-06 DE=-2.79D-10 OVMax= 1.44D-06

 Cycle   9  Pass 1  IDiag  1:
 E= -237.083953381666     Delta-E=       -0.000000000026 Rises=F Damp=F
 DIIS: error= 8.04D-08 at cycle   5 NSaved=   5.
 NSaved= 5 IEnMin= 5 EnMin= -237.083953381666     IErMin= 5 ErrMin= 8.04D-08
 ErrMax= 8.04D-08 EMaxC= 1.00D-01 BMatC= 1.55D-12 BMatP= 2.42D-11
 IDIUse=1 WtCom= 1.00D+00 WtEn= 0.00D+00
 Coeff-Com: -0.710D-02 0.147D-02 0.108D+00 0.369D+00 0.529D+00
 Coeff:     -0.710D-02 0.147D-02 0.108D+00 0.369D+00 0.529D+00
 Gap=     0.397 Goal=   None    Shift=    0.000
 RMSDP=1.20D-08 MaxDP=2.10D-07 DE=-2.56D-11 OVMax= 2.39D-07

 Cycle  10  Pass 1  IDiag  1:
 E= -237.083953381667     Delta-E=       -0.000000000002 Rises=F Damp=F
 DIIS: error= 1.09D-08 at cycle   6 NSaved=   6.
 NSaved= 6 IEnMin= 6 EnMin= -237.083953381667     IErMin= 6 ErrMin= 1.09D-08
 ErrMax= 1.09D-08 EMaxC= 1.00D-01 BMatC= 3.26D-14 BMatP= 1.55D-12
 IDIUse=1 WtCom= 1.00D+00 WtEn= 0.00D+00
 Coeff-Com: -0.129D-02-0.135D-03 0.137D-01 0.564D-01 0.160D+00 0.772D+00
 Coeff:     -0.129D-02-0.135D-03 0.137D-01 0.564D-01 0.160D+00 0.772D+00
 Gap=     0.397 Goal=   None    Shift=    0.000
 RMSDP=1.94D-09 MaxDP=3.21D-08 DE=-1.53D-12 OVMax= 4.11D-08

 SCF Done:  E(RB3LYP) =  -237.083953382     A.U. after   10 cycles
             Convg  =    0.1939D-08             -V/T =  2.0106
 KE= 2.346045900151D+02 PE=-1.038304455480D+03 EE= 3.209166934279D+02
 Leave Link  502 at Fri Sep 18 13:22:26 2015, MaxMem=  402653184 cpu:      86.9
 (Enter /share/apps/g09/l701.exe)
 Compute integral first derivatives.
 ... and contract with generalized density number  0.
 Leave Link  701 at Fri Sep 18 13:22:26 2015, MaxMem=  402653184 cpu:       0.3
 (Enter /share/apps/g09/l702.exe)
 L702 exits ... SP integral derivatives will be done elsewhere.
 Leave Link  702 at Fri Sep 18 13:22:27 2015, MaxMem=  402653184 cpu:       0.0
 (Enter /share/apps/g09/l703.exe)
 Compute integral first derivatives, UseDBF=F ICtDFT=           0.
 Integral derivatives from FoFDir, PRISM(SPDF).
 Calling FoFJK, ICntrl=      2127 FMM=F ISym2X=0 I1Cent= 0 IOpClX= 0 NMat=1 NMatS=1 NMatT=0.
 FoFCou: FMM=F IPFlag=           0 FMFlag=      100000 FMFlg1=         800
         NFxFlg=           0 DoJE=F BraDBF=F KetDBF=F FulRan=T
         Omega=  0.000000  0.000000  1.000000  0.000000  0.000000 ICntrl=    2127 IOpCl=  0
         NMat0=    1 NMatS0=    1 NMatT0=    0 NMatD0=    1 NMtDS0=    0 NMtDT0=    0
         I1Cent=           0 NGrid=           0.
 Symmetry not used in FoFCou.
 Leave Link  703 at Fri Sep 18 13:22:38 2015, MaxMem=  402653184 cpu:      23.3
 (Enter /share/apps/g09/l716.exe)
 Dipole        =-8.40268851D-03-2.00394979D-02 2.39899894D-03
 ***** Axes restored to original set *****
 -------------------------------------------------------------------
 Center     Atomic                   Forces (Hartrees/Bohr)
 Number     Number              X              Y              Z
 -------------------------------------------------------------------
      1        6           0.000718460    0.000482086   -0.000288733
      2        1           0.000036597   -0.000027131   -0.000144549
      3        1           0.000188452   -0.000004621    0.000078702
      4        1           0.000148763   -0.000604001    0.000214945
      5        6           0.000948052   -0.000221801    0.000831817
      6        1           0.000073261    0.000117818    0.000347557
      7        1           0.000933616    0.000017747   -0.000791495
      8        6           0.000257362    0.000161965   -0.000619408
      9        1          -0.000163831   -0.000209157   -0.000566829
     10        1          -0.000489445    0.000070693    0.000598012
     11        6          -0.000585985    0.000983210    0.000323099
     12        1          -0.000057097    0.000062755    0.000558070
     13        1          -0.000357382    0.000511951   -0.000114641
     14        6          -0.000529643   -0.001283946   -0.000604812
     15        1           0.000162823    0.000096985   -0.000272705
     16        1           0.000371476   -0.000249073    0.000094975
     17        6          -0.000618492    0.000398638    0.000421329
     18        1          -0.000040312    0.000053773    0.000102141
     19        1          -0.000946803   -0.000474061   -0.000185254
     20        1          -0.000049873    0.000116169    0.000017778
 -------------------------------------------------------------------
 Cartesian Forces:  Max     0.001283946 RMS     0.000460694
 Leave Link  716 at Fri Sep 18 13:22:38 2015, MaxMem=  402653184 cpu:       0.0
 (Enter /share/apps/g09/l103.exe)

 GradGradGradGradGradGradGradGradGradGradGradGradGradGradGradGradGradGrad
 Berny optimization.
 Using GEDIIS/GDIIS optimizer.
[...]

 Largest change from initial coordinates is atom    3       0.109 Angstoms.
 Leave Link  103 at Fri Sep 18 13:28:05 2015, MaxMem=  402653184 cpu:       0.0
 (Enter /share/apps/g09/l202.exe)
                          Input orientation:                          
 ---------------------------------------------------------------------
 Center     Atomic      Atomic             Coordinates (Angstroms)
 Number     Number       Type             X           Y           Z
 ---------------------------------------------------------------------
      1          6           0       -2.597854    0.888892   -0.197758
      2          1           0       -2.662690    0.854076   -1.292735
      3          1           0       -1.957396    1.737009    0.068979
      4          1           0       -3.601666    1.102063    0.187464
      5          6           0       -2.061338   -0.433195    0.364189
      6          1           0       -2.009840   -0.369952    1.460753
      7          1           0       -2.781409   -1.231980    0.140485
      8          6           0       -0.684570   -0.846469   -0.182586
      9          1           0       -0.737237   -0.912772   -1.279900
     10          1           0       -0.455081   -1.861917    0.171236
     11          6           0        0.470364    0.084171    0.212888
     12          1           0        0.503002    0.174216    1.309481
     13          1           0        0.284695    1.097490   -0.169682
     14          6           0        1.836668   -0.395504   -0.294714
     15          1           0        1.802587   -0.490288   -1.389533
     16          1           0        2.031484   -1.406519    0.090833
     17          6           0        2.989518    0.532717    0.101101
     18          1           0        3.071131    0.620628    1.191613
     19          1           0        3.950026    0.162652   -0.275593
     20          1           0        2.841219    1.542761   -0.300699
 ---------------------------------------------------------------------
                    Distance matrix (angstroms):
                    1          2          3          4          5
     1  C    0.000000
     2  H    1.097447   0.000000
     3  H    1.095737   1.769541   0.000000
     4  H    1.096119   1.770357   1.766585   0.000000
     5  C    1.533476   2.182679   2.192656   2.181940   0.000000
     6  H    2.163586   3.083205   2.525682   2.514360   1.099592
     7  H    2.155504   2.533741   3.082046   2.474427   1.098454
     8  C    2.583092   2.835004   2.890975   3.527488   1.537937
     9  H    2.806942   2.613290   3.213970   3.797061   2.164779
    10  H    3.506364   3.793859   3.901241   4.322782   2.158365
    11  C    3.198464   3.560292   2.940510   4.197402   2.588450
    12  H    3.521057   4.153955   3.167763   4.355241   2.799708
    13  H    2.890223   3.163475   2.343696   3.902740   2.851646
    14  C    4.617799   4.775115   4.367471   5.661333   3.953483
    15  H    4.763019   4.664267   4.607123   5.850510   4.243668
    16  H    5.175227   5.390716   5.078721   6.167229   4.215836
    17  C    5.606684   5.830395   5.091494   6.616293   5.149112
    18  H    5.842920   6.253254   5.271877   6.765081   5.304471
    19  H    6.588491   6.726117   6.123312   7.623973   6.074607
    20  H    5.479202   5.634841   4.816751   6.476364   5.327433
                    6          7          8          9         10
     6  H    0.000000
     7  H    1.755425   0.000000
     8  C    2.164248   2.156322   0.000000
     9  H    3.070073   2.509587   1.100577   0.000000
    10  H    2.511193   2.410304   1.099541   1.756783   0.000000
    11  C    2.813326   3.508778   1.535045   2.163473   2.155329
    12  H    2.575534   3.759161   2.162958   3.069957   2.521778
    13  H    3.174364   3.863110   2.172238   2.513580   3.069460
    14  C    4.228231   4.713356   2.563705   2.804131   2.760361
    15  H    4.761639   4.889180   2.787389   2.577057   3.068295
    16  H    4.391292   4.816313   2.786640   3.128660   2.529201
    17  C    5.258996   6.034841   3.934661   4.229103   4.195766
    18  H    5.183623   6.228101   4.259822   4.792011   4.431521
    19  H    6.230454   6.886968   4.744097   4.912800   4.868624
    20  H    5.503994   6.285520   4.260699   4.449025   4.762368
                   11         12         13         14         15
    11  C    0.000000
    12  H    1.100768   0.000000
    13  H    1.098930   1.757275   0.000000
    14  C    1.534449   2.162565   2.157147   0.000000
    15  H    2.161614   3.068414   2.512583   1.099443   0.000000
    16  H    2.161979   2.513978   3.064180   1.099432   1.755949
    17  C    2.561216   2.787735   2.776394   1.532099   2.162714
    18  H    2.830137   2.609303   3.137634   2.183023   3.083123
    19  H    3.514658   3.794017   3.784150   2.185906   2.505730
    20  H    2.830584   3.151643   2.598316   2.183124   2.529348
                   16         17         18         19         20
    16  H    0.000000
    17  C    2.163000   0.000000
    18  H    2.530199   1.097090   0.000000
    19  H    2.505468   1.096093   1.770562   0.000000
    20  H    3.083378   1.097098   1.769232   1.770532   0.000000
 Stoichiometry    C6H14
 Framework group  C1[X(C6H14)]
 Deg. of freedom    54
 Full point group                 C1      NOp   1
 Largest Abelian subgroup         C1      NOp   1
 Largest concise Abelian subgroup C1      NOp   1
                         Standard orientation:                         
 ---------------------------------------------------------------------
 Center     Atomic      Atomic             Coordinates (Angstroms)
 Number     Number       Type             X           Y           Z
 ---------------------------------------------------------------------
      1          6           0       -2.596229    0.886469   -0.225415
      2          1           0       -2.654095    0.836276   -1.320186
      3          1           0       -1.957260    1.738141    0.033453
      4          1           0       -3.602419    1.105207    0.150366
      5          6           0       -2.063650   -0.427682    0.358466
      6          1           0       -2.019122   -0.349040    1.454339
      7          1           0       -2.782490   -1.229407    0.141426
      8          6           0       -0.683534   -0.848838   -0.173659
      9          1           0       -0.729226   -0.930549   -1.270247
     10          1           0       -0.456570   -1.859252    0.195856
     11          6           0        0.469100    0.087071    0.216050
     12          1           0        0.494774    0.192515    1.311455
     13          1           0        0.286138    1.094944   -0.181900
     14          6           0        1.838485   -0.399928   -0.276040
     15          1           0        1.811356   -0.510085   -1.369614
     16          1           0        2.030576   -1.405457    0.124913
     17          6           0        2.989033    0.533567    0.114030
     18          1           0        3.063719    0.636784    1.203697
     19          1           0        3.951824    0.158078   -0.251294
     20          1           0        2.843561    1.537889   -0.302863
 ---------------------------------------------------------------------
 Rotational constants (GHZ):      8.7112859      1.3268931      1.2361592
 Leave Link  202 at Fri Sep 18 13:28:05 2015, MaxMem=  402653184 cpu:       0.0
 (Enter /share/apps/g09/l601.exe)
 Copying SCF densities to generalized density rwf, IOpCl= 0 IROHF=0.

 **********************************************************************

            Population analysis using the SCF density.

 **********************************************************************

 Orbital symmetries:
       Occupied  (A) (A) (A) (A) (A) (A) (A) (A) (A) (A) (A) (A)
                 (A) (A) (A) (A) (A) (A) (A) (A) (A) (A) (A) (A)
                 (A)
       Virtual   (A) (A) (A) (A) (A) (A) (A) (A) (A) (A) (A) (A)
                 (A) (A) (A) (A) (A) (A) (A) (A) (A) (A) (A) (A)
                 (A) (A) (A) (A) (A) (A) (A) (A) (A) (A) (A) (A)
                 (A) (A) (A) (A) (A) (A) (A) (A) (A) (A) (A) (A)
                 (A) (A) (A) (A) (A) (A) (A) (A) (A) (A) (A) (A)
                 (A) (A) (A) (A) (A) (A) (A) (A) (A) (A) (A) (A)
                 (A) (A) (A) (A) (A) (A) (A) (A) (A) (A) (A) (A)
                 (A) (A) (A) (A) (A) (A) (A) (A) (A)
 The electronic state is 1-A.
 Alpha  occ. eigenvalues --  -10.17623 -10.17586 -10.17383 -10.17306 -10.16986
 Alpha  occ. eigenvalues --  -10.16944  -0.79880  -0.76005  -0.70066  -0.63962
 Alpha  occ. eigenvalues --   -0.58260  -0.56080  -0.46748  -0.44528  -0.43085
 Alpha  occ. eigenvalues --   -0.40884  -0.40331  -0.38125  -0.36361  -0.35374
 Alpha  occ. eigenvalues --   -0.33725  -0.32748  -0.31655  -0.31313  -0.30412
 Alpha virt. eigenvalues --    0.09123   0.10653   0.12220   0.12886   0.14746
 Alpha virt. eigenvalues --    0.16002   0.16330   0.17165   0.18182   0.19168
 Alpha virt. eigenvalues --    0.19259   0.19940   0.20431   0.22263   0.22612
 Alpha virt. eigenvalues --    0.25394   0.26332   0.27871   0.29246   0.50194
 Alpha virt. eigenvalues --    0.50577   0.51504   0.53607   0.55283   0.55808
 Alpha virt. eigenvalues --    0.58646   0.62186   0.64311   0.65740   0.68172
 Alpha virt. eigenvalues --    0.68972   0.71339   0.77559   0.78371   0.80911
 Alpha virt. eigenvalues --    0.84620   0.86371   0.87592   0.88925   0.90071
 Alpha virt. eigenvalues --    0.90291   0.91640   0.93782   0.94128   0.94869
 Alpha virt. eigenvalues --    0.95517   0.97487   0.98362   1.00168   1.02012
 Alpha virt. eigenvalues --    1.03856   1.13141   1.23578   1.39058   1.41743
 Alpha virt. eigenvalues --    1.44862   1.50241   1.53486   1.59108   1.67055
 Alpha virt. eigenvalues --    1.69730   1.79828   1.81101   1.88122   1.91697
 Alpha virt. eigenvalues --    1.92478   1.95570   1.97079   1.99589   2.01614
 Alpha virt. eigenvalues --    2.02922   2.06248   2.14505   2.21943   2.25222
 Alpha virt. eigenvalues --    2.27388   2.32111   2.33636   2.36125   2.40515
 Alpha virt. eigenvalues --    2.42010   2.44834   2.58032   2.59828   2.64190
 Alpha virt. eigenvalues --    2.74751   2.80194   4.11207   4.18765   4.29151
 Alpha virt. eigenvalues --    4.38419   4.45532   4.55425
          Condensed to atoms (all electrons):
              1          2          3          4          5          6
     1  C    5.065866   0.376833   0.378496   0.373009   0.378207  -0.040615
     2  H    0.376833   0.581322  -0.033016  -0.031320  -0.036225   0.005378
     3  H    0.378496  -0.033016   0.573071  -0.031309  -0.034500  -0.004544
     4  H    0.373009  -0.031320  -0.031309   0.578871  -0.028516  -0.002463
     5  C    0.378207  -0.036225  -0.034500  -0.028516   4.958547   0.375236
     6  H   -0.040615   0.005378  -0.004544  -0.002463   0.375236   0.614449
     7  H   -0.039952  -0.004094   0.005209  -0.003563   0.373236  -0.038569
     8  C   -0.045338  -0.004140  -0.004785   0.004316   0.378781  -0.039570
     9  H   -0.006494   0.005487  -0.000106  -0.000017  -0.039297   0.005990
    10  H    0.005040   0.000011  -0.000027  -0.000161  -0.034483  -0.002807
    11  C   -0.004615  -0.000531   0.002832   0.000108  -0.038985  -0.006954
    12  H   -0.000563   0.000074   0.000354  -0.000025  -0.002975   0.005732
    13  H    0.002855   0.000296   0.002388  -0.000085  -0.004079  -0.000197
    14  C    0.000124  -0.000024  -0.000093  -0.000001   0.003571   0.000026
    15  H   -0.000012   0.000001   0.000009   0.000000   0.000057   0.000008
    16  H    0.000001   0.000000   0.000000   0.000000  -0.000016   0.000004
    17  C    0.000002   0.000000   0.000006   0.000000  -0.000128  -0.000001
    18  H    0.000000   0.000000   0.000001   0.000000   0.000001  -0.000001
    19  H    0.000000   0.000000   0.000000   0.000000   0.000001   0.000000
    20  H   -0.000002   0.000000  -0.000002   0.000000   0.000001   0.000000
              7          8          9         10         11         12
     1  C   -0.039952  -0.045338  -0.006494   0.005040  -0.004615  -0.000563
     2  H   -0.004094  -0.004140   0.005487   0.000011  -0.000531   0.000074
     3  H    0.005209  -0.004785  -0.000106  -0.000027   0.002832   0.000354
     4  H   -0.003563   0.004316  -0.000017  -0.000161   0.000108  -0.000025
     5  C    0.373236   0.378781  -0.039297  -0.034483  -0.038985  -0.002975
     6  H   -0.038569  -0.039570   0.005990  -0.002807  -0.006954   0.005732
     7  H    0.613894  -0.033494  -0.002782  -0.003981   0.004594   0.000017
     8  C   -0.033494   4.984882   0.370551   0.370720   0.385725  -0.041282
     9  H   -0.002782   0.370551   0.620034  -0.039017  -0.041161   0.006056
    10  H   -0.003981   0.370720  -0.039017   0.617946  -0.041203  -0.005050
    11  C    0.004594   0.385725  -0.041161  -0.041203   4.980649   0.372118
    12  H    0.000017  -0.041282   0.006056  -0.005050   0.372118   0.620420
    13  H   -0.000031  -0.038620  -0.005481   0.005890   0.373615  -0.041173
    14  C   -0.000129  -0.035638  -0.003585  -0.004336   0.388503  -0.040450
    15  H    0.000004  -0.003330   0.005066  -0.000471  -0.040529   0.006002
    16  H   -0.000004  -0.003636  -0.000447   0.005674  -0.040487  -0.005554
    17  C    0.000002   0.003590   0.000016   0.000053  -0.042745  -0.002929
    18  H    0.000000   0.000032   0.000006   0.000003  -0.004494   0.004848
    19  H    0.000000  -0.000130   0.000002   0.000002   0.004130  -0.000035
    20  H    0.000000   0.000032   0.000003   0.000008  -0.004547  -0.000393
             13         14         15         16         17         18
     1  C    0.002855   0.000124  -0.000012   0.000001   0.000002   0.000000
     2  H    0.000296  -0.000024   0.000001   0.000000   0.000000   0.000000
     3  H    0.002388  -0.000093   0.000009   0.000000   0.000006   0.000001
     4  H   -0.000085  -0.000001   0.000000   0.000000   0.000000   0.000000
     5  C   -0.004079   0.003571   0.000057  -0.000016  -0.000128   0.000001
     6  H   -0.000197   0.000026   0.000008   0.000004  -0.000001  -0.000001
     7  H   -0.000031  -0.000129   0.000004  -0.000004   0.000002   0.000000
     8  C   -0.038620  -0.035638  -0.003330  -0.003636   0.003590   0.000032
     9  H   -0.005481  -0.003585   0.005066  -0.000447   0.000016   0.000006
    10  H    0.005890  -0.004336  -0.000471   0.005674   0.000053   0.000003
    11  C    0.373615   0.388503  -0.040529  -0.040487  -0.042745  -0.004494
    12  H   -0.041173  -0.040450   0.006002  -0.005554  -0.002929   0.004848
    13  H    0.612083  -0.040470  -0.005519   0.005965  -0.002666  -0.000416
    14  C   -0.040470   4.951102   0.376560   0.376288   0.371580  -0.034712
    15  H   -0.005519   0.376560   0.613314  -0.040242  -0.038712   0.005275
    16  H    0.005965   0.376288  -0.040242   0.613647  -0.038625  -0.004495
    17  C   -0.002666   0.371580  -0.038712  -0.038625   5.066116   0.377419
    18  H   -0.000416  -0.034712   0.005275  -0.004495   0.377419   0.580127
    19  H   -0.000037  -0.027194  -0.002720  -0.002678   0.371327  -0.031442
    20  H    0.005007  -0.034642  -0.004517   0.005274   0.377245  -0.032946
             19         20
     1  C    0.000000  -0.000002
     2  H    0.000000   0.000000
     3  H    0.000000  -0.000002
     4  H    0.000000   0.000000
     5  C    0.000001   0.000001
     6  H    0.000000   0.000000
     7  H    0.000000   0.000000
     8  C   -0.000130   0.000032
     9  H    0.000002   0.000003
    10  H    0.000002   0.000008
    11  C    0.004130  -0.004547
    12  H   -0.000035  -0.000393
    13  H   -0.000037   0.005007
    14  C   -0.027194  -0.034642
    15  H   -0.002720  -0.004517
    16  H   -0.002678   0.005274
    17  C    0.371327   0.377245
    18  H   -0.031442  -0.032946
    19  H    0.579223  -0.031380
    20  H   -0.031380   0.580188
 Mulliken atomic charges:
              1
     1  C   -0.442841
     2  H    0.139948
     3  H    0.146015
     4  H    0.141156
     5  C   -0.248433
     6  H    0.128899
     7  H    0.129642
     8  C   -0.248665
     9  H    0.125177
    10  H    0.126189
    11  C   -0.246023
    12  H    0.124806
    13  H    0.130676
    14  C   -0.246480
    15  H    0.129755
    16  H    0.129331
    17  C   -0.441549
    18  H    0.140794
    19  H    0.140932
    20  H    0.140671
 Sum of Mulliken atomic charges =   0.00000
 Mulliken charges with hydrogens summed into heavy atoms:
              1
     1  C   -0.015723
     5  C    0.010109
     8  C    0.002702
    11  C    0.009460
    14  C    0.012606
    17  C   -0.019153
 Sum of Mulliken charges with hydrogens summed into heavy atoms =   0.00000
 Electronic spatial extent (au):  <R**2>=           1035.9088
 Charge=              0.0000 electrons
 Dipole moment (field-independent basis, Debye):
    X=             -0.0238    Y=             -0.0531    Z=              0.0044  Tot=              0.0583
 Quadrupole moment (field-independent basis, Debye-Ang):
   XX=            -41.9302   YY=            -41.6392   ZZ=            -41.1231
   XY=             -0.0272   XZ=             -0.0488   YZ=             -0.1478
 Traceless Quadrupole moment (field-independent basis, Debye-Ang):
   XX=             -0.3660   YY=             -0.0751   ZZ=              0.4411
   XY=             -0.0272   XZ=             -0.0488   YZ=             -0.1478
 Octapole moment (field-independent basis, Debye-Ang**2):
  XXX=             -1.7257  YYY=             -0.2606  ZZZ=             -0.0016  XYY=              0.2675
  XXY=             -1.8104  XXZ=             -0.2242  XZZ=              0.1740  YZZ=             -0.0337
  YYZ=              0.2458  XYZ=             -0.7396
 Hexadecapole moment (field-independent basis, Debye-Ang**3):
 XXXX=          -1141.5475 YYYY=           -188.0821 ZZZZ=            -99.4076 XXXY=             -4.8353
 XXXZ=             -5.5077 YYYX=              1.8231 YYYZ=             -1.6622 ZZZX=              1.9477
 ZZZY=              0.4565 XXYY=           -225.2210 XXZZ=           -207.4550 YYZZ=            -50.1228
 XXYZ=              1.2942 YYXZ=             -0.8168 ZZXY=              0.1316
 N-N= 2.463230418071D+02 E-N=-1.039569889484D+03  KE= 2.346209379810D+02
 No NMR shielding tensors so no spin-rotation constants.
 Leave Link  601 at Fri Sep 18 13:28:06 2015, MaxMem=  402653184 cpu:       0.3
 (Enter /share/apps/g09/l9999.exe)
 1\1\GINC-COMPUTE-0-13\FOpt\RB3LYP\6-31G(d)\C6H14\HETANJIN\18-Sep-2015\
 0\\#p B3LYP/6-31G(d) opt=tight int=ultrafine\\using B3LYP/6-31G(d) to 
 do opt and freq calc.\\0,1\C,-2.5978543184,0.8888918437,-0.197757891\H
 ,-2.6626899218,0.8540760236,-1.2927349373\H,-1.9573955598,1.7370094515
 ,0.0689791476\H,-3.6016663413,1.1020634573,0.1874641447\C,-2.061338117
 1,-0.4331951882,0.364189252\H,-2.0098395183,-0.3699515647,1.4607528541
 \H,-2.7814086693,-1.2319796262,0.140485119\C,-0.6845698328,-0.84646946
 89,-0.1825857668\H,-0.7372374111,-0.9127723158,-1.2799004873\H,-0.4550
 811318,-1.8619174977,0.1712361611\C,0.4703639831,0.0841712701,0.212888
 0592\H,0.5030018586,0.1742162051,1.3094809616\H,0.2846946587,1.0974896
 271,-0.1696819107\C,1.8366681572,-0.3955042175,-0.2947135105\H,1.80258
 74785,-0.4902883823,-1.3895327475\H,2.0314842134,-1.4065189628,0.09083
 33043\C,2.9895181306,0.53271678,0.1011006096\H,3.0711309654,0.62062846
 17,1.1916126484\H,3.9500256453,0.1626522225,-0.2755928548\H,2.84121873
 09,1.5427608814,-0.3006991556\\Version=EM64L-G09RevA.01\State=1-A\HF=-
 237.084132\RMSD=6.187e-09\RMSF=7.790e-07\Dipole=-0.0093553,-0.0209104,
 0.0014905\Quadrupole=-0.2725787,-0.0526489,0.3252276,-0.0204945,-0.032
 7338,-0.1151516\PG=C01 [X(C6H14)]\\@


 IN-LAWS ARE LIKE SEEDS. YOU DON'T NEED THEM
 BUT THEY COME WITH THE TOMATO.
 Job cpu time:  0 days  0 hours 15 minutes  6.4 seconds.
 File lengths (MBytes):  RWF=     15 Int=      0 D2E=      0 Chk=      2 Scr=      1
 Normal termination of Gaussian 09 at Fri Sep 18 13:28:06 2015.
