 Entering Gaussian System, Link 0=/share/apps/g09/g09
 Input=C6H14_1_02_1_opt_PM6.gjf
 Output=C6H14_1_02_1_opt_PM6.log
 Initial command:
 /share/apps/g09/l1.exe /state/partition1/Gau-12402.inp -scrdir=/state/partition1/
 Entering Link 1 = /share/apps/g09/l1.exe PID=     12406.
  
 Copyright (c) 1988,1990,1992,1993,1995,1998,2003,2009, Gaussian, Inc.
                  All Rights Reserved.
  
 This is part of the Gaussian(R) 09 program.  It is based on
 the Gaussian(R) 03 system (copyright 2003, Gaussian, Inc.),
 the Gaussian(R) 98 system (copyright 1998, Gaussian, Inc.),
 the Gaussian(R) 94 system (copyright 1995, Gaussian, Inc.),
 the Gaussian 92(TM) system (copyright 1992, Gaussian, Inc.),
 the Gaussian 90(TM) system (copyright 1990, Gaussian, Inc.),
 the Gaussian 88(TM) system (copyright 1988, Gaussian, Inc.),
 the Gaussian 86(TM) system (copyright 1986, Carnegie Mellon
 University), and the Gaussian 82(TM) system (copyright 1983,
 Carnegie Mellon University). Gaussian is a federally registered
 trademark of Gaussian, Inc.
  
 This software contains proprietary and confidential information,
 including trade secrets, belonging to Gaussian, Inc.
  
 This software is provided under written license and may be
 used, copied, transmitted, or stored only in accord with that
 written license.
  
 The following legend is applicable only to US Government
 contracts under FAR:
  
                    RESTRICTED RIGHTS LEGEND
  
 Use, reproduction and disclosure by the US Government is
 subject to restrictions as set forth in subparagraphs (a)
 and (c) of the Commercial Computer Software - Restricted
 Rights clause in FAR 52.227-19.
  
 Gaussian, Inc.
 340 Quinnipiac St., Bldg. 40, Wallingford CT 06492
  
  
 ---------------------------------------------------------------
 Warning -- This program may not be used in any manner that
 competes with the business of Gaussian, Inc. or will provide
 assistance to any competitor of Gaussian, Inc.  The licensee
 of this program is prohibited from giving any competitor of
 Gaussian, Inc. access to this program.  By using this program,
 the user acknowledges that Gaussian, Inc. is engaged in the
 business of creating and licensing software in the field of
 computational chemistry and represents and warrants to the
 licensee that it is not a competitor of Gaussian, Inc. and that
 it will not use this program in any manner prohibited above.
 ---------------------------------------------------------------
  

 Cite this work as:
 Gaussian 09, Revision A.01,
 M. J. Frisch, G. W. Trucks, H. B. Schlegel, G. E. Scuseria, 
 M. A. Robb, J. R. Cheeseman, G. Scalmani, V. Barone, B. Mennucci, 
 G. A. Petersson, H. Nakatsuji, M. Caricato, X. Li, H. P. Hratchian, 
 A. F. Izmaylov, J. Bloino, G. Zheng, J. L. Sonnenberg, M. Hada, 
 M. Ehara, K. Toyota, R. Fukuda, J. Hasegawa, M. Ishida, T. Nakajima, 
 Y. Honda, O. Kitao, H. Nakai, T. Vreven, J. A. Montgomery, Jr., 
 J. E. Peralta, F. Ogliaro, M. Bearpark, J. J. Heyd, E. Brothers, 
 K. N. Kudin, V. N. Staroverov, R. Kobayashi, J. Normand, 
 K. Raghavachari, A. Rendell, J. C. Burant, S. S. Iyengar, J. Tomasi, 
 M. Cossi, N. Rega, J. M. Millam, M. Klene, J. E. Knox, J. B. Cross, 
 V. Bakken, C. Adamo, J. Jaramillo, R. Gomperts, R. E. Stratmann, 
 O. Yazyev, A. J. Austin, R. Cammi, C. Pomelli, J. W. Ochterski, 
 R. L. Martin, K. Morokuma, V. G. Zakrzewski, G. A. Voth, 
 P. Salvador, J. J. Dannenberg, S. Dapprich, A. D. Daniels, 
 O. Farkas, J. B. Foresman, J. V. Ortiz, J. Cioslowski, 
 and D. J. Fox, Gaussian, Inc., Wallingford CT, 2009.
 
 ******************************************
 Gaussian 09:  EM64L-G09RevA.01  8-May-2009
                14-Sep-2015 
 ******************************************
 %mem=3GB
 %nprocshared=2
 Will use up to    2 processors via shared memory.
 %chk=C6H14_1_02_1_opt_PM6.chk
 ----------
 #p PM6 opt
 ----------
 1/14=-1,18=20,19=15,26=1,38=1/1,3;
 2/9=110,12=2,17=6,18=5,40=1/2;
 3/5=2,16=1,25=1,41=3900000,71=1/1,2,3;
 4/35=1/1;
 5/5=2,35=1,38=5/2;
 6/7=2,8=2,9=2,10=2,28=1/1;
 7//1,2,3,16;
 1/14=-1,18=20,19=15/3(2);
 2/9=110/2;
 99//99;
 2/9=110/2;
 3/5=2,16=1,25=1,41=3900000,71=1,135=20/1,2,3;
 4/5=5,16=3,35=1/1;
 5/5=2,35=1,38=5/2;
 7//1,2,3,16;
 1/14=-1,18=20,19=15/3(-5);
 2/9=110/2;
 6/7=2,8=2,9=2,10=2,19=2,28=1/1;
 99/9=1/99;
 Leave Link    1 at Mon Sep 14 19:11:51 2015, MaxMem=  402653184 cpu:       1.8
 (Enter /share/apps/g09/l101.exe)
 ----------------------------------
 using PM6 to do opt and freq calc.
 ----------------------------------
 Symbolic Z-matrix:
 Charge =  0 Multiplicity = 1
 C                     1.8859    1.891    -0.7928 
 H                     1.0292    2.5899   -0.6651 
 H                     1.9165    1.5352   -1.8477 
 H                     2.8257    2.4481   -0.5775 
 C                     1.7664    0.7074    0.1665 
 H                     2.7027    0.1076    0.087 
 H                     1.6963    1.0888    1.2115 
 C                     0.5799   -0.2228   -0.1261 
 H                     0.6789   -1.1108    0.5412 
 H                     0.6432   -0.5812   -1.1802 
 C                    -0.793     0.4213    0.1165 
 H                    -0.9408    1.2584   -0.604 
 H                    -0.8267    0.8339    1.1519 
 C                    -1.9369   -0.5852   -0.0596 
 H                    -1.81     -1.4245    0.6632 
 H                    -1.9097   -1.0032   -1.0928 
 C                    -3.305     0.0512    0.1721 
 H                    -3.4778    0.8749   -0.5576 
 H                    -4.1007   -0.7162    0.0384 
 H                    -3.3727    0.4588    1.2065 
 
 NAtoms=     20 NQM=     20 NQMF=      0 NMic=      0 NMicF=      0 NTot=     20.
                    Isotopes and Nuclear Properties:
 (Nuclear quadrupole moments (NQMom) in fm**2, nuclear magnetic moments (NMagM)
  in nuclear magnetons)

  Atom         1           2           3           4           5           6           7           8           9          10
 IAtWgt=          12           1           1           1          12           1           1          12           1           1
 AtmWgt=  12.0000000   1.0078250   1.0078250   1.0078250  12.0000000   1.0078250   1.0078250  12.0000000   1.0078250   1.0078250
 NucSpn=           0           1           1           1           0           1           1           0           1           1
 AtZEff=   0.0000000   0.0000000   0.0000000   0.0000000   0.0000000   0.0000000   0.0000000   0.0000000   0.0000000   0.0000000
 NQMom=    0.0000000   0.0000000   0.0000000   0.0000000   0.0000000   0.0000000   0.0000000   0.0000000   0.0000000   0.0000000
 NMagM=    0.0000000   2.7928460   2.7928460   2.7928460   0.0000000   2.7928460   2.7928460   0.0000000   2.7928460   2.7928460

  Atom        11          12          13          14          15          16          17          18          19          20
 IAtWgt=          12           1           1          12           1           1          12           1           1           1
 AtmWgt=  12.0000000   1.0078250   1.0078250  12.0000000   1.0078250   1.0078250  12.0000000   1.0078250   1.0078250   1.0078250
 NucSpn=           0           1           1           0           1           1           0           1           1           1
 AtZEff=   0.0000000   0.0000000   0.0000000   0.0000000   0.0000000   0.0000000   0.0000000   0.0000000   0.0000000   0.0000000
 NQMom=    0.0000000   0.0000000   0.0000000   0.0000000   0.0000000   0.0000000   0.0000000   0.0000000   0.0000000   0.0000000
 NMagM=    0.0000000   2.7928460   2.7928460   0.0000000   2.7928460   2.7928460   0.0000000   2.7928460   2.7928460   2.7928460
 Leave Link  101 at Mon Sep 14 19:11:53 2015, MaxMem=  402653184 cpu:       0.1
 (Enter /share/apps/g09/l103.exe)

 GradGradGradGradGradGradGradGradGradGradGradGradGradGradGradGradGradGrad
 Berny optimization.
 Initialization pass.
                           ----------------------------
                           !    Initial Parameters    !
                           ! (Angstroms and Degrees)  !
 --------------------------                            --------------------------
 ! Name  Definition              Value          Derivative Info.                !
 --------------------------------------------------------------------------------
 ! R1    R(1,2)                  1.113          estimate D2E/DX2                !
 ! R2    R(1,3)                  1.1137         estimate D2E/DX2                !
 ! R3    R(1,4)                  1.1135         estimate D2E/DX2                !
 ! R4    R(1,5)                  1.5282         estimate D2E/DX2                !
 ! R5    R(5,6)                  1.1148         estimate D2E/DX2                !
 ! R6    R(5,7)                  1.1146         estimate D2E/DX2                !
 ! R7    R(5,8)                  1.5358         estimate D2E/DX2                !
 ! R8    R(8,9)                  1.1152         estimate D2E/DX2                !
 ! R9    R(8,10)                 1.1152         estimate D2E/DX2                !
 ! R10   R(8,11)                 1.5358         estimate D2E/DX2                !
 ! R11   R(11,12)                1.1143         estimate D2E/DX2                !
 ! R12   R(11,13)                1.1151         estimate D2E/DX2                !
 ! R13   R(11,14)                1.5338         estimate D2E/DX2                !
 ! R14   R(14,15)                1.1149         estimate D2E/DX2                !
 ! R15   R(14,16)                1.1149         estimate D2E/DX2                !
 ! R16   R(14,17)                1.5266         estimate D2E/DX2                !
 ! R17   R(17,18)                1.1139         estimate D2E/DX2                !
 ! R18   R(17,19)                1.1135         estimate D2E/DX2                !
 ! R19   R(17,20)                1.1139         estimate D2E/DX2                !
 ! A1    A(2,1,3)              109.2958         estimate D2E/DX2                !
 ! A2    A(2,1,4)              108.258          estimate D2E/DX2                !
 ! A3    A(2,1,5)              110.7406         estimate D2E/DX2                !
 ! A4    A(3,1,4)              108.6499         estimate D2E/DX2                !
 ! A5    A(3,1,5)              110.4443         estimate D2E/DX2                !
 ! A6    A(4,1,5)              109.3968         estimate D2E/DX2                !
 ! A7    A(1,5,6)              107.8346         estimate D2E/DX2                !
 ! A8    A(1,5,7)              109.1725         estimate D2E/DX2                !
 ! A9    A(1,5,8)              114.1994         estimate D2E/DX2                !
 ! A10   A(6,5,7)              107.6851         estimate D2E/DX2                !
 ! A11   A(6,5,8)              108.0233         estimate D2E/DX2                !
 ! A12   A(7,5,8)              109.7112         estimate D2E/DX2                !
 ! A13   A(5,8,9)              107.4399         estimate D2E/DX2                !
 ! A14   A(5,8,10)             109.323          estimate D2E/DX2                !
 ! A15   A(5,8,11)             113.9862         estimate D2E/DX2                !
 ! A16   A(9,8,10)             107.7376         estimate D2E/DX2                !
 ! A17   A(9,8,11)             108.5902         estimate D2E/DX2                !
 ! A18   A(10,8,11)            109.5635         estimate D2E/DX2                !
 ! A19   A(8,11,12)            109.3596         estimate D2E/DX2                !
 ! A20   A(8,11,13)            109.2007         estimate D2E/DX2                !
 ! A21   A(8,11,14)            111.9224         estimate D2E/DX2                !
 ! A22   A(12,11,13)           108.5664         estimate D2E/DX2                !
 ! A23   A(12,11,14)           108.6511         estimate D2E/DX2                !
 ! A24   A(13,11,14)           109.0793         estimate D2E/DX2                !
 ! A25   A(11,14,15)           109.5531         estimate D2E/DX2                !
 ! A26   A(11,14,16)           109.5261         estimate D2E/DX2                !
 ! A27   A(11,14,17)           112.1719         estimate D2E/DX2                !
 ! A28   A(15,14,16)           108.4086         estimate D2E/DX2                !
 ! A29   A(15,14,17)           108.5084         estimate D2E/DX2                !
 ! A30   A(16,14,17)           108.5919         estimate D2E/DX2                !
 ! A31   A(14,17,18)           110.3571         estimate D2E/DX2                !
 ! A32   A(14,17,19)           109.5652         estimate D2E/DX2                !
 ! A33   A(14,17,20)           110.3633         estimate D2E/DX2                !
 ! A34   A(18,17,19)           108.6695         estimate D2E/DX2                !
 ! A35   A(18,17,20)           109.1668         estimate D2E/DX2                !
 ! A36   A(19,17,20)           108.6787         estimate D2E/DX2                !
 ! D1    D(2,1,5,6)           -173.2559         estimate D2E/DX2                !
 ! D2    D(2,1,5,7)            -56.5297         estimate D2E/DX2                !
 ! D3    D(2,1,5,8)             66.6829         estimate D2E/DX2                !
 ! D4    D(3,1,5,6)             65.5285         estimate D2E/DX2                !
 ! D5    D(3,1,5,7)           -177.7453         estimate D2E/DX2                !
 ! D6    D(3,1,5,8)            -54.5327         estimate D2E/DX2                !
 ! D7    D(4,1,5,6)            -54.014          estimate D2E/DX2                !
 ! D8    D(4,1,5,7)             62.7122         estimate D2E/DX2                !
 ! D9    D(4,1,5,8)           -174.0752         estimate D2E/DX2                !
 ! D10   D(1,5,8,9)            172.394          estimate D2E/DX2                !
 ! D11   D(1,5,8,10)            55.7431         estimate D2E/DX2                !
 ! D12   D(1,5,8,11)           -67.2403         estimate D2E/DX2                !
 ! D13   D(6,5,8,9)             52.4385         estimate D2E/DX2                !
 ! D14   D(6,5,8,10)           -64.2124         estimate D2E/DX2                !
 ! D15   D(6,5,8,11)           172.8042         estimate D2E/DX2                !
 ! D16   D(7,5,8,9)            -64.6855         estimate D2E/DX2                !
 ! D17   D(7,5,8,10)           178.6636         estimate D2E/DX2                !
 ! D18   D(7,5,8,11)            55.6802         estimate D2E/DX2                !
 ! D19   D(5,8,11,12)           65.0139         estimate D2E/DX2                !
 ! D20   D(5,8,11,13)          -53.6538         estimate D2E/DX2                !
 ! D21   D(5,8,11,14)         -174.5353         estimate D2E/DX2                !
 ! D22   D(9,8,11,12)         -175.2673         estimate D2E/DX2                !
 ! D23   D(9,8,11,13)           66.0651         estimate D2E/DX2                !
 ! D24   D(9,8,11,14)          -54.8164         estimate D2E/DX2                !
 ! D25   D(10,8,11,12)         -57.8384         estimate D2E/DX2                !
 ! D26   D(10,8,11,13)        -176.506          estimate D2E/DX2                !
 ! D27   D(10,8,11,14)          62.6125         estimate D2E/DX2                !
 ! D28   D(8,11,14,15)          59.7782         estimate D2E/DX2                !
 ! D29   D(8,11,14,16)         -59.0063         estimate D2E/DX2                !
 ! D30   D(8,11,14,17)        -179.6575         estimate D2E/DX2                !
 ! D31   D(12,11,14,15)       -179.3592         estimate D2E/DX2                !
 ! D32   D(12,11,14,16)         61.8562         estimate D2E/DX2                !
 ! D33   D(12,11,14,17)        -58.795          estimate D2E/DX2                !
 ! D34   D(13,11,14,15)        -61.1737         estimate D2E/DX2                !
 ! D35   D(13,11,14,16)       -179.9582         estimate D2E/DX2                !
 ! D36   D(13,11,14,17)         59.3906         estimate D2E/DX2                !
 ! D37   D(11,14,17,18)         60.6446         estimate D2E/DX2                !
 ! D38   D(11,14,17,19)       -179.7367         estimate D2E/DX2                !
 ! D39   D(11,14,17,20)        -60.1028         estimate D2E/DX2                !
 ! D40   D(15,14,17,18)       -178.1882         estimate D2E/DX2                !
 ! D41   D(15,14,17,19)        -58.5695         estimate D2E/DX2                !
 ! D42   D(15,14,17,20)         61.0644         estimate D2E/DX2                !
 ! D43   D(16,14,17,18)        -60.5454         estimate D2E/DX2                !
 ! D44   D(16,14,17,19)         59.0732         estimate D2E/DX2                !
 ! D45   D(16,14,17,20)        178.7071         estimate D2E/DX2                !
 --------------------------------------------------------------------------------
 Trust Radius=3.00D-01 FncErr=1.00D-07 GrdErr=1.00D-07
 Number of steps in this run= 110 maximum allowed number of steps= 120.
 GradGradGradGradGradGradGradGradGradGradGradGradGradGradGradGradGradGrad

 Leave Link  103 at Mon Sep 14 19:11:54 2015, MaxMem=  402653184 cpu:       0.0
 (Enter /share/apps/g09/l202.exe)
                          Input orientation:                          
 ---------------------------------------------------------------------
 Center     Atomic      Atomic             Coordinates (Angstroms)
 Number     Number       Type             X           Y           Z
 ---------------------------------------------------------------------
      1          6           0        1.885900    1.891000   -0.792800
      2          1           0        1.029200    2.589900   -0.665100
      3          1           0        1.916500    1.535200   -1.847700
      4          1           0        2.825700    2.448100   -0.577500
      5          6           0        1.766400    0.707400    0.166500
      6          1           0        2.702700    0.107600    0.087000
      7          1           0        1.696300    1.088800    1.211500
      8          6           0        0.579900   -0.222800   -0.126100
      9          1           0        0.678900   -1.110800    0.541200
     10          1           0        0.643200   -0.581200   -1.180200
     11          6           0       -0.793000    0.421300    0.116500
     12          1           0       -0.940800    1.258400   -0.604000
     13          1           0       -0.826700    0.833900    1.151900
     14          6           0       -1.936900   -0.585200   -0.059600
     15          1           0       -1.810000   -1.424500    0.663200
     16          1           0       -1.909700   -1.003200   -1.092800
     17          6           0       -3.305000    0.051200    0.172100
     18          1           0       -3.477800    0.874900   -0.557600
     19          1           0       -4.100700   -0.716200    0.038400
     20          1           0       -3.372700    0.458800    1.206500
 ---------------------------------------------------------------------
                    Distance matrix (angstroms):
                    1          2          3          4          5
     1  C    0.000000
     2  H    1.112971   0.000000
     3  H    1.113707   1.816105   0.000000
     4  H    1.113525   1.804215   1.809265   0.000000
     5  C    1.528217   2.186053   2.182839   2.169260   0.000000
     6  H    2.149820   3.086757   2.529667   2.436110   1.114782
     7  H    2.167185   2.493983   3.099430   2.514709   1.114632
     8  C    2.572601   2.898909   2.800173   3.518677   1.535796
     9  H    3.499601   3.908075   3.773568   4.304185   2.151490
    10  H    2.793950   3.235769   2.558515   3.781959   2.176159
    11  C    3.188001   2.938390   3.527073   4.205300   2.575826
    12  H    2.902768   2.378555   3.128509   3.950014   2.868136
    13  H    3.501074   3.135186   4.124872   4.351608   2.776902
    14  C    4.613345   4.386985   4.747851   5.670228   3.928914
    15  H    5.174181   5.093216   5.380636   6.166529   4.193131
    16  H    4.782570   4.661591   4.653295   5.882263   4.245668
    17  C    5.591184   5.092268   5.791883   6.625142   5.113680
    18  H    5.464161   4.823467   5.585591   6.496881   5.296604
    19  H    6.582383   6.143377   6.695735   7.639839   6.038701
    20  H    5.805280   5.236525   6.201807   6.749825   5.249167
                    6          7          8          9         10
     6  H    0.000000
     7  H    1.800026   0.000000
     8  C    2.158901   2.180784   0.000000
     9  H    2.405528   2.514487   1.115184   0.000000
    10  H    2.514315   3.101314   1.115161   1.801380   0.000000
    11  C    3.509871   2.800214   1.535765   2.166608   2.179245
    12  H    3.882900   3.206104   2.175976   3.089987   2.495033
    13  H    3.757418   2.536544   2.174494   2.534096   3.098678
    14  C    4.693331   4.197394   2.543627   2.734890   2.812948
    15  H    4.800396   4.348730   2.789032   2.511556   3.182368
    16  H    4.888767   4.763350   2.782380   3.063068   2.589019
    17  C    6.008567   5.212482   3.905950   4.166286   4.221010
    18  H    6.261217   5.472365   4.225644   4.735876   4.414805
    19  H    6.853266   6.183801   4.709408   4.822146   4.899775
    20  H    6.187658   5.108002   4.226517   4.395649   4.785958
                   11         12         13         14         15
    11  C    0.000000
    12  H    1.114317   0.000000
    13  H    1.115091   1.810084   0.000000
    14  C    1.533806   2.165051   2.171203   0.000000
    15  H    2.177188   3.091805   2.511190   1.114885   0.000000
    16  H    2.176838   2.508491   3.096208   1.114884   1.808582
    17  C    2.539726   2.765701   2.777517   1.526561   2.157289
    18  H    2.805052   2.566241   3.154743   2.180429   3.091787
    19  H    3.498698   3.781097   3.789692   2.169976   2.477775
    20  H    2.800778   3.135508   2.574062   2.180474   2.506796
                   16         17         18         19         20
    16  H    0.000000
    17  C    2.158378   0.000000
    18  H    2.504523   1.113914   0.000000
    19  H    2.482431   1.113516   1.809646   0.000000
    20  H    3.092668   1.113869   1.815553   1.809715   0.000000
 Stoichiometry    C6H14
 Framework group  C1[X(C6H14)]
 Deg. of freedom    54
 Full point group                 C1      NOp   1
 Largest Abelian subgroup         C1      NOp   1
 Largest concise Abelian subgroup C1      NOp   1
                         Standard orientation:                         
 ---------------------------------------------------------------------
 Center     Atomic      Atomic             Coordinates (Angstroms)
 Number     Number       Type             X           Y           Z
 ---------------------------------------------------------------------
      1          6           0        2.598773    0.868172   -0.225847
      2          1           0        1.975252    1.739566    0.075147
      3          1           0        2.628576    0.803355   -1.337267
      4          1           0        3.634101    1.033913    0.149071
      5          6           0        2.044360   -0.425459    0.369628
      6          1           0        2.767761   -1.242939    0.143451
      7          1           0        1.985439   -0.322484    1.477929
      8          6           0        0.673070   -0.837218   -0.185968
      9          1           0        0.441778   -1.852424    0.213398
     10          1           0        0.733141   -0.914693   -1.296812
     11          6           0       -0.468887    0.113474    0.202225
     12          1           0       -0.293605    1.110722   -0.263042
     13          1           0       -0.483119    0.236285    1.310441
     14          6           0       -1.833484   -0.411190   -0.261631
     15          1           0       -2.029518   -1.404607    0.204910
     16          1           0       -1.827230   -0.537511   -1.369318
     17          6           0       -2.972043    0.533764    0.114045
     18          1           0       -2.823543    1.528795   -0.364145
     19          1           0       -3.939795    0.110045   -0.237857
     20          1           0       -3.019979    0.662723    1.219385
 ---------------------------------------------------------------------
 Rotational constants (GHZ):      8.7589171      1.3359144      1.2469159
 Leave Link  202 at Mon Sep 14 19:11:56 2015, MaxMem=  402653184 cpu:       0.0
 (Enter /share/apps/g09/l301.exe)
 Standard basis: VSTO-6G (5D, 7F)
 Ernie: Thresh=  0.10000D-02 Tol=  0.10000D-05 Strict=F.
  NNHCO=     0 NNPyr=     0 NCTC=     0               EPep=         0.000000000
    EC=       124.899166423  ECS=         3.145477080   EG=         0.309003150
   EHC=         0.000409390  EAt=       -31.187935768  AtH=         2.796400831
 EPDDG=         0.000000000  ECC=       128.354056043 EAtT=        33.984336599
 There are    38 symmetry adapted basis functions of A   symmetry.
 Integral buffers will be    131072 words long.
 Regular integral format.
 Two-electron integral symmetry is turned off.
    38 basis functions,   228 primitive gaussians,    38 cartesian basis functions
    19 alpha electrons       19 beta electrons
       nuclear repulsion energy       162.3383926416 Hartrees.
 IExCor=    0 DFT=F Ex=HF Corr=None ExCW=0 ScaHFX=  1.000000
 ScaDFX=  1.000000  1.000000  1.000000  1.000000 ScalE2=  1.000000  1.000000
 IRadAn=      0 IRanWt=     -1 IRanGd=            0 ICorTp=0
 Leave Link  301 at Mon Sep 14 19:11:56 2015, MaxMem=  402653184 cpu:       0.1
 (Enter /share/apps/g09/l302.exe)
 Do NDO integrals.
 NPDir=0 NMtPBC=     1 NCelOv=     1 NCel=       1 NClECP=     1 NCelD=      1
         NCelK=      1 NCelE2=     1 NClLst=     1 CellRange=     0.0.
 One-electron integrals computed using PRISM.
 NBasis=    38 RedAO= F  NBF=    38
 NBsUse=    38 1.00D-04 NBFU=    38
 Leave Link  302 at Mon Sep 14 19:11:57 2015, MaxMem=  402653184 cpu:       0.2
 (Enter /share/apps/g09/l303.exe)
 DipDrv:  MaxL=1.
 Leave Link  303 at Mon Sep 14 19:11:57 2015, MaxMem=  402653184 cpu:       0.0
 (Enter /share/apps/g09/l401.exe)
 Simple Huckel Guess.
 Initial guess orbital symmetries:
       Occupied  (A) (A) (A) (A) (A) (A) (A) (A) (A) (A) (A) (A)
                 (A) (A) (A) (A) (A) (A) (A)
       Virtual   (A) (A) (A) (A) (A) (A) (A) (A) (A) (A) (A) (A)
                 (A) (A) (A) (A) (A) (A) (A)
 The electronic state of the initial guess is 1-A.
 Leave Link  401 at Mon Sep 14 19:11:58 2015, MaxMem=  402653184 cpu:       0.1
 (Enter /share/apps/g09/l502.exe)
 Closed shell SCF:
 Requested convergence on RMS density matrix=1.00D-08 within 128 cycles.
 Requested convergence on MAX density matrix=1.00D-06.
 Requested convergence on             energy=1.00D-06.
 No special actions if energy rises.
 Using DIIS extrapolation, IDIIS=  1040.
 Overlap will be assumed to be unity.
 Two-electron integral symmetry not used.
 Keep J ints in memory in canonical form, NReq=884654.
 IEnd=       81865 IEndB=       81865 NGot=   402653184 MDV=   402586639
 LenX=   402586639 LenY=   402584754
 Symmetry not used in FoFDir.
 MinBra= 0 MaxBra= 1 Meth=40.
 IRaf=       0 NMat=   1 IRICut=       1 DoRegI=T DoRafI=F ISym2E= 0 JSym2E=0.

 Cycle   1  Pass 1  IDiag  1:
 E= 0.733468200509435E-01
 DIIS: error= 2.20D-02 at cycle   1 NSaved=   1.
 NSaved= 1 IEnMin= 1 EnMin= 0.733468200509435E-01 IErMin= 1 ErrMin= 2.20D-02
 ErrMax= 2.20D-02 EMaxC= 1.00D-01 BMatC= 4.41D-02 BMatP= 4.41D-02
 IDIUse=3 WtCom= 7.80D-01 WtEn= 2.20D-01
 Coeff-Com:  0.100D+01
 Coeff-En:   0.100D+01
 Coeff:      0.100D+01
 GapD=    2.000 DampG=2.000 DampE=0.500 DampFc=1.0000 IDamp=-1.
 RMSDP=8.41D-03 MaxDP=6.95D-02              OVMax= 0.00D+00

 Cycle   2  Pass 1  IDiag  1:
 E=-0.437193898038402E-01 Delta-E=       -0.117066209855 Rises=F Damp=F
 DIIS: error= 5.37D-03 at cycle   2 NSaved=   2.
 NSaved= 2 IEnMin= 2 EnMin=-0.437193898038402E-01 IErMin= 2 ErrMin= 5.37D-03
 ErrMax= 5.37D-03 EMaxC= 1.00D-01 BMatC= 2.96D-03 BMatP= 4.41D-02
 IDIUse=3 WtCom= 9.46D-01 WtEn= 5.37D-02
 Coeff-Com: -0.324D+00 0.132D+01
 Coeff-En:   0.000D+00 0.100D+01
 Coeff:     -0.307D+00 0.131D+01
 RMSDP=3.05D-03 MaxDP=2.15D-02 DE=-1.17D-01 OVMax= 0.00D+00

 Cycle   3  Pass 1  IDiag  3:
 E=-0.533117828757952E-01 Delta-E=       -0.009592393072 Rises=F Damp=F
 DIIS: error= 1.47D-03 at cycle   3 NSaved=   3.
 NSaved= 3 IEnMin= 3 EnMin=-0.533117828757952E-01 IErMin= 3 ErrMin= 1.47D-03
 ErrMax= 1.47D-03 EMaxC= 1.00D-01 BMatC= 8.33D-05 BMatP= 2.96D-03
 IDIUse=3 WtCom= 9.85D-01 WtEn= 1.47D-02
 Coeff-Com:  0.246D+00-0.105D+01 0.181D+01
 Coeff-En:   0.000D+00 0.000D+00 0.100D+01
 Coeff:      0.243D+00-0.104D+01 0.179D+01
 Gap=     0.558 Goal=   None    Shift=    0.000
 RMSDP=8.74D-04 MaxDP=8.99D-03 DE=-9.59D-03 OVMax= 0.00D+00

 Cycle   4  Pass 1  IDiag  3:
 E=-0.538089679724294E-01 Delta-E=       -0.000497185097 Rises=F Damp=F
 DIIS: error= 3.39D-04 at cycle   4 NSaved=   4.
 NSaved= 4 IEnMin= 4 EnMin=-0.538089679724294E-01 IErMin= 4 ErrMin= 3.39D-04
 ErrMax= 3.39D-04 EMaxC= 1.00D-01 BMatC= 4.36D-06 BMatP= 8.33D-05
 IDIUse=3 WtCom= 9.97D-01 WtEn= 3.39D-03
 Coeff-Com: -0.118D+00 0.509D+00-0.103D+01 0.164D+01
 Coeff-En:   0.000D+00 0.000D+00 0.000D+00 0.100D+01
 Coeff:     -0.118D+00 0.508D+00-0.103D+01 0.164D+01
 Gap=     0.559 Goal=   None    Shift=    0.000
 RMSDP=2.29D-04 MaxDP=2.38D-03 DE=-4.97D-04 OVMax= 0.00D+00

 Cycle   5  Pass 1  IDiag  3:
 E=-0.538384972421966E-01 Delta-E=       -0.000029529270 Rises=F Damp=F
 DIIS: error= 9.24D-05 at cycle   5 NSaved=   5.
 NSaved= 5 IEnMin= 5 EnMin=-0.538384972421966E-01 IErMin= 5 ErrMin= 9.24D-05
 ErrMax= 9.24D-05 EMaxC= 1.00D-01 BMatC= 3.62D-07 BMatP= 4.36D-06
 IDIUse=1 WtCom= 1.00D+00 WtEn= 0.00D+00
 Coeff-Com:  0.664D-01-0.288D+00 0.620D+00-0.119D+01 0.180D+01
 Coeff:      0.664D-01-0.288D+00 0.620D+00-0.119D+01 0.180D+01
 Gap=     0.558 Goal=   None    Shift=    0.000
 RMSDP=7.00D-05 MaxDP=6.36D-04 DE=-2.95D-05 OVMax= 0.00D+00

 Cycle   6  Pass 1  IDiag  3:
 E=-0.538412102040127E-01 Delta-E=       -0.000002712962 Rises=F Damp=F
 DIIS: error= 2.62D-05 at cycle   6 NSaved=   6.
 NSaved= 6 IEnMin= 6 EnMin=-0.538412102040127E-01 IErMin= 6 ErrMin= 2.62D-05
 ErrMax= 2.62D-05 EMaxC= 1.00D-01 BMatC= 2.77D-08 BMatP= 3.62D-07
 IDIUse=1 WtCom= 1.00D+00 WtEn= 0.00D+00
 Coeff-Com: -0.441D-03 0.257D-02-0.190D-01 0.888D-01-0.430D+00 0.136D+01
 Coeff:     -0.441D-03 0.257D-02-0.190D-01 0.888D-01-0.430D+00 0.136D+01
 Gap=     0.559 Goal=   None    Shift=    0.000
 RMSDP=1.99D-05 MaxDP=2.07D-04 DE=-2.71D-06 OVMax= 0.00D+00

 Cycle   7  Pass 1  IDiag  3:
 E=-0.538414078494895E-01 Delta-E=       -0.000000197645 Rises=F Damp=F
 DIIS: error= 5.59D-06 at cycle   7 NSaved=   7.
 NSaved= 7 IEnMin= 7 EnMin=-0.538414078494895E-01 IErMin= 7 ErrMin= 5.59D-06
 ErrMax= 5.59D-06 EMaxC= 1.00D-01 BMatC= 1.96D-09 BMatP= 2.77D-08
 IDIUse=1 WtCom= 1.00D+00 WtEn= 0.00D+00
 Coeff-Com:  0.894D-03-0.417D-02 0.145D-01-0.475D-01 0.204D+00-0.766D+00
 Coeff-Com:  0.160D+01
 Coeff:      0.894D-03-0.417D-02 0.145D-01-0.475D-01 0.204D+00-0.766D+00
 Coeff:      0.160D+01
 Gap=     0.559 Goal=   None    Shift=    0.000
 RMSDP=4.73D-06 MaxDP=5.20D-05 DE=-1.98D-07 OVMax= 0.00D+00

 Cycle   8  Pass 1  IDiag  3:
 E=-0.538414200436534E-01 Delta-E=       -0.000000012194 Rises=F Damp=F
 DIIS: error= 1.91D-06 at cycle   8 NSaved=   8.
 NSaved= 8 IEnMin= 8 EnMin=-0.538414200436534E-01 IErMin= 8 ErrMin= 1.91D-06
 ErrMax= 1.91D-06 EMaxC= 1.00D-01 BMatC= 1.05D-10 BMatP= 1.96D-09
 IDIUse=1 WtCom= 1.00D+00 WtEn= 0.00D+00
 Coeff-Com: -0.346D-03 0.171D-02-0.751D-02 0.279D-01-0.130D+00 0.513D+00
 Coeff-Com: -0.120D+01 0.179D+01
 Coeff:     -0.346D-03 0.171D-02-0.751D-02 0.279D-01-0.130D+00 0.513D+00
 Coeff:     -0.120D+01 0.179D+01
 Gap=     0.559 Goal=   None    Shift=    0.000
 RMSDP=1.11D-06 MaxDP=1.19D-05 DE=-1.22D-08 OVMax= 0.00D+00

 Cycle   9  Pass 1  IDiag  3:
 E=-0.538414206981486E-01 Delta-E=       -0.000000000654 Rises=F Damp=F
 DIIS: error= 2.59D-07 at cycle   9 NSaved=   9.
 NSaved= 9 IEnMin= 9 EnMin=-0.538414206981486E-01 IErMin= 9 ErrMin= 2.59D-07
 ErrMax= 2.59D-07 EMaxC= 1.00D-01 BMatC= 2.48D-12 BMatP= 1.05D-10
 IDIUse=1 WtCom= 1.00D+00 WtEn= 0.00D+00
 Coeff-Com: -0.324D-04 0.806D-04 0.940D-03-0.569D-02 0.326D-01-0.139D+00
 Coeff-Com:  0.343D+00-0.621D+00 0.139D+01
 Coeff:     -0.324D-04 0.806D-04 0.940D-03-0.569D-02 0.326D-01-0.139D+00
 Coeff:      0.343D+00-0.621D+00 0.139D+01
 Gap=     0.559 Goal=   None    Shift=    0.000
 RMSDP=1.48D-07 MaxDP=1.64D-06 DE=-6.54D-10 OVMax= 0.00D+00

 Cycle  10  Pass 1  IDiag  3:
 E=-0.538414207112794E-01 Delta-E=       -0.000000000013 Rises=F Damp=F
 DIIS: error= 4.01D-08 at cycle  10 NSaved=  10.
 NSaved=10 IEnMin=10 EnMin=-0.538414207112794E-01 IErMin=10 ErrMin= 4.01D-08
 ErrMax= 4.01D-08 EMaxC= 1.00D-01 BMatC= 1.27D-13 BMatP= 2.48D-12
 IDIUse=1 WtCom= 1.00D+00 WtEn= 0.00D+00
 Coeff-Com:  0.343D-05 0.114D-04-0.506D-03 0.264D-02-0.144D-01 0.608D-01
 Coeff-Com: -0.149D+00 0.278D+00-0.726D+00 0.155D+01
 Coeff:      0.343D-05 0.114D-04-0.506D-03 0.264D-02-0.144D-01 0.608D-01
 Coeff:     -0.149D+00 0.278D+00-0.726D+00 0.155D+01
 Gap=     0.559 Goal=   None    Shift=    0.000
 RMSDP=3.34D-08 MaxDP=3.62D-07 DE=-1.31D-11 OVMax= 0.00D+00

 Cycle  11  Pass 1  IDiag  3:
 E=-0.538414207120752E-01 Delta-E=       -0.000000000001 Rises=F Damp=F
 DIIS: error= 2.04D-08 at cycle  11 NSaved=  11.
 NSaved=11 IEnMin=11 EnMin=-0.538414207120752E-01 IErMin=11 ErrMin= 2.04D-08
 ErrMax= 2.04D-08 EMaxC= 1.00D-01 BMatC= 2.22D-14 BMatP= 1.27D-13
 IDIUse=1 WtCom= 1.00D+00 WtEn= 0.00D+00
 Coeff-Com:  0.436D-05-0.412D-04 0.494D-03-0.235D-02 0.123D-01-0.515D-01
 Coeff-Com:  0.126D+00-0.237D+00 0.640D+00-0.168D+01 0.219D+01
 Coeff:      0.436D-05-0.412D-04 0.494D-03-0.235D-02 0.123D-01-0.515D-01
 Coeff:      0.126D+00-0.237D+00 0.640D+00-0.168D+01 0.219D+01
 Gap=     0.559 Goal=   None    Shift=    0.000
 RMSDP=2.19D-08 MaxDP=2.20D-07 DE=-7.96D-13 OVMax= 0.00D+00

 Cycle  12  Pass 1  IDiag  3:
 E=-0.538414207122457E-01 Delta-E=        0.000000000000 Rises=F Damp=F
 DIIS: error= 4.46D-09 at cycle  12 NSaved=  12.
 NSaved=12 IEnMin=12 EnMin=-0.538414207122457E-01 IErMin=12 ErrMin= 4.46D-09
 ErrMax= 4.46D-09 EMaxC= 1.00D-01 BMatC= 1.23D-15 BMatP= 2.22D-14
 IDIUse=1 WtCom= 1.00D+00 WtEn= 0.00D+00
 Coeff-Com: -0.135D-05 0.147D-04-0.191D-03 0.918D-03-0.483D-02 0.202D-01
 Coeff-Com: -0.496D-01 0.932D-01-0.255D+00 0.706D+00-0.112D+01 0.161D+01
 Coeff:     -0.135D-05 0.147D-04-0.191D-03 0.918D-03-0.483D-02 0.202D-01
 Coeff:     -0.496D-01 0.932D-01-0.255D+00 0.706D+00-0.112D+01 0.161D+01
 Gap=     0.559 Goal=   None    Shift=    0.000
 RMSDP=5.06D-09 MaxDP=6.05D-08 DE=-1.71D-13 OVMax= 0.00D+00

 Cycle  13  Pass 2  IDiag  1:
 RMSDP=5.06D-09 MaxDP=6.05D-08 DE=-1.71D-13 OVMax= 0.00D+00

 SCF Done:  E(RPM6) = -0.538414207122E-01 A.U. after   13 cycles
             Convg  =    0.5057D-08             -V/T =  0.9990
 KE=-5.602791835206D+01 PE=-2.458731247921D+02 EE= 1.395088090818D+02
 Leave Link  502 at Mon Sep 14 19:11:59 2015, MaxMem=  402653184 cpu:       0.2
 (Enter /share/apps/g09/l601.exe)
 Copying SCF densities to generalized density rwf, IOpCl= 0 IROHF=0.

 **********************************************************************

            Population analysis using the SCF density.

 **********************************************************************

 Orbital symmetries:
       Occupied  (A) (A) (A) (A) (A) (A) (A) (A) (A) (A) (A) (A)
                 (A) (A) (A) (A) (A) (A) (A)
       Virtual   (A) (A) (A) (A) (A) (A) (A) (A) (A) (A) (A) (A)
                 (A) (A) (A) (A) (A) (A) (A)
 The electronic state is 1-A.
 Alpha  occ. eigenvalues --   -1.05032  -0.99465  -0.90222  -0.81580  -0.73781
 Alpha  occ. eigenvalues --   -0.71298  -0.59510  -0.56455  -0.54525  -0.51816
 Alpha  occ. eigenvalues --   -0.51165  -0.48609  -0.46532  -0.45308  -0.43810
 Alpha  occ. eigenvalues --   -0.42547  -0.41283  -0.40762  -0.40470
 Alpha virt. eigenvalues --    0.15374   0.15719   0.16858   0.17566   0.18460
 Alpha virt. eigenvalues --    0.20527   0.21037   0.21593   0.21849   0.21970
 Alpha virt. eigenvalues --    0.22684   0.22936   0.23562   0.23889   0.24191
 Alpha virt. eigenvalues --    0.24378   0.24571   0.25033   0.25324
          Condensed to atoms (all electrons):
              1          2          3          4          5          6
     1  C    4.458083   0.000000   0.000000   0.000000   0.000000   0.000000
     2  H    0.000000   0.852135   0.000000   0.000000   0.000000   0.000000
     3  H    0.000000   0.000000   0.852642   0.000000   0.000000   0.000000
     4  H    0.000000   0.000000   0.000000   0.858323   0.000000   0.000000
     5  C    0.000000   0.000000   0.000000   0.000000   4.225776   0.000000
     6  H    0.000000   0.000000   0.000000   0.000000   0.000000   0.877072
     7  H    0.000000   0.000000   0.000000   0.000000   0.000000   0.000000
     8  C    0.000000   0.000000   0.000000   0.000000   0.000000   0.000000
     9  H    0.000000   0.000000   0.000000   0.000000   0.000000   0.000000
    10  H    0.000000   0.000000   0.000000   0.000000   0.000000   0.000000
    11  C    0.000000   0.000000   0.000000   0.000000   0.000000   0.000000
    12  H    0.000000   0.000000   0.000000   0.000000   0.000000   0.000000
    13  H    0.000000   0.000000   0.000000   0.000000   0.000000   0.000000
    14  C    0.000000   0.000000   0.000000   0.000000   0.000000   0.000000
    15  H    0.000000   0.000000   0.000000   0.000000   0.000000   0.000000
    16  H    0.000000   0.000000   0.000000   0.000000   0.000000   0.000000
    17  C    0.000000   0.000000   0.000000   0.000000   0.000000   0.000000
    18  H    0.000000   0.000000   0.000000   0.000000   0.000000   0.000000
    19  H    0.000000   0.000000   0.000000   0.000000   0.000000   0.000000
    20  H    0.000000   0.000000   0.000000   0.000000   0.000000   0.000000
              7          8          9         10         11         12
     1  C    0.000000   0.000000   0.000000   0.000000   0.000000   0.000000
     2  H    0.000000   0.000000   0.000000   0.000000   0.000000   0.000000
     3  H    0.000000   0.000000   0.000000   0.000000   0.000000   0.000000
     4  H    0.000000   0.000000   0.000000   0.000000   0.000000   0.000000
     5  C    0.000000   0.000000   0.000000   0.000000   0.000000   0.000000
     6  H    0.000000   0.000000   0.000000   0.000000   0.000000   0.000000
     7  H    0.873032   0.000000   0.000000   0.000000   0.000000   0.000000
     8  C    0.000000   4.267170   0.000000   0.000000   0.000000   0.000000
     9  H    0.000000   0.000000   0.872497   0.000000   0.000000   0.000000
    10  H    0.000000   0.000000   0.000000   0.867607   0.000000   0.000000
    11  C    0.000000   0.000000   0.000000   0.000000   4.259950   0.000000
    12  H    0.000000   0.000000   0.000000   0.000000   0.000000   0.866048
    13  H    0.000000   0.000000   0.000000   0.000000   0.000000   0.000000
    14  C    0.000000   0.000000   0.000000   0.000000   0.000000   0.000000
    15  H    0.000000   0.000000   0.000000   0.000000   0.000000   0.000000
    16  H    0.000000   0.000000   0.000000   0.000000   0.000000   0.000000
    17  C    0.000000   0.000000   0.000000   0.000000   0.000000   0.000000
    18  H    0.000000   0.000000   0.000000   0.000000   0.000000   0.000000
    19  H    0.000000   0.000000   0.000000   0.000000   0.000000   0.000000
    20  H    0.000000   0.000000   0.000000   0.000000   0.000000   0.000000
             13         14         15         16         17         18
     1  C    0.000000   0.000000   0.000000   0.000000   0.000000   0.000000
     2  H    0.000000   0.000000   0.000000   0.000000   0.000000   0.000000
     3  H    0.000000   0.000000   0.000000   0.000000   0.000000   0.000000
     4  H    0.000000   0.000000   0.000000   0.000000   0.000000   0.000000
     5  C    0.000000   0.000000   0.000000   0.000000   0.000000   0.000000
     6  H    0.000000   0.000000   0.000000   0.000000   0.000000   0.000000
     7  H    0.000000   0.000000   0.000000   0.000000   0.000000   0.000000
     8  C    0.000000   0.000000   0.000000   0.000000   0.000000   0.000000
     9  H    0.000000   0.000000   0.000000   0.000000   0.000000   0.000000
    10  H    0.000000   0.000000   0.000000   0.000000   0.000000   0.000000
    11  C    0.000000   0.000000   0.000000   0.000000   0.000000   0.000000
    12  H    0.000000   0.000000   0.000000   0.000000   0.000000   0.000000
    13  H    0.868066   0.000000   0.000000   0.000000   0.000000   0.000000
    14  C    0.000000   4.231300   0.000000   0.000000   0.000000   0.000000
    15  H    0.000000   0.000000   0.873663   0.000000   0.000000   0.000000
    16  H    0.000000   0.000000   0.000000   0.873024   0.000000   0.000000
    17  C    0.000000   0.000000   0.000000   0.000000   4.462685   0.000000
    18  H    0.000000   0.000000   0.000000   0.000000   0.000000   0.852621
    19  H    0.000000   0.000000   0.000000   0.000000   0.000000   0.000000
    20  H    0.000000   0.000000   0.000000   0.000000   0.000000   0.000000
             19         20
     1  C    0.000000   0.000000
     2  H    0.000000   0.000000
     3  H    0.000000   0.000000
     4  H    0.000000   0.000000
     5  C    0.000000   0.000000
     6  H    0.000000   0.000000
     7  H    0.000000   0.000000
     8  C    0.000000   0.000000
     9  H    0.000000   0.000000
    10  H    0.000000   0.000000
    11  C    0.000000   0.000000
    12  H    0.000000   0.000000
    13  H    0.000000   0.000000
    14  C    0.000000   0.000000
    15  H    0.000000   0.000000
    16  H    0.000000   0.000000
    17  C    0.000000   0.000000
    18  H    0.000000   0.000000
    19  H    0.855709   0.000000
    20  H    0.000000   0.852600
 Mulliken atomic charges:
              1
     1  C   -0.458083
     2  H    0.147865
     3  H    0.147358
     4  H    0.141677
     5  C   -0.225776
     6  H    0.122928
     7  H    0.126968
     8  C   -0.267170
     9  H    0.127503
    10  H    0.132393
    11  C   -0.259950
    12  H    0.133952
    13  H    0.131934
    14  C   -0.231300
    15  H    0.126337
    16  H    0.126976
    17  C   -0.462685
    18  H    0.147379
    19  H    0.144291
    20  H    0.147400
 Sum of Mulliken atomic charges =   0.00000
 Mulliken charges with hydrogens summed into heavy atoms:
              1
     1  C   -0.021182
     5  C    0.024120
     8  C   -0.007273
    11  C    0.005936
    14  C    0.022014
    17  C   -0.023614
 Sum of Mulliken charges with hydrogens summed into heavy atoms =   0.00000
 Charge=              0.0000 electrons
 Dipole moment (field-independent basis, Debye):
    X=              0.0151    Y=             -0.0021    Z=              0.0012  Tot=              0.0153
 N-N= 1.623383926416D+02 E-N=-2.458731247553D+02  KE=-5.602791835206D+01
 Leave Link  601 at Mon Sep 14 19:12:00 2015, MaxMem=  402653184 cpu:       0.0
 (Enter /share/apps/g09/l701.exe)
 Compute integral first derivatives.
 ... and contract with generalized density number  0.
 Leave Link  701 at Mon Sep 14 19:12:01 2015, MaxMem=  402653184 cpu:       0.1
 (Enter /share/apps/g09/l702.exe)
 L702 exits ... SP integral derivatives will be done elsewhere.
 Leave Link  702 at Mon Sep 14 19:12:07 2015, MaxMem=  402653184 cpu:       0.0
 (Enter /share/apps/g09/l703.exe)
 Compute integral first derivatives, UseDBF=F ICtDFT=           0.
 Integral derivatives from FoFDir, PRISM(SPDF).
 Calling FoFJK, ICntrl=      2127 FMM=F ISym2X=0 I1Cent= 0 IOpClX= 0 NMat=1 NMatS=1 NMatT=0.
 FoFCou: FMM=F IPFlag=           0 FMFlag=      100000 FMFlg1=         800
         NFxFlg=           0 DoJE=F BraDBF=F KetDBF=F FulRan=T
         Omega=  0.000000  0.000000  1.000000  0.000000  0.000000 ICntrl=    2127 IOpCl=  0
         NMat0=    1 NMatS0=    1 NMatT0=    0 NMatD0=    1 NMtDS0=    0 NMtDT0=    0
         I1Cent=           0 NGrid=           0.
 Symmetry not used in FoFCou.
 Leave Link  703 at Mon Sep 14 19:12:09 2015, MaxMem=  402653184 cpu:       0.0
 (Enter /share/apps/g09/l716.exe)
 Dipole        = 5.93207158D-03-8.37742493D-04 4.81071930D-04
 ***** Axes restored to original set *****
 -------------------------------------------------------------------
 Center     Atomic                   Forces (Hartrees/Bohr)
 Number     Number              X              Y              Z
 -------------------------------------------------------------------
      1        6           0.000217777    0.002389451   -0.001270687
      2        1           0.007796726   -0.005296892   -0.003534086
      3        1          -0.000818957    0.005902156    0.008634288
      4        1          -0.008521417   -0.002723611   -0.004173736
      5        6           0.000456530    0.000979417    0.000143197
      6        1          -0.002153180    0.001218169    0.003277904
      7        1           0.001293406   -0.002469203   -0.003319749
      8        6          -0.000220661   -0.002286329   -0.000079950
      9        1          -0.000505354    0.000634614   -0.004382376
     10        1          -0.000431546    0.000014805    0.004930145
     11        6           0.001523829    0.002750528    0.000224098
     12        1           0.001306824   -0.000620686    0.005177805
     13        1          -0.000037281    0.001352729   -0.005437987
     14        6           0.000036849   -0.003376109   -0.000498479
     15        1           0.000787432    0.000923230   -0.004863445
     16        1           0.001319510   -0.001276111    0.004665226
     17        6          -0.003390016    0.001871407    0.000566680
     18        1          -0.001076994   -0.006514646    0.008092532
     19        1           0.004563215    0.008790466    0.001799964
     20        1          -0.002146691   -0.002263386   -0.009951342
 -------------------------------------------------------------------
 Cartesian Forces:  Max     0.009951342 RMS     0.003806465
 Leave Link  716 at Mon Sep 14 19:12:09 2015, MaxMem=  402653184 cpu:       0.1
 (Enter /share/apps/g09/l103.exe)

 GradGradGradGradGradGradGradGradGradGradGradGradGradGradGradGradGradGrad
 Berny optimization.
 Internal  Forces:  Max     0.010086454 RMS     0.003076172
 Search for a local minimum.
 Step number   1 out of a maximum of  110
 All quantities printed in internal units (Hartrees-Bohrs-Radians)
 RMS Force = .30762D-02 SwitMx=.10000D-02 MixMth= 1
 Mixed Optimization -- RFO/linear search
 Second derivative matrix not updated -- first step.
     Eigenvalues ---    0.00292   0.00293   0.00319   0.00393   0.00415
     Eigenvalues ---    0.03393   0.03411   0.03629   0.03649   0.04798
     Eigenvalues ---    0.04829   0.04864   0.04893   0.05599   0.05664
     Eigenvalues ---    0.05776   0.05777   0.08113   0.08193   0.08471
     Eigenvalues ---    0.08532   0.12046   0.12095   0.12316   0.12355
     Eigenvalues ---    0.16000   0.16000   0.16000   0.16000   0.16000
     Eigenvalues ---    0.16000   0.21971   0.21971   0.21987   0.21990
     Eigenvalues ---    0.28895   0.28897   0.29075   0.29589   0.29743
     Eigenvalues ---    0.32057   0.32060   0.32067   0.32088   0.32088
     Eigenvalues ---    0.32099   0.32114   0.32147   0.32189   0.32194
     Eigenvalues ---    0.32211   0.32230   0.32231   0.322881000.00000
     Eigenvalues --- 1000.000001000.000001000.000001000.000001000.00000
     Eigenvalues --- 1000.000001000.000001000.000001000.000001000.00000
     Eigenvalues --- 1000.000001000.000001000.000001000.000001000.00000
     Eigenvalues --- 1000.000001000.000001000.000001000.000001000.00000
     Eigenvalues --- 1000.000001000.000001000.000001000.000001000.00000
     Eigenvalues --- 1000.000001000.000001000.000001000.000001000.00000
     Eigenvalues --- 1000.000001000.000001000.000001000.000001000.00000
     Eigenvalues --- 1000.000001000.000001000.000001000.000001000.00000
     Eigenvalues --- 1000.000001000.000001000.000001000.000001000.00000
 RFO step:  Lambda=-3.94233490D-03 EMin= 2.92436289D-03
 Linear search not attempted -- first point.
 Iteration  1 RMS(Cart)=  0.03284641 RMS(Int)=  0.00048494
 Iteration  2 RMS(Cart)=  0.00064918 RMS(Int)=  0.00007564
 Iteration  3 RMS(Cart)=  0.00000028 RMS(Int)=  0.00007564
 Variable       Old X    -DE/DX   Delta X   Delta X   Delta X     New X
                                 (Linear)    (Quad)   (Total)
    R1        2.10321  -0.00973   0.00000  -0.02978  -0.02978   2.07343
    R2        2.10460  -0.01009   0.00000  -0.03094  -0.03094   2.07367
    R3        2.10426  -0.00936   0.00000  -0.02870  -0.02870   2.07556
    R4        2.88791   0.00032   0.00000   0.00108   0.00108   2.88899
    R5        2.10663  -0.00270   0.00000  -0.00830  -0.00830   2.09833
    R6        2.10635  -0.00404   0.00000  -0.01242  -0.01242   2.09393
    R7        2.90223  -0.00138   0.00000  -0.00472  -0.00472   2.89751
    R8        2.10739  -0.00317   0.00000  -0.00978  -0.00978   2.09762
    R9        2.10735  -0.00469   0.00000  -0.01445  -0.01445   2.09290
   R10        2.90218  -0.00193   0.00000  -0.00659  -0.00659   2.89559
   R11        2.10575  -0.00399   0.00000  -0.01225  -0.01225   2.09350
   R12        2.10722  -0.00455   0.00000  -0.01401  -0.01401   2.09321
   R13        2.89847   0.00116   0.00000   0.00395   0.00395   2.90242
   R14        2.10683  -0.00376   0.00000  -0.01157  -0.01157   2.09526
   R15        2.10683  -0.00381   0.00000  -0.01174  -0.01174   2.09509
   R16        2.88478   0.00270   0.00000   0.00896   0.00896   2.89374
   R17        2.10499  -0.00995   0.00000  -0.03054  -0.03054   2.07445
   R18        2.10424  -0.00954   0.00000  -0.02923  -0.02923   2.07501
   R19        2.10491  -0.00994   0.00000  -0.03050  -0.03050   2.07441
    A1        1.90757  -0.00322   0.00000  -0.02601  -0.02599   1.88158
    A2        1.88946  -0.00251   0.00000  -0.01190  -0.01211   1.87735
    A3        1.93279   0.00193   0.00000   0.01013   0.01002   1.94281
    A4        1.89630  -0.00291   0.00000  -0.01458  -0.01486   1.88144
    A5        1.92762   0.00270   0.00000   0.01467   0.01453   1.94214
    A6        1.90933   0.00382   0.00000   0.02667   0.02641   1.93574
    A7        1.88207   0.00230   0.00000   0.02276   0.02278   1.90485
    A8        1.90542   0.00147   0.00000   0.00392   0.00383   1.90925
    A9        1.99316  -0.00387   0.00000  -0.01420  -0.01421   1.97894
   A10        1.87946  -0.00180   0.00000  -0.01913  -0.01914   1.86033
   A11        1.88536   0.00114   0.00000   0.01046   0.01050   1.89586
   A12        1.91482   0.00083   0.00000  -0.00397  -0.00399   1.91083
   A13        1.87518   0.00248   0.00000   0.02259   0.02265   1.89783
   A14        1.90805   0.00160   0.00000   0.00257   0.00247   1.91051
   A15        1.98943  -0.00497   0.00000  -0.01933  -0.01933   1.97010
   A16        1.88038  -0.00201   0.00000  -0.01930  -0.01929   1.86108
   A17        1.89526   0.00166   0.00000   0.01459   0.01468   1.90994
   A18        1.91224   0.00135   0.00000  -0.00103  -0.00109   1.91116
   A19        1.90868   0.00048   0.00000   0.00181   0.00179   1.91047
   A20        1.90591   0.00106   0.00000   0.00613   0.00612   1.91203
   A21        1.95341  -0.00248   0.00000  -0.00468  -0.00469   1.94872
   A22        1.89484  -0.00223   0.00000  -0.03141  -0.03142   1.86343
   A23        1.89632   0.00189   0.00000   0.01619   0.01619   1.91251
   A24        1.90379   0.00127   0.00000   0.01093   0.01092   1.91471
   A25        1.91206   0.00046   0.00000   0.00130   0.00126   1.91333
   A26        1.91159   0.00042   0.00000   0.00038   0.00035   1.91194
   A27        1.95777  -0.00214   0.00000  -0.00348  -0.00349   1.95428
   A28        1.89209  -0.00204   0.00000  -0.02933  -0.02938   1.86271
   A29        1.89383   0.00166   0.00000   0.01555   0.01555   1.90938
   A30        1.89529   0.00163   0.00000   0.01467   0.01466   1.90995
   A31        1.92610   0.00312   0.00000   0.01831   0.01813   1.94423
   A32        1.91227   0.00354   0.00000   0.02304   0.02279   1.93506
   A33        1.92620   0.00310   0.00000   0.01815   0.01797   1.94417
   A34        1.89664  -0.00319   0.00000  -0.01802  -0.01826   1.87838
   A35        1.90532  -0.00359   0.00000  -0.02471  -0.02480   1.88052
   A36        1.89680  -0.00319   0.00000  -0.01804  -0.01828   1.87852
    D1       -3.02389  -0.00031   0.00000  -0.00551  -0.00558  -3.02947
    D2       -0.98663  -0.00039   0.00000  -0.01356  -0.01361  -1.00024
    D3        1.16384  -0.00093   0.00000  -0.02583  -0.02588   1.13795
    D4        1.14369   0.00066   0.00000   0.01070   0.01076   1.15445
    D5       -3.10224   0.00058   0.00000   0.00265   0.00274  -3.09950
    D6       -0.95177   0.00004   0.00000  -0.00962  -0.00954  -0.96131
    D7       -0.94272   0.00019   0.00000   0.00288   0.00285  -0.93987
    D8        1.09453   0.00012   0.00000  -0.00517  -0.00517   1.08936
    D9       -3.03819  -0.00043   0.00000  -0.01744  -0.01745  -3.05564
   D10        3.00884   0.00013   0.00000  -0.00727  -0.00727   3.00157
   D11        0.97290   0.00031   0.00000   0.00180   0.00178   0.97468
   D12       -1.17356   0.00086   0.00000   0.01485   0.01480  -1.15876
   D13        0.91522  -0.00113   0.00000  -0.03447  -0.03445   0.88077
   D14       -1.12072  -0.00095   0.00000  -0.02541  -0.02541  -1.14612
   D15        3.01600  -0.00041   0.00000  -0.01236  -0.01239   3.00362
   D16       -1.12897  -0.00009   0.00000  -0.01537  -0.01532  -1.14430
   D17        3.11827   0.00009   0.00000  -0.00630  -0.00627   3.11200
   D18        0.97180   0.00064   0.00000   0.00674   0.00675   0.97855
   D19        1.13471  -0.00153   0.00000  -0.03762  -0.03758   1.09713
   D20       -0.93644   0.00026   0.00000  -0.00421  -0.00418  -0.94062
   D21       -3.04622  -0.00044   0.00000  -0.01908  -0.01905  -3.06526
   D22       -3.05899  -0.00040   0.00000  -0.01108  -0.01108  -3.07007
   D23        1.15305   0.00139   0.00000   0.02232   0.02232   1.17537
   D24       -0.95673   0.00068   0.00000   0.00746   0.00745  -0.94927
   D25       -1.00947  -0.00111   0.00000  -0.02646  -0.02649  -1.03596
   D26       -3.08061   0.00069   0.00000   0.00694   0.00691  -3.07370
   D27        1.09279  -0.00002   0.00000  -0.00792  -0.00795   1.08484
   D28        1.04333  -0.00089   0.00000  -0.01663  -0.01662   1.02671
   D29       -1.02985   0.00107   0.00000   0.01811   0.01809  -1.01176
   D30       -3.13561   0.00013   0.00000   0.00161   0.00161  -3.13401
   D31       -3.13041  -0.00060   0.00000  -0.00648  -0.00646  -3.13687
   D32        1.07959   0.00136   0.00000   0.02826   0.02826   1.10785
   D33       -1.02617   0.00041   0.00000   0.01177   0.01178  -1.01439
   D34       -1.06768  -0.00147   0.00000  -0.02872  -0.02871  -1.09639
   D35       -3.14086   0.00048   0.00000   0.00603   0.00601  -3.13486
   D36        1.03656  -0.00046   0.00000  -0.01047  -0.01047   1.02609
   D37        1.05845  -0.00024   0.00000  -0.00452  -0.00456   1.05389
   D38       -3.13700  -0.00002   0.00000  -0.00090  -0.00091  -3.13790
   D39       -1.04899   0.00019   0.00000   0.00259   0.00262  -1.04637
   D40       -3.10997   0.00010   0.00000   0.00545   0.00542  -3.10455
   D41       -1.02223   0.00031   0.00000   0.00907   0.00907  -1.01316
   D42        1.06577   0.00053   0.00000   0.01256   0.01260   1.07837
   D43       -1.05672  -0.00051   0.00000  -0.01274  -0.01277  -1.06949
   D44        1.03102  -0.00029   0.00000  -0.00912  -0.00912   1.02190
   D45        3.11903  -0.00008   0.00000  -0.00563  -0.00559   3.11343
         Item               Value     Threshold  Converged?
 Maximum Force            0.010086     0.000450     NO 
 RMS     Force            0.003076     0.000300     NO 
 Maximum Displacement     0.142102     0.001800     NO 
 RMS     Displacement     0.032924     0.001200     NO 
 Predicted change in Energy=-2.024421D-03
 GradGradGradGradGradGradGradGradGradGradGradGradGradGradGradGradGradGrad

 Leave Link  103 at Mon Sep 14 19:12:09 2015, MaxMem=  402653184 cpu:       0.0
 (Enter /share/apps/g09/l202.exe)
                          Input orientation:                          
 ---------------------------------------------------------------------
 Center     Atomic      Atomic             Coordinates (Angstroms)
 Number     Number       Type             X           Y           Z
 ---------------------------------------------------------------------
      1          6           0        1.848330    1.880411   -0.793970
      2          1           0        0.982181    2.545138   -0.685363
      3          1           0        1.881520    1.540125   -1.836684
      4          1           0        2.750503    2.478324   -0.607060
      5          6           0        1.766785    0.698944    0.172814
      6          1           0        2.710287    0.116245    0.116006
      7          1           0        1.691041    1.077894    1.211300
      8          6           0        0.591513   -0.242845   -0.114886
      9          1           0        0.687982   -1.140870    0.530379
     10          1           0        0.650592   -0.597388   -1.162454
     11          6           0       -0.771441    0.414358    0.126611
     12          1           0       -0.898676    1.266821   -0.569384
     13          1           0       -0.805359    0.831401    1.152220
     14          6           0       -1.923524   -0.583079   -0.065212
     15          1           0       -1.799582   -1.434231    0.634453
     16          1           0       -1.882954   -1.004003   -1.090069
     17          6           0       -3.289989    0.068928    0.164016
     18          1           0       -3.462838    0.894308   -0.538785
     19          1           0       -4.099391   -0.660154    0.026105
     20          1           0       -3.375581    0.472273    1.181364
 ---------------------------------------------------------------------
                    Distance matrix (angstroms):
                    1          2          3          4          5
     1  C    0.000000
     2  H    1.097211   0.000000
     3  H    1.097337   1.773246   0.000000
     4  H    1.098340   1.771315   1.774070   0.000000
     5  C    1.528785   2.181858   2.181475   2.177636   0.000000
     6  H    2.164095   3.086756   2.554856   2.470599   1.110388
     7  H    2.165614   2.500524   3.088713   2.527864   1.108058
     8  C    2.559093   2.872440   2.794224   3.508309   1.533298
     9  H    3.496920   3.892459   3.770313   4.318139   2.162542
    10  H    2.776660   3.195783   2.557094   3.765380   2.170093
    11  C    3.140061   2.876581   3.487131   4.147568   2.554548
    12  H    2.823645   2.277096   3.067610   3.845213   2.824540
    13  H    3.454004   3.083652   4.081073   4.295530   2.755486
    14  C    4.563634   4.314331   4.703666   5.613583   3.913901
    15  H    5.131716   5.031451   5.338898   6.128027   4.181211
    16  H    4.725463   4.579213   4.604486   5.816255   4.220841
    17  C    5.531865   5.010439   5.736874   6.548838   5.095877
    18  H    5.407959   4.743935   5.537489   6.412439   5.281430
    19  H    6.519385   6.049997   6.639466   7.561216   6.023346
    20  H    5.759692   5.174121   6.155164   6.689664   5.245235
                    6          7          8          9         10
     6  H    0.000000
     7  H    1.778567   0.000000
     8  C    2.161356   2.170734   0.000000
     9  H    2.416974   2.528378   1.110010   0.000000
    10  H    2.527069   3.086068   1.107515   1.778329   0.000000
    11  C    3.494484   2.771399   1.532279   2.170640   2.169676
    12  H    3.849441   3.148518   2.169406   3.086088   2.495443
    13  H    3.734295   2.509236   2.170441   2.550805   3.085279
    14  C    4.689787   4.177726   2.538432   2.736023   2.798253
    15  H    4.797050   4.339122   2.774572   2.506964   3.151593
    16  H    4.879287   4.733291   2.766466   3.042088   2.566989
    17  C    6.000655   5.188976   3.903978   4.173977   4.210900
    18  H    6.256326   5.446005   4.232088   4.744931   4.419777
    19  H    6.854386   6.160732   4.711540   4.837802   4.896831
    20  H    6.188662   5.102778   4.234324   4.420245   4.779930
                   11         12         13         14         15
    11  C    0.000000
    12  H    1.107832   0.000000
    13  H    1.107677   1.778263   0.000000
    14  C    1.535894   2.174083   2.175588   0.000000
    15  H    2.175376   3.091366   2.527776   1.108762   0.000000
    16  H    2.174286   2.529142   3.091565   1.108672   1.779332
    17  C    2.542401   2.773302   2.780521   1.531302   2.168435
    18  H    2.813667   2.591260   3.150500   2.185505   3.092734
    19  H    3.498561   3.783176   3.787284   2.179147   2.501681
    20  H    2.810232   3.135520   2.595354   2.185450   2.533307
                   16         17         18         19         20
    16  H    0.000000
    17  C    2.168791   0.000000
    18  H    2.530520   1.097752   0.000000
    19  H    2.505328   1.098050   1.772189   0.000000
    20  H    3.093014   1.097730   1.773313   1.772263   0.000000
 Stoichiometry    C6H14
 Framework group  C1[X(C6H14)]
 Deg. of freedom    54
 Full point group                 C1      NOp   1
 Largest Abelian subgroup         C1      NOp   1
 Largest concise Abelian subgroup C1      NOp   1
                         Standard orientation:                         
 ---------------------------------------------------------------------
 Center     Atomic      Atomic             Coordinates (Angstroms)
 Number     Number       Type             X           Y           Z
 ---------------------------------------------------------------------
      1          6           0        2.554709    0.885173   -0.231192
      2          1           0        1.910636    1.729881    0.043600
      3          1           0        2.589876    0.832489   -1.326699
      4          1           0        3.568227    1.110986    0.126777
      5          6           0        2.042264   -0.423259    0.370961
      6          1           0        2.778617   -1.229640    0.169726
      7          1           0        1.978117   -0.321095    1.472433
      8          6           0        0.679303   -0.855363   -0.182778
      9          1           0        0.449466   -1.874899    0.191178
     10          1           0        0.735495   -0.927735   -1.286496
     11          6           0       -0.453142    0.099085    0.210260
     12          1           0       -0.260799    1.099300   -0.225476
     13          1           0       -0.465211    0.226796    1.310484
     14          6           0       -1.819397   -0.415870   -0.266331
     15          1           0       -2.014856   -1.414830    0.173245
     16          1           0       -1.802183   -0.549356   -1.366804
     17          6           0       -2.955488    0.538051    0.113430
     18          1           0       -2.813740    1.529052   -0.336996
     19          1           0       -3.923217    0.151104   -0.232237
     20          1           0       -3.019925    0.671041    1.201167
 ---------------------------------------------------------------------
 Rotational constants (GHZ):      8.6147009      1.3576427      1.2621936
 Leave Link  202 at Mon Sep 14 19:12:11 2015, MaxMem=  402653184 cpu:       0.0
 (Enter /share/apps/g09/l301.exe)
 Standard basis: VSTO-6G (5D, 7F)
 Ernie: Thresh=  0.10000D-02 Tol=  0.10000D-05 Strict=F.
  NNHCO=     0 NNPyr=     0 NCTC=     0               EPep=         0.000000000
    EC=       125.308207549  ECS=         3.216089850   EG=         0.308706905
   EHC=         0.000451601  EAt=       -31.187935768  AtH=         2.796400831
 EPDDG=         0.000000000  ECC=       128.833455906 EAtT=        33.984336599
 There are    38 symmetry adapted basis functions of A   symmetry.
 Integral buffers will be    131072 words long.
 Regular integral format.
 Two-electron integral symmetry is turned off.
    38 basis functions,   228 primitive gaussians,    38 cartesian basis functions
    19 alpha electrons       19 beta electrons
       nuclear repulsion energy       162.8177925045 Hartrees.
 IExCor=    0 DFT=F Ex=HF Corr=None ExCW=0 ScaHFX=  1.000000
 ScaDFX=  1.000000  1.000000  1.000000  1.000000 ScalE2=  1.000000  1.000000
 IRadAn=      0 IRanWt=     -1 IRanGd=            0 ICorTp=0
 Leave Link  301 at Mon Sep 14 19:12:12 2015, MaxMem=  402653184 cpu:       0.1
 (Enter /share/apps/g09/l302.exe)
 Do NDO integrals.
 NPDir=0 NMtPBC=     1 NCelOv=     1 NCel=       1 NClECP=     1 NCelD=      1
         NCelK=      1 NCelE2=     1 NClLst=     1 CellRange=     0.0.
 One-electron integrals computed using PRISM.
 NBasis=    38 RedAO= F  NBF=    38
 NBsUse=    38 1.00D-04 NBFU=    38
 Leave Link  302 at Mon Sep 14 19:12:13 2015, MaxMem=  402653184 cpu:       0.1
 (Enter /share/apps/g09/l303.exe)
 DipDrv:  MaxL=1.
 Leave Link  303 at Mon Sep 14 19:12:13 2015, MaxMem=  402653184 cpu:       0.0
 (Enter /share/apps/g09/l401.exe)
 Initial guess read from the read-write file.
 B after Tr=     0.000000    0.000000    0.000000
         Rot=    1.000000    0.000000    0.000000    0.000000 Ang=   0.00 deg.
 Guess basis will be translated and rotated to current coordinates.
 Initial guess orbital symmetries:
       Occupied  (A) (A) (A) (A) (A) (A) (A) (A) (A) (A) (A) (A)
                 (A) (A) (A) (A) (A) (A) (A)
       Virtual   (A) (A) (A) (A) (A) (A) (A) (A) (A) (A) (A) (A)
                 (A) (A) (A) (A) (A) (A) (A)
 The electronic state of the initial guess is 1-A.
 Leave Link  401 at Mon Sep 14 19:12:20 2015, MaxMem=  402653184 cpu:       0.2
 (Enter /share/apps/g09/l502.exe)
 Closed shell SCF:
 Requested convergence on RMS density matrix=1.00D-08 within 128 cycles.
 Requested convergence on MAX density matrix=1.00D-06.
 Requested convergence on             energy=1.00D-06.
 No special actions if energy rises.
 Using DIIS extrapolation, IDIIS=  1040.
 Overlap will be assumed to be unity.
 Two-electron integral symmetry not used.
 Keep J ints in memory in canonical form, NReq=884654.
 IEnd=       81865 IEndB=       81865 NGot=   402653184 MDV=   402586639
 LenX=   402586639 LenY=   402584754
 Symmetry not used in FoFDir.
 MinBra= 0 MaxBra= 1 Meth=40.
 IRaf=       0 NMat=   1 IRICut=       1 DoRegI=T DoRafI=F ISym2E= 0 JSym2E=0.

 Cycle   1  Pass 1  IDiag  1:
 E=-0.546464328843967E-01
 DIIS: error= 4.24D-03 at cycle   1 NSaved=   1.
 NSaved= 1 IEnMin= 1 EnMin=-0.546464328843967E-01 IErMin= 1 ErrMin= 4.24D-03
 ErrMax= 4.24D-03 EMaxC= 1.00D-01 BMatC= 3.31D-04 BMatP= 3.31D-04
 IDIUse=3 WtCom= 9.58D-01 WtEn= 4.24D-02
 Coeff-Com:  0.100D+01
 Coeff-En:   0.100D+01
 Coeff:      0.100D+01
 GapD=    2.000 DampG=2.000 DampE=1.000 DampFc=2.0000 IDamp=-1.
 RMSDP=8.80D-04 MaxDP=1.04D-02              OVMax= 0.00D+00

 Cycle   2  Pass 1  IDiag  3:
 E=-0.558435252731613E-01 Delta-E=       -0.001197092389 Rises=F Damp=F
 DIIS: error= 1.87D-03 at cycle   2 NSaved=   2.
 NSaved= 2 IEnMin= 2 EnMin=-0.558435252731613E-01 IErMin= 2 ErrMin= 1.87D-03
 ErrMax= 1.87D-03 EMaxC= 1.00D-01 BMatC= 5.52D-05 BMatP= 3.31D-04
 IDIUse=3 WtCom= 9.81D-01 WtEn= 1.87D-02
 Coeff-Com: -0.633D+00 0.163D+01
 Coeff-En:   0.000D+00 0.100D+01
 Coeff:     -0.621D+00 0.162D+01
 Gap=     0.558 Goal=   None    Shift=    0.000
 RMSDP=6.16D-04 MaxDP=7.49D-03 DE=-1.20D-03 OVMax= 0.00D+00

 Cycle   3  Pass 1  IDiag  3:
 E=-0.561092718418195E-01 Delta-E=       -0.000265746569 Rises=F Damp=F
 DIIS: error= 1.96D-04 at cycle   3 NSaved=   3.
 NSaved= 3 IEnMin= 3 EnMin=-0.561092718418195E-01 IErMin= 3 ErrMin= 1.96D-04
 ErrMax= 1.96D-04 EMaxC= 1.00D-01 BMatC= 8.34D-07 BMatP= 5.52D-05
 IDIUse=3 WtCom= 9.98D-01 WtEn= 1.96D-03
 Coeff-Com:  0.248D+00-0.707D+00 0.146D+01
 Coeff-En:   0.000D+00 0.000D+00 0.100D+01
 Coeff:      0.248D+00-0.706D+00 0.146D+01
 Gap=     0.558 Goal=   None    Shift=    0.000
 RMSDP=8.29D-05 MaxDP=9.07D-04 DE=-2.66D-04 OVMax= 0.00D+00

 Cycle   4  Pass 1  IDiag  3:
 E=-0.561135125406906E-01 Delta-E=       -0.000004240699 Rises=F Damp=F
 DIIS: error= 1.60D-05 at cycle   4 NSaved=   4.
 NSaved= 4 IEnMin= 4 EnMin=-0.561135125406906E-01 IErMin= 4 ErrMin= 1.60D-05
 ErrMax= 1.60D-05 EMaxC= 1.00D-01 BMatC= 1.91D-08 BMatP= 8.34D-07
 IDIUse=1 WtCom= 1.00D+00 WtEn= 0.00D+00
 Coeff-Com: -0.122D+00 0.350D+00-0.767D+00 0.154D+01
 Coeff:     -0.122D+00 0.350D+00-0.767D+00 0.154D+01
 Gap=     0.558 Goal=   None    Shift=    0.000
 RMSDP=1.25D-05 MaxDP=1.04D-04 DE=-4.24D-06 OVMax= 0.00D+00

 Cycle   5  Pass 1  IDiag  3:
 E=-0.561136294888342E-01 Delta-E=       -0.000000116948 Rises=F Damp=F
 DIIS: error= 6.20D-06 at cycle   5 NSaved=   5.
 NSaved= 5 IEnMin= 5 EnMin=-0.561136294888342E-01 IErMin= 5 ErrMin= 6.20D-06
 ErrMax= 6.20D-06 EMaxC= 1.00D-01 BMatC= 2.39D-09 BMatP= 1.91D-08
 IDIUse=1 WtCom= 1.00D+00 WtEn= 0.00D+00
 Coeff-Com:  0.787D-01-0.226D+00 0.502D+00-0.123D+01 0.188D+01
 Coeff:      0.787D-01-0.226D+00 0.502D+00-0.123D+01 0.188D+01
 Gap=     0.558 Goal=   None    Shift=    0.000
 RMSDP=5.94D-06 MaxDP=5.43D-05 DE=-1.17D-07 OVMax= 0.00D+00

 Cycle   6  Pass 1  IDiag  3:
 E=-0.561136477840591E-01 Delta-E=       -0.000000018295 Rises=F Damp=F
 DIIS: error= 1.66D-06 at cycle   6 NSaved=   6.
 NSaved= 6 IEnMin= 6 EnMin=-0.561136477840591E-01 IErMin= 6 ErrMin= 1.66D-06
 ErrMax= 1.66D-06 EMaxC= 1.00D-01 BMatC= 1.74D-10 BMatP= 2.39D-09
 IDIUse=1 WtCom= 1.00D+00 WtEn= 0.00D+00
 Coeff-Com: -0.387D-01 0.111D+00-0.248D+00 0.640D+00-0.119D+01 0.172D+01
 Coeff:     -0.387D-01 0.111D+00-0.248D+00 0.640D+00-0.119D+01 0.172D+01
 Gap=     0.558 Goal=   None    Shift=    0.000
 RMSDP=1.69D-06 MaxDP=1.61D-05 DE=-1.83D-08 OVMax= 0.00D+00

 Cycle   7  Pass 1  IDiag  3:
 E=-0.561136491086529E-01 Delta-E=       -0.000000001325 Rises=F Damp=F
 DIIS: error= 3.17D-07 at cycle   7 NSaved=   7.
 NSaved= 7 IEnMin= 7 EnMin=-0.561136491086529E-01 IErMin= 7 ErrMin= 3.17D-07
 ErrMax= 3.17D-07 EMaxC= 1.00D-01 BMatC= 7.58D-12 BMatP= 1.74D-10
 IDIUse=1 WtCom= 1.00D+00 WtEn= 0.00D+00
 Coeff-Com:  0.118D-01-0.338D-01 0.755D-01-0.199D+00 0.396D+00-0.742D+00
 Coeff-Com:  0.149D+01
 Coeff:      0.118D-01-0.338D-01 0.755D-01-0.199D+00 0.396D+00-0.742D+00
 Coeff:      0.149D+01
 Gap=     0.558 Goal=   None    Shift=    0.000
 RMSDP=3.09D-07 MaxDP=2.34D-06 DE=-1.32D-09 OVMax= 0.00D+00

 Cycle   8  Pass 1  IDiag  3:
 E=-0.561136491581919E-01 Delta-E=       -0.000000000050 Rises=F Damp=F
 DIIS: error= 5.64D-08 at cycle   8 NSaved=   8.
 NSaved= 8 IEnMin= 8 EnMin=-0.561136491581919E-01 IErMin= 8 ErrMin= 5.64D-08
 ErrMax= 5.64D-08 EMaxC= 1.00D-01 BMatC= 2.64D-13 BMatP= 7.58D-12
 IDIUse=1 WtCom= 1.00D+00 WtEn= 0.00D+00
 Coeff-Com: -0.205D-02 0.586D-02-0.131D-01 0.349D-01-0.723D-01 0.151D+00
 Coeff-Com: -0.453D+00 0.135D+01
 Coeff:     -0.205D-02 0.586D-02-0.131D-01 0.349D-01-0.723D-01 0.151D+00
 Coeff:     -0.453D+00 0.135D+01
 Gap=     0.558 Goal=   None    Shift=    0.000
 RMSDP=5.14D-08 MaxDP=3.96D-07 DE=-4.95D-11 OVMax= 0.00D+00

 Cycle   9  Pass 1  IDiag  3:
 E=-0.561136491598688E-01 Delta-E=       -0.000000000002 Rises=F Damp=F
 DIIS: error= 1.50D-08 at cycle   9 NSaved=   9.
 NSaved= 9 IEnMin= 9 EnMin=-0.561136491598688E-01 IErMin= 9 ErrMin= 1.50D-08
 ErrMax= 1.50D-08 EMaxC= 1.00D-01 BMatC= 1.56D-14 BMatP= 2.64D-13
 IDIUse=1 WtCom= 1.00D+00 WtEn= 0.00D+00
 Coeff-Com:  0.266D-03-0.757D-03 0.168D-02-0.472D-02 0.109D-01-0.276D-01
 Coeff-Com:  0.122D+00-0.586D+00 0.148D+01
 Coeff:      0.266D-03-0.757D-03 0.168D-02-0.472D-02 0.109D-01-0.276D-01
 Coeff:      0.122D+00-0.586D+00 0.148D+01
 Gap=     0.558 Goal=   None    Shift=    0.000
 RMSDP=1.19D-08 MaxDP=9.84D-08 DE=-1.68D-12 OVMax= 0.00D+00

 Cycle  10  Pass 1  IDiag  3:
 E=-0.561136491596415E-01 Delta-E=        0.000000000000 Rises=F Damp=F
 DIIS: error= 5.00D-09 at cycle  10 NSaved=  10.
 NSaved=10 IEnMin= 9 EnMin=-0.561136491598688E-01 IErMin=10 ErrMin= 5.00D-09
 ErrMax= 5.00D-09 EMaxC= 1.00D-01 BMatC= 8.48D-16 BMatP= 1.56D-14
 IDIUse=1 WtCom= 1.00D+00 WtEn= 0.00D+00
 Coeff-Com: -0.359D-04 0.101D-03-0.223D-03 0.697D-03-0.190D-02 0.589D-02
 Coeff-Com: -0.345D-01 0.199D+00-0.660D+00 0.149D+01
 Coeff:     -0.359D-04 0.101D-03-0.223D-03 0.697D-03-0.190D-02 0.589D-02
 Coeff:     -0.345D-01 0.199D+00-0.660D+00 0.149D+01
 Gap=     0.558 Goal=   None    Shift=    0.000
 RMSDP=2.74D-09 MaxDP=2.96D-08 DE= 2.27D-13 OVMax= 0.00D+00

 Cycle  11  Pass 2  IDiag  1:
 RMSDP=2.74D-09 MaxDP=2.96D-08 DE= 2.27D-13 OVMax= 0.00D+00

 SCF Done:  E(RPM6) = -0.561136491596E-01 A.U. after   11 cycles
             Convg  =    0.2744D-08             -V/T =  0.9990
 KE=-5.608457675999D+01 PE=-2.466650069389D+02 EE= 1.398756775452D+02
 Leave Link  502 at Mon Sep 14 19:12:22 2015, MaxMem=  402653184 cpu:       0.3
 (Enter /share/apps/g09/l701.exe)
 Compute integral first derivatives.
 ... and contract with generalized density number  0.
 Leave Link  701 at Mon Sep 14 19:12:22 2015, MaxMem=  402653184 cpu:       0.1
 (Enter /share/apps/g09/l702.exe)
 L702 exits ... SP integral derivatives will be done elsewhere.
 Leave Link  702 at Mon Sep 14 19:12:23 2015, MaxMem=  402653184 cpu:       0.0
 (Enter /share/apps/g09/l703.exe)
 Compute integral first derivatives, UseDBF=F ICtDFT=           0.
 Integral derivatives from FoFDir, PRISM(SPDF).
 Calling FoFJK, ICntrl=      2127 FMM=F ISym2X=0 I1Cent= 0 IOpClX= 0 NMat=1 NMatS=1 NMatT=0.
 FoFCou: FMM=F IPFlag=           0 FMFlag=      100000 FMFlg1=         800
         NFxFlg=           0 DoJE=F BraDBF=F KetDBF=F FulRan=T
         Omega=  0.000000  0.000000  1.000000  0.000000  0.000000 ICntrl=    2127 IOpCl=  0
         NMat0=    1 NMatS0=    1 NMatT0=    0 NMatD0=    1 NMtDS0=    0 NMtDT0=    0
         I1Cent=           0 NGrid=           0.
 Symmetry not used in FoFCou.
 Leave Link  703 at Mon Sep 14 19:12:23 2015, MaxMem=  402653184 cpu:       0.1
 (Enter /share/apps/g09/l716.exe)
 Dipole        = 8.58182941D-04 2.10617470D-02-2.23275614D-03
 ***** Axes restored to original set *****
 -------------------------------------------------------------------
 Center     Atomic                   Forces (Hartrees/Bohr)
 Number     Number              X              Y              Z
 -------------------------------------------------------------------
      1        6           0.000811348   -0.000513917    0.000546572
      2        1           0.000700327   -0.000418693   -0.000720357
      3        1          -0.000162017    0.000922658    0.000780486
      4        1          -0.001358966   -0.000601226   -0.000646917
      5        6           0.001068680    0.001246292   -0.000073035
      6        1          -0.000580029    0.000855351    0.000970560
      7        1           0.000989415   -0.000312137    0.000018856
      8        6           0.000002014   -0.001734466   -0.000659391
      9        1           0.000012476    0.000213067   -0.001492838
     10        1           0.000067193   -0.001000682    0.000457035
     11        6          -0.001433305    0.000392801    0.000599252
     12        1          -0.000279084    0.000443802    0.001345886
     13        1          -0.000535906    0.000890238   -0.000972888
     14        6          -0.001486479    0.000838685    0.000304482
     15        1          -0.000134872    0.000063049   -0.001274770
     16        1          -0.000060406   -0.000601227    0.001110027
     17        6           0.001763901   -0.000895584   -0.000330580
     18        1          -0.000035832   -0.000807603    0.001098909
     19        1           0.000819387    0.001232554    0.000260788
     20        1          -0.000167846   -0.000212963   -0.001322077
 -------------------------------------------------------------------
 Cartesian Forces:  Max     0.001763901 RMS     0.000837984
 Leave Link  716 at Mon Sep 14 19:12:24 2015, MaxMem=  402653184 cpu:       0.0
 (Enter /share/apps/g09/l103.exe)

 GradGradGradGradGradGradGradGradGradGradGradGradGradGradGradGradGradGrad
 Berny optimization.
 Using GEDIIS/GDIIS optimizer.
 Internal  Forces:  Max     0.002458377 RMS     0.000656121
 Search for a local minimum.
 Step number   2 out of a maximum of  110
 All quantities printed in internal units (Hartrees-Bohrs-Radians)
 RMS Force = .65612D-03 SwitMx=.10000D-02 MixMth= 2
 Mixed Optimization -- En-DIIS/RFO-DIIS
 Update second derivatives using D2CorX and points    1    2
 DE= -2.27D-03 DEPred=-2.02D-03 R= 1.12D+00
 SS=  1.41D+00  RLast= 1.65D-01 DXNew= 5.0454D-01 4.9392D-01
 Trust test= 1.12D+00 RLast= 1.65D-01 DXMaxT set to 4.94D-01
 Use linear search instead of GDIIS.
     Eigenvalues ---    0.00291   0.00293   0.00319   0.00393   0.00415
     Eigenvalues ---    0.03451   0.03519   0.03580   0.03598   0.04467
     Eigenvalues ---    0.04792   0.04812   0.04857   0.05476   0.05486
     Eigenvalues ---    0.05536   0.05548   0.08160   0.08262   0.08338
     Eigenvalues ---    0.08484   0.12064   0.12121   0.12210   0.12289
     Eigenvalues ---    0.15376   0.16000   0.16000   0.16000   0.16000
     Eigenvalues ---    0.16044   0.20805   0.21893   0.21921   0.21985
     Eigenvalues ---    0.28093   0.28897   0.29081   0.29421   0.29597
     Eigenvalues ---    0.31729   0.32062   0.32070   0.32080   0.32088
     Eigenvalues ---    0.32094   0.32118   0.32149   0.32191   0.32199
     Eigenvalues ---    0.32208   0.32230   0.32262   0.336971000.00000
     Eigenvalues --- 1000.000001000.000001000.000001000.000001000.00000
     Eigenvalues --- 1000.000001000.000001000.000001000.000001000.00000
     Eigenvalues --- 1000.000001000.000001000.000001000.000001000.00000
     Eigenvalues --- 1000.000001000.000001000.000001000.000001000.00000
     Eigenvalues --- 1000.000001000.000001000.000001000.000001000.00000
     Eigenvalues --- 1000.000001000.000001000.000001000.000001000.00000
     Eigenvalues --- 1000.000001000.000001000.000001000.000001000.00000
     Eigenvalues --- 1000.000001000.000001000.000001000.000001000.00000
     Eigenvalues --- 1000.000001000.000001000.000001000.000001000.00000
 RFO step:  Lambda=-2.42118572D-04 EMin= 2.91171238D-03
 Quartic linear search produced a step of  0.17228.
 Iteration  1 RMS(Cart)=  0.02562192 RMS(Int)=  0.00031024
 Iteration  2 RMS(Cart)=  0.00040144 RMS(Int)=  0.00001679
 Iteration  3 RMS(Cart)=  0.00000008 RMS(Int)=  0.00001679
 Variable       Old X    -DE/DX   Delta X   Delta X   Delta X     New X
                                 (Linear)    (Quad)   (Total)
    R1        2.07343  -0.00088  -0.00513   0.00034  -0.00479   2.06864
    R2        2.07367  -0.00103  -0.00533  -0.00009  -0.00542   2.06825
    R3        2.07556  -0.00155  -0.00494  -0.00225  -0.00719   2.06837
    R4        2.88899  -0.00045   0.00019  -0.00190  -0.00171   2.88727
    R5        2.09833  -0.00099  -0.00143  -0.00263  -0.00406   2.09427
    R6        2.09393  -0.00016  -0.00214   0.00090  -0.00124   2.09269
    R7        2.89751   0.00201  -0.00081   0.00872   0.00791   2.90542
    R8        2.09762  -0.00104  -0.00168  -0.00264  -0.00432   2.09329
    R9        2.09290  -0.00011  -0.00249   0.00132  -0.00117   2.09173
   R10        2.89559   0.00208  -0.00113   0.00923   0.00809   2.90368
   R11        2.09350  -0.00047  -0.00211  -0.00027  -0.00238   2.09112
   R12        2.09321  -0.00055  -0.00241  -0.00035  -0.00276   2.09045
   R13        2.90242  -0.00026   0.00068  -0.00150  -0.00082   2.90160
   R14        2.09526  -0.00087  -0.00199  -0.00180  -0.00379   2.09147
   R15        2.09509  -0.00080  -0.00202  -0.00153  -0.00355   2.09154
   R16        2.89374  -0.00246   0.00154  -0.01074  -0.00920   2.88454
   R17        2.07445  -0.00131  -0.00526  -0.00113  -0.00639   2.06806
   R18        2.07501  -0.00146  -0.00504  -0.00183  -0.00686   2.06815
   R19        2.07441  -0.00129  -0.00525  -0.00108  -0.00634   2.06807
    A1        1.88158  -0.00075  -0.00448  -0.00377  -0.00824   1.87334
    A2        1.87735  -0.00038  -0.00209  -0.00010  -0.00224   1.87511
    A3        1.94281   0.00049   0.00173   0.00220   0.00390   1.94671
    A4        1.88144  -0.00054  -0.00256  -0.00178  -0.00440   1.87704
    A5        1.94214   0.00062   0.00250   0.00216   0.00463   1.94678
    A6        1.93574   0.00046   0.00455   0.00097   0.00546   1.94120
    A7        1.90485   0.00016   0.00392  -0.00357   0.00036   1.90521
    A8        1.90925   0.00040   0.00066   0.00373   0.00438   1.91363
    A9        1.97894  -0.00092  -0.00245  -0.00096  -0.00341   1.97553
[...]
 ! D9    D(4,1,5,8)           -179.6311         -DE/DX =    0.0                 !
 ! D10   D(1,5,8,9)            164.7283         -DE/DX =    0.0                 !
 ! D11   D(1,5,8,10)            49.2619         -DE/DX =    0.0                 !
 ! D12   D(1,5,8,11)           -73.3816         -DE/DX =    0.0                 !
 ! D13   D(6,5,8,9)             42.9373         -DE/DX =    0.0                 !
 ! D14   D(6,5,8,10)           -72.5291         -DE/DX =    0.0                 !
 ! D15   D(6,5,8,11)           164.8274         -DE/DX =    0.0                 !
 ! D16   D(7,5,8,9)            -72.4617         -DE/DX =    0.0                 !
 ! D17   D(7,5,8,10)           172.0719         -DE/DX =    0.0                 !
 ! D18   D(7,5,8,11)            49.4284         -DE/DX =    0.0                 !
 ! D19   D(5,8,11,12)           58.6006         -DE/DX =    0.0                 !
 ! D20   D(5,8,11,13)          -57.2347         -DE/DX =    0.0                 !
 ! D21   D(5,8,11,14)         -179.3714         -DE/DX =    0.0                 !
 ! D22   D(9,8,11,12)         -179.7518         -DE/DX =    0.0                 !
 ! D23   D(9,8,11,13)           64.4129         -DE/DX =    0.0                 !
 ! D24   D(9,8,11,14)          -57.7238         -DE/DX =    0.0                 !
 ! D25   D(10,8,11,12)         -63.9808         -DE/DX =    0.0                 !
 ! D26   D(10,8,11,13)        -179.8161         -DE/DX =    0.0                 !
 ! D27   D(10,8,11,14)          58.0472         -DE/DX =    0.0                 !
 ! D28   D(8,11,14,15)          57.98           -DE/DX =    0.0                 !
 ! D29   D(8,11,14,16)         -58.0534         -DE/DX =    0.0                 !
 ! D30   D(8,11,14,17)         179.9717         -DE/DX =    0.0                 !
 ! D31   D(12,11,14,15)        179.9881         -DE/DX =    0.0                 !
 ! D32   D(12,11,14,16)         63.9547         -DE/DX =    0.0                 !
 ! D33   D(12,11,14,17)        -58.0202         -DE/DX =    0.0                 !
 ! D34   D(13,11,14,15)        -64.1874         -DE/DX =    0.0                 !
 ! D35   D(13,11,14,16)        179.7791         -DE/DX =    0.0                 !
 ! D36   D(13,11,14,17)         57.8043         -DE/DX =    0.0                 !
 ! D37   D(11,14,17,18)         60.066          -DE/DX =    0.0                 !
 ! D38   D(11,14,17,19)       -179.9897         -DE/DX =    0.0                 !
 ! D39   D(11,14,17,20)        -60.041          -DE/DX =    0.0                 !
 ! D40   D(15,14,17,18)       -177.8378         -DE/DX =    0.0                 !
 ! D41   D(15,14,17,19)        -57.8935         -DE/DX =    0.0                 !
 ! D42   D(15,14,17,20)         62.0552         -DE/DX =    0.0                 !
 ! D43   D(16,14,17,18)        -61.9926         -DE/DX =    0.0                 !
 ! D44   D(16,14,17,19)         57.9518         -DE/DX =    0.0                 !
 ! D45   D(16,14,17,20)        177.9005         -DE/DX =    0.0                 !
 --------------------------------------------------------------------------------
 GradGradGradGradGradGradGradGradGradGradGradGradGradGradGradGradGradGrad

 Largest change from initial coordinates is atom   15       0.138 Angstoms.
 Leave Link  103 at Mon Sep 14 19:14:00 2015, MaxMem=  402653184 cpu:       0.0
 (Enter /share/apps/g09/l202.exe)
                          Input orientation:                          
 ---------------------------------------------------------------------
 Center     Atomic      Atomic             Coordinates (Angstroms)
 Number     Number       Type             X           Y           Z
 ---------------------------------------------------------------------
      1          6           0        1.883232    1.840654   -0.855094
      2          1           0        0.979332    2.458961   -0.902045
      3          1           0        2.048746    1.430786   -1.857751
      4          1           0        2.724607    2.503344   -0.625722
      5          6           0        1.750023    0.733424    0.188375
      6          1           0        2.693526    0.153681    0.231440
      7          1           0        1.627204    1.180744    1.194215
      8          6           0        0.585380   -0.224606   -0.102090
      9          1           0        0.705754   -1.139618    0.509986
     10          1           0        0.630894   -0.560271   -1.155987
     11          6           0       -0.781836    0.410191    0.184413
     12          1           0       -0.907704    1.323011   -0.429140
     13          1           0       -0.827184    0.749101    1.236899
     14          6           0       -1.929072   -0.570000   -0.098077
     15          1           0       -1.803531   -1.483495    0.515326
     16          1           0       -1.885637   -0.905828   -1.152556
     17          6           0       -3.291875    0.057896    0.186565
     18          1           0       -3.464497    0.944856   -0.433454
     19          1           0       -4.103958   -0.648571   -0.017573
     20          1           0       -3.382007    0.368338    1.233671
 ---------------------------------------------------------------------
                    Distance matrix (angstroms):
                    1          2          3          4          5
     1  C    0.000000
     2  H    1.096150   0.000000
     3  H    1.095768   1.764700   0.000000
     4  H    1.095300   1.767572   1.767785   0.000000
     5  C    1.527263   2.181848   2.182243   2.178345   0.000000
     6  H    2.164026   3.088295   2.532086   2.501322   1.108221
     7  H    2.168110   2.539269   3.091071   2.503145   1.107653
     8  C    2.552789   2.827836   2.822076   3.506022   1.535768
     9  H    3.483090   3.875364   3.743900   4.317033   2.168460
    10  H    2.724578   3.049862   2.543047   3.748407   2.175640
    11  C    3.198341   2.911968   3.636515   4.163262   2.552412
    12  H    2.870316   2.252759   3.285292   3.824332   2.791496
    13  H    3.593644   3.280580   4.279314   4.377436   2.782381
    14  C    4.573619   4.275486   4.787759   5.601837   3.913657
    15  H    5.149780   5.029535   5.381874   6.140107   4.201116
    16  H    4.672903   4.426353   4.629950   5.757982   4.207525
    17  C    5.571805   5.019302   5.881011   6.545081   5.086952
    18  H    5.438607   4.718019   5.714946   6.385206   5.255721
    19  H    6.537899   6.023195   6.750241   7.545443   6.018423
    20  H    5.852640   5.287085   6.338673   6.730998   5.250111
                    6          7          8          9         10
     6  H    0.000000
     7  H    1.766023   0.000000
     8  C    2.167630   2.177341   0.000000
     9  H    2.387770   2.588692   1.107418   0.000000
    10  H    2.586335   3.089858   1.106998   1.765422   0.000000
    11  C    3.485132   2.723404   1.534382   2.172747   2.175839
    12  H    3.843507   3.013516   2.175173   3.090266   2.538176
    13  H    3.709565   2.492420   2.176312   2.538812   3.092952
    14  C    4.690491   4.169200   2.538067   2.763424   2.769963
    15  H    4.794210   4.396476   2.770000   2.532744   3.093874
    16  H    4.899666   4.711812   2.770103   3.087719   2.540147
    17  C    5.986335   5.145239   3.898235   4.185652   4.191980
    18  H    6.244140   5.350736   4.228351   4.756691   4.422634
    19  H    6.849189   6.136860   4.709223   4.863412   4.870585
    20  H    6.161383   5.074816   4.228002   4.416723   4.761949
                   11         12         13         14         15
    11  C    0.000000
    12  H    1.107036   0.000000
    13  H    1.106637   1.763956   0.000000
    14  C    1.535163   2.176301   2.176315   0.000000
    15  H    2.177019   3.093702   2.541340   1.107473   0.000000
    16  H    2.176642   2.539174   3.093317   1.107517   1.766995
    17  C    2.534643   2.768371   2.766888   1.527255   2.167749
    18  H    2.804336   2.584611   3.127910   2.182841   3.091259
    19  H    3.492602   3.777905   3.776829   2.177793   2.504604
    20  H    2.804208   3.130258   2.583043   2.182900   2.537103
                   16         17         18         19         20
    16  H    0.000000
    17  C    2.167837   0.000000
    18  H    2.536718   1.095865   0.000000
    19  H    2.505058   1.095558   1.766601   0.000000
    20  H    3.091392   1.095869   1.765924   1.766616   0.000000
 Stoichiometry    C6H14
 Framework group  C1[X(C6H14)]
 Deg. of freedom    54
 Full point group                 C1      NOp   1
 Largest Abelian subgroup         C1      NOp   1
 Largest concise Abelian subgroup C1      NOp   1
                         Standard orientation:                         
 ---------------------------------------------------------------------
 Center     Atomic      Atomic             Coordinates (Angstroms)
 Number     Number       Type             X           Y           Z
 ---------------------------------------------------------------------
      1          6           0        2.586275    0.857047   -0.258405
      2          1           0        1.908345    1.708510   -0.128149
      3          1           0        2.731643    0.719547   -1.335749
      4          1           0        3.553552    1.136617    0.172754
      5          6           0        2.031448   -0.405316    0.398205
      6          1           0        2.758570   -1.232740    0.276488
      7          1           0        1.937153   -0.247746    1.490530
      8          6           0        0.677982   -0.836998   -0.185203
      9          1           0        0.465222   -1.879412    0.122171
     10          1           0        0.735822   -0.855807   -1.290529
     11          6           0       -0.471406    0.076140    0.261357
     12          1           0       -0.264351    1.118662   -0.048167
     13          1           0       -0.528008    0.098249    1.366324
     14          6           0       -1.815508   -0.383269   -0.320932
     15          1           0       -2.023052   -1.426262   -0.011760
     16          1           0       -1.759632   -0.401424   -1.426889
     17          6           0       -2.962481    0.522781    0.121825
     18          1           0       -2.806687    1.557942   -0.202350
     19          1           0       -3.917107    0.187297   -0.298163
     20          1           0       -3.069332    0.534247    1.212412
 ---------------------------------------------------------------------
 Rotational constants (GHZ):      8.7205828      1.3433240      1.2613419
 Leave Link  202 at Mon Sep 14 19:14:03 2015, MaxMem=  402653184 cpu:       0.0
 (Enter /share/apps/g09/l601.exe)
 Copying SCF densities to generalized density rwf, IOpCl= 0 IROHF=0.

 **********************************************************************

            Population analysis using the SCF density.

 **********************************************************************

 Orbital symmetries:
       Occupied  (A) (A) (A) (A) (A) (A) (A) (A) (A) (A) (A) (A)
                 (A) (A) (A) (A) (A) (A) (A)
       Virtual   (A) (A) (A) (A) (A) (A) (A) (A) (A) (A) (A) (A)
                 (A) (A) (A) (A) (A) (A) (A)
 The electronic state is 1-A.
 Alpha  occ. eigenvalues --   -1.05608  -1.00007  -0.90946  -0.82318  -0.74682
 Alpha  occ. eigenvalues --   -0.72445  -0.59227  -0.56599  -0.54558  -0.51884
 Alpha  occ. eigenvalues --   -0.51560  -0.48744  -0.46900  -0.45624  -0.44065
 Alpha  occ. eigenvalues --   -0.42743  -0.41696  -0.40823  -0.40364
 Alpha virt. eigenvalues --    0.15266   0.15857   0.16863   0.17536   0.18484
 Alpha virt. eigenvalues --    0.20532   0.21137   0.21651   0.22086   0.22232
 Alpha virt. eigenvalues --    0.22768   0.22980   0.23596   0.24092   0.24463
 Alpha virt. eigenvalues --    0.24687   0.24960   0.25613   0.25898
          Condensed to atoms (all electrons):
              1          2          3          4          5          6
     1  C    4.459664   0.000000   0.000000   0.000000   0.000000   0.000000
     2  H    0.000000   0.852743   0.000000   0.000000   0.000000   0.000000
     3  H    0.000000   0.000000   0.854335   0.000000   0.000000   0.000000
     4  H    0.000000   0.000000   0.000000   0.858431   0.000000   0.000000
     5  C    0.000000   0.000000   0.000000   0.000000   4.220344   0.000000
     6  H    0.000000   0.000000   0.000000   0.000000   0.000000   0.877549
     7  H    0.000000   0.000000   0.000000   0.000000   0.000000   0.000000
     8  C    0.000000   0.000000   0.000000   0.000000   0.000000   0.000000
     9  H    0.000000   0.000000   0.000000   0.000000   0.000000   0.000000
    10  H    0.000000   0.000000   0.000000   0.000000   0.000000   0.000000
    11  C    0.000000   0.000000   0.000000   0.000000   0.000000   0.000000
    12  H    0.000000   0.000000   0.000000   0.000000   0.000000   0.000000
    13  H    0.000000   0.000000   0.000000   0.000000   0.000000   0.000000
    14  C    0.000000   0.000000   0.000000   0.000000   0.000000   0.000000
    15  H    0.000000   0.000000   0.000000   0.000000   0.000000   0.000000
    16  H    0.000000   0.000000   0.000000   0.000000   0.000000   0.000000
    17  C    0.000000   0.000000   0.000000   0.000000   0.000000   0.000000
    18  H    0.000000   0.000000   0.000000   0.000000   0.000000   0.000000
    19  H    0.000000   0.000000   0.000000   0.000000   0.000000   0.000000
    20  H    0.000000   0.000000   0.000000   0.000000   0.000000   0.000000
              7          8          9         10         11         12
     1  C    0.000000   0.000000   0.000000   0.000000   0.000000   0.000000
     2  H    0.000000   0.000000   0.000000   0.000000   0.000000   0.000000
     3  H    0.000000   0.000000   0.000000   0.000000   0.000000   0.000000
     4  H    0.000000   0.000000   0.000000   0.000000   0.000000   0.000000
     5  C    0.000000   0.000000   0.000000   0.000000   0.000000   0.000000
     6  H    0.000000   0.000000   0.000000   0.000000   0.000000   0.000000
     7  H    0.873453   0.000000   0.000000   0.000000   0.000000   0.000000
     8  C    0.000000   4.266597   0.000000   0.000000   0.000000   0.000000
     9  H    0.000000   0.000000   0.873046   0.000000   0.000000   0.000000
    10  H    0.000000   0.000000   0.000000   0.867273   0.000000   0.000000
    11  C    0.000000   0.000000   0.000000   0.000000   4.259831   0.000000
    12  H    0.000000   0.000000   0.000000   0.000000   0.000000   0.866835
    13  H    0.000000   0.000000   0.000000   0.000000   0.000000   0.000000
    14  C    0.000000   0.000000   0.000000   0.000000   0.000000   0.000000
    15  H    0.000000   0.000000   0.000000   0.000000   0.000000   0.000000
    16  H    0.000000   0.000000   0.000000   0.000000   0.000000   0.000000
    17  C    0.000000   0.000000   0.000000   0.000000   0.000000   0.000000
    18  H    0.000000   0.000000   0.000000   0.000000   0.000000   0.000000
    19  H    0.000000   0.000000   0.000000   0.000000   0.000000   0.000000
    20  H    0.000000   0.000000   0.000000   0.000000   0.000000   0.000000
             13         14         15         16         17         18
     1  C    0.000000   0.000000   0.000000   0.000000   0.000000   0.000000
     2  H    0.000000   0.000000   0.000000   0.000000   0.000000   0.000000
     3  H    0.000000   0.000000   0.000000   0.000000   0.000000   0.000000
     4  H    0.000000   0.000000   0.000000   0.000000   0.000000   0.000000
     5  C    0.000000   0.000000   0.000000   0.000000   0.000000   0.000000
     6  H    0.000000   0.000000   0.000000   0.000000   0.000000   0.000000
     7  H    0.000000   0.000000   0.000000   0.000000   0.000000   0.000000
     8  C    0.000000   0.000000   0.000000   0.000000   0.000000   0.000000
     9  H    0.000000   0.000000   0.000000   0.000000   0.000000   0.000000
    10  H    0.000000   0.000000   0.000000   0.000000   0.000000   0.000000
    11  C    0.000000   0.000000   0.000000   0.000000   0.000000   0.000000
    12  H    0.000000   0.000000   0.000000   0.000000   0.000000   0.000000
    13  H    0.869382   0.000000   0.000000   0.000000   0.000000   0.000000
    14  C    0.000000   4.224037   0.000000   0.000000   0.000000   0.000000
    15  H    0.000000   0.000000   0.874711   0.000000   0.000000   0.000000
    16  H    0.000000   0.000000   0.000000   0.874236   0.000000   0.000000
    17  C    0.000000   0.000000   0.000000   0.000000   4.463672   0.000000
    18  H    0.000000   0.000000   0.000000   0.000000   0.000000   0.853720
    19  H    0.000000   0.000000   0.000000   0.000000   0.000000   0.000000
    20  H    0.000000   0.000000   0.000000   0.000000   0.000000   0.000000
             19         20
     1  C    0.000000   0.000000
     2  H    0.000000   0.000000
     3  H    0.000000   0.000000
     4  H    0.000000   0.000000
     5  C    0.000000   0.000000
     6  H    0.000000   0.000000
     7  H    0.000000   0.000000
     8  C    0.000000   0.000000
     9  H    0.000000   0.000000
    10  H    0.000000   0.000000
    11  C    0.000000   0.000000
    12  H    0.000000   0.000000
    13  H    0.000000   0.000000
    14  C    0.000000   0.000000
    15  H    0.000000   0.000000
    16  H    0.000000   0.000000
    17  C    0.000000   0.000000
    18  H    0.000000   0.000000
    19  H    0.856434   0.000000
    20  H    0.000000   0.853708
 Mulliken atomic charges:
              1
     1  C   -0.459664
     2  H    0.147257
     3  H    0.145665
     4  H    0.141569
     5  C   -0.220344
     6  H    0.122451
     7  H    0.126547
     8  C   -0.266597
     9  H    0.126954
    10  H    0.132727
    11  C   -0.259831
    12  H    0.133165
    13  H    0.130618
    14  C   -0.224037
    15  H    0.125289
    16  H    0.125764
    17  C   -0.463672
    18  H    0.146280
    19  H    0.143566
    20  H    0.146292
 Sum of Mulliken atomic charges =   0.00000
 Mulliken charges with hydrogens summed into heavy atoms:
              1
     1  C   -0.025172
     5  C    0.028653
     8  C   -0.006916
    11  C    0.003951
    14  C    0.027016
    17  C   -0.027533
 Sum of Mulliken charges with hydrogens summed into heavy atoms =   0.00000
 Charge=              0.0000 electrons
 Dipole moment (field-independent basis, Debye):
    X=             -0.0069    Y=              0.0669    Z=             -0.0067  Tot=              0.0676
 N-N= 1.627606016268D+02 E-N=-2.465286472145D+02  KE=-5.608935949371D+01
 Leave Link  601 at Mon Sep 14 19:14:03 2015, MaxMem=  402653184 cpu:       0.0
 (Enter /share/apps/g09/l9999.exe)
 1\1\GINC-COMPUTE-0-12\FOpt\RPM6\ZDO\C6H14\HETANJIN\14-Sep-2015\0\\#p P
 M6 opt\\using PM6 to do opt and freq calc.\\0,1\C,1.883232302,1.840653
 6975,-0.8550938144\H,0.9793317212,2.4589610776,-0.9020450927\H,2.04874
 64653,1.4307864468,-1.8577512351\H,2.7246069962,2.5033443245,-0.625722
 2691\C,1.7500233708,0.7334238167,0.1883754583\H,2.6935256222,0.1536807
 771,0.231439534\H,1.62720437,1.1807442087,1.194215487\C,0.5853802049,-
 0.2246055421,-0.1020895194\H,0.7057541805,-1.1396183995,0.5099855366\H
 ,0.6308938671,-0.5602707888,-1.1559874884\C,-0.7818356347,0.4101912083
 ,0.1844127709\H,-0.9077035024,1.3230105238,-0.4291399458\H,-0.82718397
 92,0.7491014916,1.2368993019\C,-1.9290720159,-0.5699999479,-0.09807708
 66\H,-1.8035310436,-1.4834946171,0.5153256804\H,-1.8856368085,-0.90582
 75853,-1.1525564636\C,-3.2918748368,0.0578964462,0.1865654963\H,-3.464
 4969429,0.9448562689,-0.4334543878\H,-4.1039576487,-0.6485714268,-0.01
 75734307\H,-3.3820066877,0.3683380198,1.2336714682\\Version=EM64L-G09R
 evA.01\State=1-A\HF=-0.0563432\RMSD=1.628e-09\RMSF=6.803e-06\Dipole=-0
 .0106638,0.0223361,-0.0097193\PG=C01 [X(C6H14)]\\@


 THE MOST INCOMPREHENSIBLE THING ABOUT THE WORLD
 IS THAT IT IS COMPREHENSIBLE. -- A. EINSTEIN
 Job cpu time:  0 days  0 hours  0 minutes 18.7 seconds.
 File lengths (MBytes):  RWF=      5 Int=      0 D2E=      0 Chk=      3 Scr=      1
 Normal termination of Gaussian 09 at Mon Sep 14 19:14:06 2015.
