using PM6 to do opt and freq calc.                                      
FOpt      RPM6                                                        ZDO                 
Number of atoms                            I               20
Info1-9                                    I   N=           9
          33          29           0           0           0         110
           2           8         302
Charge                                     I                0
Multiplicity                               I                1
Number of electrons                        I               38
Number of alpha electrons                  I               19
Number of beta electrons                   I               19
Number of basis functions                  I               38
Number of independent functions            I               38
Number of point charges in /Mol/           I                0
Number of translation vectors              I                0
Atomic numbers                             I   N=          20
           6           1           1           1           6           1
           1           6           1           1           6           1
           1           6           1           1           6           1
           1           1
Nuclear charges                            R   N=          20
  4.00000000E+00  1.00000000E+00  1.00000000E+00  1.00000000E+00  4.00000000E+00
  1.00000000E+00  1.00000000E+00  4.00000000E+00  1.00000000E+00  1.00000000E+00
  4.00000000E+00  1.00000000E+00  1.00000000E+00  4.00000000E+00  1.00000000E+00
  1.00000000E+00  4.00000000E+00  1.00000000E+00  1.00000000E+00  1.00000000E+00
Current cartesian coordinates              R   N=          60
  4.88735234E+00  1.61958495E+00 -4.88314383E-01  3.60624930E+00  3.22861575E+00
 -2.42166179E-01  5.16205783E+00  1.35974692E+00 -2.52419926E+00  6.71524005E+00
  2.14789565E+00  3.26458563E-01  3.83888011E+00 -7.65935938E-01  7.52497715E-01
  5.21294262E+00 -2.32954110E+00  5.22486461E-01  3.66068952E+00 -4.68171195E-01
  2.81669321E+00  1.28120018E+00 -1.58169621E+00 -3.49983327E-01  8.79141998E-01
 -3.55157445E+00  2.30870444E-01  1.39050225E+00 -1.61724052E+00 -2.43874568E+00
 -8.90828270E-01  1.43884634E-01  4.93892845E-01 -4.99551048E-01  2.11396562E+00
 -9.10222999E-02 -9.97790089E-01  1.85664359E-01  2.58197779E+00 -3.43081255E+00
 -7.24272684E-01 -6.06473482E-01 -3.82301475E+00 -2.69524367E+00 -2.22239050E-02
 -3.32522226E+00 -7.58582259E-01 -2.69643012E+00 -5.59827848E+00  9.87912021E-01
  2.30215264E-01 -5.30387000E+00  2.94408390E+00 -3.82386726E-01 -7.40225890E+00
  3.53940660E-01 -5.63446241E-01 -5.80019652E+00  1.00957967E+00  2.29112615E+00
Force Field                                I                0
Int Atom Types                             I   N=          20
           0           0           0           0           0           0
           0           0           0           0           0           0
           0           0           0           0           0           0
           0           0
MM charges                                 R   N=          20
  0.00000000E+00  0.00000000E+00  0.00000000E+00  0.00000000E+00  0.00000000E+00
  0.00000000E+00  0.00000000E+00  0.00000000E+00  0.00000000E+00  0.00000000E+00
  0.00000000E+00  0.00000000E+00  0.00000000E+00  0.00000000E+00  0.00000000E+00
  0.00000000E+00  0.00000000E+00  0.00000000E+00  0.00000000E+00  0.00000000E+00
Integer atomic weights                     I   N=          20
          12           1           1           1          12           1
           1          12           1           1          12           1
           1          12           1           1          12           1
           1           1
Real atomic weights                        R   N=          20
  1.20000000E+01  1.00782504E+00  1.00782504E+00  1.00782504E+00  1.20000000E+01
  1.00782504E+00  1.00782504E+00  1.20000000E+01  1.00782504E+00  1.00782504E+00
  1.20000000E+01  1.00782504E+00  1.00782504E+00  1.20000000E+01  1.00782504E+00
  1.00782504E+00  1.20000000E+01  1.00782504E+00  1.00782504E+00  1.00782504E+00
Atom fragment info                         I   N=          20
           0           0           0           0           0           0
           0           0           0           0           0           0
           0           0           0           0           0           0
           0           0
Atom residue num                           I   N=          20
           0           0           0           0           0           0
           0           0           0           0           0           0
           0           0           0           0           0           0
           0           0
Nuclear spins                              I   N=          20
           0           1           1           1           0           1
           1           0           1           1           0           1
           1           0           1           1           0           1
           1           1
Nuclear ZEff                               R   N=          20
 -3.90000000E+00 -1.00000000E+00 -1.00000000E+00 -1.00000000E+00 -3.90000000E+00
 -1.00000000E+00 -1.00000000E+00 -3.90000000E+00 -1.00000000E+00 -1.00000000E+00
 -3.90000000E+00 -1.00000000E+00 -1.00000000E+00 -3.90000000E+00 -1.00000000E+00
 -1.00000000E+00 -3.90000000E+00 -1.00000000E+00 -1.00000000E+00 -1.00000000E+00
Nuclear QMom                               R   N=          20
  0.00000000E+00  0.00000000E+00  0.00000000E+00  0.00000000E+00  0.00000000E+00
  0.00000000E+00  0.00000000E+00  0.00000000E+00  0.00000000E+00  0.00000000E+00
  0.00000000E+00  0.00000000E+00  0.00000000E+00  0.00000000E+00  0.00000000E+00
  0.00000000E+00  0.00000000E+00  0.00000000E+00  0.00000000E+00  0.00000000E+00
Nuclear GFac                               R   N=          20
  0.00000000E+00  2.79284600E+00  2.79284600E+00  2.79284600E+00  0.00000000E+00
  2.79284600E+00  2.79284600E+00  0.00000000E+00  2.79284600E+00  2.79284600E+00
  0.00000000E+00  2.79284600E+00  2.79284600E+00  0.00000000E+00  2.79284600E+00
  2.79284600E+00  0.00000000E+00  2.79284600E+00  2.79284600E+00  2.79284600E+00
MicOpt                                     I   N=          20
          -1          -1          -1          -1          -1          -1
          -1          -1          -1          -1          -1          -1
          -1          -1          -1          -1          -1          -1
          -1          -1
Number of contracted shells                I               20
Number of primitive shells                 I              120
Pure/Cartesian d shells                    I                0
Pure/Cartesian f shells                    I                0
Highest angular momentum                   I                1
Largest degree of contraction              I                6
Shell types                                I   N=          20
          -1           0           0           0          -1           0
           0          -1           0           0          -1           0
           0          -1           0           0          -1           0
           0           0
Number of primitives per shell             I   N=          20
           6           6           6           6           6           6
           6           6           6           6           6           6
           6           6           6           6           6           6
           6           6
Shell to atom map                          I   N=          20
           1           2           3           4           5           6
           7           8           9          10          11          12
          13          14          15          16          17          18
          19          20
Primitive exponents                        R   N=         120
  1.14476344E+01  3.29633588E+00  1.29653143E+00  5.92558930E-01  2.94896438E-01
  1.51447622E-01  4.39461478E+00  1.26542531E+00  4.97723458E-01  2.27476537E-01
  1.13207340E-01  5.81389949E-02  4.39461478E+00  1.26542531E+00  4.97723458E-01
  2.27476537E-01  1.13207340E-01  5.81389949E-02  4.39461478E+00  1.26542531E+00
  4.97723458E-01  2.27476537E-01  1.13207340E-01  5.81389949E-02  1.14476344E+01
  3.29633588E+00  1.29653143E+00  5.92558930E-01  2.94896438E-01  1.51447622E-01
  4.39461478E+00  1.26542531E+00  4.97723458E-01  2.27476537E-01  1.13207340E-01
  5.81389949E-02  4.39461478E+00  1.26542531E+00  4.97723458E-01  2.27476537E-01
  1.13207340E-01  5.81389949E-02  1.14476344E+01  3.29633588E+00  1.29653143E+00
  5.92558930E-01  2.94896438E-01  1.51447622E-01  4.39461478E+00  1.26542531E+00
  4.97723458E-01  2.27476537E-01  1.13207340E-01  5.81389949E-02  4.39461478E+00
  1.26542531E+00  4.97723458E-01  2.27476537E-01  1.13207340E-01  5.81389949E-02
  1.14476344E+01  3.29633588E+00  1.29653143E+00  5.92558930E-01  2.94896438E-01
  1.51447622E-01  4.39461478E+00  1.26542531E+00  4.97723458E-01  2.27476537E-01
  1.13207340E-01  5.81389949E-02  4.39461478E+00  1.26542531E+00  4.97723458E-01
  2.27476537E-01  1.13207340E-01  5.81389949E-02  1.14476344E+01  3.29633588E+00
  1.29653143E+00  5.92558930E-01  2.94896438E-01  1.51447622E-01  4.39461478E+00
  1.26542531E+00  4.97723458E-01  2.27476537E-01  1.13207340E-01  5.81389949E-02
  4.39461478E+00  1.26542531E+00  4.97723458E-01  2.27476537E-01  1.13207340E-01
  5.81389949E-02  1.14476344E+01  3.29633588E+00  1.29653143E+00  5.92558930E-01
  2.94896438E-01  1.51447622E-01  4.39461478E+00  1.26542531E+00  4.97723458E-01
  2.27476537E-01  1.13207340E-01  5.81389949E-02  4.39461478E+00  1.26542531E+00
  4.97723458E-01  2.27476537E-01  1.13207340E-01  5.81389949E-02  4.39461478E+00
  1.26542531E+00  4.97723458E-01  2.27476537E-01  1.13207340E-01  5.81389949E-02
Contraction coefficients                   R   N=         120
 -9.73739553E-03 -7.26587678E-02 -1.71615520E-01  1.28977624E-01  7.28861451E-01
  3.01331742E-01 -9.73739553E-03 -7.26587678E-02 -1.71615520E-01  1.28977624E-01
  7.28861451E-01  3.01331742E-01 -9.73739553E-03 -7.26587678E-02 -1.71615520E-01
  1.28977624E-01  7.28861451E-01  3.01331742E-01 -9.73739553E-03 -7.26587678E-02
 -1.71615520E-01  1.28977624E-01  7.28861451E-01  3.01331742E-01 -9.73739553E-03
 -7.26587678E-02 -1.71615520E-01  1.28977624E-01  7.28861451E-01  3.01331742E-01
 -9.73739553E-03 -7.26587678E-02 -1.71615520E-01  1.28977624E-01  7.28861451E-01
  3.01331742E-01 -9.73739553E-03 -7.26587678E-02 -1.71615520E-01  1.28977624E-01
  7.28861451E-01  3.01331742E-01 -9.73739553E-03 -7.26587678E-02 -1.71615520E-01
  1.28977624E-01  7.28861451E-01  3.01331742E-01 -9.73739553E-03 -7.26587678E-02
 -1.71615520E-01  1.28977624E-01  7.28861451E-01  3.01331742E-01 -9.73739553E-03
 -7.26587678E-02 -1.71615520E-01  1.28977624E-01  7.28861451E-01  3.01331742E-01
 -9.73739553E-03 -7.26587678E-02 -1.71615520E-01  1.28977624E-01  7.28861451E-01
  3.01331742E-01 -9.73739553E-03 -7.26587678E-02 -1.71615520E-01  1.28977624E-01
  7.28861451E-01  3.01331742E-01 -9.73739553E-03 -7.26587678E-02 -1.71615520E-01
  1.28977624E-01  7.28861451E-01  3.01331742E-01 -9.73739553E-03 -7.26587678E-02
 -1.71615520E-01  1.28977624E-01  7.28861451E-01  3.01331742E-01 -9.73739553E-03
 -7.26587678E-02 -1.71615520E-01  1.28977624E-01  7.28861451E-01  3.01331742E-01
 -9.73739553E-03 -7.26587678E-02 -1.71615520E-01  1.28977624E-01  7.28861451E-01
  3.01331742E-01 -9.73739553E-03 -7.26587678E-02 -1.71615520E-01  1.28977624E-01
  7.28861451E-01  3.01331742E-01 -9.73739553E-03 -7.26587678E-02 -1.71615520E-01
  1.28977624E-01  7.28861451E-01  3.01331742E-01 -9.73739553E-03 -7.26587678E-02
 -1.71615520E-01  1.28977624E-01  7.28861451E-01  3.01331742E-01 -9.73739553E-03
 -7.26587678E-02 -1.71615520E-01  1.28977624E-01  7.28861451E-01  3.01331742E-01
P(S=P) Contraction coefficients            R   N=         120
 -8.10494336E-03 -1.71547892E-02  7.36978576E-02  3.96514999E-01  4.97808488E-01
  1.17482582E-01  0.00000000E+00  0.00000000E+00  0.00000000E+00  0.00000000E+00
  0.00000000E+00  0.00000000E+00  0.00000000E+00  0.00000000E+00  0.00000000E+00
  0.00000000E+00  0.00000000E+00  0.00000000E+00  0.00000000E+00  0.00000000E+00
  0.00000000E+00  0.00000000E+00  0.00000000E+00  0.00000000E+00 -8.10494336E-03
 -1.71547892E-02  7.36978576E-02  3.96514999E-01  4.97808488E-01  1.17482582E-01
  0.00000000E+00  0.00000000E+00  0.00000000E+00  0.00000000E+00  0.00000000E+00
  0.00000000E+00  0.00000000E+00  0.00000000E+00  0.00000000E+00  0.00000000E+00
  0.00000000E+00  0.00000000E+00 -8.10494336E-03 -1.71547892E-02  7.36978576E-02
  3.96514999E-01  4.97808488E-01  1.17482582E-01  0.00000000E+00  0.00000000E+00
  0.00000000E+00  0.00000000E+00  0.00000000E+00  0.00000000E+00  0.00000000E+00
  0.00000000E+00  0.00000000E+00  0.00000000E+00  0.00000000E+00  0.00000000E+00
 -8.10494336E-03 -1.71547892E-02  7.36978576E-02  3.96514999E-01  4.97808488E-01
  1.17482582E-01  0.00000000E+00  0.00000000E+00  0.00000000E+00  0.00000000E+00
  0.00000000E+00  0.00000000E+00  0.00000000E+00  0.00000000E+00  0.00000000E+00
  0.00000000E+00  0.00000000E+00  0.00000000E+00 -8.10494336E-03 -1.71547892E-02
  7.36978576E-02  3.96514999E-01  4.97808488E-01  1.17482582E-01  0.00000000E+00
  0.00000000E+00  0.00000000E+00  0.00000000E+00  0.00000000E+00  0.00000000E+00
  0.00000000E+00  0.00000000E+00  0.00000000E+00  0.00000000E+00  0.00000000E+00
  0.00000000E+00 -8.10494336E-03 -1.71547892E-02  7.36978576E-02  3.96514999E-01
  4.97808488E-01  1.17482582E-01  0.00000000E+00  0.00000000E+00  0.00000000E+00
  0.00000000E+00  0.00000000E+00  0.00000000E+00  0.00000000E+00  0.00000000E+00
  0.00000000E+00  0.00000000E+00  0.00000000E+00  0.00000000E+00  0.00000000E+00
  0.00000000E+00  0.00000000E+00  0.00000000E+00  0.00000000E+00  0.00000000E+00
Coordinates of each shell                  R   N=          60
  4.88735234E+00  1.61958495E+00 -4.88314383E-01  3.60624930E+00  3.22861575E+00
 -2.42166179E-01  5.16205783E+00  1.35974692E+00 -2.52419926E+00  6.71524005E+00
  2.14789565E+00  3.26458563E-01  3.83888011E+00 -7.65935938E-01  7.52497715E-01
  5.21294262E+00 -2.32954110E+00  5.22486461E-01  3.66068952E+00 -4.68171195E-01
  2.81669321E+00  1.28120018E+00 -1.58169621E+00 -3.49983327E-01  8.79141998E-01
 -3.55157445E+00  2.30870444E-01  1.39050225E+00 -1.61724052E+00 -2.43874568E+00
 -8.90828270E-01  1.43884634E-01  4.93892845E-01 -4.99551048E-01  2.11396562E+00
 -9.10222999E-02 -9.97790089E-01  1.85664359E-01  2.58197779E+00 -3.43081255E+00
 -7.24272684E-01 -6.06473482E-01 -3.82301475E+00 -2.69524367E+00 -2.22239050E-02
 -3.32522226E+00 -7.58582259E-01 -2.69643012E+00 -5.59827848E+00  9.87912021E-01
  2.30215264E-01 -5.30387000E+00  2.94408390E+00 -3.82386726E-01 -7.40225890E+00
  3.53940660E-01 -5.63446241E-01 -5.80019652E+00  1.00957967E+00  2.29112615E+00
Constraint Structure                       R   N=          60
  4.91096901E+00  1.64060699E+00 -4.26788616E-01  3.73268496E+00  3.28730299E+00
  1.42007549E-01  4.96728836E+00  1.51812116E+00 -2.52706818E+00  6.86745635E+00
  1.95381150E+00  2.81703584E-01  3.86328058E+00 -8.04001420E-01  6.98496571E-01
  5.23031003E+00 -2.34881397E+00  2.71082751E-01  3.75193656E+00 -6.09407243E-01
  2.79288057E+00  1.27191829E+00 -1.58211256E+00 -3.51429478E-01  8.34839045E-01
 -3.50057496E+00  4.03264144E-01  1.38543534E+00 -1.72851838E+00 -2.45061962E+00
 -8.86067387E-01  2.14434131E-01  3.82149711E-01 -5.54832136E-01  2.09896046E+00
 -4.97077397E-01 -9.12962383E-01  4.46514075E-01  2.47637420E+00 -3.46478260E+00
 -7.77036818E-01 -4.94411726E-01 -3.83523314E+00 -2.65432342E+00  3.87223431E-01
 -3.45296419E+00 -1.01574928E+00 -2.58763631E+00 -5.61634644E+00  1.00866866E+00
  2.15513460E-01 -5.33572245E+00  2.88900441E+00 -6.88133516E-01 -7.44513274E+00
  2.07954637E-01 -4.49483928E-01 -5.70693241E+00  1.25236420E+00  2.30430320E+00
Num ILSW                                   I              100
ILSW                                       I   N=         100
           0           0           0           0           2           0
           0           0           0           0           0          -1
           0           0           0           0           0           0
           0           0           0           0           1           0
           1           0           0           0           0           0
           0           0      100000           0          -1           0
           0           0           0           0           0           0
           0           0           0          40           0           0
           0           0           1           0           0           0
           0           0           4          40           0           0
           0           0           0           0           0           0
           0           0           0           0           0           0
           0           0           0           0           0           0
           0           0           0           0           0           0
           0           0           0           0           0           0
           0           0           0           0           0           0
           0           0           0           0
Num RLSW                                   I               40
RLSW                                       R   N=          40
  1.00000000E+00  1.00000000E+00  1.00000000E+00  1.00000000E+00  1.00000000E+00
  0.00000000E+00  0.00000000E+00  1.00000000E+00  0.00000000E+00  0.00000000E+00
  0.00000000E+00  0.00000000E+00  1.00000000E+00  0.00000000E+00  0.00000000E+00
  0.00000000E+00  0.00000000E+00  1.00000000E+00  0.00000000E+00  0.00000000E+00
  0.00000000E+00  0.00000000E+00  1.00000000E+00  0.00000000E+00  0.00000000E+00
  0.00000000E+00  0.00000000E+00  1.00000000E+00  0.00000000E+00  0.00000000E+00
  0.00000000E+00  0.00000000E+00  0.00000000E+00  0.00000000E+00  0.00000000E+00
  0.00000000E+00  0.00000000E+00  0.00000000E+00  1.00000000E+00  1.00000000E+00
MxBond                                     I                4
NBond                                      I   N=          20
           4           1           1           1           4           1
           1           4           1           1           4           1
           1           4           1           1           4           1
           1           1
IBond                                      I   N=          80
           2           3           4           5           1           0
           0           0           1           0           0           0
           1           0           0           0           1           6
           7           8           5           0           0           0
           5           0           0           0           5           9
          10          11           8           0           0           0
           8           0           0           0           8          12
          13          14          11           0           0           0
          11           0           0           0          11          15
          16          17          14           0           0           0
          14           0           0           0          14          18
          19          20          17           0           0           0
          17           0           0           0          17           0
           0           0
RBond                                      R   N=          80
  1.00000000E+00  1.00000000E+00  1.00000000E+00  1.00000000E+00  1.00000000E+00
  0.00000000E+00  0.00000000E+00  0.00000000E+00  1.00000000E+00  0.00000000E+00
  0.00000000E+00  0.00000000E+00  1.00000000E+00  0.00000000E+00  0.00000000E+00
  0.00000000E+00  1.00000000E+00  1.00000000E+00  1.00000000E+00  1.00000000E+00
  1.00000000E+00  0.00000000E+00  0.00000000E+00  0.00000000E+00  1.00000000E+00
  0.00000000E+00  0.00000000E+00  0.00000000E+00  1.00000000E+00  1.00000000E+00
  1.00000000E+00  1.00000000E+00  1.00000000E+00  0.00000000E+00  0.00000000E+00
  0.00000000E+00  1.00000000E+00  0.00000000E+00  0.00000000E+00  0.00000000E+00
  1.00000000E+00  1.00000000E+00  1.00000000E+00  1.00000000E+00  1.00000000E+00
  0.00000000E+00  0.00000000E+00  0.00000000E+00  1.00000000E+00  0.00000000E+00
  0.00000000E+00  0.00000000E+00  1.00000000E+00  1.00000000E+00  1.00000000E+00
  1.00000000E+00  1.00000000E+00  0.00000000E+00  0.00000000E+00  0.00000000E+00
  1.00000000E+00  0.00000000E+00  0.00000000E+00  0.00000000E+00  1.00000000E+00
  1.00000000E+00  1.00000000E+00  1.00000000E+00  1.00000000E+00  0.00000000E+00
  0.00000000E+00  0.00000000E+00  1.00000000E+00  0.00000000E+00  0.00000000E+00
  0.00000000E+00  1.00000000E+00  0.00000000E+00  0.00000000E+00  0.00000000E+00
Virial Ratio                               R      9.989954737975266E-01
SCF Energy                                 R     -5.634323129137897E-02
Total Energy                               R     -5.634323129137897E-02
RMS Force                                  R      6.802552106918464E-06
RMS Density                                R      1.628152352066501E-09
External E-field                           R   N=          35
  0.00000000E+00  0.00000000E+00  0.00000000E+00  0.00000000E+00  0.00000000E+00
  0.00000000E+00  0.00000000E+00  0.00000000E+00  0.00000000E+00  0.00000000E+00
  0.00000000E+00  0.00000000E+00  0.00000000E+00  0.00000000E+00  0.00000000E+00
  0.00000000E+00  0.00000000E+00  0.00000000E+00  0.00000000E+00  0.00000000E+00
  0.00000000E+00  0.00000000E+00  0.00000000E+00  0.00000000E+00  0.00000000E+00
  0.00000000E+00  0.00000000E+00  0.00000000E+00  0.00000000E+00  0.00000000E+00
  0.00000000E+00  0.00000000E+00  0.00000000E+00  0.00000000E+00  0.00000000E+00
IOpCl                                      I                0
IROHF                                      I                0
Alpha Orbital Energies                     R   N=          38
 -1.05608188E+00 -1.00007005E+00 -9.09463418E-01 -8.23180812E-01 -7.46819156E-01
 -7.24454376E-01 -5.92270502E-01 -5.65992660E-01 -5.45583142E-01 -5.18839462E-01
 -5.15599006E-01 -4.87437183E-01 -4.69001352E-01 -4.56243966E-01 -4.40646608E-01
 -4.27428814E-01 -4.16959787E-01 -4.08227639E-01 -4.03641692E-01  1.52661363E-01
  1.58570255E-01  1.68634509E-01  1.75363742E-01  1.84843920E-01  2.05319337E-01
  2.11365218E-01  2.16513985E-01  2.20864382E-01  2.22317669E-01  2.27683895E-01
  2.29795371E-01  2.35956700E-01  2.40916440E-01  2.44634813E-01  2.46865518E-01
  2.49600742E-01  2.56130947E-01  2.58982560E-01
Alpha MO coefficients                      R   N=        1444
  2.48095979E-01 -4.58764353E-02 -5.94503795E-02  2.50106181E-02  1.14457152E-01
  1.06145439E-01  9.39406320E-02  3.53169727E-01 -6.50891454E-02  1.84692040E-02
 -4.12799113E-02  1.38126101E-01  1.49661354E-01  4.16383316E-01 -1.01170277E-02
  6.42708462E-02  3.74500252E-02  1.70894390E-01  1.76135228E-01  4.19100816E-01
  1.30183395E-02 -5.27581952E-02 -3.89105229E-02  1.80747328E-01  1.76295104E-01
  3.43147178E-01  5.52354293E-02  3.47319256E-02  3.48609667E-02  1.44055850E-01
  1.44473156E-01  2.19447539E-01  6.42169105E-02 -3.50037544E-02 -1.35546868E-02
  9.46116550E-02  8.36102032E-02  9.44640226E-02 -3.53065596E-01  2.83882000E-02
  6.79653745E-02 -3.14223605E-02 -1.45869966E-01 -1.50758430E-01 -1.48920712E-01
 -3.87741195E-01 -1.24795389E-02 -4.40056906E-02  4.09486382E-02 -1.66961771E-01
 -1.58004774E-01 -1.64323613E-01 -1.39390984E-01 -1.49146547E-02 -2.13146477E-02
 -5.55443927E-02 -6.78055345E-02  1.57584449E-01 -1.57457212E-01  6.62119525E-04
 -2.22423139E-02  5.64291342E-02  6.48477949E-02  4.09806703E-01 -4.91729296E-02
  5.77795055E-02  3.40538858E-02  1.68295208E-01  1.67146220E-01  3.99007838E-01
  6.69692805E-02 -4.83051712E-02 -2.21608447E-02  1.69907515E-01  1.67350879E-01
  1.70242187E-01  4.27117974E-01  3.20581616E-02 -1.79142349E-03  1.30159592E-02
  1.79970046E-01  1.89533734E-01  2.13411968E-01  1.27786668E-01  1.65931772E-01
  1.25687647E-01 -1.56382725E-02  6.66365677E-02  4.96303307E-02 -3.46320466E-01
  1.19924183E-01 -2.89573161E-03 -1.62071735E-02 -1.69267216E-01 -1.40785067E-01
 -3.13079834E-01 -1.01275748E-01  7.17908926E-02  1.80350073E-02 -1.08800837E-01
 -1.25708572E-01  7.27369533E-02 -1.99312261E-01  5.63445078E-02  1.54037889E-04
  2.24829389E-02  2.54288474E-02  3.98990835E-01 -2.46385466E-02 -4.11861436E-03
 -8.58853655E-03  1.78601066E-01  1.96339627E-01  1.77665190E-01  3.48684682E-01
  5.25837924E-02  1.33304983E-01 -4.84113742E-02  2.00426274E-01  1.78709679E-01
  1.93420443E-01 -2.82643373E-01  9.77125341E-02  1.90439395E-01 -3.08286865E-02
 -1.69366245E-01 -1.30813318E-01 -2.60262423E-01 -1.85581890E-01  1.02786447E-01
 -2.12123711E-02 -1.54270437E-01 -1.07257370E-01  2.95835223E-01 -1.08617194E-01
  4.99931559E-02 -1.11655726E-02  1.54929322E-01  1.26422941E-01  1.77166014E-01
  1.77572897E-01 -3.10449644E-02  2.74059896E-03  7.53468848E-02  8.18649650E-02
 -3.21940307E-01  1.11847891E-01 -5.15272300E-02 -1.90342108E-02 -1.60341501E-01
 -1.88615628E-01 -1.62545455E-01 -7.19287776E-02  1.49966627E-02 -9.71532713E-02
  4.25557782E-02 -8.86198081E-02 -4.86445510E-02 -2.98966512E-02  1.87077403E-01
  8.51958916E-02 -8.09016476E-02  3.24154016E-02  1.52044893E-01  8.82277750E-02
 -5.38627457E-02  9.88633436E-02 -1.11886645E-01 -3.09720257E-02  2.62544522E-02
  8.69103823E-04 -2.77176535E-01 -1.71740626E-01 -1.37328800E-01 -1.14692040E-01
 -2.07431924E-01 -1.90893070E-01  4.51827879E-01 -4.00564991E-02 -1.94145743E-01
 -1.41893648E-01  2.94300851E-01  2.89017405E-01 -2.43659602E-01  1.37594367E-01
 -1.90853016E-01 -1.10323824E-01 -1.89255535E-01 -1.23719370E-01 -1.87327927E-01
  1.83859211E-01  3.67325350E-02  1.52758598E-01 -1.62827559E-01  1.23870587E-01
  1.75472720E-01  9.02358453E-02 -3.44684045E-01 -1.18035480E-01  1.88020166E-02
 -2.18949249E-01 -1.97129584E-01 -2.82963078E-01  3.62889472E-01 -7.48740864E-02
 -1.51398024E-01 -2.12342657E-01  2.24991747E-01  2.95233885E-01 -2.30420288E-01
  9.10406841E-02 -1.68916432E-01 -1.53090010E-01 -1.58982682E-01 -2.05886741E-01
  3.68514534E-03 -6.14927768E-02 -8.10438198E-02 -8.82340652E-02  4.29480779E-02
  5.81700795E-02  5.43258221E-02 -6.72274818E-02 -9.97936643E-03 -2.69373958E-02
  1.65999048E-02  6.78235139E-02  1.03532357E-02  5.24418701E-02  1.47161821E-01
  1.31681397E-01  3.60105796E-02  2.47939736E-02  9.62987919E-04  1.43392201E-01
 -6.38285018E-02  5.52173558E-03 -5.08549652E-02  1.61607562E-01 -1.40843862E-02
  7.54252091E-02  2.40319375E-02 -1.29357779E-01 -2.30773167E-01  2.47960875E-01
  2.24956396E-01 -1.60070544E-01 -2.90071861E-03 -4.73745682E-02 -2.87146367E-01
  3.17688012E-01 -2.48167499E-01  2.12036648E-01 -1.66147553E-02 -4.41290558E-02
 -2.51263005E-01  3.19911501E-01  2.20477636E-01 -2.23851553E-01  7.76126537E-03
 -7.09544290E-02 -1.50393699E-01  2.33097290E-01 -1.45787929E-01  1.60425565E-02
  1.63241587E-01 -5.99027930E-04  2.65453254E-01 -2.06057529E-01 -2.04700808E-01
 -2.35899683E-01  1.78630862E-01  6.84753834E-02 -4.95065433E-03  3.07120877E-01
 -2.70336929E-01 -2.26881323E-01  2.94768346E-01 -2.00266250E-01 -3.89894646E-02
  4.24529410E-02 -2.15822286E-01 -1.87470803E-01  7.78115773E-02  1.12478489E-01
  5.56667797E-02 -2.80236476E-01  4.54777567E-02  7.36397791E-03  8.14560666E-03
  3.96974906E-02 -4.86909418E-03  1.57001188E-01  1.63864901E-01  1.84702985E-01
 -9.09589174E-02 -1.22366099E-01 -4.24341292E-03  1.81199326E-01  1.14342098E-01
  1.49762745E-01  5.80341525E-02 -1.72022488E-01  8.76116685E-02  1.05625671E-02
  3.08619249E-01  1.67401115E-01  2.48139078E-01 -1.82733396E-02 -1.49425665E-01
  2.92432605E-01 -5.38608692E-02  1.61978738E-01 -5.17054662E-02  3.25978804E-01
  5.15093682E-02  1.80979695E-01  1.88191254E-02 -2.65339236E-01 -2.12037474E-01
  6.56147035E-02  1.95234423E-01 -4.51868373E-02  1.90150067E-02 -1.64781074E-02
 -1.07143147E-01 -1.39654452E-01 -3.49787344E-02 -8.58403822E-02 -3.93256355E-02
  1.76892077E-01  1.38655875E-01 -2.20937678E-01 -1.73017002E-01  1.39089042E-01
  1.30491581E-02 -2.29170785E-02  2.83538034E-01 -1.89373364E-01  2.25952176E-01
  1.06288345E-02 -1.21328116E-01  1.11657343E-02 -1.99998782E-01  2.96110371E-01
 -9.37548127E-02  2.44432194E-01  2.40044174E-02 -9.28199526E-02 -1.57629933E-02
 -2.80942020E-01 -1.07091260E-01  6.02380393E-02 -8.83379519E-02  4.28558757E-02
  3.54423094E-02  2.46264875E-01 -2.20282732E-01  1.74322062E-01  1.65141932E-01
 -9.44687012E-02 -1.09993065E-01 -1.68097158E-01  1.03047854E-01  1.37075961E-01
 -2.08156559E-02  4.97898874E-02  8.00076215E-02 -1.10386896E-01  2.84174171E-01
  6.07708455E-02 -1.22197568E-01 -1.32786457E-02  1.17434049E-03  4.51525880E-01
  1.02009369E-01 -6.94834811E-02  1.28985691E-01 -2.84596376E-01 -7.73140241E-02
 -2.95835039E-04 -1.69476126E-01  6.63525641E-03  3.32295410E-01  1.01551552E-01
 -2.44827897E-01 -1.23674382E-02  3.68287462E-02  2.55179140E-02  2.61878690E-01
  8.39929549E-02 -1.19289517E-01  9.83878475E-02  2.06974246E-02 -6.42817827E-02
  6.33813995E-02 -2.50994512E-01 -7.49564241E-02  1.78256813E-01 -6.12056760E-02
 -1.40455806E-01 -9.69159181E-02 -2.51053759E-01 -5.77187890E-02 -1.98240146E-01
  3.01467836E-02  1.70818807E-01  1.76540801E-02  2.00308441E-01  1.87821677E-02
 -1.19735785E-01  1.09360314E-02  1.86590653E-01  1.04399916E-01  4.12167111E-01
  6.64939054E-03 -2.47729512E-01  2.81097226E-01  2.94431859E-02 -2.08311132E-01
 -2.04390561E-01 -2.64597758E-01 -4.24087660E-02  2.01703446E-01 -2.38210664E-01
  5.51947815E-02 -4.24215935E-02  1.16080035E-01 -6.84374100E-02 -5.33336706E-02
 -8.28461257E-03 -4.33479404E-02 -9.84757418E-02  1.06222328E-01  2.21812998E-01
 -3.73327708E-02 -1.84760699E-01  6.57756786E-03 -3.75571615E-02 -3.64427130E-01
  2.39045253E-03 -2.48313492E-01  3.98775876E-04  9.64347937E-03  2.80266295E-01
 -1.45460804E-01 -8.03772201E-02  5.05507535E-02  7.32058765E-02 -1.23877587E-02
 -4.25955782E-02  4.52056505E-01  1.51808265E-02  2.95033742E-01 -8.60065086E-02