 Entering Gaussian System, Link 0=/share/apps/g09/g09
 Input=C6H14_4_00_1_opt_PM6.gjf
 Output=C6H14_4_00_1_opt_PM6.log
 Initial command:
 /share/apps/g09/l1.exe /state/partition1/Gau-19422.inp -scrdir=/state/partition1/
 Entering Link 1 = /share/apps/g09/l1.exe PID=     19427.
  
 Copyright (c) 1988,1990,1992,1993,1995,1998,2003,2009, Gaussian, Inc.
                  All Rights Reserved.
  
 This is part of the Gaussian(R) 09 program.  It is based on
 the Gaussian(R) 03 system (copyright 2003, Gaussian, Inc.),
 the Gaussian(R) 98 system (copyright 1998, Gaussian, Inc.),
 the Gaussian(R) 94 system (copyright 1995, Gaussian, Inc.),
 the Gaussian 92(TM) system (copyright 1992, Gaussian, Inc.),
 the Gaussian 90(TM) system (copyright 1990, Gaussian, Inc.),
 the Gaussian 88(TM) system (copyright 1988, Gaussian, Inc.),
 the Gaussian 86(TM) system (copyright 1986, Carnegie Mellon
 University), and the Gaussian 82(TM) system (copyright 1983,
 Carnegie Mellon University). Gaussian is a federally registered
 trademark of Gaussian, Inc.
  
 This software contains proprietary and confidential information,
 including trade secrets, belonging to Gaussian, Inc.
  
 This software is provided under written license and may be
 used, copied, transmitted, or stored only in accord with that
 written license.
  
 The following legend is applicable only to US Government
 contracts under FAR:
  
                    RESTRICTED RIGHTS LEGEND
  
 Use, reproduction and disclosure by the US Government is
 subject to restrictions as set forth in subparagraphs (a)
 and (c) of the Commercial Computer Software - Restricted
 Rights clause in FAR 52.227-19.
  
 Gaussian, Inc.
 340 Quinnipiac St., Bldg. 40, Wallingford CT 06492
  
  
 ---------------------------------------------------------------
 Warning -- This program may not be used in any manner that
 competes with the business of Gaussian, Inc. or will provide
 assistance to any competitor of Gaussian, Inc.  The licensee
 of this program is prohibited from giving any competitor of
 Gaussian, Inc. access to this program.  By using this program,
 the user acknowledges that Gaussian, Inc. is engaged in the
 business of creating and licensing software in the field of
 computational chemistry and represents and warrants to the
 licensee that it is not a competitor of Gaussian, Inc. and that
 it will not use this program in any manner prohibited above.
 ---------------------------------------------------------------
  

 Cite this work as:
 Gaussian 09, Revision A.01,
 M. J. Frisch, G. W. Trucks, H. B. Schlegel, G. E. Scuseria, 
 M. A. Robb, J. R. Cheeseman, G. Scalmani, V. Barone, B. Mennucci, 
 G. A. Petersson, H. Nakatsuji, M. Caricato, X. Li, H. P. Hratchian, 
 A. F. Izmaylov, J. Bloino, G. Zheng, J. L. Sonnenberg, M. Hada, 
 M. Ehara, K. Toyota, R. Fukuda, J. Hasegawa, M. Ishida, T. Nakajima, 
 Y. Honda, O. Kitao, H. Nakai, T. Vreven, J. A. Montgomery, Jr., 
 J. E. Peralta, F. Ogliaro, M. Bearpark, J. J. Heyd, E. Brothers, 
 K. N. Kudin, V. N. Staroverov, R. Kobayashi, J. Normand, 
 K. Raghavachari, A. Rendell, J. C. Burant, S. S. Iyengar, J. Tomasi, 
 M. Cossi, N. Rega, J. M. Millam, M. Klene, J. E. Knox, J. B. Cross, 
 V. Bakken, C. Adamo, J. Jaramillo, R. Gomperts, R. E. Stratmann, 
 O. Yazyev, A. J. Austin, R. Cammi, C. Pomelli, J. W. Ochterski, 
 R. L. Martin, K. Morokuma, V. G. Zakrzewski, G. A. Voth, 
 P. Salvador, J. J. Dannenberg, S. Dapprich, A. D. Daniels, 
 O. Farkas, J. B. Foresman, J. V. Ortiz, J. Cioslowski, 
 and D. J. Fox, Gaussian, Inc., Wallingford CT, 2009.
 
 ******************************************
 Gaussian 09:  EM64L-G09RevA.01  8-May-2009
                14-Sep-2015 
 ******************************************
 %mem=3GB
 %nprocshared=2
 Will use up to    2 processors via shared memory.
 %chk=C6H14_4_00_1_opt_PM6.chk
 ----------
 #p PM6 opt
 ----------
 1/14=-1,18=20,19=15,26=1,38=1/1,3;
 2/9=110,12=2,17=6,18=5,40=1/2;
 3/5=2,16=1,25=1,41=3900000,71=1/1,2,3;
 4/35=1/1;
 5/5=2,35=1,38=5/2;
 6/7=2,8=2,9=2,10=2,28=1/1;
 7//1,2,3,16;
 1/14=-1,18=20,19=15/3(2);
 2/9=110/2;
 99//99;
 2/9=110/2;
 3/5=2,16=1,25=1,41=3900000,71=1,135=20/1,2,3;
 4/5=5,16=3,35=1/1;
 5/5=2,35=1,38=5/2;
 7//1,2,3,16;
 1/14=-1,18=20,19=15/3(-5);
 2/9=110/2;
 6/7=2,8=2,9=2,10=2,19=2,28=1/1;
 99/9=1/99;
 Leave Link    1 at Mon Sep 14 19:12:19 2015, MaxMem=  402653184 cpu:       0.0
 (Enter /share/apps/g09/l101.exe)
 ----------------------------------
 using PM6 to do opt and freq calc.
 ----------------------------------
 Symbolic Z-matrix:
 Charge =  0 Multiplicity = 1
 C                    -1.5344   -1.2508   -0.0426 
 H                    -1.0768   -2.1681    0.3896 
 H                    -1.6022   -1.3644   -1.1488 
 H                    -2.5664   -1.1828    0.372 
 C                    -0.7114   -0.0001    0.3235 
 H                    -0.5926   -0.0002    1.433 
 C                     0.7113   -0.0001   -0.3234 
 H                     0.5925    0.       -1.4329 
 C                     1.5343    1.2506    0.0427 
 H                     1.6021    1.3643    1.1489 
 H                     2.5663    1.1826   -0.3718 
 H                     1.0768    2.1679   -0.3896 
 C                    -1.5341    1.251    -0.0423 
 H                    -1.0763    2.168     0.39 
 H                    -1.6021    1.3647   -1.1485 
 H                    -2.566     1.1831    0.3725 
 C                     1.534    -1.2512    0.0424 
 H                     1.602    -1.3649    1.1486 
 H                     1.0762   -2.1682   -0.3899 
 H                     2.5659   -1.1833   -0.3724 
 
 NAtoms=     20 NQM=     20 NQMF=      0 NMic=      0 NMicF=      0 NTot=     20.
                    Isotopes and Nuclear Properties:
 (Nuclear quadrupole moments (NQMom) in fm**2, nuclear magnetic moments (NMagM)
  in nuclear magnetons)

  Atom         1           2           3           4           5           6           7           8           9          10
 IAtWgt=          12           1           1           1          12           1          12           1          12           1
 AtmWgt=  12.0000000   1.0078250   1.0078250   1.0078250  12.0000000   1.0078250  12.0000000   1.0078250  12.0000000   1.0078250
 NucSpn=           0           1           1           1           0           1           0           1           0           1
 AtZEff=   0.0000000   0.0000000   0.0000000   0.0000000   0.0000000   0.0000000   0.0000000   0.0000000   0.0000000   0.0000000
 NQMom=    0.0000000   0.0000000   0.0000000   0.0000000   0.0000000   0.0000000   0.0000000   0.0000000   0.0000000   0.0000000
 NMagM=    0.0000000   2.7928460   2.7928460   2.7928460   0.0000000   2.7928460   0.0000000   2.7928460   0.0000000   2.7928460

  Atom        11          12          13          14          15          16          17          18          19          20
 IAtWgt=           1           1          12           1           1           1          12           1           1           1
 AtmWgt=   1.0078250   1.0078250  12.0000000   1.0078250   1.0078250   1.0078250  12.0000000   1.0078250   1.0078250   1.0078250
 NucSpn=           1           1           0           1           1           1           0           1           1           1
 AtZEff=   0.0000000   0.0000000   0.0000000   0.0000000   0.0000000   0.0000000   0.0000000   0.0000000   0.0000000   0.0000000
 NQMom=    0.0000000   0.0000000   0.0000000   0.0000000   0.0000000   0.0000000   0.0000000   0.0000000   0.0000000   0.0000000
 NMagM=    2.7928460   2.7928460   0.0000000   2.7928460   2.7928460   2.7928460   0.0000000   2.7928460   2.7928460   2.7928460
 Leave Link  101 at Mon Sep 14 19:12:19 2015, MaxMem=  402653184 cpu:       0.1
 (Enter /share/apps/g09/l103.exe)

 GradGradGradGradGradGradGradGradGradGradGradGradGradGradGradGradGradGrad
 Berny optimization.
 Initialization pass.
                           ----------------------------
                           !    Initial Parameters    !
                           ! (Angstroms and Degrees)  !
 --------------------------                            --------------------------
 ! Name  Definition              Value          Derivative Info.                !
 --------------------------------------------------------------------------------
 ! R1    R(1,2)                  1.1125         estimate D2E/DX2                !
 ! R2    R(1,3)                  1.1141         estimate D2E/DX2                !
 ! R3    R(1,4)                  1.1142         estimate D2E/DX2                !
 ! R4    R(1,5)                  1.5413         estimate D2E/DX2                !
 ! R5    R(5,6)                  1.1158         estimate D2E/DX2                !
 ! R6    R(5,7)                  1.5629         estimate D2E/DX2                !
 ! R7    R(5,13)                 1.5414         estimate D2E/DX2                !
 ! R8    R(7,8)                  1.1158         estimate D2E/DX2                !
 ! R9    R(7,9)                  1.5413         estimate D2E/DX2                !
 ! R10   R(7,17)                 1.5414         estimate D2E/DX2                !
 ! R11   R(9,10)                 1.1141         estimate D2E/DX2                !
 ! R12   R(9,11)                 1.1142         estimate D2E/DX2                !
 ! R13   R(9,12)                 1.1125         estimate D2E/DX2                !
 ! R14   R(13,14)                1.1124         estimate D2E/DX2                !
 ! R15   R(13,15)                1.1141         estimate D2E/DX2                !
 ! R16   R(13,16)                1.1142         estimate D2E/DX2                !
 ! R17   R(17,18)                1.1141         estimate D2E/DX2                !
 ! R18   R(17,19)                1.1124         estimate D2E/DX2                !
 ! R19   R(17,20)                1.1142         estimate D2E/DX2                !
 ! A1    A(2,1,3)              109.0689         estimate D2E/DX2                !
 ! A2    A(2,1,4)              106.6624         estimate D2E/DX2                !
 ! A3    A(2,1,5)              110.9265         estimate D2E/DX2                !
 ! A4    A(3,1,4)              108.6215         estimate D2E/DX2                !
 ! A5    A(3,1,5)              110.5536         estimate D2E/DX2                !
 ! A6    A(4,1,5)              110.8945         estimate D2E/DX2                !
 ! A7    A(1,5,6)              107.0348         estimate D2E/DX2                !
 ! A8    A(1,5,7)              112.8151         estimate D2E/DX2                !
 ! A9    A(1,5,13)             108.4978         estimate D2E/DX2                !
 ! A10   A(6,5,7)              108.3396         estimate D2E/DX2                !
 ! A11   A(6,5,13)             107.0297         estimate D2E/DX2                !
 ! A12   A(7,5,13)             112.8076         estimate D2E/DX2                !
 ! A13   A(5,7,8)              108.3396         estimate D2E/DX2                !
 ! A14   A(5,7,9)              112.8151         estimate D2E/DX2                !
 ! A15   A(5,7,17)             112.8076         estimate D2E/DX2                !
 ! A16   A(8,7,9)              107.0348         estimate D2E/DX2                !
 ! A17   A(8,7,17)             107.0297         estimate D2E/DX2                !
 ! A18   A(9,7,17)             108.4978         estimate D2E/DX2                !
 ! A19   A(7,9,10)             110.5579         estimate D2E/DX2                !
 ! A20   A(7,9,11)             110.8966         estimate D2E/DX2                !
 ! A21   A(7,9,12)             110.9282         estimate D2E/DX2                !
 ! A22   A(10,9,11)            108.6169         estimate D2E/DX2                !
 ! A23   A(10,9,12)            109.0693         estimate D2E/DX2                !
 ! A24   A(11,9,12)            106.6581         estimate D2E/DX2                !
 ! A25   A(5,13,14)            110.9297         estimate D2E/DX2                !
 ! A26   A(5,13,15)            110.5513         estimate D2E/DX2                !
 ! A27   A(5,13,16)            110.885          estimate D2E/DX2                !
 ! A28   A(14,13,15)           109.0785         estimate D2E/DX2                !
 ! A29   A(14,13,16)           106.6609         estimate D2E/DX2                !
 ! A30   A(15,13,16)           108.6224         estimate D2E/DX2                !
 ! A31   A(7,17,18)            110.5513         estimate D2E/DX2                !
 ! A32   A(7,17,19)            110.9297         estimate D2E/DX2                !
 ! A33   A(7,17,20)            110.885          estimate D2E/DX2                !
 ! A34   A(18,17,19)           109.0785         estimate D2E/DX2                !
 ! A35   A(18,17,20)           108.6224         estimate D2E/DX2                !
 ! A36   A(19,17,20)           106.6609         estimate D2E/DX2                !
 ! D1    D(2,1,5,6)            -53.2139         estimate D2E/DX2                !
 ! D2    D(2,1,5,7)             65.8583         estimate D2E/DX2                !
 ! D3    D(2,1,5,13)          -168.396          estimate D2E/DX2                !
 ! D4    D(3,1,5,6)           -174.3407         estimate D2E/DX2                !
 ! D5    D(3,1,5,7)            -55.2685         estimate D2E/DX2                !
 ! D6    D(3,1,5,13)            70.4771         estimate D2E/DX2                !
 ! D7    D(4,1,5,6)             65.1175         estimate D2E/DX2                !
 ! D8    D(4,1,5,7)           -175.8104         estimate D2E/DX2                !
 ! D9    D(4,1,5,13)           -50.0647         estimate D2E/DX2                !
 ! D10   D(1,5,7,8)             61.6881         estimate D2E/DX2                !
 ! D11   D(1,5,7,9)            180.0            estimate D2E/DX2                !
 ! D12   D(1,5,7,17)           -56.6129         estimate D2E/DX2                !
 ! D13   D(6,5,7,8)            180.0            estimate D2E/DX2                !
 ! D14   D(6,5,7,9)            -61.6881         estimate D2E/DX2                !
 ! D15   D(6,5,7,17)            61.699          estimate D2E/DX2                !
 ! D16   D(13,5,7,8)           -61.699          estimate D2E/DX2                !
 ! D17   D(13,5,7,9)            56.6129         estimate D2E/DX2                !
 ! D18   D(13,5,7,17)          180.0            estimate D2E/DX2                !
 ! D19   D(1,5,13,14)          168.4002         estimate D2E/DX2                !
 ! D20   D(1,5,13,15)          -70.4603         estimate D2E/DX2                !
 ! D21   D(1,5,13,16)           50.0748         estimate D2E/DX2                !
 ! D22   D(6,5,13,14)           53.2146         estimate D2E/DX2                !
 ! D23   D(6,5,13,15)          174.3541         estimate D2E/DX2                !
 ! D24   D(6,5,13,16)          -65.1108         estimate D2E/DX2                !
 ! D25   D(7,5,13,14)          -65.8498         estimate D2E/DX2                !
 ! D26   D(7,5,13,15)           55.2897         estimate D2E/DX2                !
 ! D27   D(7,5,13,16)          175.8248         estimate D2E/DX2                !
 ! D28   D(5,7,9,10)            55.2655         estimate D2E/DX2                !
 ! D29   D(5,7,9,11)           175.8058         estimate D2E/DX2                !
 ! D30   D(5,7,9,12)           -65.8659         estimate D2E/DX2                !
 ! D31   D(8,7,9,10)           174.3377         estimate D2E/DX2                !
 ! D32   D(8,7,9,11)           -65.1221         estimate D2E/DX2                !
 ! D33   D(8,7,9,12)            53.2063         estimate D2E/DX2                !
 ! D34   D(17,7,9,10)          -70.4802         estimate D2E/DX2                !
 ! D35   D(17,7,9,11)           50.0601         estimate D2E/DX2                !
 ! D36   D(17,7,9,12)          168.3885         estimate D2E/DX2                !
 ! D37   D(5,7,17,18)          -55.2897         estimate D2E/DX2                !
 ! D38   D(5,7,17,19)           65.8498         estimate D2E/DX2                !
 ! D39   D(5,7,17,20)         -175.8248         estimate D2E/DX2                !
 ! D40   D(8,7,17,18)         -174.3541         estimate D2E/DX2                !
 ! D41   D(8,7,17,19)          -53.2146         estimate D2E/DX2                !
 ! D42   D(8,7,17,20)           65.1108         estimate D2E/DX2                !
 ! D43   D(9,7,17,18)           70.4603         estimate D2E/DX2                !
 ! D44   D(9,7,17,19)         -168.4002         estimate D2E/DX2                !
 ! D45   D(9,7,17,20)          -50.0748         estimate D2E/DX2                !
 --------------------------------------------------------------------------------
 Trust Radius=3.00D-01 FncErr=1.00D-07 GrdErr=1.00D-07
 Number of steps in this run= 110 maximum allowed number of steps= 120.
 GradGradGradGradGradGradGradGradGradGradGradGradGradGradGradGradGradGrad

 Leave Link  103 at Mon Sep 14 19:12:21 2015, MaxMem=  402653184 cpu:       0.0
 (Enter /share/apps/g09/l202.exe)
                          Input orientation:                          
 ---------------------------------------------------------------------
 Center     Atomic      Atomic             Coordinates (Angstroms)
 Number     Number       Type             X           Y           Z
 ---------------------------------------------------------------------
      1          6           0       -1.534400   -1.250800   -0.042600
      2          1           0       -1.076800   -2.168100    0.389600
      3          1           0       -1.602200   -1.364400   -1.148800
      4          1           0       -2.566400   -1.182800    0.372000
      5          6           0       -0.711400   -0.000100    0.323500
      6          1           0       -0.592600   -0.000200    1.433000
      7          6           0        0.711300   -0.000100   -0.323400
      8          1           0        0.592500    0.000000   -1.432900
      9          6           0        1.534300    1.250600    0.042700
     10          1           0        1.602100    1.364300    1.148900
     11          1           0        2.566300    1.182600   -0.371800
     12          1           0        1.076800    2.167900   -0.389600
     13          6           0       -1.534100    1.251000   -0.042300
     14          1           0       -1.076300    2.168000    0.390000
     15          1           0       -1.602100    1.364700   -1.148500
     16          1           0       -2.566000    1.183100    0.372500
     17          6           0        1.534000   -1.251200    0.042400
     18          1           0        1.602000   -1.364900    1.148600
     19          1           0        1.076200   -2.168200   -0.389900
     20          1           0        2.565900   -1.183300   -0.372400
 ---------------------------------------------------------------------
                    Distance matrix (angstroms):
                    1          2          3          4          5
     1  C    0.000000
     2  H    1.112490   0.000000
     3  H    1.114083   1.813464   0.000000
     4  H    1.114245   1.786067   1.809832   0.000000
     5  C    1.541301   2.199570   2.196021   2.200490   0.000000
     6  H    2.151368   2.454165   3.089664   2.533802   1.115842
     7  C    2.585782   2.899292   2.809783   3.553263   1.562868
     8  H    2.832161   3.287663   2.599809   3.825615   2.187486
     9  C    3.959949   4.315749   4.253884   4.779709   2.585782
    10  H    4.253946   4.497876   4.795077   4.946482   2.809832
    11  H    4.779702   5.007904   4.946446   5.700260   3.553243
    12  H    4.315818   4.903676   4.497840   5.008007   2.899378
    13  C    2.501800   3.476479   2.840651   2.675943   1.541394
    14  H    3.476376   4.336100   3.888744   3.667231   2.199598
    15  H    2.840500   3.888749   2.729100   3.119543   2.196090
    16  H    2.675888   3.667227   3.119779   2.365900   2.200433
    17  C    3.069577   2.788822   3.356713   4.114194   2.585747
    18  H    3.356930   2.897789   3.942708   4.244034   2.809856
    19  H    2.788812   2.289766   2.897559   3.849680   2.899157
    20  H    4.114096   3.849641   4.243660   5.186004   3.553158
                    6          7          8          9         10
     6  H    0.000000
     7  C    2.187486   0.000000
     8  H    3.101265   1.115842   0.000000
     9  C    2.832161   1.541301   2.151368   0.000000
    10  H    2.599862   2.196083   3.089708   1.114093   0.000000
    11  H    3.825568   2.200488   2.533843   1.114207   1.809758
    12  H    3.287769   2.199590   2.454142   1.112488   1.813476
    13  C    2.151380   2.585747   2.832172   3.069577   3.356716
    14  H    2.454161   2.899157   3.287565   2.788812   2.897532
    15  H    3.089690   2.809856   2.599915   3.356930   3.942708
    16  H    2.533607   3.553158   3.825613   4.114096   4.243664
    17  C    2.832172   1.541394   2.151380   2.501800   2.840743
    18  H    2.599915   2.196090   3.089690   2.840500   2.729200
    19  H    3.287565   2.199598   2.454161   3.476376   3.888834
    20  H    3.825613   2.200433   2.533607   2.675888   3.119861
                   11         12         13         14         15
    11  H    0.000000
    12  H    1.785985   0.000000
    13  C    4.114186   2.788928   0.000000
    14  H    3.849661   2.289894   1.112364   0.000000
    15  H    4.244053   2.897855   1.114105   1.813488   0.000000
    16  H    5.185989   3.849756   1.114220   1.785928   1.809841
    17  C    2.675927   3.476478   3.959977   4.315718   4.253974
    18  H    3.119495   3.888775   4.253974   4.497794   4.795169
    19  H    3.667231   4.336100   4.315718   4.903481   4.497794
    20  H    2.365900   3.667186   4.779622   5.007803   4.946399
                   16         17         18         19         20
    16  H    0.000000
    17  C    4.779622   0.000000
    18  H    4.946399   1.114105   0.000000
    19  H    5.007803   1.112364   1.813488   0.000000
    20  H    5.700098   1.114220   1.809841   1.785928   0.000000
 Stoichiometry    C6H14
 Framework group  C1[X(C6H14)]
 Deg. of freedom    54
 Full point group                 C1      NOp   1
 Largest Abelian subgroup         C1      NOp   1
 Largest concise Abelian subgroup C1      NOp   1
                         Standard orientation:                         
 ---------------------------------------------------------------------
 Center     Atomic      Atomic             Coordinates (Angstroms)
 Number     Number       Type             X           Y           Z
 ---------------------------------------------------------------------
      1          6           0        1.533660   -1.250860    0.059574
      2          1           0        1.080809   -2.168062   -0.377805
      3          1           0        1.589131   -1.364600    1.166446
      4          1           0        2.570217   -1.182912   -0.343505
      5          6           0        0.714908   -0.000034   -0.315512
      6          1           0        0.608466    0.000013   -1.426265
      7          6           0       -0.714904    0.000030    0.315512
      8          1           0       -0.608462   -0.000017    1.426265
      9          6           0       -1.533656    1.250856   -0.059574
     10          1           0       -1.589127    1.364696   -1.166446
     11          1           0       -2.570212    1.182908    0.343405
     12          1           0       -1.080906    2.168058    0.377904
     13          6           0        1.533608    1.250941    0.059576
     14          1           0        1.080738    2.168038   -0.377681
     15          1           0        1.589302    1.364500    1.166478
     16          1           0        2.570055    1.182988   -0.343720
     17          6           0       -1.533604   -1.250945   -0.059576
     18          1           0       -1.589298   -1.364504   -1.166478
     19          1           0       -1.080734   -2.168042    0.377681
     20          1           0       -2.570051   -1.182992    0.343720
 ---------------------------------------------------------------------
 Rotational constants (GHZ):      4.1975277      2.7979387      1.8401790
 Leave Link  202 at Mon Sep 14 19:12:21 2015, MaxMem=  402653184 cpu:       0.0
 (Enter /share/apps/g09/l301.exe)
 Standard basis: VSTO-6G (5D, 7F)
 Ernie: Thresh=  0.10000D-02 Tol=  0.10000D-05 Strict=F.
  NNHCO=     0 NNPyr=     0 NCTC=     0               EPep=         0.000000000
    EC=       131.486578162  ECS=         3.119438270   EG=         0.301481067
   EHC=         0.000405196  EAt=       -31.187935768  AtH=         2.796400831
 EPDDG=         0.000000000  ECC=       134.907902694 EAtT=        33.984336599
 There are    38 symmetry adapted basis functions of A   symmetry.
 Integral buffers will be    131072 words long.
 Regular integral format.
 Two-electron integral symmetry is turned off.
    38 basis functions,   228 primitive gaussians,    38 cartesian basis functions
    19 alpha electrons       19 beta electrons
       nuclear repulsion energy       168.8922392929 Hartrees.
 IExCor=    0 DFT=F Ex=HF Corr=None ExCW=0 ScaHFX=  1.000000
 ScaDFX=  1.000000  1.000000  1.000000  1.000000 ScalE2=  1.000000  1.000000
 IRadAn=      0 IRanWt=     -1 IRanGd=            0 ICorTp=0
 Leave Link  301 at Mon Sep 14 19:12:22 2015, MaxMem=  402653184 cpu:       0.1
 (Enter /share/apps/g09/l302.exe)
 Do NDO integrals.
 NPDir=0 NMtPBC=     1 NCelOv=     1 NCel=       1 NClECP=     1 NCelD=      1
         NCelK=      1 NCelE2=     1 NClLst=     1 CellRange=     0.0.
 One-electron integrals computed using PRISM.
 NBasis=    38 RedAO= F  NBF=    38
 NBsUse=    38 1.00D-04 NBFU=    38
 Leave Link  302 at Mon Sep 14 19:12:24 2015, MaxMem=  402653184 cpu:       0.1
 (Enter /share/apps/g09/l303.exe)
 DipDrv:  MaxL=1.
 Leave Link  303 at Mon Sep 14 19:12:24 2015, MaxMem=  402653184 cpu:       0.0
 (Enter /share/apps/g09/l401.exe)
 Simple Huckel Guess.
 Initial guess orbital symmetries:
       Occupied  (A) (A) (A) (A) (A) (A) (A) (A) (A) (A) (A) (A)
                 (A) (A) (A) (A) (A) (A) (A)
       Virtual   (A) (A) (A) (A) (A) (A) (A) (A) (A) (A) (A) (A)
                 (A) (A) (A) (A) (A) (A) (A)
 The electronic state of the initial guess is 1-A.
 Leave Link  401 at Mon Sep 14 19:12:25 2015, MaxMem=  402653184 cpu:       0.1
 (Enter /share/apps/g09/l502.exe)
 Closed shell SCF:
 Requested convergence on RMS density matrix=1.00D-08 within 128 cycles.
 Requested convergence on MAX density matrix=1.00D-06.
 Requested convergence on             energy=1.00D-06.
 No special actions if energy rises.
 Using DIIS extrapolation, IDIIS=  1040.
 Overlap will be assumed to be unity.
 Two-electron integral symmetry not used.
 Keep J ints in memory in canonical form, NReq=884654.
 IEnd=       81865 IEndB=       81865 NGot=   402653184 MDV=   402586639
 LenX=   402586639 LenY=   402584754
 Symmetry not used in FoFDir.
 MinBra= 0 MaxBra= 1 Meth=40.
 IRaf=       0 NMat=   1 IRICut=       1 DoRegI=T DoRafI=F ISym2E= 0 JSym2E=0.

 Cycle   1  Pass 1  IDiag  1:
 E= 0.729251469289238E-01
 DIIS: error= 2.20D-02 at cycle   1 NSaved=   1.
 NSaved= 1 IEnMin= 1 EnMin= 0.729251469289238E-01 IErMin= 1 ErrMin= 2.20D-02
 ErrMax= 2.20D-02 EMaxC= 1.00D-01 BMatC= 4.34D-02 BMatP= 4.34D-02
 IDIUse=3 WtCom= 7.80D-01 WtEn= 2.20D-01
 Coeff-Com:  0.100D+01
 Coeff-En:   0.100D+01
 Coeff:      0.100D+01
 GapD=    2.000 DampG=2.000 DampE=0.500 DampFc=1.0000 IDamp=-1.
 RMSDP=8.38D-03 MaxDP=6.87D-02              OVMax= 0.00D+00

 Cycle   2  Pass 1  IDiag  1:
 E=-0.422698007662632E-01 Delta-E=       -0.115194947695 Rises=F Damp=F
 DIIS: error= 5.29D-03 at cycle   2 NSaved=   2.
 NSaved= 2 IEnMin= 2 EnMin=-0.422698007662632E-01 IErMin= 2 ErrMin= 5.29D-03
 ErrMax= 5.29D-03 EMaxC= 1.00D-01 BMatC= 3.03D-03 BMatP= 4.34D-02
 IDIUse=3 WtCom= 9.47D-01 WtEn= 5.29D-02
 Coeff-Com: -0.312D+00 0.131D+01
 Coeff-En:   0.000D+00 0.100D+01
 Coeff:     -0.295D+00 0.130D+01
 RMSDP=3.11D-03 MaxDP=2.11D-02 DE=-1.15D-01 OVMax= 0.00D+00

 Cycle   3  Pass 1  IDiag  3:
 E=-0.527602504978972E-01 Delta-E=       -0.010490449732 Rises=F Damp=F
 DIIS: error= 1.55D-03 at cycle   3 NSaved=   3.
 NSaved= 3 IEnMin= 3 EnMin=-0.527602504978972E-01 IErMin= 3 ErrMin= 1.55D-03
 ErrMax= 1.55D-03 EMaxC= 1.00D-01 BMatC= 1.83D-04 BMatP= 3.03D-03
 IDIUse=3 WtCom= 9.85D-01 WtEn= 1.55D-02
 Coeff-Com:  0.230D+00-0.104D+01 0.181D+01
 Coeff-En:   0.000D+00 0.000D+00 0.100D+01
 Coeff:      0.227D+00-0.103D+01 0.180D+01
 Gap=     0.544 Goal=   None    Shift=    0.000
 RMSDP=1.37D-03 MaxDP=1.18D-02 DE=-1.05D-02 OVMax= 0.00D+00

 Cycle   4  Pass 1  IDiag  3:
 E=-0.540243068620612E-01 Delta-E=       -0.001264056364 Rises=F Damp=F
 DIIS: error= 4.58D-04 at cycle   4 NSaved=   4.
 NSaved= 4 IEnMin= 4 EnMin=-0.540243068620612E-01 IErMin= 4 ErrMin= 4.58D-04
 ErrMax= 4.58D-04 EMaxC= 1.00D-01 BMatC= 1.84D-05 BMatP= 1.83D-04
 IDIUse=3 WtCom= 9.95D-01 WtEn= 4.58D-03
 Coeff-Com: -0.119D+00 0.555D+00-0.126D+01 0.183D+01
 Coeff-En:   0.000D+00 0.000D+00 0.000D+00 0.100D+01
 Coeff:     -0.118D+00 0.553D+00-0.126D+01 0.182D+01
 Gap=     0.545 Goal=   None    Shift=    0.000
 RMSDP=5.92D-04 MaxDP=4.43D-03 DE=-1.26D-03 OVMax= 0.00D+00

 Cycle   5  Pass 1  IDiag  3:
 E=-0.541670792872253E-01 Delta-E=       -0.000142772425 Rises=F Damp=F
 DIIS: error= 1.25D-04 at cycle   5 NSaved=   5.
 NSaved= 5 IEnMin= 5 EnMin=-0.541670792872253E-01 IErMin= 5 ErrMin= 1.25D-04
 ErrMax= 1.25D-04 EMaxC= 1.00D-01 BMatC= 3.96D-07 BMatP= 1.84D-05
 IDIUse=3 WtCom= 9.99D-01 WtEn= 1.25D-03
 Coeff-Com:  0.529D-01-0.250D+00 0.597D+00-0.960D+00 0.156D+01
 Coeff-En:   0.000D+00 0.000D+00 0.000D+00 0.000D+00 0.100D+01
 Coeff:      0.528D-01-0.249D+00 0.596D+00-0.958D+00 0.156D+01
 Gap=     0.544 Goal=   None    Shift=    0.000
 RMSDP=6.42D-05 MaxDP=6.26D-04 DE=-1.43D-04 OVMax= 0.00D+00

 Cycle   6  Pass 1  IDiag  3:
 E=-0.541694255095990E-01 Delta-E=       -0.000002346222 Rises=F Damp=F
 DIIS: error= 2.63D-05 at cycle   6 NSaved=   6.
 NSaved= 6 IEnMin= 6 EnMin=-0.541694255095990E-01 IErMin= 6 ErrMin= 2.63D-05
 ErrMax= 2.63D-05 EMaxC= 1.00D-01 BMatC= 1.42D-08 BMatP= 3.96D-07
 IDIUse=1 WtCom= 1.00D+00 WtEn= 0.00D+00
 Coeff-Com: -0.553D-02 0.265D-01-0.669D-01 0.116D+00-0.311D+00 0.124D+01
 Coeff:     -0.553D-02 0.265D-01-0.669D-01 0.116D+00-0.311D+00 0.124D+01
 Gap=     0.544 Goal=   None    Shift=    0.000
 RMSDP=9.96D-06 MaxDP=1.13D-04 DE=-2.35D-06 OVMax= 0.00D+00

 Cycle   7  Pass 1  IDiag  3:
 E=-0.541694993314081E-01 Delta-E=       -0.000000073822 Rises=F Damp=F
 DIIS: error= 5.31D-06 at cycle   7 NSaved=   7.
 NSaved= 7 IEnMin= 7 EnMin=-0.541694993314081E-01 IErMin= 7 ErrMin= 5.31D-06
 ErrMax= 5.31D-06 EMaxC= 1.00D-01 BMatC= 9.96D-10 BMatP= 1.42D-08
 IDIUse=1 WtCom= 1.00D+00 WtEn= 0.00D+00
 Coeff-Com:  0.733D-03-0.373D-02 0.108D-01-0.215D-01 0.787D-01-0.557D+00
 Coeff-Com:  0.149D+01
 Coeff:      0.733D-03-0.373D-02 0.108D-01-0.215D-01 0.787D-01-0.557D+00
 Coeff:      0.149D+01
 Gap=     0.544 Goal=   None    Shift=    0.000
 RMSDP=2.90D-06 MaxDP=2.74D-05 DE=-7.38D-08 OVMax= 0.00D+00

 Cycle   8  Pass 1  IDiag  3:
 E=-0.541695042696517E-01 Delta-E=       -0.000000004938 Rises=F Damp=F
 DIIS: error= 3.56D-07 at cycle   8 NSaved=   8.
 NSaved= 8 IEnMin= 8 EnMin=-0.541695042696517E-01 IErMin= 8 ErrMin= 3.56D-07
 ErrMax= 3.56D-07 EMaxC= 1.00D-01 BMatC= 1.53D-11 BMatP= 9.96D-10
 IDIUse=1 WtCom= 1.00D+00 WtEn= 0.00D+00
 Coeff-Com:  0.672D-04-0.223D-03-0.154D-03 0.178D-02-0.165D-01 0.168D+00
 Coeff-Com: -0.520D+00 0.137D+01
 Coeff:      0.672D-04-0.223D-03-0.154D-03 0.178D-02-0.165D-01 0.168D+00
 Coeff:     -0.520D+00 0.137D+01
 Gap=     0.544 Goal=   None    Shift=    0.000
 RMSDP=2.93D-07 MaxDP=1.62D-06 DE=-4.94D-09 OVMax= 0.00D+00

 Cycle   9  Pass 1  IDiag  3:
 E=-0.541695043376365E-01 Delta-E=       -0.000000000068 Rises=F Damp=F
 DIIS: error= 7.68D-08 at cycle   9 NSaved=   9.
 NSaved= 9 IEnMin= 9 EnMin=-0.541695043376365E-01 IErMin= 9 ErrMin= 7.68D-08
 ErrMax= 7.68D-08 EMaxC= 1.00D-01 BMatC= 6.10D-13 BMatP= 1.53D-11
 IDIUse=1 WtCom= 1.00D+00 WtEn= 0.00D+00
 Coeff-Com: -0.665D-05-0.282D-05 0.255D-03-0.964D-03 0.663D-02-0.631D-01
 Coeff-Com:  0.196D+00-0.592D+00 0.145D+01
 Coeff:     -0.665D-05-0.282D-05 0.255D-03-0.964D-03 0.663D-02-0.631D-01
 Coeff:      0.196D+00-0.592D+00 0.145D+01
 Gap=     0.544 Goal=   None    Shift=    0.000
 RMSDP=6.59D-08 MaxDP=3.51D-07 DE=-6.80D-11 OVMax= 0.00D+00

 Cycle  10  Pass 1  IDiag  3:
 E=-0.541695043408197E-01 Delta-E=       -0.000000000003 Rises=F Damp=F
 DIIS: error= 1.60D-08 at cycle  10 NSaved=  10.
 NSaved=10 IEnMin=10 EnMin=-0.541695043408197E-01 IErMin=10 ErrMin= 1.60D-08
 ErrMax= 1.60D-08 EMaxC= 1.00D-01 BMatC= 2.31D-14 BMatP= 6.10D-13
 IDIUse=1 WtCom= 1.00D+00 WtEn= 0.00D+00
 Coeff-Com: -0.419D-05 0.346D-04-0.190D-03 0.545D-03-0.310D-02 0.279D-01
 Coeff-Com: -0.855D-01 0.258D+00-0.737D+00 0.154D+01
 Coeff:     -0.419D-05 0.346D-04-0.190D-03 0.545D-03-0.310D-02 0.279D-01
 Coeff:     -0.855D-01 0.258D+00-0.737D+00 0.154D+01
 Gap=     0.544 Goal=   None    Shift=    0.000
 RMSDP=1.46D-08 MaxDP=7.44D-08 DE=-3.18D-12 OVMax= 0.00D+00

 Cycle  11  Pass 1  IDiag  3:
 E=-0.541695043411323E-01 Delta-E=        0.000000000000 Rises=F Damp=F
 DIIS: error= 1.99D-09 at cycle  11 NSaved=  11.
 NSaved=11 IEnMin=11 EnMin=-0.541695043411323E-01 IErMin=11 ErrMin= 1.99D-09
 ErrMax= 1.99D-09 EMaxC= 1.00D-01 BMatC= 5.15D-16 BMatP= 2.31D-14
 IDIUse=1 WtCom= 1.00D+00 WtEn= 0.00D+00
 Coeff-Com:  0.277D-06-0.660D-05 0.542D-04-0.173D-03 0.106D-02-0.983D-02
 Coeff-Com:  0.303D-01-0.919D-01 0.269D+00-0.629D+00 0.143D+01
 Coeff:      0.277D-06-0.660D-05 0.542D-04-0.173D-03 0.106D-02-0.983D-02
 Coeff:      0.303D-01-0.919D-01 0.269D+00-0.629D+00 0.143D+01
 Gap=     0.544 Goal=   None    Shift=    0.000
 RMSDP=1.96D-09 MaxDP=1.14D-08 DE=-3.13D-13 OVMax= 0.00D+00

 Cycle  12  Pass 2  IDiag  1:
 RMSDP=1.96D-09 MaxDP=1.14D-08 DE=-3.13D-13 OVMax= 0.00D+00

 SCF Done:  E(RPM6) = -0.541695043411E-01 A.U. after   12 cycles
             Convg  =    0.1963D-08             -V/T =  0.9990
 KE=-5.624077067853D+01 PE=-2.588863765908D+02 EE= 1.461807384721D+02
 Leave Link  502 at Mon Sep 14 19:12:28 2015, MaxMem=  402653184 cpu:       0.1
 (Enter /share/apps/g09/l601.exe)
 Copying SCF densities to generalized density rwf, IOpCl= 0 IROHF=0.

 **********************************************************************

            Population analysis using the SCF density.

 **********************************************************************

 Orbital symmetries:
       Occupied  (A) (A) (A) (A) (A) (A) (A) (A) (A) (A) (A) (A)
                 (A) (A) (A) (A) (A) (A) (A)
       Virtual   (A) (A) (A) (A) (A) (A) (A) (A) (A) (A) (A) (A)
                 (A) (A) (A) (A) (A) (A) (A)
 The electronic state is 1-A.
 Alpha  occ. eigenvalues --   -1.05509  -0.95995  -0.89114  -0.83789  -0.76291
 Alpha  occ. eigenvalues --   -0.69050  -0.56771  -0.56119  -0.53312  -0.52093
 Alpha  occ. eigenvalues --   -0.48669  -0.48586  -0.47554  -0.46256  -0.44530
 Alpha  occ. eigenvalues --   -0.43034  -0.41066  -0.41062  -0.39485
 Alpha virt. eigenvalues --    0.14947   0.16040   0.16736   0.17767   0.18388
 Alpha virt. eigenvalues --    0.21708   0.21831   0.21861   0.22170   0.22205
 Alpha virt. eigenvalues --    0.22212   0.22285   0.22458   0.23610   0.24336
 Alpha virt. eigenvalues --    0.24965   0.25202   0.25358   0.26032
          Condensed to atoms (all electrons):
              1          2          3          4          5          6
     1  C    4.490610   0.000000   0.000000   0.000000   0.000000   0.000000
     2  H    0.000000   0.852832   0.000000   0.000000   0.000000   0.000000
     3  H    0.000000   0.000000   0.849763   0.000000   0.000000   0.000000
     4  H    0.000000   0.000000   0.000000   0.852651   0.000000   0.000000
     5  C    0.000000   0.000000   0.000000   0.000000   4.019688   0.000000
     6  H    0.000000   0.000000   0.000000   0.000000   0.000000   0.888580
     7  C    0.000000   0.000000   0.000000   0.000000   0.000000   0.000000
     8  H    0.000000   0.000000   0.000000   0.000000   0.000000   0.000000
     9  C    0.000000   0.000000   0.000000   0.000000   0.000000   0.000000
    10  H    0.000000   0.000000   0.000000   0.000000   0.000000   0.000000
    11  H    0.000000   0.000000   0.000000   0.000000   0.000000   0.000000
    12  H    0.000000   0.000000   0.000000   0.000000   0.000000   0.000000
    13  C    0.000000   0.000000   0.000000   0.000000   0.000000   0.000000
    14  H    0.000000   0.000000   0.000000   0.000000   0.000000   0.000000
    15  H    0.000000   0.000000   0.000000   0.000000   0.000000   0.000000
    16  H    0.000000   0.000000   0.000000   0.000000   0.000000   0.000000
    17  C    0.000000   0.000000   0.000000   0.000000   0.000000   0.000000
    18  H    0.000000   0.000000   0.000000   0.000000   0.000000   0.000000
    19  H    0.000000   0.000000   0.000000   0.000000   0.000000   0.000000
    20  H    0.000000   0.000000   0.000000   0.000000   0.000000   0.000000
              7          8          9         10         11         12
     1  C    0.000000   0.000000   0.000000   0.000000   0.000000   0.000000
     2  H    0.000000   0.000000   0.000000   0.000000   0.000000   0.000000
     3  H    0.000000   0.000000   0.000000   0.000000   0.000000   0.000000
     4  H    0.000000   0.000000   0.000000   0.000000   0.000000   0.000000
     5  C    0.000000   0.000000   0.000000   0.000000   0.000000   0.000000
     6  H    0.000000   0.000000   0.000000   0.000000   0.000000   0.000000
     7  C    4.019678   0.000000   0.000000   0.000000   0.000000   0.000000
     8  H    0.000000   0.888581   0.000000   0.000000   0.000000   0.000000
     9  C    0.000000   0.000000   4.490612   0.000000   0.000000   0.000000
    10  H    0.000000   0.000000   0.000000   0.849762   0.000000   0.000000
    11  H    0.000000   0.000000   0.000000   0.000000   0.852657   0.000000
    12  H    0.000000   0.000000   0.000000   0.000000   0.000000   0.852833
    13  C    0.000000   0.000000   0.000000   0.000000   0.000000   0.000000
    14  H    0.000000   0.000000   0.000000   0.000000   0.000000   0.000000
    15  H    0.000000   0.000000   0.000000   0.000000   0.000000   0.000000
    16  H    0.000000   0.000000   0.000000   0.000000   0.000000   0.000000
    17  C    0.000000   0.000000   0.000000   0.000000   0.000000   0.000000
    18  H    0.000000   0.000000   0.000000   0.000000   0.000000   0.000000
    19  H    0.000000   0.000000   0.000000   0.000000   0.000000   0.000000
    20  H    0.000000   0.000000   0.000000   0.000000   0.000000   0.000000
             13         14         15         16         17         18
     1  C    0.000000   0.000000   0.000000   0.000000   0.000000   0.000000
     2  H    0.000000   0.000000   0.000000   0.000000   0.000000   0.000000
     3  H    0.000000   0.000000   0.000000   0.000000   0.000000   0.000000
     4  H    0.000000   0.000000   0.000000   0.000000   0.000000   0.000000
     5  C    0.000000   0.000000   0.000000   0.000000   0.000000   0.000000
     6  H    0.000000   0.000000   0.000000   0.000000   0.000000   0.000000
     7  C    0.000000   0.000000   0.000000   0.000000   0.000000   0.000000
     8  H    0.000000   0.000000   0.000000   0.000000   0.000000   0.000000
     9  C    0.000000   0.000000   0.000000   0.000000   0.000000   0.000000
    10  H    0.000000   0.000000   0.000000   0.000000   0.000000   0.000000
    11  H    0.000000   0.000000   0.000000   0.000000   0.000000   0.000000
    12  H    0.000000   0.000000   0.000000   0.000000   0.000000   0.000000
    13  C    4.490616   0.000000   0.000000   0.000000   0.000000   0.000000
    14  H    0.000000   0.852841   0.000000   0.000000   0.000000   0.000000
    15  H    0.000000   0.000000   0.849758   0.000000   0.000000   0.000000
    16  H    0.000000   0.000000   0.000000   0.852661   0.000000   0.000000
    17  C    0.000000   0.000000   0.000000   0.000000   4.490618   0.000000
    18  H    0.000000   0.000000   0.000000   0.000000   0.000000   0.849757
    19  H    0.000000   0.000000   0.000000   0.000000   0.000000   0.000000
    20  H    0.000000   0.000000   0.000000   0.000000   0.000000   0.000000
             19         20
     1  C    0.000000   0.000000
     2  H    0.000000   0.000000
     3  H    0.000000   0.000000
     4  H    0.000000   0.000000
     5  C    0.000000   0.000000
     6  H    0.000000   0.000000
     7  C    0.000000   0.000000
     8  H    0.000000   0.000000
     9  C    0.000000   0.000000
    10  H    0.000000   0.000000
    11  H    0.000000   0.000000
    12  H    0.000000   0.000000
    13  C    0.000000   0.000000
    14  H    0.000000   0.000000
    15  H    0.000000   0.000000
    16  H    0.000000   0.000000
    17  C    0.000000   0.000000
    18  H    0.000000   0.000000
    19  H    0.852842   0.000000
    20  H    0.000000   0.852660
 Mulliken atomic charges:
              1
     1  C   -0.490610
     2  H    0.147168
     3  H    0.150237
     4  H    0.147349
     5  C   -0.019688
     6  H    0.111420
     7  C   -0.019678
     8  H    0.111419
     9  C   -0.490612
    10  H    0.150238
    11  H    0.147343
    12  H    0.147167
    13  C   -0.490616
    14  H    0.147159
    15  H    0.150242
    16  H    0.147339
    17  C   -0.490618
    18  H    0.150243
    19  H    0.147158
    20  H    0.147340
 Sum of Mulliken atomic charges =   0.00000
 Mulliken charges with hydrogens summed into heavy atoms:
              1
     1  C   -0.045856
     5  C    0.091732
     7  C    0.091741
     9  C   -0.045864
    13  C   -0.045876
    17  C   -0.045877
 Sum of Mulliken charges with hydrogens summed into heavy atoms =   0.00000
 Charge=              0.0000 electrons
 Dipole moment (field-independent basis, Debye):
    X=             -0.0001    Y=              0.0001    Z=              0.0000  Tot=              0.0001
 N-N= 1.688922392929D+02 E-N=-2.588863766449D+02  KE=-5.624077067853D+01
 Leave Link  601 at Mon Sep 14 19:12:28 2015, MaxMem=  402653184 cpu:       0.1
 (Enter /share/apps/g09/l701.exe)
 Compute integral first derivatives.
 ... and contract with generalized density number  0.
 Leave Link  701 at Mon Sep 14 19:12:28 2015, MaxMem=  402653184 cpu:       0.2
 (Enter /share/apps/g09/l702.exe)
 L702 exits ... SP integral derivatives will be done elsewhere.
 Leave Link  702 at Mon Sep 14 19:12:30 2015, MaxMem=  402653184 cpu:       0.0
 (Enter /share/apps/g09/l703.exe)
 Compute integral first derivatives, UseDBF=F ICtDFT=           0.
 Integral derivatives from FoFDir, PRISM(SPDF).
 Calling FoFJK, ICntrl=      2127 FMM=F ISym2X=0 I1Cent= 0 IOpClX= 0 NMat=1 NMatS=1 NMatT=0.
 FoFCou: FMM=F IPFlag=           0 FMFlag=      100000 FMFlg1=         800
         NFxFlg=           0 DoJE=F BraDBF=F KetDBF=F FulRan=T
         Omega=  0.000000  0.000000  1.000000  0.000000  0.000000 ICntrl=    2127 IOpCl=  0
         NMat0=    1 NMatS0=    1 NMatT0=    0 NMatD0=    1 NMtDS0=    0 NMtDT0=    0
         I1Cent=           0 NGrid=           0.
 Symmetry not used in FoFCou.
 Leave Link  703 at Mon Sep 14 19:12:33 2015, MaxMem=  402653184 cpu:       0.0
 (Enter /share/apps/g09/l716.exe)
 Dipole        =-3.11317594D-05 2.66118441D-05-1.99844182D-07
 ***** Axes restored to original set *****
 -------------------------------------------------------------------
 Center     Atomic                   Forces (Hartrees/Bohr)
 Number     Number              X              Y              Z
 -------------------------------------------------------------------
      1        6           0.001675750   -0.003318234   -0.002426623
      2        1          -0.003821499    0.007182546   -0.005502113
      3        1          -0.000510461   -0.000751645    0.010965032
      4        1           0.009246042   -0.000761695   -0.005123712
      5        6          -0.001197132    0.000048380    0.001997097
      6        1           0.002613644   -0.000003363    0.001240336
      7        6           0.001198496   -0.000044922   -0.001993106
      8        1          -0.002613262    0.000003739   -0.001240224
      9        6          -0.001679594    0.003325848    0.002434582
     10        1           0.000502785    0.000746098   -0.010969356
     11        1          -0.009229161    0.000755695    0.005113742
     12        1           0.003814071   -0.007182652    0.005504272
     13        6           0.001665812    0.003232806   -0.002439161
     14        1          -0.003795927   -0.007137418   -0.005489867
     15        1          -0.000503005    0.000754072    0.010979261
     16        1           0.009227077    0.000765411   -0.005125666
     17        6          -0.001665615   -0.003232607    0.002439238
     18        1           0.000503044   -0.000753959   -0.010979218
     19        1           0.003796011    0.007137326    0.005489831
     20        1          -0.009227076   -0.000765427    0.005125654
 -------------------------------------------------------------------
 Cartesian Forces:  Max     0.010979261 RMS     0.004869048
 Leave Link  716 at Mon Sep 14 19:12:36 2015, MaxMem=  402653184 cpu:       0.0
 (Enter /share/apps/g09/l103.exe)

 GradGradGradGradGradGradGradGradGradGradGradGradGradGradGradGradGradGrad
 Berny optimization.
 Internal  Forces:  Max     0.013673904 RMS     0.004256357
 Search for a local minimum.
 Step number   1 out of a maximum of  110
 All quantities printed in internal units (Hartrees-Bohrs-Radians)
 RMS Force = .42564D-02 SwitMx=.10000D-02 MixMth= 1
 Mixed Optimization -- RFO/linear search
 Second derivative matrix not updated -- first step.
     Eigenvalues ---    0.00230   0.00230   0.00230   0.00230   0.00230
     Eigenvalues ---    0.03291   0.03291   0.04464   0.04464   0.05063
     Eigenvalues ---    0.05063   0.05432   0.05433   0.05433   0.05433
     Eigenvalues ---    0.05506   0.05506   0.05507   0.05507   0.16000
     Eigenvalues ---    0.16000   0.16000   0.16000   0.16000   0.16000
     Eigenvalues ---    0.16000   0.16000   0.16000   0.16000   0.16000
     Eigenvalues ---    0.16000   0.16526   0.16526   0.17370   0.17370
     Eigenvalues ---    0.26586   0.28396   0.28396   0.28404   0.28404
     Eigenvalues ---    0.31989   0.31989   0.32155   0.32157   0.32157
     Eigenvalues ---    0.32159   0.32169   0.32169   0.32170   0.32172
     Eigenvalues ---    0.32338   0.32338   0.32351   0.323511000.00000
     Eigenvalues --- 1000.000001000.000001000.000001000.000001000.00000
     Eigenvalues --- 1000.000001000.000001000.000001000.000001000.00000
     Eigenvalues --- 1000.000001000.000001000.000001000.000001000.00000
     Eigenvalues --- 1000.000001000.000001000.000001000.000001000.00000
     Eigenvalues --- 1000.000001000.000001000.000001000.000001000.00000
     Eigenvalues --- 1000.000001000.000001000.000001000.000001000.00000
     Eigenvalues --- 1000.000001000.000001000.000001000.000001000.00000
     Eigenvalues --- 1000.000001000.000001000.000001000.000001000.00000
     Eigenvalues --- 1000.000001000.000001000.000001000.000001000.00000
 RFO step:  Lambda=-7.25807334D-03 EMin= 2.30000000D-03
 Linear search not attempted -- first point.
 Iteration  1 RMS(Cart)=  0.04716004 RMS(Int)=  0.00054616
 Iteration  2 RMS(Cart)=  0.00082660 RMS(Int)=  0.00026612
 Iteration  3 RMS(Cart)=  0.00000041 RMS(Int)=  0.00026612
 Variable       Old X    -DE/DX   Delta X   Delta X   Delta X     New X
                                 (Linear)    (Quad)   (Total)
    R1        2.10230  -0.00963   0.00000  -0.02913  -0.02913   2.07317
    R2        2.10531  -0.01078   0.00000  -0.03277  -0.03277   2.07254
    R3        2.10562  -0.01052   0.00000  -0.03198  -0.03198   2.07363
    R4        2.91264  -0.00493   0.00000  -0.01693  -0.01693   2.89571
    R5        2.10864   0.00151   0.00000   0.00462   0.00462   2.11326
    R6        2.95339  -0.01367   0.00000  -0.05007  -0.05007   2.90332
    R7        2.91281  -0.00496   0.00000  -0.01704  -0.01704   2.89577
    R8        2.10864   0.00151   0.00000   0.00462   0.00462   2.11326
    R9        2.91264  -0.00494   0.00000  -0.01694  -0.01694   2.89569
   R10        2.91281  -0.00496   0.00000  -0.01704  -0.01704   2.89577
   R11        2.10533  -0.01078   0.00000  -0.03278  -0.03278   2.07255
   R12        2.10555  -0.01050   0.00000  -0.03192  -0.03192   2.07363
   R13        2.10230  -0.00963   0.00000  -0.02912  -0.02912   2.07317
   R14        2.10206  -0.00958   0.00000  -0.02896  -0.02896   2.07310
   R15        2.10535  -0.01079   0.00000  -0.03281  -0.03281   2.07254
   R16        2.10557  -0.01050   0.00000  -0.03193  -0.03193   2.07364
   R17        2.10535  -0.01079   0.00000  -0.03281  -0.03281   2.07254
   R18        2.10206  -0.00958   0.00000  -0.02896  -0.02896   2.07310
   R19        2.10557  -0.01050   0.00000  -0.03193  -0.03193   2.07364
    A1        1.90361  -0.00219   0.00000  -0.01589  -0.01590   1.88771
    A2        1.86161  -0.00009   0.00000   0.00443   0.00438   1.86599
    A3        1.93603   0.00095   0.00000   0.00676   0.00673   1.94276
    A4        1.89580  -0.00183   0.00000  -0.01300  -0.01301   1.88280
    A5        1.92952   0.00250   0.00000   0.01239   0.01238   1.94190
    A6        1.93547   0.00045   0.00000   0.00419   0.00416   1.93963
    A7        1.86811   0.00054   0.00000   0.02473   0.02414   1.89225
    A8        1.96900  -0.00334   0.00000  -0.03144  -0.03135   1.93765
    A9        1.89364   0.00483   0.00000   0.02136   0.02016   1.91380
   A10        1.89088   0.00110   0.00000  -0.00233  -0.00182   1.88906
   A11        1.86802   0.00054   0.00000   0.02476   0.02418   1.89220
   A12        1.96886  -0.00333   0.00000  -0.03137  -0.03128   1.93758
   A13        1.89088   0.00110   0.00000  -0.00232  -0.00182   1.88906
   A14        1.96900  -0.00334   0.00000  -0.03144  -0.03135   1.93764
   A15        1.96886  -0.00333   0.00000  -0.03136  -0.03128   1.93759
   A16        1.86811   0.00054   0.00000   0.02472   0.02414   1.89225
   A17        1.86802   0.00054   0.00000   0.02476   0.02418   1.89220
   A18        1.89364   0.00483   0.00000   0.02136   0.02016   1.91380
   A19        1.92960   0.00249   0.00000   0.01232   0.01231   1.94191
   A20        1.93551   0.00045   0.00000   0.00418   0.00415   1.93966
   A21        1.93606   0.00095   0.00000   0.00674   0.00670   1.94276
   A22        1.89572  -0.00182   0.00000  -0.01294  -0.01295   1.88277
   A23        1.90362  -0.00219   0.00000  -0.01589  -0.01591   1.88771
   A24        1.86154  -0.00009   0.00000   0.00449   0.00444   1.86597
   A25        1.93609   0.00094   0.00000   0.00672   0.00668   1.94277
   A26        1.92948   0.00250   0.00000   0.01236   0.01235   1.94183
   A27        1.93531   0.00047   0.00000   0.00431   0.00428   1.93958
   A28        1.90378  -0.00220   0.00000  -0.01597  -0.01598   1.88780
   A29        1.86158  -0.00009   0.00000   0.00447   0.00442   1.86600
   A30        1.89582  -0.00183   0.00000  -0.01300  -0.01301   1.88280
   A31        1.92948   0.00250   0.00000   0.01236   0.01235   1.94183
   A32        1.93609   0.00094   0.00000   0.00672   0.00668   1.94277
   A33        1.93531   0.00047   0.00000   0.00431   0.00427   1.93958
   A34        1.90378  -0.00220   0.00000  -0.01597  -0.01598   1.88780
   A35        1.89582  -0.00183   0.00000  -0.01300  -0.01301   1.88280
   A36        1.86158  -0.00009   0.00000   0.00447   0.00442   1.86600
    D1       -0.92876   0.00067   0.00000   0.00199   0.00218  -0.92657
    D2        1.14944   0.00043   0.00000  -0.00313  -0.00311   1.14633
    D3       -2.93907  -0.00262   0.00000  -0.05015  -0.05040  -2.98947
    D4       -3.04282   0.00112   0.00000   0.00919   0.00939  -3.03343
    D5       -0.96462   0.00087   0.00000   0.00406   0.00410  -0.96052
    D6        1.23006  -0.00218   0.00000  -0.04296  -0.04319   1.18686
    D7        1.13651   0.00145   0.00000   0.01454   0.01475   1.15126
    D8       -3.06847   0.00121   0.00000   0.00941   0.00946  -3.05901
    D9       -0.87379  -0.00184   0.00000  -0.03761  -0.03784  -0.91163
   D10        1.07666   0.00062   0.00000  -0.01020  -0.00990   1.06676
   D11        3.14159   0.00000   0.00000  -0.00001  -0.00001   3.14159
   D12       -0.98808   0.00124   0.00000  -0.02050  -0.01989  -1.00797
   D13        3.14159   0.00000   0.00000   0.00000   0.00000  -3.14159
   D14       -1.07666  -0.00062   0.00000   0.01020   0.00989  -1.06677
   D15        1.07685   0.00062   0.00000  -0.01030  -0.00999   1.06686
   D16       -1.07685  -0.00062   0.00000   0.01029   0.00999  -1.06687
   D17        0.98808  -0.00124   0.00000   0.02049   0.01988   1.00796
   D18        3.14159   0.00000   0.00000  -0.00001  -0.00001   3.14159
   D19        2.93914   0.00263   0.00000   0.05022   0.05047   2.98961
   D20       -1.22976   0.00218   0.00000   0.04288   0.04312  -1.18665
   D21        0.87397   0.00184   0.00000   0.03759   0.03781   0.91178
   D22        0.92877  -0.00066   0.00000  -0.00190  -0.00209   0.92668
   D23        3.04305  -0.00112   0.00000  -0.00924  -0.00944   3.03361
   D24       -1.13640  -0.00145   0.00000  -0.01454  -0.01475  -1.15115
   D25       -1.14930  -0.00042   0.00000   0.00316   0.00314  -1.14616
   D26        0.96499  -0.00088   0.00000  -0.00418  -0.00421   0.96078
   D27        3.06872  -0.00121   0.00000  -0.00947  -0.00952   3.05920
   D28        0.96457  -0.00087   0.00000  -0.00408  -0.00411   0.96045
   D29        3.06839  -0.00121   0.00000  -0.00941  -0.00946   3.05893
   D30       -1.14958  -0.00042   0.00000   0.00318   0.00316  -1.14642
   D31        3.04277  -0.00112   0.00000  -0.00921  -0.00941   3.03336
   D32       -1.13659  -0.00145   0.00000  -0.01454  -0.01475  -1.15135
   D33        0.92862  -0.00067   0.00000  -0.00195  -0.00214   0.92649
   D34       -1.23011   0.00218   0.00000   0.04294   0.04318  -1.18693
   D35        0.87371   0.00184   0.00000   0.03761   0.03783   0.91155
   D36        2.93893   0.00263   0.00000   0.05020   0.05045   2.98938
   D37       -0.96499   0.00088   0.00000   0.00418   0.00421  -0.96077
   D38        1.14930   0.00043   0.00000  -0.00316  -0.00314   1.14616
   D39       -3.06872   0.00121   0.00000   0.00948   0.00952  -3.05920
   D40       -3.04305   0.00112   0.00000   0.00923   0.00943  -3.03362
   D41       -0.92877   0.00066   0.00000   0.00189   0.00208  -0.92669
   D42        1.13640   0.00145   0.00000   0.01453   0.01474   1.15114
   D43        1.22976  -0.00218   0.00000  -0.04288  -0.04312   1.18664
   D44       -2.93914  -0.00263   0.00000  -0.05022  -0.05047  -2.98961
   D45       -0.87397  -0.00184   0.00000  -0.03759  -0.03781  -0.91178
         Item               Value     Threshold  Converged?
 Maximum Force            0.013674     0.000450     NO 
 RMS     Force            0.004256     0.000300     NO 
 Maximum Displacement     0.116668     0.001800     NO 
 RMS     Displacement     0.046920     0.001200     NO 
 Predicted change in Energy=-3.838979D-03
 GradGradGradGradGradGradGradGradGradGradGradGradGradGradGradGradGradGrad

 Leave Link  103 at Mon Sep 14 19:12:37 2015, MaxMem=  402653184 cpu:       0.7
 (Enter /share/apps/g09/l202.exe)
                          Input orientation:                          
 ---------------------------------------------------------------------
 Center     Atomic      Atomic             Coordinates (Angstroms)
 Number     Number       Type             X           Y           Z
 ---------------------------------------------------------------------
      1          6           0       -1.487306   -1.252492   -0.046521
      2          1           0       -1.016888   -2.160484    0.350756
      3          1           0       -1.566334   -1.356910   -1.135417
      4          1           0       -2.504662   -1.214693    0.362953
      5          6           0       -0.691214   -0.000084    0.335305
      6          1           0       -0.542525   -0.000210    1.443663
      7          6           0        0.691124   -0.000112   -0.335206
      8          1           0        0.542438    0.000014   -1.443565
      9          6           0        1.487201    1.252294    0.046615
     10          1           0        1.566167    1.356761    1.135513
     11          1           0        2.504587    1.214489   -0.362773
     12          1           0        1.016826    2.160277   -0.350737
     13          6           0       -1.487015    1.252644   -0.046205
     14          1           0       -1.016320    2.160406    0.351167
     15          1           0       -1.566166    1.357183   -1.135080
     16          1           0       -2.504323    1.215011    0.363410
     17          6           0        1.486934   -1.252833    0.046308
     18          1           0        1.566086   -1.357366    1.135183
     19          1           0        1.016247   -2.160601   -0.351061
     20          1           0        2.504242   -1.215193   -0.363307
 ---------------------------------------------------------------------
                    Distance matrix (angstroms):
                    1          2          3          4          5
     1  C    0.000000
     2  H    1.097074   0.000000
     3  H    1.096743   1.776607   0.000000
     4  H    1.097319   1.762992   1.773640   0.000000
     5  C    1.532344   2.184863   2.183995   2.182804   0.000000
     6  H    2.163670   2.467032   3.088766   2.548114   1.118287
     7  C    2.529299   2.838143   2.752699   3.489367   1.536373
     8  H    2.764121   3.212294   2.526483   3.744842   2.164780
     9  C    3.889771   4.243821   4.186791   4.703304   2.529286
    10  H    4.186777   4.433850   4.725854   4.876564   2.752659
    11  H    4.703321   4.929538   4.876625   5.614284   3.489362
    12  H    4.243845   4.826703   4.433852   4.929570   2.838171
    13  C    2.505135   3.468146   2.828859   2.700142   1.532376
    14  H    3.468120   4.320891   3.857974   3.688713   2.184872
    15  H    2.828707   3.857900   2.714092   3.120805   2.183975
    16  H    2.700173   3.688711   3.121071   2.429704   2.182799
    17  C    2.975689   2.680605   3.275630   4.004318   2.529274
    18  H    3.275764   2.816395   3.868809   4.145804   2.752712
    19  H    2.680520   2.150857   2.816178   3.715018   2.838020
    20  H    4.004274   3.715080   4.145579   5.061282   3.489339
                    6          7          8          9         10
     6  H    0.000000
     7  C    2.164778   0.000000
     8  H    3.084352   1.118287   0.000000
     9  C    2.764109   1.532334   2.163659   0.000000
    10  H    2.526442   2.183992   3.088758   1.096744   0.000000
    11  H    3.744809   2.182811   2.548154   1.097316   1.773622
    12  H    3.212344   2.184858   2.466992   1.097075   1.776613
    13  C    2.163657   2.529270   2.764122   2.975664   3.275549
    14  H    2.467041   2.838012   3.212177   2.680492   2.816076
    15  H    3.088733   2.752709   2.526515   3.275738   3.868735
    16  H    2.548011   3.489337   3.744880   4.004250   4.145495
    17  C    2.764122   1.532376   2.163659   2.505127   2.828891
    18  H    2.526514   2.183974   3.088734   2.828698   2.714127
    19  H    3.212179   2.184873   2.467047   3.468112   3.857998
    20  H    3.744879   2.182799   2.548011   2.700167   3.121120
                   11         12         13         14         15
    11  H    0.000000
    12  H    1.762979   0.000000
    13  C    4.004318   2.680626   0.000000
    14  H    3.715004   2.150896   1.097038   0.000000
    15  H    4.145824   2.816381   1.096741   1.776634   0.000000
    16  H    5.061277   3.715108   1.097323   1.762974   1.773647
    17  C    2.700118   3.468136   3.889774   4.243751   4.186799
    18  H    3.120752   3.857909   4.186796   4.433760   4.725873
    19  H    3.688702   4.320878   4.243760   4.826548   4.433774
    20  H    2.429682   3.688680   4.703287   4.929453   4.876574
                   16         17         18         19         20
    16  H    0.000000
    17  C    4.703291   0.000000
    18  H    4.876576   1.096741   0.000000
    19  H    4.929467   1.097038   1.776635   0.000000
    20  H    5.614244   1.097323   1.773647   1.762974   0.000000
 Stoichiometry    C6H14
 Framework group  C1[X(C6H14)]
 Deg. of freedom    54
 Full point group                 C1      NOp   1
 Largest Abelian subgroup         C1      NOp   1
 Largest concise Abelian subgroup C1      NOp   1
                         Standard orientation:                         
 ---------------------------------------------------------------------
 Center     Atomic      Atomic             Coordinates (Angstroms)
 Number     Number       Type             X           Y           Z
 ---------------------------------------------------------------------
      1          6           0        1.486764   -1.252534    0.057433
      2          1           0        1.019222   -2.160434   -0.343434
      3          1           0        1.557709   -1.357097    1.146873
      4          1           0        2.507130   -1.214775   -0.344484
      5          6           0        0.693634   -0.000008   -0.330123
      6          1           0        0.553165    0.000020   -1.439553
      7          6           0       -0.693635    0.000004    0.330124
      8          1           0       -0.553169   -0.000023    1.439554
      9          6           0       -1.486750    1.252529   -0.057429
     10          1           0       -1.557634    1.357141   -1.146869
     11          1           0       -2.507146    1.214763    0.344402
     12          1           0       -1.019253    2.160420    0.343515
     13          6           0        1.486697    1.252601    0.057434
     14          1           0        1.019040    2.160456   -0.343300
     15          1           0        1.557784    1.356995    1.146879
     16          1           0        2.507010    1.214929   -0.344635
     17          6           0       -1.486707   -1.252597   -0.057438
     18          1           0       -1.557795   -1.356986   -1.146883
     19          1           0       -1.019059   -2.160458    0.343293
     20          1           0       -2.507020   -1.214919    0.344630
 ---------------------------------------------------------------------
 Rotational constants (GHZ):      4.1870002      2.9593042      1.9065850
 Leave Link  202 at Mon Sep 14 19:12:38 2015, MaxMem=  402653184 cpu:       0.0
 (Enter /share/apps/g09/l301.exe)
 Standard basis: VSTO-6G (5D, 7F)
 Ernie: Thresh=  0.10000D-02 Tol=  0.10000D-05 Strict=F.
  NNHCO=     0 NNPyr=     0 NCTC=     0               EPep=         0.000000000
    EC=       132.898319116  ECS=         3.248664404   EG=         0.307381865
   EHC=         0.000468804  EAt=       -31.187935768  AtH=         2.796400831
 EPDDG=         0.000000000  ECC=       136.454834190 EAtT=        33.984336599
 There are    38 symmetry adapted basis functions of A   symmetry.
 Integral buffers will be    131072 words long.
 Regular integral format.
 Two-electron integral symmetry is turned off.
    38 basis functions,   228 primitive gaussians,    38 cartesian basis functions
    19 alpha electrons       19 beta electrons
       nuclear repulsion energy       170.4391707889 Hartrees.
 IExCor=    0 DFT=F Ex=HF Corr=None ExCW=0 ScaHFX=  1.000000
 ScaDFX=  1.000000  1.000000  1.000000  1.000000 ScalE2=  1.000000  1.000000
 IRadAn=      0 IRanWt=     -1 IRanGd=            0 ICorTp=0
 Leave Link  301 at Mon Sep 14 19:12:39 2015, MaxMem=  402653184 cpu:       0.1
 (Enter /share/apps/g09/l302.exe)
 Do NDO integrals.
 NPDir=0 NMtPBC=     1 NCelOv=     1 NCel=       1 NClECP=     1 NCelD=      1
         NCelK=      1 NCelE2=     1 NClLst=     1 CellRange=     0.0.
 One-electron integrals computed using PRISM.
 NBasis=    38 RedAO= F  NBF=    38
 NBsUse=    38 1.00D-04 NBFU=    38
 Leave Link  302 at Mon Sep 14 19:12:41 2015, MaxMem=  402653184 cpu:       0.1
 (Enter /share/apps/g09/l303.exe)
 DipDrv:  MaxL=1.
 Leave Link  303 at Mon Sep 14 19:12:42 2015, MaxMem=  402653184 cpu:       0.0
 (Enter /share/apps/g09/l401.exe)
 Initial guess read from the read-write file.
 B after Tr=     0.000000    0.000000    0.000000
         Rot=    1.000000    0.000000    0.000000    0.000000 Ang=   0.00 deg.
 Guess basis will be translated and rotated to current coordinates.
 Initial guess orbital symmetries:
       Occupied  (A) (A) (A) (A) (A) (A) (A) (A) (A) (A) (A) (A)
                 (A) (A) (A) (A) (A) (A) (A)
       Virtual   (A) (A) (A) (A) (A) (A) (A) (A) (A) (A) (A) (A)
                 (A) (A) (A) (A) (A) (A) (A)
 The electronic state of the initial guess is 1-A.
 Leave Link  401 at Mon Sep 14 19:12:42 2015, MaxMem=  402653184 cpu:       0.2
 (Enter /share/apps/g09/l502.exe)
 Closed shell SCF:
 Requested convergence on RMS density matrix=1.00D-08 within 128 cycles.
 Requested convergence on MAX density matrix=1.00D-06.
 Requested convergence on             energy=1.00D-06.
 No special actions if energy rises.
 Using DIIS extrapolation, IDIIS=  1040.
 Overlap will be assumed to be unity.
 Two-electron integral symmetry not used.
 Keep J ints in memory in canonical form, NReq=884654.
 IEnd=       81865 IEndB=       81865 NGot=   402653184 MDV=   402586639
 LenX=   402586639 LenY=   402584754
 Symmetry not used in FoFDir.
 MinBra= 0 MaxBra= 1 Meth=40.
 IRaf=       0 NMat=   1 IRICut=       1 DoRegI=T DoRafI=F ISym2E= 0 JSym2E=0.

 Cycle   1  Pass 1  IDiag  1:
 E=-0.553823852388859E-01
 DIIS: error= 2.01D-03 at cycle   1 NSaved=   1.
 NSaved= 1 IEnMin= 1 EnMin=-0.553823852388859E-01 IErMin= 1 ErrMin= 2.01D-03
 ErrMax= 2.01D-03 EMaxC= 1.00D-01 BMatC= 4.63D-04 BMatP= 4.63D-04
 IDIUse=3 WtCom= 9.80D-01 WtEn= 2.01D-02
 Coeff-Com:  0.100D+01
 Coeff-En:   0.100D+01
 Coeff:      0.100D+01
 GapD=    2.000 DampG=2.000 DampE=1.000 DampFc=2.0000 IDamp=-1.
 RMSDP=1.03D-03 MaxDP=6.35D-03              OVMax= 0.00D+00

 Cycle   2  Pass 1  IDiag  3:
 E=-0.570170816351379E-01 Delta-E=       -0.001634696396 Rises=F Damp=F
 DIIS: error= 9.09D-04 at cycle   2 NSaved=   2.
 NSaved= 2 IEnMin= 2 EnMin=-0.570170816351379E-01 IErMin= 2 ErrMin= 9.09D-04
 ErrMax= 9.09D-04 EMaxC= 1.00D-01 BMatC= 7.52D-05 BMatP= 4.63D-04
 IDIUse=3 WtCom= 9.91D-01 WtEn= 9.09D-03
 Coeff-Com: -0.583D+00 0.158D+01
 Coeff-En:   0.000D+00 0.100D+01
 Coeff:     -0.578D+00 0.158D+01
 Gap=     0.548 Goal=   None    Shift=    0.000
 RMSDP=7.03D-04 MaxDP=4.62D-03 DE=-1.63D-03 OVMax= 0.00D+00

 Cycle   3  Pass 1  IDiag  3:
 E=-0.573832272945367E-01 Delta-E=       -0.000366145659 Rises=F Damp=F
 DIIS: error= 1.35D-04 at cycle   3 NSaved=   3.
 NSaved= 3 IEnMin= 3 EnMin=-0.573832272945367E-01 IErMin= 3 ErrMin= 1.35D-04
 ErrMax= 1.35D-04 EMaxC= 1.00D-01 BMatC= 1.91D-06 BMatP= 7.52D-05
 IDIUse=3 WtCom= 9.99D-01 WtEn= 1.35D-03
 Coeff-Com:  0.219D+00-0.692D+00 0.147D+01
 Coeff-En:   0.000D+00 0.000D+00 0.100D+01
 Coeff:      0.219D+00-0.691D+00 0.147D+01
 Gap=     0.548 Goal=   None    Shift=    0.000
 RMSDP=1.31D-04 MaxDP=8.22D-04 DE=-3.66D-04 OVMax= 0.00D+00

 Cycle   4  Pass 1  IDiag  3:
 E=-0.573933576457648E-01 Delta-E=       -0.000010130351 Rises=F Damp=F
 DIIS: error= 1.50D-05 at cycle   4 NSaved=   4.
 NSaved= 4 IEnMin= 4 EnMin=-0.573933576457648E-01 IErMin= 4 ErrMin= 1.50D-05
 ErrMax= 1.50D-05 EMaxC= 1.00D-01 BMatC= 3.18D-08 BMatP= 1.91D-06
 IDIUse=1 WtCom= 1.00D+00 WtEn= 0.00D+00
 Coeff-Com: -0.803D-01 0.257D+00-0.597D+00 0.142D+01
 Coeff:     -0.803D-01 0.257D+00-0.597D+00 0.142D+01
 Gap=     0.548 Goal=   None    Shift=    0.000
 RMSDP=1.49D-05 MaxDP=1.05D-04 DE=-1.01D-05 OVMax= 0.00D+00

 Cycle   5  Pass 1  IDiag  3:
 E=-0.573935377835824E-01 Delta-E=       -0.000000180138 Rises=F Damp=F
 DIIS: error= 6.70D-06 at cycle   5 NSaved=   5.
 NSaved= 5 IEnMin= 5 EnMin=-0.573935377835824E-01 IErMin= 5 ErrMin= 6.70D-06
 ErrMax= 6.70D-06 EMaxC= 1.00D-01 BMatC= 4.41D-09 BMatP= 3.18D-08
 IDIUse=1 WtCom= 1.00D+00 WtEn= 0.00D+00
 Coeff-Com:  0.644D-01-0.207D+00 0.489D+00-0.139D+01 0.204D+01
 Coeff:      0.644D-01-0.207D+00 0.489D+00-0.139D+01 0.204D+01
 Gap=     0.548 Goal=   None    Shift=    0.000
 RMSDP=8.37D-06 MaxDP=6.73D-05 DE=-1.80D-07 OVMax= 0.00D+00

 Cycle   6  Pass 1  IDiag  3:
 E=-0.573935716826952E-01 Delta-E=       -0.000000033899 Rises=F Damp=F
 DIIS: error= 1.58D-06 at cycle   6 NSaved=   6.
 NSaved= 6 IEnMin= 6 EnMin=-0.573935716826952E-01 IErMin= 6 ErrMin= 1.58D-06
 ErrMax= 1.58D-06 EMaxC= 1.00D-01 BMatC= 2.12D-10 BMatP= 4.41D-09
 IDIUse=1 WtCom= 1.00D+00 WtEn= 0.00D+00
 Coeff-Com: -0.292D-01 0.938D-01-0.222D+00 0.652D+00-0.111D+01 0.162D+01
 Coeff:     -0.292D-01 0.938D-01-0.222D+00 0.652D+00-0.111D+01 0.162D+01
 Gap=     0.548 Goal=   None    Shift=    0.000
 RMSDP=1.77D-06 MaxDP=1.48D-05 DE=-3.39D-08 OVMax= 0.00D+00

 Cycle   7  Pass 1  IDiag  3:
 E=-0.573935731347888E-01 Delta-E=       -0.000000001452 Rises=F Damp=F
 DIIS: error= 2.40D-07 at cycle   7 NSaved=   7.
 NSaved= 7 IEnMin= 7 EnMin=-0.573935731347888E-01 IErMin= 7 ErrMin= 2.40D-07
 ErrMax= 2.40D-07 EMaxC= 1.00D-01 BMatC= 7.54D-12 BMatP= 2.12D-10
 IDIUse=1 WtCom= 1.00D+00 WtEn= 0.00D+00
 Coeff-Com:  0.102D-01-0.329D-01 0.780D-01-0.230D+00 0.406D+00-0.699D+00
 Coeff-Com:  0.147D+01
 Coeff:      0.102D-01-0.329D-01 0.780D-01-0.230D+00 0.406D+00-0.699D+00
 Coeff:      0.147D+01
 Gap=     0.548 Goal=   None    Shift=    0.000
 RMSDP=2.60D-07 MaxDP=1.83D-06 DE=-1.45D-09 OVMax= 0.00D+00

 Cycle   8  Pass 1  IDiag  3:
 E=-0.573935731763129E-01 Delta-E=       -0.000000000042 Rises=F Damp=F
 DIIS: error= 4.69D-08 at cycle   8 NSaved=   8.
 NSaved= 8 IEnMin= 8 EnMin=-0.573935731763129E-01 IErMin= 8 ErrMin= 4.69D-08
 ErrMax= 4.69D-08 EMaxC= 1.00D-01 BMatC= 2.54D-13 BMatP= 7.54D-12
 IDIUse=1 WtCom= 1.00D+00 WtEn= 0.00D+00
 Coeff-Com: -0.247D-02 0.791D-02-0.188D-01 0.559D-01-0.996D-01 0.180D+00
 Coeff-Com: -0.486D+00 0.136D+01
 Coeff:     -0.247D-02 0.791D-02-0.188D-01 0.559D-01-0.996D-01 0.180D+00
 Coeff:     -0.486D+00 0.136D+01
 Gap=     0.548 Goal=   None    Shift=    0.000
 RMSDP=4.42D-08 MaxDP=2.62D-07 DE=-4.15D-11 OVMax= 0.00D+00

 Cycle   9  Pass 1  IDiag  3:
 E=-0.573935731776771E-01 Delta-E=       -0.000000000001 Rises=F Damp=F
 DIIS: error= 1.64D-08 at cycle   9 NSaved=   9.
 NSaved= 9 IEnMin= 9 EnMin=-0.573935731776771E-01 IErMin= 9 ErrMin= 1.64D-08
 ErrMax= 1.64D-08 EMaxC= 1.00D-01 BMatC= 1.46D-14 BMatP= 2.54D-13
 IDIUse=1 WtCom= 1.00D+00 WtEn= 0.00D+00
 Coeff-Com:  0.469D-03-0.150D-02 0.356D-02-0.107D-01 0.194D-01-0.362D-01
 Coeff-Com:  0.112D+00-0.484D+00 0.140D+01
 Coeff:      0.469D-03-0.150D-02 0.356D-02-0.107D-01 0.194D-01-0.362D-01
 Coeff:      0.112D+00-0.484D+00 0.140D+01
 Gap=     0.548 Goal=   None    Shift=    0.000
 RMSDP=1.10D-08 MaxDP=7.80D-08 DE=-1.36D-12 OVMax= 0.00D+00

 Cycle  10  Pass 1  IDiag  3:
 E=-0.573935731776771E-01 Delta-E=        0.000000000000 Rises=F Damp=F
 DIIS: error= 6.67D-09 at cycle  10 NSaved=  10.
 NSaved=10 IEnMin= 9 EnMin=-0.573935731776771E-01 IErMin=10 ErrMin= 6.67D-09
 ErrMax= 6.67D-09 EMaxC= 1.00D-01 BMatC= 1.55D-15 BMatP= 1.46D-14
 IDIUse=1 WtCom= 1.00D+00 WtEn= 0.00D+00
 Coeff-Com: -0.105D-03 0.336D-03-0.798D-03 0.246D-02-0.456D-02 0.889D-02
 Coeff-Com: -0.317D-01 0.176D+00-0.734D+00 0.158D+01
 Coeff:     -0.105D-03 0.336D-03-0.798D-03 0.246D-02-0.456D-02 0.889D-02
 Coeff:     -0.317D-01 0.176D+00-0.734D+00 0.158D+01
 Gap=     0.548 Goal=   None    Shift=    0.000
 RMSDP=4.13D-09 MaxDP=4.27D-08 DE= 0.00D+00 OVMax= 0.00D+00

 Cycle  11  Pass 2  IDiag  1:
 RMSDP=4.13D-09 MaxDP=4.27D-08 DE= 0.00D+00 OVMax= 0.00D+00

 SCF Done:  E(RPM6) = -0.573935731777E-01 A.U. after   11 cycles
             Convg  =    0.4133D-08             -V/T =  0.9990
 KE=-5.638287996016D+01 PE=-2.616336391435D+02 EE= 1.475199547416D+02
 Leave Link  502 at Mon Sep 14 19:12:43 2015, MaxMem=  402653184 cpu:       0.1
 (Enter /share/apps/g09/l701.exe)
 Compute integral first derivatives.
 ... and contract with generalized density number  0.
 Leave Link  701 at Mon Sep 14 19:12:43 2015, MaxMem=  402653184 cpu:       0.1
 (Enter /share/apps/g09/l702.exe)
 L702 exits ... SP integral derivatives will be done elsewhere.
 Leave Link  702 at Mon Sep 14 19:12:47 2015, MaxMem=  402653184 cpu:       0.0
 (Enter /share/apps/g09/l703.exe)
 Compute integral first derivatives, UseDBF=F ICtDFT=           0.
 Integral derivatives from FoFDir, PRISM(SPDF).
 Calling FoFJK, ICntrl=      2127 FMM=F ISym2X=0 I1Cent= 0 IOpClX= 0 NMat=1 NMatS=1 NMatT=0.
 FoFCou: FMM=F IPFlag=           0 FMFlag=      100000 FMFlg1=         800
         NFxFlg=           0 DoJE=F BraDBF=F KetDBF=F FulRan=T
         Omega=  0.000000  0.000000  1.000000  0.000000  0.000000 ICntrl=    2127 IOpCl=  0
         NMat0=    1 NMatS0=    1 NMatT0=    0 NMatD0=    1 NMtDS0=    0 NMtDT0=    0
         I1Cent=           0 NGrid=           0.
 Symmetry not used in FoFCou.
 Leave Link  703 at Mon Sep 14 19:12:47 2015, MaxMem=  402653184 cpu:       0.0
 (Enter /share/apps/g09/l716.exe)
 Dipole        =-9.50754471D-06 1.20895769D-05-4.39937889D-06
 ***** Axes restored to original set *****
 -------------------------------------------------------------------
 Center     Atomic                   Forces (Hartrees/Bohr)
 Number     Number              X              Y              Z
 -------------------------------------------------------------------
      1        6          -0.002512013   -0.002182550    0.000429107
      2        1          -0.000641291    0.000314616   -0.001056078
      3        1          -0.000649712   -0.000690058    0.001133311
      4        1           0.000708650   -0.000187968   -0.001000721
      5        6          -0.006833921    0.000018355    0.005387895
      6        1          -0.000894898   -0.000002856    0.000771801
      7        6           0.006832250   -0.000021927   -0.005389267
      8        1           0.000894474    0.000001878   -0.000772158
      9        6           0.002515408    0.002189255   -0.000426169
     10        1           0.000648608    0.000690157   -0.001133203
     11        1          -0.000707252    0.000186242    0.000998626
     12        1           0.000640488   -0.000314628    0.001056843
     13        6          -0.002518463    0.002151662    0.000428514
     14        1          -0.000635242   -0.000301281   -0.001053696
     15        1          -0.000649403    0.000696349    0.001133890
     16        1           0.000708622    0.000190545   -0.001002375
     17        6           0.002517933   -0.002152205   -0.000428504
     18        1           0.000649363   -0.000696405   -0.001133895
     19        1           0.000635026    0.000301412    0.001053767
     20        1          -0.000708629   -0.000190594    0.001002313
 -------------------------------------------------------------------
 Cartesian Forces:  Max     0.006833921 RMS     0.001916974
 Leave Link  716 at Mon Sep 14 19:12:50 2015, MaxMem=  402653184 cpu:       0.0
 (Enter /share/apps/g09/l103.exe)

 GradGradGradGradGradGradGradGradGradGradGradGradGradGradGradGradGradGrad
 Berny optimization.
 Using GEDIIS/GDIIS optimizer.
 Internal  Forces:  Max     0.014779329 RMS     0.001810592
 Search for a local minimum.
 Step number   2 out of a maximum of  110
 All quantities printed in internal units (Hartrees-Bohrs-Radians)
 RMS Force = .18106D-02 SwitMx=.10000D-02 MixMth= 1
 Mixed Optimization -- RFO/linear search
 Update second derivatives using D2CorX and points    1    2
 DE= -3.22D-03 DEPred=-3.84D-03 R= 8.40D-01
 SS=  1.41D+00  RLast= 2.27D-01 DXNew= 5.0454D-01 6.8026D-01
 Trust test= 8.40D-01 RLast= 2.27D-01 DXMaxT set to 5.05D-01
 Use linear search instead of GDIIS.
     Eigenvalues ---    0.00230   0.00230   0.00230   0.00230   0.00231
     Eigenvalues ---    0.03561   0.03650   0.04620   0.04620   0.04754
     Eigenvalues ---    0.05044   0.05354   0.05354   0.05354   0.05360
     Eigenvalues ---    0.05372   0.05423   0.05423   0.05423   0.14858
     Eigenvalues ---    0.16000   0.16000   0.16000   0.16000   0.16000
     Eigenvalues ---    0.16000   0.16000   0.16000   0.16000   0.16000
     Eigenvalues ---    0.16002   0.16425   0.16425   0.16693   0.17233
     Eigenvalues ---    0.25365   0.28056   0.28396   0.28400   0.28404
     Eigenvalues ---    0.31980   0.31989   0.32155   0.32157   0.32158
     Eigenvalues ---    0.32163   0.32169   0.32170   0.32171   0.32292
     Eigenvalues ---    0.32338   0.32345   0.32351   0.398011000.00000
     Eigenvalues --- 1000.000001000.000001000.000001000.000001000.00000
     Eigenvalues --- 1000.000001000.000001000.000001000.000001000.00000
     Eigenvalues --- 1000.000001000.000001000.000001000.000001000.00000
     Eigenvalues --- 1000.000001000.000001000.000001000.000001000.00000
     Eigenvalues --- 1000.000001000.000001000.000001000.000001000.00000
     Eigenvalues --- 1000.000001000.000001000.000001000.000001000.00000
     Eigenvalues --- 1000.000001000.000001000.000001000.000001000.00000
     Eigenvalues --- 1000.000001000.000001000.000001000.000001000.00000
     Eigenvalues --- 1000.000001000.000001000.000001000.000001000.00000
 RFO step:  Lambda=-1.00480097D-03 EMin= 2.29999999D-03
 Quartic linear search produced a step of -0.10899.
 Iteration  1 RMS(Cart)=  0.01898772 RMS(Int)=  0.00008080
 Iteration  2 RMS(Cart)=  0.00008702 RMS(Int)=  0.00002543
 Iteration  3 RMS(Cart)=  0.00000000 RMS(Int)=  0.00002543
 Variable       Old X    -DE/DX   Delta X   Delta X   Delta X     New X
                                 (Linear)    (Quad)   (Total)
    R1        2.07317  -0.00092   0.00318  -0.00974  -0.00657   2.06660
    R2        2.07254  -0.00101   0.00357  -0.01092  -0.00735   2.06519
    R3        2.07363  -0.00104   0.00349  -0.01079  -0.00731   2.06633
    R4        2.89571   0.00398   0.00184   0.00819   0.01004   2.90575
    R5        2.11326   0.00065  -0.00050   0.00294   0.00243   2.11569
    R6        2.90332   0.01478   0.00546   0.03678   0.04223   2.94556
    R7        2.89577   0.00397   0.00186   0.00814   0.01000   2.90577
    R8        2.11326   0.00065  -0.00050   0.00294   0.00243   2.11569
    R9        2.89569   0.00398   0.00185   0.00820   0.01005   2.90574
   R10        2.89577   0.00397   0.00186   0.00814   0.01000   2.90577
   R11        2.07255  -0.00101   0.00357  -0.01092  -0.00735   2.06519
   R12        2.07363  -0.00103   0.00348  -0.01077  -0.00729   2.06633
   R13        2.07317  -0.00092   0.00317  -0.00974  -0.00657   2.06661
   R14        2.07310  -0.00090   0.00316  -0.00966  -0.00650   2.06660
   R15        2.07254  -0.00101   0.00358  -0.01093  -0.00735   2.06519
   R16        2.07364  -0.00104   0.00348  -0.01078  -0.00730   2.06634
   R17        2.07254  -0.00101   0.00358  -0.01093  -0.00735   2.06519
   R18        2.07310  -0.00090   0.00316  -0.00966  -0.00650   2.06660
   R19        2.07364  -0.00104   0.00348  -0.01078  -0.00730   2.06634
    A1        1.88771  -0.00103   0.00173  -0.00975  -0.00803   1.87967
    A2        1.86599  -0.00030  -0.00048   0.00155   0.00105   1.86705
    A3        1.94276   0.00079  -0.00073   0.00711   0.00636   1.94912
    A4        1.88280  -0.00096   0.00142  -0.01063  -0.00920   1.87359
    A5        1.94190   0.00113  -0.00135   0.00823   0.00687   1.94877
    A6        1.93963   0.00024  -0.00045   0.00238   0.00192   1.94156
    A7        1.89225  -0.00006  -0.00263   0.00024  -0.00234   1.88991
    A8        1.93765   0.00097   0.00342   0.00008   0.00349   1.94114
    A9        1.91380  -0.00155  -0.00220  -0.00289  -0.00497   1.90884
   A10        1.88906  -0.00030   0.00020   0.00222   0.00237   1.89143
   A11        1.89220  -0.00006  -0.00264   0.00029  -0.00230   1.88990
   A12        1.93758   0.00098   0.00341   0.00014   0.00355   1.94113
   A13        1.88906  -0.00030   0.00020   0.00222   0.00236   1.89143
   A14        1.93764   0.00097   0.00342   0.00009   0.00350   1.94114
   A15        1.93759   0.00098   0.00341   0.00013   0.00354   1.94113
   A16        1.89225  -0.00006  -0.00263   0.00025  -0.00234   1.88991
   A17        1.89220  -0.00006  -0.00264   0.00029  -0.00231   1.88990
   A18        1.91380  -0.00155  -0.00220  -0.00288  -0.00496   1.90884
[...]
 ! D12   D(1,5,7,17)           -57.912          -DE/DX =    0.0                 !
 ! D13   D(6,5,7,8)            180.0007         -DE/DX =    0.0                 !
 ! D14   D(6,5,7,9)            -61.0426         -DE/DX =    0.0                 !
 ! D15   D(6,5,7,17)            61.0443         -DE/DX =    0.0                 !
 ! D16   D(13,5,7,8)           -61.0424         -DE/DX =    0.0                 !
 ! D17   D(13,5,7,9)            57.9143         -DE/DX =    0.0                 !
 ! D18   D(13,5,7,17)          180.0012         -DE/DX =    0.0                 !
 ! D19   D(1,5,13,14)          174.2779         -DE/DX =    0.0                 !
 ! D20   D(1,5,13,15)          -65.2601         -DE/DX =    0.0                 !
 ! D21   D(1,5,13,16)           54.5716         -DE/DX =    0.0                 !
 ! D22   D(6,5,13,14)           56.3287         -DE/DX =    0.0                 !
 ! D23   D(6,5,13,15)          176.7907         -DE/DX =    0.0                 !
 ! D24   D(6,5,13,16)          -63.3777         -DE/DX =    0.0                 !
 ! D25   D(7,5,13,14)          -62.5239         -DE/DX =    0.0                 !
 ! D26   D(7,5,13,15)           57.9381         -DE/DX =    0.0                 !
 ! D27   D(7,5,13,16)          177.7697         -DE/DX =    0.0                 !
 ! D28   D(5,7,9,10)            57.9384         -DE/DX =    0.0                 !
 ! D29   D(5,7,9,11)           177.7699         -DE/DX =    0.0                 !
 ! D30   D(5,7,9,12)           -62.5238         -DE/DX =    0.0                 !
 ! D31   D(8,7,9,10)           176.7909         -DE/DX =    0.0                 !
 ! D32   D(8,7,9,11)           -63.3776         -DE/DX =    0.0                 !
 ! D33   D(8,7,9,12)            56.3288         -DE/DX =    0.0                 !
 ! D34   D(17,7,9,10)          -65.2598         -DE/DX =    0.0                 !
 ! D35   D(17,7,9,11)           54.5717         -DE/DX =    0.0                 !
 ! D36   D(17,7,9,12)          174.278          -DE/DX =    0.0                 !
 ! D37   D(5,7,17,18)          -57.9395         -DE/DX =    0.0                 !
 ! D38   D(5,7,17,19)           62.5224         -DE/DX =    0.0                 !
 ! D39   D(5,7,17,20)         -177.7712         -DE/DX =    0.0                 !
 ! D40   D(8,7,17,18)         -176.7918         -DE/DX =    0.0                 !
 ! D41   D(8,7,17,19)          -56.3298         -DE/DX =    0.0                 !
 ! D42   D(8,7,17,20)           63.3765         -DE/DX =    0.0                 !
 ! D43   D(9,7,17,18)           65.2589         -DE/DX =    0.0                 !
 ! D44   D(9,7,17,19)         -174.2791         -DE/DX =    0.0                 !
 ! D45   D(9,7,17,20)          -54.5728         -DE/DX =    0.0                 !
 --------------------------------------------------------------------------------
 GradGradGradGradGradGradGradGradGradGradGradGradGradGradGradGradGradGrad

 Largest change from initial coordinates is atom   11       5.621 Angstoms.
 Leave Link  103 at Mon Sep 14 19:13:50 2015, MaxMem=  402653184 cpu:       0.0
 (Enter /share/apps/g09/l202.exe)
                          Input orientation:                          
 ---------------------------------------------------------------------
 Center     Atomic      Atomic             Coordinates (Angstroms)
 Number     Number       Type             X           Y           Z
 ---------------------------------------------------------------------
      1          6           0       -1.502195   -1.252420   -0.056638
      2          1           0       -1.013762   -2.167655    0.294006
      3          1           0       -1.619790   -1.334900   -1.142211
      4          1           0       -2.506251   -1.231940    0.380251
      5          6           0       -0.703246   -0.000048    0.332445
      6          1           0       -0.565482   -0.000178    1.441206
      7          6           0        0.703156   -0.000127   -0.332345
      8          1           0        0.565393    0.000016   -1.441106
      9          6           0        1.502126    1.252228    0.056754
     10          1           0        1.619708    1.334701    1.142329
     11          1           0        2.506188    1.231728   -0.380121
     12          1           0        1.013719    2.167476   -0.293893
     13          6           0       -1.501947    1.252562   -0.056381
     14          1           0       -1.013346    2.167630    0.294468
     15          1           0       -1.619509    1.335302   -1.141938
     16          1           0       -2.506015    1.232182    0.380487
     17          6           0        1.501836   -1.252754    0.056465
     18          1           0        1.619414   -1.335498    1.142019
     19          1           0        1.013207   -2.167810   -0.294378
     20          1           0        2.505897   -1.232396   -0.380420
 ---------------------------------------------------------------------
                    Distance matrix (angstroms):
                    1          2          3          4          5
     1  C    0.000000
     2  H    1.095068   0.000000
     3  H    1.095034   1.767334   0.000000
     4  H    1.095181   1.763669   1.764739   0.000000
     5  C    1.535624   2.190073   2.190090   2.184187   0.000000
     6  H    2.165427   2.492986   3.093071   2.531689   1.117286
     7  C    2.551044   2.835190   2.798853   3.510763   1.555608
     8  H    2.785725   3.194235   2.578054   3.777572   2.180580
     9  C    3.913063   4.252244   4.228133   4.726820   2.551052
    10  H    4.228120   4.463330   4.779146   4.918532   2.798854
    11  H    4.726813   4.939666   4.918542   5.636699   3.510768
    12  H    4.252270   4.821791   4.463367   4.939705   2.835212
    13  C    2.504982   3.472605   2.808536   2.715148   1.535624
    14  H    3.472606   4.335286   3.833997   3.713921   2.190076
    15  H    2.808548   3.834002   2.670201   3.113535   2.190092
    16  H    2.715139   3.713919   3.113505   2.464123   2.184187
    17  C    3.006159   2.687322   3.344865   4.021198   2.551044
    18  H    3.344865   2.888810   3.963603   4.196681   2.798855
    19  H    2.687323   2.110639   2.888812   3.703723   2.835192
    20  H    4.021198   3.703722   4.196680   5.069542   3.510763
                    6          7          8          9         10
     6  H    0.000000
     7  C    2.180580   0.000000
     8  H    3.096223   1.117286   0.000000
     9  C    2.785719   1.535625   2.165430   0.000000
    10  H    2.578039   2.190091   3.093073   1.095034   0.000000
    11  H    3.777563   2.184187   2.531697   1.095181   1.764739
    12  H    3.194240   2.190076   2.492985   1.095068   1.767335
    13  C    2.165430   2.551052   2.785719   3.006203   3.344904
    14  H    2.492986   2.835215   3.194242   2.687390   2.888878
    15  H    3.093074   2.798854   2.578039   3.344902   3.963636
    16  H    2.531699   3.510769   3.777563   4.021243   4.196726
    17  C    2.785724   1.535622   2.165427   2.504982   2.808544
    18  H    2.578055   2.190090   3.093072   2.808538   2.670199
    19  H    3.194235   2.190073   2.492989   3.472606   3.834000
    20  H    3.777572   2.184186   2.531689   2.715149   3.113532
                   11         12         13         14         15
    11  H    0.000000
    12  H    1.763668   0.000000
    13  C    4.021243   2.687388   0.000000
    14  H    3.703796   2.110725   1.095069   0.000000
    15  H    4.196722   2.888872   1.095034   1.767333   0.000000
    16  H    5.069587   3.703794   1.095181   1.763668   1.764739
    17  C    2.715139   3.472604   3.913062   4.252272   4.228120
    18  H    3.113508   3.833998   4.228134   4.463371   4.779148
    19  H    3.713920   4.335286   4.252245   4.821794   4.463333
    20  H    2.464123   3.713921   4.726820   4.939708   4.918532
                   16         17         18         19         20
    16  H    0.000000
    17  C    4.726814   0.000000
    18  H    4.918544   1.095034   0.000000
    19  H    4.939667   1.095069   1.767333   0.000000
    20  H    5.636700   1.095181   1.764739   1.763669   0.000000
 Stoichiometry    C6H14
 Framework group  C1[X(C6H14)]
 Deg. of freedom    54
 Full point group                 C1      NOp   1
 Largest Abelian subgroup         C1      NOp   1
 Largest concise Abelian subgroup C1      NOp   1
                         Standard orientation:                         
 ---------------------------------------------------------------------
 Center     Atomic      Atomic             Coordinates (Angstroms)
 Number     Number       Type             X           Y           Z
 ---------------------------------------------------------------------
      1          6           0       -1.502015    1.252488    0.056688
      2          1           0       -1.013483    2.167671   -0.293956
      3          1           0       -1.619601    1.334980    1.142261
      4          1           0       -2.506074    1.232116   -0.380201
      5          6           0       -0.703201    0.000030   -0.332395
      6          1           0       -0.565437    0.000145   -1.441156
      7          6           0        0.703201   -0.000042    0.332395
      8          1           0        0.565437   -0.000171    1.441156
      9          6           0        1.502036   -1.252484   -0.056704
     10          1           0        1.619610   -1.334969   -1.142279
     11          1           0        2.506101   -1.232092    0.380171
     12          1           0        1.013530   -2.167679    0.293943
     13          6           0       -1.502037   -1.252494    0.056431
     14          1           0       -1.013534   -2.167615   -0.294418
     15          1           0       -1.619608   -1.335221    1.141988
     16          1           0       -2.506103   -1.232006   -0.380437
     17          6           0        1.502016    1.252498   -0.056415
     18          1           0        1.619603    1.335230   -1.141969
     19          1           0        1.013486    2.167607    0.294428
     20          1           0        2.506075    1.232032    0.380470
 ---------------------------------------------------------------------
 Rotational constants (GHZ):      4.1862196      2.9041363      1.8830143
 Leave Link  202 at Mon Sep 14 19:13:50 2015, MaxMem=  402653184 cpu:       0.0
 (Enter /share/apps/g09/l601.exe)
 Copying SCF densities to generalized density rwf, IOpCl= 0 IROHF=0.

 **********************************************************************

            Population analysis using the SCF density.

 **********************************************************************

 Orbital symmetries:
       Occupied  (A) (A) (A) (A) (A) (A) (A) (A) (A) (A) (A) (A)
                 (A) (A) (A) (A) (A) (A) (A)
       Virtual   (A) (A) (A) (A) (A) (A) (A) (A) (A) (A) (A) (A)
                 (A) (A) (A) (A) (A) (A) (A)
 The electronic state is 1-A.
 Alpha  occ. eigenvalues --   -1.06842  -0.96630  -0.90897  -0.84910  -0.77080
 Alpha  occ. eigenvalues --   -0.69609  -0.56958  -0.56760  -0.53607  -0.52885
 Alpha  occ. eigenvalues --   -0.48757  -0.48593  -0.47701  -0.46482  -0.45325
 Alpha  occ. eigenvalues --   -0.43309  -0.41343  -0.41177  -0.39581
 Alpha virt. eigenvalues --    0.15057   0.15911   0.17121   0.17815   0.18456
 Alpha virt. eigenvalues --    0.21810   0.22025   0.22122   0.22294   0.22451
 Alpha virt. eigenvalues --    0.22452   0.22658   0.22848   0.23664   0.24288
 Alpha virt. eigenvalues --    0.25566   0.25769   0.26074   0.26687
          Condensed to atoms (all electrons):
              1          2          3          4          5          6
     1  C    4.494865   0.000000   0.000000   0.000000   0.000000   0.000000
     2  H    0.000000   0.851821   0.000000   0.000000   0.000000   0.000000
     3  H    0.000000   0.000000   0.850464   0.000000   0.000000   0.000000
     4  H    0.000000   0.000000   0.000000   0.852838   0.000000   0.000000
     5  C    0.000000   0.000000   0.000000   0.000000   4.013629   0.000000
     6  H    0.000000   0.000000   0.000000   0.000000   0.000000   0.886396
     7  C    0.000000   0.000000   0.000000   0.000000   0.000000   0.000000
     8  H    0.000000   0.000000   0.000000   0.000000   0.000000   0.000000
     9  C    0.000000   0.000000   0.000000   0.000000   0.000000   0.000000
    10  H    0.000000   0.000000   0.000000   0.000000   0.000000   0.000000
    11  H    0.000000   0.000000   0.000000   0.000000   0.000000   0.000000
    12  H    0.000000   0.000000   0.000000   0.000000   0.000000   0.000000
    13  C    0.000000   0.000000   0.000000   0.000000   0.000000   0.000000
    14  H    0.000000   0.000000   0.000000   0.000000   0.000000   0.000000
    15  H    0.000000   0.000000   0.000000   0.000000   0.000000   0.000000
    16  H    0.000000   0.000000   0.000000   0.000000   0.000000   0.000000
    17  C    0.000000   0.000000   0.000000   0.000000   0.000000   0.000000
    18  H    0.000000   0.000000   0.000000   0.000000   0.000000   0.000000
    19  H    0.000000   0.000000   0.000000   0.000000   0.000000   0.000000
    20  H    0.000000   0.000000   0.000000   0.000000   0.000000   0.000000
              7          8          9         10         11         12
     1  C    0.000000   0.000000   0.000000   0.000000   0.000000   0.000000
     2  H    0.000000   0.000000   0.000000   0.000000   0.000000   0.000000
     3  H    0.000000   0.000000   0.000000   0.000000   0.000000   0.000000
     4  H    0.000000   0.000000   0.000000   0.000000   0.000000   0.000000
     5  C    0.000000   0.000000   0.000000   0.000000   0.000000   0.000000
     6  H    0.000000   0.000000   0.000000   0.000000   0.000000   0.000000
     7  C    4.013629   0.000000   0.000000   0.000000   0.000000   0.000000
     8  H    0.000000   0.886396   0.000000   0.000000   0.000000   0.000000
     9  C    0.000000   0.000000   4.494865   0.000000   0.000000   0.000000
    10  H    0.000000   0.000000   0.000000   0.850464   0.000000   0.000000
    11  H    0.000000   0.000000   0.000000   0.000000   0.852838   0.000000
    12  H    0.000000   0.000000   0.000000   0.000000   0.000000   0.851821
    13  C    0.000000   0.000000   0.000000   0.000000   0.000000   0.000000
    14  H    0.000000   0.000000   0.000000   0.000000   0.000000   0.000000
    15  H    0.000000   0.000000   0.000000   0.000000   0.000000   0.000000
    16  H    0.000000   0.000000   0.000000   0.000000   0.000000   0.000000
    17  C    0.000000   0.000000   0.000000   0.000000   0.000000   0.000000
    18  H    0.000000   0.000000   0.000000   0.000000   0.000000   0.000000
    19  H    0.000000   0.000000   0.000000   0.000000   0.000000   0.000000
    20  H    0.000000   0.000000   0.000000   0.000000   0.000000   0.000000
             13         14         15         16         17         18
     1  C    0.000000   0.000000   0.000000   0.000000   0.000000   0.000000
     2  H    0.000000   0.000000   0.000000   0.000000   0.000000   0.000000
     3  H    0.000000   0.000000   0.000000   0.000000   0.000000   0.000000
     4  H    0.000000   0.000000   0.000000   0.000000   0.000000   0.000000
     5  C    0.000000   0.000000   0.000000   0.000000   0.000000   0.000000
     6  H    0.000000   0.000000   0.000000   0.000000   0.000000   0.000000
     7  C    0.000000   0.000000   0.000000   0.000000   0.000000   0.000000
     8  H    0.000000   0.000000   0.000000   0.000000   0.000000   0.000000
     9  C    0.000000   0.000000   0.000000   0.000000   0.000000   0.000000
    10  H    0.000000   0.000000   0.000000   0.000000   0.000000   0.000000
    11  H    0.000000   0.000000   0.000000   0.000000   0.000000   0.000000
    12  H    0.000000   0.000000   0.000000   0.000000   0.000000   0.000000
    13  C    4.494865   0.000000   0.000000   0.000000   0.000000   0.000000
    14  H    0.000000   0.851821   0.000000   0.000000   0.000000   0.000000
    15  H    0.000000   0.000000   0.850464   0.000000   0.000000   0.000000
    16  H    0.000000   0.000000   0.000000   0.852838   0.000000   0.000000
    17  C    0.000000   0.000000   0.000000   0.000000   4.494865   0.000000
    18  H    0.000000   0.000000   0.000000   0.000000   0.000000   0.850464
    19  H    0.000000   0.000000   0.000000   0.000000   0.000000   0.000000
    20  H    0.000000   0.000000   0.000000   0.000000   0.000000   0.000000
             19         20
     1  C    0.000000   0.000000
     2  H    0.000000   0.000000
     3  H    0.000000   0.000000
     4  H    0.000000   0.000000
     5  C    0.000000   0.000000
     6  H    0.000000   0.000000
     7  C    0.000000   0.000000
     8  H    0.000000   0.000000
     9  C    0.000000   0.000000
    10  H    0.000000   0.000000
    11  H    0.000000   0.000000
    12  H    0.000000   0.000000
    13  C    0.000000   0.000000
    14  H    0.000000   0.000000
    15  H    0.000000   0.000000
    16  H    0.000000   0.000000
    17  C    0.000000   0.000000
    18  H    0.000000   0.000000
    19  H    0.851821   0.000000
    20  H    0.000000   0.852838
 Mulliken atomic charges:
              1
     1  C   -0.494865
     2  H    0.148179
     3  H    0.149536
     4  H    0.147162
     5  C   -0.013629
     6  H    0.113604
     7  C   -0.013629
     8  H    0.113604
     9  C   -0.494865
    10  H    0.149536
    11  H    0.147162
    12  H    0.148179
    13  C   -0.494865
    14  H    0.148179
    15  H    0.149536
    16  H    0.147162
    17  C   -0.494865
    18  H    0.149536
    19  H    0.148179
    20  H    0.147162
 Sum of Mulliken atomic charges =   0.00000
 Mulliken charges with hydrogens summed into heavy atoms:
              1
     1  C   -0.049988
     5  C    0.099975
     7  C    0.099975
     9  C   -0.049987
    13  C   -0.049987
    17  C   -0.049988
 Sum of Mulliken charges with hydrogens summed into heavy atoms =   0.00000
 Charge=              0.0000 electrons
 Dipole moment (field-independent basis, Debye):
    X=              0.0000    Y=              0.0000    Z=              0.0000  Tot=              0.0000
 N-N= 1.699947936051D+02 E-N=-2.607680814355D+02  KE=-5.636832493584D+01
 Leave Link  601 at Mon Sep 14 19:13:51 2015, MaxMem=  402653184 cpu:       0.0
 (Enter /share/apps/g09/l9999.exe)
 1\1\GINC-COMPUTE-0-11\FOpt\RPM6\ZDO\C6H14\HETANJIN\14-Sep-2015\0\\#p P
 M6 opt\\using PM6 to do opt and freq calc.\\0,1\C,-1.5021946193,-1.252
 4197776,-0.0566381458\H,-1.0137616545,-2.1676553689,0.294005621\H,-1.6
 19790193,-1.3348995135,-1.1422109036\H,-2.5062514036,-1.231940221,0.38
 02509765\C,-0.7032463991,-0.0000476552,0.3324452352\H,-0.5654824225,-0
 .0001777842,1.4412056064\C,0.7031563355,-0.0001271564,-0.3323452901\H,
 0.565392509,0.000015989,-1.4411056391\C,1.5021259134,1.2522279411,0.05
 67543666\H,1.6197084417,1.3347009326,1.1423290434\H,2.5061883041,1.231
 727922,-0.3801209254\H,1.0137187535,2.1674759576,-0.293892924\C,-1.501
 9471143,1.2525621415,-0.05638071\H,-1.0133456764,2.1676303242,0.294468
 0957\H,-1.6195093877,1.3353018209,-1.1419375836\H,-2.5060151162,1.2321
 823529,0.3804871727\C,1.5018359513,-1.252753955,0.0564645447\H,1.61941
 38045,-1.335498489,1.1420192951\H,1.013207046,-2.1678099487,-0.2943776
 166\H,2.5058969274,-1.2323955123,-0.3804202192\\Version=EM64L-G09RevA.
 01\State=1-A\HF=-0.0578607\RMSD=6.772e-09\RMSF=2.645e-05\Dipole=-0.000
 0002,-0.0000041,0.\PG=C01 [X(C6H14)]\\@


      TO SUSPECT YOUR OWN MORTALITY IS TO KNOW THE BEGINNING OF TERROR.
      TO LEARN IRREFUTABLY THAT YOU ARE MORTAL IS TO KNOW THE END
      OF TERROR.

                                                  -- JESSICA
                                                     CHILDREN OF DUNE
                                                     BY FRANK HERBERT
 Job cpu time:  0 days  0 hours  0 minutes 13.7 seconds.
 File lengths (MBytes):  RWF=      5 Int=      0 D2E=      0 Chk=      3 Scr=      1
 Normal termination of Gaussian 09 at Mon Sep 14 19:13:51 2015.
