using PM6 to do opt and freq calc.                                      
FOpt      RPM6                                                        ZDO                 
Number of atoms                            I               20
Info1-9                                    I   N=           9
          33          29           0           0           0         110
           2           8         302
Charge                                     I                0
Multiplicity                               I                1
Number of electrons                        I               38
Number of alpha electrons                  I               19
Number of beta electrons                   I               19
Number of basis functions                  I               38
Number of independent functions            I               38
Number of point charges in /Mol/           I                0
Number of translation vectors              I                0
Atomic numbers                             I   N=          20
           6           1           1           1           6           1
           6           1           6           1           1           1
           6           1           1           1           6           1
           1           1
Nuclear charges                            R   N=          20
  4.00000000E+00  1.00000000E+00  1.00000000E+00  1.00000000E+00  4.00000000E+00
  1.00000000E+00  4.00000000E+00  1.00000000E+00  4.00000000E+00  1.00000000E+00
  1.00000000E+00  1.00000000E+00  4.00000000E+00  1.00000000E+00  1.00000000E+00
  1.00000000E+00  4.00000000E+00  1.00000000E+00  1.00000000E+00  1.00000000E+00
Current cartesian coordinates              R   N=          60
 -2.83839645E+00  2.36685882E+00  1.07125071E-01 -1.91520560E+00  4.09630399E+00
 -5.55495619E-01 -3.06060309E+00  2.52274687E+00  2.15856028E+00 -4.73579295E+00
  2.32836246E+00 -7.18475721E-01 -1.32885808E+00  5.58628162E-05 -6.28135962E-01
 -1.06852186E+00  2.73726399E-04 -2.72338941E+00  1.32885793E+00 -8.02038158E-05
  6.28136066E-01  1.06852200E+00 -3.22664752E-04  2.72338947E+00  2.83843667E+00
 -2.36685099E+00 -1.07155723E-01  3.06061865E+00 -2.52272629E+00 -2.15859456E+00
  4.73584377E+00 -2.32831597E+00  7.18418933E-01  1.91529458E+00 -4.09631965E+00
  5.55471625E-01 -2.83843867E+00 -2.36687100E+00  1.06638587E-01 -1.91530206E+00
 -4.09619871E+00 -5.56369569E-01 -3.06061602E+00 -2.52320240E+00  2.15804378E+00
 -4.73584806E+00 -2.32815438E+00 -7.18922067E-01  2.83839866E+00  2.36687879E+00
 -1.06608039E-01  3.06060544E+00  2.52321936E+00 -2.15800922E+00  1.91521013E+00
  4.09618348E+00  5.56387561E-01  4.73579477E+00  2.32820251E+00  7.18984516E-01
Force Field                                I                0
Int Atom Types                             I   N=          20
           0           0           0           0           0           0
           0           0           0           0           0           0
           0           0           0           0           0           0
           0           0
MM charges                                 R   N=          20
  0.00000000E+00  0.00000000E+00  0.00000000E+00  0.00000000E+00  0.00000000E+00
  0.00000000E+00  0.00000000E+00  0.00000000E+00  0.00000000E+00  0.00000000E+00
  0.00000000E+00  0.00000000E+00  0.00000000E+00  0.00000000E+00  0.00000000E+00
  0.00000000E+00  0.00000000E+00  0.00000000E+00  0.00000000E+00  0.00000000E+00
Integer atomic weights                     I   N=          20
          12           1           1           1          12           1
          12           1          12           1           1           1
          12           1           1           1          12           1
           1           1
Real atomic weights                        R   N=          20
  1.20000000E+01  1.00782504E+00  1.00782504E+00  1.00782504E+00  1.20000000E+01
  1.00782504E+00  1.20000000E+01  1.00782504E+00  1.20000000E+01  1.00782504E+00
  1.00782504E+00  1.00782504E+00  1.20000000E+01  1.00782504E+00  1.00782504E+00
  1.00782504E+00  1.20000000E+01  1.00782504E+00  1.00782504E+00  1.00782504E+00
Atom fragment info                         I   N=          20
           0           0           0           0           0           0
           0           0           0           0           0           0
           0           0           0           0           0           0
           0           0
Atom residue num                           I   N=          20
           0           0           0           0           0           0
           0           0           0           0           0           0
           0           0           0           0           0           0
           0           0
Nuclear spins                              I   N=          20
           0           1           1           1           0           1
           0           1           0           1           1           1
           0           1           1           1           0           1
           1           1
Nuclear ZEff                               R   N=          20
 -3.90000000E+00 -1.00000000E+00 -1.00000000E+00 -1.00000000E+00 -3.90000000E+00
 -1.00000000E+00 -3.90000000E+00 -1.00000000E+00 -3.90000000E+00 -1.00000000E+00
 -1.00000000E+00 -1.00000000E+00 -3.90000000E+00 -1.00000000E+00 -1.00000000E+00
 -1.00000000E+00 -3.90000000E+00 -1.00000000E+00 -1.00000000E+00 -1.00000000E+00
Nuclear QMom                               R   N=          20
  0.00000000E+00  0.00000000E+00  0.00000000E+00  0.00000000E+00  0.00000000E+00
  0.00000000E+00  0.00000000E+00  0.00000000E+00  0.00000000E+00  0.00000000E+00
  0.00000000E+00  0.00000000E+00  0.00000000E+00  0.00000000E+00  0.00000000E+00
  0.00000000E+00  0.00000000E+00  0.00000000E+00  0.00000000E+00  0.00000000E+00
Nuclear GFac                               R   N=          20
  0.00000000E+00  2.79284600E+00  2.79284600E+00  2.79284600E+00  0.00000000E+00
  2.79284600E+00  0.00000000E+00  2.79284600E+00  0.00000000E+00  2.79284600E+00
  2.79284600E+00  2.79284600E+00  0.00000000E+00  2.79284600E+00  2.79284600E+00
  2.79284600E+00  0.00000000E+00  2.79284600E+00  2.79284600E+00  2.79284600E+00
MicOpt                                     I   N=          20
          -1          -1          -1          -1          -1          -1
          -1          -1          -1          -1          -1          -1
          -1          -1          -1          -1          -1          -1
          -1          -1
Number of contracted shells                I               20
Number of primitive shells                 I              120
Pure/Cartesian d shells                    I                0
Pure/Cartesian f shells                    I                0
Highest angular momentum                   I                1
Largest degree of contraction              I                6
Shell types                                I   N=          20
          -1           0           0           0          -1           0
          -1           0          -1           0           0           0
          -1           0           0           0          -1           0
           0           0
Number of primitives per shell             I   N=          20
           6           6           6           6           6           6
           6           6           6           6           6           6
           6           6           6           6           6           6
           6           6
Shell to atom map                          I   N=          20
           1           2           3           4           5           6
           7           8           9          10          11          12
          13          14          15          16          17          18
          19          20
Primitive exponents                        R   N=         120
  1.14476344E+01  3.29633588E+00  1.29653143E+00  5.92558930E-01  2.94896438E-01
  1.51447622E-01  4.39461478E+00  1.26542531E+00  4.97723458E-01  2.27476537E-01
  1.13207340E-01  5.81389949E-02  4.39461478E+00  1.26542531E+00  4.97723458E-01
  2.27476537E-01  1.13207340E-01  5.81389949E-02  4.39461478E+00  1.26542531E+00
  4.97723458E-01  2.27476537E-01  1.13207340E-01  5.81389949E-02  1.14476344E+01
  3.29633588E+00  1.29653143E+00  5.92558930E-01  2.94896438E-01  1.51447622E-01
  4.39461478E+00  1.26542531E+00  4.97723458E-01  2.27476537E-01  1.13207340E-01
  5.81389949E-02  1.14476344E+01  3.29633588E+00  1.29653143E+00  5.92558930E-01
  2.94896438E-01  1.51447622E-01  4.39461478E+00  1.26542531E+00  4.97723458E-01
  2.27476537E-01  1.13207340E-01  5.81389949E-02  1.14476344E+01  3.29633588E+00
  1.29653143E+00  5.92558930E-01  2.94896438E-01  1.51447622E-01  4.39461478E+00
  1.26542531E+00  4.97723458E-01  2.27476537E-01  1.13207340E-01  5.81389949E-02
  4.39461478E+00  1.26542531E+00  4.97723458E-01  2.27476537E-01  1.13207340E-01
  5.81389949E-02  4.39461478E+00  1.26542531E+00  4.97723458E-01  2.27476537E-01
  1.13207340E-01  5.81389949E-02  1.14476344E+01  3.29633588E+00  1.29653143E+00
  5.92558930E-01  2.94896438E-01  1.51447622E-01  4.39461478E+00  1.26542531E+00
  4.97723458E-01  2.27476537E-01  1.13207340E-01  5.81389949E-02  4.39461478E+00
  1.26542531E+00  4.97723458E-01  2.27476537E-01  1.13207340E-01  5.81389949E-02
  4.39461478E+00  1.26542531E+00  4.97723458E-01  2.27476537E-01  1.13207340E-01
  5.81389949E-02  1.14476344E+01  3.29633588E+00  1.29653143E+00  5.92558930E-01
  2.94896438E-01  1.51447622E-01  4.39461478E+00  1.26542531E+00  4.97723458E-01
  2.27476537E-01  1.13207340E-01  5.81389949E-02  4.39461478E+00  1.26542531E+00
  4.97723458E-01  2.27476537E-01  1.13207340E-01  5.81389949E-02  4.39461478E+00
  1.26542531E+00  4.97723458E-01  2.27476537E-01  1.13207340E-01  5.81389949E-02
Contraction coefficients                   R   N=         120
 -9.73739553E-03 -7.26587678E-02 -1.71615520E-01  1.28977624E-01  7.28861451E-01
  3.01331742E-01 -9.73739553E-03 -7.26587678E-02 -1.71615520E-01  1.28977624E-01
  7.28861451E-01  3.01331742E-01 -9.73739553E-03 -7.26587678E-02 -1.71615520E-01
  1.28977624E-01  7.28861451E-01  3.01331742E-01 -9.73739553E-03 -7.26587678E-02
 -1.71615520E-01  1.28977624E-01  7.28861451E-01  3.01331742E-01 -9.73739553E-03
 -7.26587678E-02 -1.71615520E-01  1.28977624E-01  7.28861451E-01  3.01331742E-01
 -9.73739553E-03 -7.26587678E-02 -1.71615520E-01  1.28977624E-01  7.28861451E-01
  3.01331742E-01 -9.73739553E-03 -7.26587678E-02 -1.71615520E-01  1.28977624E-01
  7.28861451E-01  3.01331742E-01 -9.73739553E-03 -7.26587678E-02 -1.71615520E-01
  1.28977624E-01  7.28861451E-01  3.01331742E-01 -9.73739553E-03 -7.26587678E-02
 -1.71615520E-01  1.28977624E-01  7.28861451E-01  3.01331742E-01 -9.73739553E-03
 -7.26587678E-02 -1.71615520E-01  1.28977624E-01  7.28861451E-01  3.01331742E-01
 -9.73739553E-03 -7.26587678E-02 -1.71615520E-01  1.28977624E-01  7.28861451E-01
  3.01331742E-01 -9.73739553E-03 -7.26587678E-02 -1.71615520E-01  1.28977624E-01
  7.28861451E-01  3.01331742E-01 -9.73739553E-03 -7.26587678E-02 -1.71615520E-01
  1.28977624E-01  7.28861451E-01  3.01331742E-01 -9.73739553E-03 -7.26587678E-02
 -1.71615520E-01  1.28977624E-01  7.28861451E-01  3.01331742E-01 -9.73739553E-03
 -7.26587678E-02 -1.71615520E-01  1.28977624E-01  7.28861451E-01  3.01331742E-01
 -9.73739553E-03 -7.26587678E-02 -1.71615520E-01  1.28977624E-01  7.28861451E-01
  3.01331742E-01 -9.73739553E-03 -7.26587678E-02 -1.71615520E-01  1.28977624E-01
  7.28861451E-01  3.01331742E-01 -9.73739553E-03 -7.26587678E-02 -1.71615520E-01
  1.28977624E-01  7.28861451E-01  3.01331742E-01 -9.73739553E-03 -7.26587678E-02
 -1.71615520E-01  1.28977624E-01  7.28861451E-01  3.01331742E-01 -9.73739553E-03
 -7.26587678E-02 -1.71615520E-01  1.28977624E-01  7.28861451E-01  3.01331742E-01
P(S=P) Contraction coefficients            R   N=         120
 -8.10494336E-03 -1.71547892E-02  7.36978576E-02  3.96514999E-01  4.97808488E-01
  1.17482582E-01  0.00000000E+00  0.00000000E+00  0.00000000E+00  0.00000000E+00
  0.00000000E+00  0.00000000E+00  0.00000000E+00  0.00000000E+00  0.00000000E+00
  0.00000000E+00  0.00000000E+00  0.00000000E+00  0.00000000E+00  0.00000000E+00
  0.00000000E+00  0.00000000E+00  0.00000000E+00  0.00000000E+00 -8.10494336E-03
 -1.71547892E-02  7.36978576E-02  3.96514999E-01  4.97808488E-01  1.17482582E-01
  0.00000000E+00  0.00000000E+00  0.00000000E+00  0.00000000E+00  0.00000000E+00
  0.00000000E+00 -8.10494336E-03 -1.71547892E-02  7.36978576E-02  3.96514999E-01
  4.97808488E-01  1.17482582E-01  0.00000000E+00  0.00000000E+00  0.00000000E+00
  0.00000000E+00  0.00000000E+00  0.00000000E+00 -8.10494336E-03 -1.71547892E-02
  7.36978576E-02  3.96514999E-01  4.97808488E-01  1.17482582E-01  0.00000000E+00
  0.00000000E+00  0.00000000E+00  0.00000000E+00  0.00000000E+00  0.00000000E+00
  0.00000000E+00  0.00000000E+00  0.00000000E+00  0.00000000E+00  0.00000000E+00
  0.00000000E+00  0.00000000E+00  0.00000000E+00  0.00000000E+00  0.00000000E+00
  0.00000000E+00  0.00000000E+00 -8.10494336E-03 -1.71547892E-02  7.36978576E-02
  3.96514999E-01  4.97808488E-01  1.17482582E-01  0.00000000E+00  0.00000000E+00
  0.00000000E+00  0.00000000E+00  0.00000000E+00  0.00000000E+00  0.00000000E+00
  0.00000000E+00  0.00000000E+00  0.00000000E+00  0.00000000E+00  0.00000000E+00
  0.00000000E+00  0.00000000E+00  0.00000000E+00  0.00000000E+00  0.00000000E+00
  0.00000000E+00 -8.10494336E-03 -1.71547892E-02  7.36978576E-02  3.96514999E-01
  4.97808488E-01  1.17482582E-01  0.00000000E+00  0.00000000E+00  0.00000000E+00
  0.00000000E+00  0.00000000E+00  0.00000000E+00  0.00000000E+00  0.00000000E+00
  0.00000000E+00  0.00000000E+00  0.00000000E+00  0.00000000E+00  0.00000000E+00
  0.00000000E+00  0.00000000E+00  0.00000000E+00  0.00000000E+00  0.00000000E+00
Coordinates of each shell                  R   N=          60
 -2.83839645E+00  2.36685882E+00  1.07125071E-01 -1.91520560E+00  4.09630399E+00
 -5.55495619E-01 -3.06060309E+00  2.52274687E+00  2.15856028E+00 -4.73579295E+00
  2.32836246E+00 -7.18475721E-01 -1.32885808E+00  5.58628162E-05 -6.28135962E-01
 -1.06852186E+00  2.73726399E-04 -2.72338941E+00  1.32885793E+00 -8.02038158E-05
  6.28136066E-01  1.06852200E+00 -3.22664752E-04  2.72338947E+00  2.83843667E+00
 -2.36685099E+00 -1.07155723E-01  3.06061865E+00 -2.52272629E+00 -2.15859456E+00
  4.73584377E+00 -2.32831597E+00  7.18418933E-01  1.91529458E+00 -4.09631965E+00
  5.55471625E-01 -2.83843867E+00 -2.36687100E+00  1.06638587E-01 -1.91530206E+00
 -4.09619871E+00 -5.56369569E-01 -3.06061602E+00 -2.52320240E+00  2.15804378E+00
 -4.73584806E+00 -2.32815438E+00 -7.18922067E-01  2.83839866E+00  2.36687879E+00
 -1.06608039E-01  3.06060544E+00  2.52321936E+00 -2.15800922E+00  1.91521013E+00
  4.09618348E+00  5.56387561E-01  4.73579477E+00  2.32820251E+00  7.18984516E-01
Constraint Structure                       R   N=          60
  2.89819675E+00 -2.36378193E+00  1.12578465E-01  2.04243322E+00 -4.09704299E+00
 -7.13947857E-01  3.00302219E+00 -2.57872047E+00  2.20426395E+00  4.85700703E+00
 -2.23537943E+00 -6.49129557E-01  1.35098098E+00 -6.33220717E-05 -5.96230703E-01
  1.14983384E+00  2.36886352E-05 -2.69525092E+00 -1.35097342E+00  5.57624166E-05
  5.96230786E-01 -1.14982629E+00 -3.12482903E-05  2.69525101E+00 -2.89818919E+00
  2.36377437E+00 -1.12578382E-01 -3.00301461E+00  2.57890189E+00 -2.20426385E+00
 -4.85699736E+00  2.23537189E+00  6.48940679E-01 -2.04261672E+00  4.09703543E+00
  7.14134798E-01  2.89809930E+00  2.36393498E+00  1.12582502E-01  2.04229950E+00
  4.09699858E+00 -7.13713769E-01  3.00334473E+00  2.57853114E+00  2.20432464E+00
  4.85669966E+00  2.23552376E+00 -6.49536902E-01 -2.89809174E+00 -2.36394254E+00
 -1.12582418E-01 -3.00333718E+00 -2.57853870E+00 -2.20432456E+00 -2.04229194E+00
 -4.09700614E+00  7.13713852E-01 -4.85669210E+00 -2.23553132E+00  6.49536985E-01
Num ILSW                                   I              100
ILSW                                       I   N=         100
           0           0           0           0           2           0
           0           0           0           0           0          -1
           0           0           0           0           0           0
           0           0           0           0           1           0
           1           0           0           0           0           0
           0           0      100000           0          -1           0
           0           0           0           0           0           0
           0           0           0          40           0           0
           0           0           1           0           0           0
           0           0           4          40           0           0
           0           0           0           0           0           0
           0           0           0           0           0           0
           0           0           0           0           0           0
           0           0           0           0           0           0
           0           0           0           0           0           0
           0           0           0           0           0           0
           0           0           0           0
Num RLSW                                   I               40
RLSW                                       R   N=          40
  1.00000000E+00  1.00000000E+00  1.00000000E+00  1.00000000E+00  1.00000000E+00
  0.00000000E+00  0.00000000E+00  1.00000000E+00  0.00000000E+00  0.00000000E+00
  0.00000000E+00  0.00000000E+00  1.00000000E+00  0.00000000E+00  0.00000000E+00
  0.00000000E+00  0.00000000E+00  1.00000000E+00  0.00000000E+00  0.00000000E+00
  0.00000000E+00  0.00000000E+00  1.00000000E+00  0.00000000E+00  0.00000000E+00
  0.00000000E+00  0.00000000E+00  1.00000000E+00  0.00000000E+00  0.00000000E+00
  0.00000000E+00  0.00000000E+00  0.00000000E+00  0.00000000E+00  0.00000000E+00
  0.00000000E+00  0.00000000E+00  0.00000000E+00  1.00000000E+00  1.00000000E+00
MxBond                                     I                4
NBond                                      I   N=          20
           4           1           1           1           4           1
           4           1           4           1           1           1
           4           1           1           1           4           1
           1           1
IBond                                      I   N=          80
           2           3           4           5           1           0
           0           0           1           0           0           0
           1           0           0           0           1           6
           7          13           5           0           0           0
           5           8           9          17           7           0
           0           0           7          10          11          12
           9           0           0           0           9           0
           0           0           9           0           0           0
           5          14          15          16          13           0
           0           0          13           0           0           0
          13           0           0           0           7          18
          19          20          17           0           0           0
          17           0           0           0          17           0
           0           0
RBond                                      R   N=          80
  1.00000000E+00  1.00000000E+00  1.00000000E+00  1.00000000E+00  1.00000000E+00
  0.00000000E+00  0.00000000E+00  0.00000000E+00  1.00000000E+00  0.00000000E+00
  0.00000000E+00  0.00000000E+00  1.00000000E+00  0.00000000E+00  0.00000000E+00
  0.00000000E+00  1.00000000E+00  1.00000000E+00  1.00000000E+00  1.00000000E+00
  1.00000000E+00  0.00000000E+00  0.00000000E+00  0.00000000E+00  1.00000000E+00
  1.00000000E+00  1.00000000E+00  1.00000000E+00  1.00000000E+00  0.00000000E+00
  0.00000000E+00  0.00000000E+00  1.00000000E+00  1.00000000E+00  1.00000000E+00
  1.00000000E+00  1.00000000E+00  0.00000000E+00  0.00000000E+00  0.00000000E+00
  1.00000000E+00  0.00000000E+00  0.00000000E+00  0.00000000E+00  1.00000000E+00
  0.00000000E+00  0.00000000E+00  0.00000000E+00  1.00000000E+00  1.00000000E+00
  1.00000000E+00  1.00000000E+00  1.00000000E+00  0.00000000E+00  0.00000000E+00
  0.00000000E+00  1.00000000E+00  0.00000000E+00  0.00000000E+00  0.00000000E+00
  1.00000000E+00  0.00000000E+00  0.00000000E+00  0.00000000E+00  1.00000000E+00
  1.00000000E+00  1.00000000E+00  1.00000000E+00  1.00000000E+00  0.00000000E+00
  0.00000000E+00  0.00000000E+00  1.00000000E+00  0.00000000E+00  0.00000000E+00
  0.00000000E+00  1.00000000E+00  0.00000000E+00  0.00000000E+00  0.00000000E+00
Virial Ratio                               R      9.989735237036426E-01
SCF Energy                                 R     -5.786074941201491E-02
Total Energy                               R     -5.786074941201491E-02
RMS Force                                  R      2.644777816132622E-05
RMS Density                                R      6.771954257165475E-09
External E-field                           R   N=          35
  0.00000000E+00  0.00000000E+00  0.00000000E+00  0.00000000E+00  0.00000000E+00
  0.00000000E+00  0.00000000E+00  0.00000000E+00  0.00000000E+00  0.00000000E+00
  0.00000000E+00  0.00000000E+00  0.00000000E+00  0.00000000E+00  0.00000000E+00
  0.00000000E+00  0.00000000E+00  0.00000000E+00  0.00000000E+00  0.00000000E+00
  0.00000000E+00  0.00000000E+00  0.00000000E+00  0.00000000E+00  0.00000000E+00
  0.00000000E+00  0.00000000E+00  0.00000000E+00  0.00000000E+00  0.00000000E+00
  0.00000000E+00  0.00000000E+00  0.00000000E+00  0.00000000E+00  0.00000000E+00
IOpCl                                      I                0
IROHF                                      I                0
Alpha Orbital Energies                     R   N=          38
 -1.06841574E+00 -9.66304340E-01 -9.08966566E-01 -8.49096562E-01 -7.70800737E-01
 -6.96094676E-01 -5.69579893E-01 -5.67601692E-01 -5.36071857E-01 -5.28846750E-01
 -4.87568106E-01 -4.85927433E-01 -4.77009403E-01 -4.64815105E-01 -4.53248448E-01
 -4.33094969E-01 -4.13428384E-01 -4.11773278E-01 -3.95807271E-01  1.50573879E-01
  1.59112671E-01  1.71210697E-01  1.78147757E-01  1.84562932E-01  2.18096520E-01
  2.20247653E-01  2.21215954E-01  2.22942490E-01  2.24514886E-01  2.24518381E-01
  2.26583485E-01  2.28482094E-01  2.36644276E-01  2.42881787E-01  2.55658039E-01
  2.57685246E-01  2.60741466E-01  2.66871269E-01
Alpha MO coefficients                      R   N=        1444
  2.84196978E-01  5.98938255E-02 -7.52414090E-02 -1.38291826E-02  1.24112768E-01
  1.23556022E-01  1.11863011E-01  4.42632705E-01  3.63225757E-02 -2.59782762E-06
  5.08385854E-02  1.82745878E-01  4.42632698E-01 -3.63225706E-02  8.56636438E-06
 -5.08385865E-02  1.82745881E-01  2.84190682E-01 -5.98930862E-02  7.52410573E-02
  1.38299272E-02  1.23553470E-01  1.11861140E-01  1.24107900E-01  2.84190854E-01
  5.98932555E-02  7.52440885E-02 -1.38135127E-02  1.24107747E-01  1.23553419E-01
  1.11861136E-01  2.84197153E-01 -5.98939871E-02 -7.52444216E-02  1.38127705E-02
  1.23555973E-01  1.24112663E-01  1.11863038E-01 -3.43375992E-01  9.68928844E-03
  6.89792716E-02  1.70168427E-02 -1.23061131E-01 -1.47057169E-01 -1.69441938E-01
 -2.78757835E-01  1.84953891E-01  1.48736336E-06 -1.09682427E-02 -1.04410342E-01
  2.78757786E-01  1.84953922E-01  1.54438199E-06 -1.09682370E-02  1.04410341E-01
  3.43380652E-01  9.68728124E-03  6.89780884E-02  1.70176783E-02  1.47058887E-01
  1.69443932E-01  1.23064947E-01 -3.43381650E-01  9.68708048E-03 -6.89817522E-02
  1.70026710E-02 -1.23065387E-01 -1.47059085E-01 -1.69444306E-01  3.43377006E-01
  9.68909247E-03 -6.89829316E-02  1.70018380E-02  1.47057485E-01  1.23061514E-01
  1.69442318E-01 -3.59716104E-01 -2.59291098E-02 -5.13319079E-02  3.83421584E-03
 -2.03637972E-01 -1.62045744E-01 -1.50058247E-01  5.20406183E-06 -1.13444984E-06
 -2.32535577E-01 -2.41376464E-05  2.49358127E-06  5.54348895E-06  1.30370004E-06
 -2.32535528E-01 -2.64836801E-05  2.89132959E-06  3.59720397E-01 -2.59278619E-02
 -5.13287546E-02  3.83441549E-03  1.62047733E-01  1.50060371E-01  2.03636919E-01
  3.59719495E-01  2.59278545E-02 -5.13282447E-02 -3.84549074E-03  2.03636412E-01
  1.62047526E-01  1.50059885E-01 -3.59715072E-01  2.59291182E-02 -5.13313830E-02
 -3.84529336E-03 -1.62045381E-01 -2.03637467E-01 -1.50057762E-01  3.71539369E-01
 -2.57154837E-02  5.64781398E-02  2.89107348E-03  1.79374487E-01  1.73586993E-01
  1.79212816E-01  3.31569239E-06  6.86298889E-08  1.65381843E-01  1.55966659E-05
  2.47482705E-06 -2.96549542E-06 -7.60580537E-07 -1.65381859E-01 -2.04724042E-05
 -2.13148799E-06  3.71535789E-01  2.57148568E-02 -5.64806765E-02 -2.89323419E-03
  1.73586407E-01  1.79209750E-01  1.79375890E-01 -3.71535949E-01  2.57151507E-02
  5.64816157E-02 -2.88100039E-03 -1.79375951E-01 -1.73586604E-01 -1.79209945E-01
 -3.71539670E-01 -2.57157630E-02 -5.64790807E-02  2.87882511E-03 -1.73587231E-01
 -1.79374585E-01 -1.79213107E-01 -2.22147822E-01  1.44811821E-01 -1.25164386E-01
 -3.32648986E-02 -1.25568090E-01 -1.34711409E-01 -1.72043883E-01  3.47351100E-01
  2.26744040E-01 -1.45661851E-06  5.33665000E-03  1.63376292E-01  3.47351095E-01
 -2.26744032E-01 -6.88753628E-08 -5.33664634E-03  1.63376286E-01 -2.22150225E-01
 -1.44814394E-01  1.25160732E-01  3.32662949E-02 -1.34711737E-01 -1.72045446E-01
 -1.25568263E-01 -2.22149495E-01  1.44814774E-01  1.25168069E-01 -3.32390908E-02
 -1.25568042E-01 -1.34711516E-01 -1.72045357E-01 -2.22147044E-01 -1.44812097E-01
 -1.25171626E-01  3.32377123E-02 -1.34711266E-01 -1.25567786E-01 -1.72043620E-01
 -1.07611947E-01  7.53244178E-02 -1.29192462E-01 -1.69634488E-01 -5.77584342E-02
 -1.68795403E-01 -5.12368797E-02  3.32954092E-01 -4.82725308E-02  2.98619645E-05
 -2.89437740E-01  3.29683887E-01 -3.32954149E-01 -4.82725330E-02  3.30287761E-05
 -2.89437781E-01 -3.29683960E-01  1.07608523E-01  7.53246211E-02 -1.29188654E-01
 -1.69635392E-01  1.68793499E-01  5.12353235E-02  5.77571069E-02 -1.07608294E-01
  7.53251037E-02  1.29226153E-01 -1.69607477E-01 -5.77570676E-02 -1.68793714E-01
 -5.12356835E-02  1.07611784E-01  7.53248353E-02  1.29229964E-01 -1.69606608E-01
  1.68795630E-01  5.77586920E-02  5.12369402E-02  4.52282521E-02 -1.00458048E-01
  2.94736257E-01 -1.52028700E-01  1.82770050E-01 -6.10413291E-02  1.24315397E-01
 -1.50619101E-01  1.92859110E-01  3.02559057E-05 -2.69983964E-01  1.33479678E-01
  1.50618807E-01  1.92857144E-01  3.14380180E-05 -2.69984769E-01 -1.33480153E-01
 -4.52271946E-02 -1.00464493E-01  2.94737655E-01 -1.52023987E-01  6.10404084E-02
 -1.24312986E-01 -1.82772483E-01  4.52273624E-02 -1.00466357E-01 -2.94707005E-01
 -1.52086009E-01  1.82773488E-01 -6.10379865E-02  1.24313120E-01 -4.52283826E-02
 -1.00462551E-01 -2.94702336E-01 -1.52092509E-01  6.10402490E-02 -1.82768254E-01
 -1.24318101E-01 -9.69627902E-03 -1.99382005E-01 -2.44170013E-01 -1.49338585E-01
 -1.83022839E-01 -1.01792825E-01  1.65946657E-01  5.25289573E-02 -2.90743068E-01
  1.30315590E-05 -1.36093997E-01  8.86920494E-02  5.25298352E-02  2.90744333E-01
 -1.62681147E-05  1.36092139E-01  8.86910909E-02 -9.70190303E-03  1.99362445E-01
  2.44171418E-01  1.49342549E-01 -1.01800313E-01  1.65935703E-01 -1.83015505E-01
 -9.70133537E-03 -1.99362443E-01  2.44202675E-01 -1.49291413E-01 -1.83013636E-01
 -1.01802308E-01  1.65936560E-01 -9.69630306E-03  1.99380816E-01 -2.44205170E-01
  1.49285563E-01 -1.01793463E-01 -1.83023942E-01  1.65945966E-01  1.07631155E-02
 -5.07270727E-02 -1.96675785E-01  2.86546036E-01 -1.96580146E-01  1.93089278E-01
 -3.99092972E-02  1.41273807E-02 -6.27895851E-04 -2.07834590E-05  2.61858311E-01
 -1.70977271E-01  1.41274543E-02  6.27892191E-04  3.68335085E-05 -2.61858308E-01
 -1.70977240E-01  1.07624824E-02  5.07295372E-02  1.96674506E-01 -2.86547299E-01
  1.93090716E-01 -3.99031962E-02 -1.96580961E-01  1.07625860E-02 -5.07284864E-02
  1.96611444E-01  2.86588801E-01 -1.96580343E-01  1.93089091E-01 -3.99027020E-02
  1.07632002E-02  5.07257489E-02 -1.96612819E-01 -2.86587729E-01  1.93088117E-01
 -1.96579115E-01 -3.99097878E-02 -3.50914097E-02  3.46443383E-01 -5.57507780E-02
 -1.05958417E-01  9.01107217E-02 -1.16497274E-01 -2.03786929E-01  6.98815611E-07
 -5.97087865E-06  3.19969568E-01  2.98955507E-05  1.68721734E-06 -8.00632661E-07
  4.15189768E-06  3.19969341E-01  4.19237452E-05  2.24444968E-06  3.50896338E-02
  3.46448381E-01 -5.57368997E-02 -1.05945497E-01  1.16484093E-01  2.03794456E-01
 -9.01119547E-02  3.50890577E-02 -3.46447812E-01 -5.57568743E-02  1.05934930E-01
 -9.01135415E-02  1.16484327E-01  2.03793768E-01 -3.50909156E-02 -3.46442587E-01
 -5.57704857E-02  1.05947295E-01 -1.16497634E-01  9.01124055E-02 -2.03785886E-01
 -8.97912605E-03 -7.16442185E-02 -9.27162115E-03  3.76121691E-01 -1.18582810E-01
  2.69519910E-01 -6.46033552E-02  1.60736624E-05  6.05080445E-06 -1.57261346E-01
 -2.15969005E-05  1.23289104E-05 -1.64973224E-05  6.00773839E-06  1.57261851E-01
  1.38965167E-05 -1.19339370E-05 -8.99164168E-03  7.17669266E-02  9.33586619E-03
 -3.76084321E-01  2.69492550E-01 -6.45081645E-02 -1.18654052E-01  8.99179043E-03
  7.17678929E-02 -9.25575932E-03 -3.76087007E-01  1.18656261E-01 -2.69492860E-01
  6.45069663E-02  8.97928685E-03 -7.16457264E-02  9.19087026E-03  3.76124194E-01
 -2.69520207E-01  1.18584024E-01  6.46025773E-02  3.50476311E-02  3.29510917E-01
  1.54282678E-01  1.04388998E-01  1.80108372E-01  7.61825465E-02 -2.46027160E-01
  8.72633942E-02  3.66420737E-02  2.55262767E-05 -2.32310957E-02  6.22580570E-02
 -8.72634706E-02  3.66419909E-02 -2.11755673E-05 -2.32312799E-02 -6.22581953E-02
 -3.50427204E-02  3.29516521E-01  1.54292033E-01  1.04538407E-01 -7.62896126E-02
  2.46078497E-01 -1.80076366E-01  3.50427828E-02  3.29517755E-01 -1.54313770E-01
  1.04510648E-01  1.80074046E-01  7.62946549E-02 -2.46081151E-01 -3.50476008E-02
  3.29512076E-01 -1.54304408E-01  1.04360994E-01 -7.61866043E-02 -1.80106615E-01