 Entering Gaussian System, Link 0=/share/apps/g09/g09
 Input=C6H14_4_1_opt_PM6.gjf
 Output=C6H14_4_1_opt_PM6.log
 Initial command:
 /share/apps/g09/l1.exe /state/partition1/Gau-18778.inp -scrdir=/state/partition1/
 Entering Link 1 = /share/apps/g09/l1.exe PID=     18785.
  
 Copyright (c) 1988,1990,1992,1993,1995,1998,2003,2009, Gaussian, Inc.
                  All Rights Reserved.
  
 This is part of the Gaussian(R) 09 program.  It is based on
 the Gaussian(R) 03 system (copyright 2003, Gaussian, Inc.),
 the Gaussian(R) 98 system (copyright 1998, Gaussian, Inc.),
 the Gaussian(R) 94 system (copyright 1995, Gaussian, Inc.),
 the Gaussian 92(TM) system (copyright 1992, Gaussian, Inc.),
 the Gaussian 90(TM) system (copyright 1990, Gaussian, Inc.),
 the Gaussian 88(TM) system (copyright 1988, Gaussian, Inc.),
 the Gaussian 86(TM) system (copyright 1986, Carnegie Mellon
 University), and the Gaussian 82(TM) system (copyright 1983,
 Carnegie Mellon University). Gaussian is a federally registered
 trademark of Gaussian, Inc.
  
 This software contains proprietary and confidential information,
 including trade secrets, belonging to Gaussian, Inc.
  
 This software is provided under written license and may be
 used, copied, transmitted, or stored only in accord with that
 written license.
  
 The following legend is applicable only to US Government
 contracts under FAR:
  
                    RESTRICTED RIGHTS LEGEND
  
 Use, reproduction and disclosure by the US Government is
 subject to restrictions as set forth in subparagraphs (a)
 and (c) of the Commercial Computer Software - Restricted
 Rights clause in FAR 52.227-19.
  
 Gaussian, Inc.
 340 Quinnipiac St., Bldg. 40, Wallingford CT 06492
  
  
 ---------------------------------------------------------------
 Warning -- This program may not be used in any manner that
 competes with the business of Gaussian, Inc. or will provide
 assistance to any competitor of Gaussian, Inc.  The licensee
 of this program is prohibited from giving any competitor of
 Gaussian, Inc. access to this program.  By using this program,
 the user acknowledges that Gaussian, Inc. is engaged in the
 business of creating and licensing software in the field of
 computational chemistry and represents and warrants to the
 licensee that it is not a competitor of Gaussian, Inc. and that
 it will not use this program in any manner prohibited above.
 ---------------------------------------------------------------
  

 Cite this work as:
 Gaussian 09, Revision A.01,
 M. J. Frisch, G. W. Trucks, H. B. Schlegel, G. E. Scuseria, 
 M. A. Robb, J. R. Cheeseman, G. Scalmani, V. Barone, B. Mennucci, 
 G. A. Petersson, H. Nakatsuji, M. Caricato, X. Li, H. P. Hratchian, 
 A. F. Izmaylov, J. Bloino, G. Zheng, J. L. Sonnenberg, M. Hada, 
 M. Ehara, K. Toyota, R. Fukuda, J. Hasegawa, M. Ishida, T. Nakajima, 
 Y. Honda, O. Kitao, H. Nakai, T. Vreven, J. A. Montgomery, Jr., 
 J. E. Peralta, F. Ogliaro, M. Bearpark, J. J. Heyd, E. Brothers, 
 K. N. Kudin, V. N. Staroverov, R. Kobayashi, J. Normand, 
 K. Raghavachari, A. Rendell, J. C. Burant, S. S. Iyengar, J. Tomasi, 
 M. Cossi, N. Rega, J. M. Millam, M. Klene, J. E. Knox, J. B. Cross, 
 V. Bakken, C. Adamo, J. Jaramillo, R. Gomperts, R. E. Stratmann, 
 O. Yazyev, A. J. Austin, R. Cammi, C. Pomelli, J. W. Ochterski, 
 R. L. Martin, K. Morokuma, V. G. Zakrzewski, G. A. Voth, 
 P. Salvador, J. J. Dannenberg, S. Dapprich, A. D. Daniels, 
 O. Farkas, J. B. Foresman, J. V. Ortiz, J. Cioslowski, 
 and D. J. Fox, Gaussian, Inc., Wallingford CT, 2009.
 
 ******************************************
 Gaussian 09:  EM64L-G09RevA.01  8-May-2009
                13-Sep-2015 
 ******************************************
 %mem=5GB
 %nprocshared=2
 Will use up to    2 processors via shared memory.
 %chk=C6H14_4_1_opt_PM6.chk
 ----------
 #p PM6 opt
 ----------
 1/14=-1,18=20,19=15,26=1,38=1/1,3;
 2/9=110,12=2,17=6,18=5,40=1/2;
 3/5=2,16=1,25=1,41=3900000,71=1/1,2,3;
 4/35=1/1;
 5/5=2,35=1,38=5/2;
 6/7=2,8=2,9=2,10=2,28=1/1;
 7//1,2,3,16;
 1/14=-1,18=20,19=15/3(2);
 2/9=110/2;
 99//99;
 2/9=110/2;
 3/5=2,16=1,25=1,41=3900000,71=1,135=20/1,2,3;
 4/5=5,16=3,35=1/1;
 5/5=2,35=1,38=5/2;
 7//1,2,3,16;
 1/14=-1,18=20,19=15/3(-5);
 2/9=110/2;
 6/7=2,8=2,9=2,10=2,19=2,28=1/1;
 99/9=1/99;
 Leave Link    1 at Sun Sep 13 11:18:47 2015, MaxMem=  671088640 cpu:       0.1
 (Enter /share/apps/g09/l101.exe)
 ----------------------------------
 using PM6 to do opt and freq calc.
 ----------------------------------
 Symbolic Z-matrix:
 Charge =  0 Multiplicity = 1
 C                    -3.97293   0.85987   0. 
 H                    -3.61628  -0.14894   0. 
 H                    -3.61626   1.36427  -0.87365 
 H                    -5.04293   0.85989   0. 
 C                    -3.45959   1.58583   1.2574 
 H                    -3.81786   1.08256   2.13106 
 C                    -1.91959   1.58337   1.25881 
 H                    -1.56132   2.08631   0.38497 
 C                    -1.40625   2.3098    2.51595 
 H                    -1.76458   1.8069    3.38978 
 H                    -0.33625   2.30802   2.51697 
 H                    -1.76123   3.31919   2.51455 
 C                    -3.9706    3.03857   1.256 
 H                    -3.92935   3.43213   2.25013 
 H                    -3.35628   3.63213   0.61164 
 H                    -4.98123   3.06082   0.90524 
 C                    -1.40858   0.13063   1.26076 
 H                    -2.02104  -0.46203   1.90771 
 H                    -1.45269  -0.26431   0.26729 
 H                    -0.39694   0.10886   1.60864 
 
 NAtoms=     20 NQM=     20 NQMF=      0 NMic=      0 NMicF=      0 NTot=     20.
                    Isotopes and Nuclear Properties:
 (Nuclear quadrupole moments (NQMom) in fm**2, nuclear magnetic moments (NMagM)
  in nuclear magnetons)

  Atom         1           2           3           4           5           6           7           8           9          10
 IAtWgt=          12           1           1           1          12           1          12           1          12           1
 AtmWgt=  12.0000000   1.0078250   1.0078250   1.0078250  12.0000000   1.0078250  12.0000000   1.0078250  12.0000000   1.0078250
 NucSpn=           0           1           1           1           0           1           0           1           0           1
 AtZEff=   0.0000000   0.0000000   0.0000000   0.0000000   0.0000000   0.0000000   0.0000000   0.0000000   0.0000000   0.0000000
 NQMom=    0.0000000   0.0000000   0.0000000   0.0000000   0.0000000   0.0000000   0.0000000   0.0000000   0.0000000   0.0000000
 NMagM=    0.0000000   2.7928460   2.7928460   2.7928460   0.0000000   2.7928460   0.0000000   2.7928460   0.0000000   2.7928460

  Atom        11          12          13          14          15          16          17          18          19          20
 IAtWgt=           1           1          12           1           1           1          12           1           1           1
 AtmWgt=   1.0078250   1.0078250  12.0000000   1.0078250   1.0078250   1.0078250  12.0000000   1.0078250   1.0078250   1.0078250
 NucSpn=           1           1           0           1           1           1           0           1           1           1
 AtZEff=   0.0000000   0.0000000   0.0000000   0.0000000   0.0000000   0.0000000   0.0000000   0.0000000   0.0000000   0.0000000
 NQMom=    0.0000000   0.0000000   0.0000000   0.0000000   0.0000000   0.0000000   0.0000000   0.0000000   0.0000000   0.0000000
 NMagM=    2.7928460   2.7928460   0.0000000   2.7928460   2.7928460   2.7928460   0.0000000   2.7928460   2.7928460   2.7928460
 Leave Link  101 at Sun Sep 13 11:18:50 2015, MaxMem=  671088640 cpu:       0.2
 (Enter /share/apps/g09/l103.exe)

 GradGradGradGradGradGradGradGradGradGradGradGradGradGradGradGradGradGrad
 Berny optimization.
 Initialization pass.
                           ----------------------------
                           !    Initial Parameters    !
                           ! (Angstroms and Degrees)  !
 --------------------------                            --------------------------
 ! Name  Definition              Value          Derivative Info.                !
 --------------------------------------------------------------------------------
 ! R1    R(1,2)                  1.07           estimate D2E/DX2                !
 ! R2    R(1,3)                  1.07           estimate D2E/DX2                !
 ! R3    R(1,4)                  1.07           estimate D2E/DX2                !
 ! R4    R(1,5)                  1.54           estimate D2E/DX2                !
 ! R5    R(5,6)                  1.07           estimate D2E/DX2                !
 ! R6    R(5,7)                  1.54           estimate D2E/DX2                !
 ! R7    R(5,13)                 1.54           estimate D2E/DX2                !
 ! R8    R(7,8)                  1.07           estimate D2E/DX2                !
 ! R9    R(7,9)                  1.54           estimate D2E/DX2                !
 ! R10   R(7,17)                 1.54           estimate D2E/DX2                !
 ! R11   R(9,10)                 1.07           estimate D2E/DX2                !
 ! R12   R(9,11)                 1.07           estimate D2E/DX2                !
 ! R13   R(9,12)                 1.07           estimate D2E/DX2                !
 ! R14   R(13,14)                1.07           estimate D2E/DX2                !
 ! R15   R(13,15)                1.07           estimate D2E/DX2                !
 ! R16   R(13,16)                1.07           estimate D2E/DX2                !
 ! R17   R(17,18)                1.07           estimate D2E/DX2                !
 ! R18   R(17,19)                1.07           estimate D2E/DX2                !
 ! R19   R(17,20)                1.07           estimate D2E/DX2                !
 ! A1    A(2,1,3)              109.4712         estimate D2E/DX2                !
 ! A2    A(2,1,4)              109.4712         estimate D2E/DX2                !
 ! A3    A(2,1,5)              109.4712         estimate D2E/DX2                !
 ! A4    A(3,1,4)              109.4712         estimate D2E/DX2                !
 ! A5    A(3,1,5)              109.4713         estimate D2E/DX2                !
 ! A6    A(4,1,5)              109.4712         estimate D2E/DX2                !
 ! A7    A(1,5,6)              109.4712         estimate D2E/DX2                !
 ! A8    A(1,5,7)              109.4712         estimate D2E/DX2                !
 ! A9    A(1,5,13)             109.4712         estimate D2E/DX2                !
 ! A10   A(6,5,7)              109.4712         estimate D2E/DX2                !
 ! A11   A(6,5,13)             109.4712         estimate D2E/DX2                !
 ! A12   A(7,5,13)             109.4713         estimate D2E/DX2                !
 ! A13   A(5,7,8)              109.4712         estimate D2E/DX2                !
 ! A14   A(5,7,9)              109.4712         estimate D2E/DX2                !
 ! A15   A(5,7,17)             109.4712         estimate D2E/DX2                !
 ! A16   A(8,7,9)              109.4713         estimate D2E/DX2                !
 ! A17   A(8,7,17)             109.4712         estimate D2E/DX2                !
 ! A18   A(9,7,17)             109.4712         estimate D2E/DX2                !
 ! A19   A(7,9,10)             109.4712         estimate D2E/DX2                !
 ! A20   A(7,9,11)             109.4712         estimate D2E/DX2                !
 ! A21   A(7,9,12)             109.4712         estimate D2E/DX2                !
 ! A22   A(10,9,11)            109.4713         estimate D2E/DX2                !
 ! A23   A(10,9,12)            109.4712         estimate D2E/DX2                !
 ! A24   A(11,9,12)            109.4712         estimate D2E/DX2                !
 ! A25   A(5,13,14)            109.4712         estimate D2E/DX2                !
 ! A26   A(5,13,15)            109.4712         estimate D2E/DX2                !
 ! A27   A(5,13,16)            109.4712         estimate D2E/DX2                !
 ! A28   A(14,13,15)           109.4713         estimate D2E/DX2                !
 ! A29   A(14,13,16)           109.4712         estimate D2E/DX2                !
 ! A30   A(15,13,16)           109.4712         estimate D2E/DX2                !
 ! A31   A(7,17,18)            109.4712         estimate D2E/DX2                !
 ! A32   A(7,17,19)            109.4712         estimate D2E/DX2                !
 ! A33   A(7,17,20)            109.4712         estimate D2E/DX2                !
 ! A34   A(18,17,19)           109.4713         estimate D2E/DX2                !
 ! A35   A(18,17,20)           109.4712         estimate D2E/DX2                !
 ! A36   A(19,17,20)           109.4712         estimate D2E/DX2                !
 ! D1    D(2,1,5,6)            -60.1111         estimate D2E/DX2                !
 ! D2    D(2,1,5,7)             59.8889         estimate D2E/DX2                !
 ! D3    D(2,1,5,13)           179.8889         estimate D2E/DX2                !
 ! D4    D(3,1,5,6)            179.8889         estimate D2E/DX2                !
 ! D5    D(3,1,5,7)            -60.1111         estimate D2E/DX2                !
 ! D6    D(3,1,5,13)            59.8889         estimate D2E/DX2                !
 ! D7    D(4,1,5,6)             59.8889         estimate D2E/DX2                !
 ! D8    D(4,1,5,7)            179.8889         estimate D2E/DX2                !
 ! D9    D(4,1,5,13)           -60.1111         estimate D2E/DX2                !
 ! D10   D(1,5,7,8)             59.9786         estimate D2E/DX2                !
 ! D11   D(1,5,7,9)            179.9786         estimate D2E/DX2                !
 ! D12   D(1,5,7,17)           -60.0214         estimate D2E/DX2                !
 ! D13   D(6,5,7,8)            179.9786         estimate D2E/DX2                !
 ! D14   D(6,5,7,9)            -60.0214         estimate D2E/DX2                !
 ! D15   D(6,5,7,17)            59.9786         estimate D2E/DX2                !
 ! D16   D(13,5,7,8)           -60.0214         estimate D2E/DX2                !
 ! D17   D(13,5,7,9)            59.9786         estimate D2E/DX2                !
 ! D18   D(13,5,7,17)          179.9786         estimate D2E/DX2                !
 ! D19   D(1,5,13,14)          159.7103         estimate D2E/DX2                !
 ! D20   D(1,5,13,15)          -80.2897         estimate D2E/DX2                !
 ! D21   D(1,5,13,16)           39.7103         estimate D2E/DX2                !
 ! D22   D(6,5,13,14)           39.7103         estimate D2E/DX2                !
 ! D23   D(6,5,13,15)          159.7103         estimate D2E/DX2                !
 ! D24   D(6,5,13,16)          -80.2897         estimate D2E/DX2                !
 ! D25   D(7,5,13,14)          -80.2897         estimate D2E/DX2                !
 ! D26   D(7,5,13,15)           39.7103         estimate D2E/DX2                !
 ! D27   D(7,5,13,16)          159.7103         estimate D2E/DX2                !
 ! D28   D(5,7,9,10)            59.9953         estimate D2E/DX2                !
 ! D29   D(5,7,9,11)           179.9953         estimate D2E/DX2                !
 ! D30   D(5,7,9,12)           -60.0047         estimate D2E/DX2                !
 ! D31   D(8,7,9,10)           179.9953         estimate D2E/DX2                !
 ! D32   D(8,7,9,11)           -60.0047         estimate D2E/DX2                !
 ! D33   D(8,7,9,12)            59.9953         estimate D2E/DX2                !
 ! D34   D(17,7,9,10)          -60.0047         estimate D2E/DX2                !
 ! D35   D(17,7,9,11)           59.9953         estimate D2E/DX2                !
 ! D36   D(17,7,9,12)          179.9953         estimate D2E/DX2                !
 ! D37   D(5,7,17,18)          -39.8851         estimate D2E/DX2                !
 ! D38   D(5,7,17,19)           80.1149         estimate D2E/DX2                !
 ! D39   D(5,7,17,20)         -159.8851         estimate D2E/DX2                !
 ! D40   D(8,7,17,18)         -159.8851         estimate D2E/DX2                !
 ! D41   D(8,7,17,19)          -39.8851         estimate D2E/DX2                !
 ! D42   D(8,7,17,20)           80.1149         estimate D2E/DX2                !
 ! D43   D(9,7,17,18)           80.1149         estimate D2E/DX2                !
 ! D44   D(9,7,17,19)         -159.8851         estimate D2E/DX2                !
 ! D45   D(9,7,17,20)          -39.8851         estimate D2E/DX2                !
 --------------------------------------------------------------------------------
 Trust Radius=3.00D-01 FncErr=1.00D-07 GrdErr=1.00D-07
 Number of steps in this run= 110 maximum allowed number of steps= 120.
 GradGradGradGradGradGradGradGradGradGradGradGradGradGradGradGradGradGrad

 Leave Link  103 at Sun Sep 13 11:18:50 2015, MaxMem=  671088640 cpu:       0.0
 (Enter /share/apps/g09/l202.exe)
                          Input orientation:                          
 ---------------------------------------------------------------------
 Center     Atomic      Atomic             Coordinates (Angstroms)
 Number     Number       Type             X           Y           Z
 ---------------------------------------------------------------------
      1          6           0       -3.972930    0.859873    0.000000
      2          1           0       -3.616275   -0.148937    0.000000
      3          1           0       -3.616257    1.364271   -0.873652
      4          1           0       -5.042930    0.859886    0.000000
      5          6           0       -3.459588    1.585829    1.257405
      6          1           0       -3.817857    1.082561    2.131055
      7          6           0       -1.919590    1.583372    1.258813
      8          1           0       -1.561322    2.086313    0.384974
      9          6           0       -1.406247    2.309798    2.515946
     10          1           0       -1.764584    1.806904    3.389784
     11          1           0       -0.336249    2.308019    2.516966
     12          1           0       -1.761235    3.319194    2.514551
     13          6           0       -3.970604    3.038571    1.255998
     14          1           0       -3.929353    3.432134    2.250135
     15          1           0       -3.356281    3.632131    0.611642
     16          1           0       -4.981234    3.060823    0.905240
     17          6           0       -1.408575    0.130630    1.260762
     18          1           0       -2.021043   -0.462032    1.907705
     19          1           0       -1.452688   -0.264309    0.267295
     20          1           0       -0.396940    0.108859    1.608640
 ---------------------------------------------------------------------
                    Distance matrix (angstroms):
                    1          2          3          4          5
     1  C    0.000000
     2  H    1.070000   0.000000
     3  H    1.070000   1.747302   0.000000
     4  H    1.070000   1.747303   1.747303   0.000000
     5  C    1.540000   2.148263   2.148263   2.148263   0.000000
     6  H    2.148263   2.469538   3.024610   2.468154   1.070000
     7  C    2.514809   2.732077   2.733878   3.444313   1.540000
     8  H    2.732803   3.060618   2.515600   3.711324   2.148263
     9  C    3.875581   4.154466   4.155423   4.653783   2.514809
    10  H    4.155033   4.329517   4.669208   4.809889   2.732939
    11  H    4.653783   4.809400   4.810967   5.530376   3.444314
    12  H    4.154856   4.668199   4.329290   4.810477   2.733016
    13  C    2.514809   3.444313   2.732078   2.733877   1.540000
    14  H    3.417826   4.240895   3.759272   3.594387   2.148263
    15  H    2.905129   3.839034   2.723394   3.302156   2.148263
    16  H    2.584631   3.603489   2.811744   2.380628   2.148263
    17  C    2.949107   2.557659   3.309298   3.915338   2.514810
    18  H    3.032595   2.506419   3.689991   3.810329   2.585737
    19  H    2.772517   2.183087   2.938548   3.771618   2.903614
    20  H    3.992424   3.608089   4.254625   4.973630   3.418277
                    6          7          8          9         10
     6  H    0.000000
     7  C    2.148263   0.000000
     8  H    3.024610   1.070000   0.000000
     9  C    2.733151   1.540000   2.148263   0.000000
    10  H    2.514956   2.148263   3.024610   1.070000   0.000000
    11  H    3.711100   2.148263   2.468875   1.070000   1.747303
    12  H    3.062563   2.148263   2.468817   1.070000   1.747303
    13  C    2.148263   2.514810   2.733151   2.948645   3.307049
    14  H    2.355229   2.905130   3.301155   2.774231   2.937073
    15  H    3.003660   2.584632   2.379665   3.029450   3.685515
    16  H    2.601843   3.417826   3.593904   3.992361   4.253482
    17  C    2.732804   1.540000   2.148263   2.514809   2.733016
    18  H    2.379957   2.148263   3.004017   2.903614   2.722206
    19  H    3.298740   2.148263   2.356072   3.418277   3.759940
    20  H    3.594953   2.148263   2.600668   2.585738   2.815366
                   11         12         13         14         15
    11  H    0.000000
    12  H    1.747303   0.000000
    13  C    3.915646   2.558127   0.000000
    14  H    3.774285   2.187100   1.070000   0.000000
    15  H    3.808428   2.502631   1.070000   1.747303   0.000000
    16  H    4.973958   3.609021   1.070000   1.747303   1.747303
    17  C    2.732939   3.444314   3.875582   4.270024   4.058992
    18  H    3.298926   3.838416   4.059524   4.350107   4.497200
    19  H    3.595042   4.241092   4.269245   4.871264   4.350228
    20  H    2.380136   3.603919   4.634506   4.892199   4.707988
                   16         17         18         19         20
    16  H    0.000000
    17  C    4.634255   0.000000
    18  H    4.709371   1.070000   0.000000
    19  H    4.890206   1.070000   1.747303   0.000000
    20  H    5.497692   1.070000   1.747303   1.747303   0.000000
 Stoichiometry    C6H14
 Framework group  C1[X(C6H14)]
 Deg. of freedom    54
 Full point group                 C1      NOp   1
 Largest Abelian subgroup         C1      NOp   1
 Largest concise Abelian subgroup C1      NOp   1
                         Standard orientation:                         
 ---------------------------------------------------------------------
 Center     Atomic      Atomic             Coordinates (Angstroms)
 Number     Number       Type             X           Y           Z
 ---------------------------------------------------------------------
      1          6           0       -1.473288   -1.257367   -0.061044
      2          1           0       -0.925012   -2.131111    0.223324
      3          1           0       -1.617598   -1.256202   -1.121268
      4          1           0       -2.424774   -1.258347    0.428419
      5          6           0       -0.685271   -0.000098    0.351147
      6          1           0       -0.542640   -0.000286    1.411598
      7          6           0        0.685271   -0.000097   -0.351147
      8          1           0        0.542640   -0.000286   -1.411598
      9          6           0        1.473074    1.257443    0.060626
     10          1           0        1.615633    1.257673    1.121087
     11          1           0        2.425367    1.257402   -0.427267
     12          1           0        0.925593    2.131000   -0.225840
     13          6           0       -1.473076    1.257442   -0.060626
     14          1           0       -1.132944    2.094830    0.512079
     15          1           0       -1.317914    1.450581   -1.101550
     16          1           0       -2.515742    1.100659    0.121491
     17          6           0        1.473290   -1.257366    0.061044
     18          1           0        1.320597   -1.448434    1.102715
     19          1           0        1.131193   -2.095616   -0.509225
     20          1           0        2.515600   -1.101604   -0.123964
 ---------------------------------------------------------------------
 Rotational constants (GHZ):      4.2078190      3.0281472      1.9386806
 Leave Link  202 at Sun Sep 13 11:18:55 2015, MaxMem=  671088640 cpu:       0.0
 (Enter /share/apps/g09/l301.exe)
 Standard basis: VSTO-6G (5D, 7F)
 Ernie: Thresh=  0.10000D-02 Tol=  0.10000D-05 Strict=F.
  NNHCO=     0 NNPyr=     0 NCTC=     0               EPep=         0.000000000
    EC=       134.075144310  ECS=         3.454410060   EG=         0.309673694
   EHC=         0.000625960  EAt=       -31.187935768  AtH=         2.796400831
 EPDDG=         0.000000000  ECC=       137.839854024 EAtT=        33.984336599
 There are    38 symmetry adapted basis functions of A   symmetry.
 Integral buffers will be    131072 words long.
 Regular integral format.
 Two-electron integral symmetry is turned off.
    38 basis functions,   228 primitive gaussians,    38 cartesian basis functions
    19 alpha electrons       19 beta electrons
       nuclear repulsion energy       171.8241906231 Hartrees.
 IExCor=    0 DFT=F Ex=HF Corr=None ExCW=0 ScaHFX=  1.000000
 ScaDFX=  1.000000  1.000000  1.000000  1.000000 ScalE2=  1.000000  1.000000
 IRadAn=      0 IRanWt=     -1 IRanGd=            0 ICorTp=0
 Leave Link  301 at Sun Sep 13 11:18:56 2015, MaxMem=  671088640 cpu:       0.1
 (Enter /share/apps/g09/l302.exe)
 Do NDO integrals.
 NPDir=0 NMtPBC=     1 NCelOv=     1 NCel=       1 NClECP=     1 NCelD=      1
         NCelK=      1 NCelE2=     1 NClLst=     1 CellRange=     0.0.
 One-electron integrals computed using PRISM.
 NBasis=    38 RedAO= F  NBF=    38
 NBsUse=    38 1.00D-04 NBFU=    38
 Leave Link  302 at Sun Sep 13 11:18:59 2015, MaxMem=  671088640 cpu:       0.2
 (Enter /share/apps/g09/l303.exe)
 DipDrv:  MaxL=1.
 Leave Link  303 at Sun Sep 13 11:19:00 2015, MaxMem=  671088640 cpu:       0.0
 (Enter /share/apps/g09/l401.exe)
 Simple Huckel Guess.
 Initial guess orbital symmetries:
       Occupied  (A) (A) (A) (A) (A) (A) (A) (A) (A) (A) (A) (A)
                 (A) (A) (A) (A) (A) (A) (A)
       Virtual   (A) (A) (A) (A) (A) (A) (A) (A) (A) (A) (A) (A)
                 (A) (A) (A) (A) (A) (A) (A)
 The electronic state of the initial guess is 1-A.
 Leave Link  401 at Sun Sep 13 11:19:00 2015, MaxMem=  671088640 cpu:       0.1
 (Enter /share/apps/g09/l502.exe)
 Closed shell SCF:
 Requested convergence on RMS density matrix=1.00D-08 within 128 cycles.
 Requested convergence on MAX density matrix=1.00D-06.
 Requested convergence on             energy=1.00D-06.
 No special actions if energy rises.
 Using DIIS extrapolation, IDIIS=  1040.
 Overlap will be assumed to be unity.
 Two-electron integral symmetry not used.
 Keep J ints in memory in canonical form, NReq=884654.
 IEnd=       81865 IEndB=       81865 NGot=   671088640 MDV=   671022095
 LenX=   671022095 LenY=   671020210
 Symmetry not used in FoFDir.
 MinBra= 0 MaxBra= 1 Meth=40.
 IRaf=       0 NMat=   1 IRICut=       1 DoRegI=T DoRafI=F ISym2E= 0 JSym2E=0.

 Cycle   1  Pass 1  IDiag  1:
 E= 0.720502284384565E-01
 DIIS: error= 2.22D-02 at cycle   1 NSaved=   1.
 NSaved= 1 IEnMin= 1 EnMin= 0.720502284384565E-01 IErMin= 1 ErrMin= 2.22D-02
 ErrMax= 2.22D-02 EMaxC= 1.00D-01 BMatC= 4.23D-02 BMatP= 4.23D-02
 IDIUse=3 WtCom= 7.78D-01 WtEn= 2.22D-01
 Coeff-Com:  0.100D+01
 Coeff-En:   0.100D+01
 Coeff:      0.100D+01
 GapD=    2.000 DampG=2.000 DampE=0.500 DampFc=1.0000 IDamp=-1.
 RMSDP=7.93D-03 MaxDP=6.69D-02              OVMax= 0.00D+00

 Cycle   2  Pass 1  IDiag  1:
 E=-0.364146951126827E-01 Delta-E=       -0.108464923551 Rises=F Damp=F
 DIIS: error= 5.52D-03 at cycle   2 NSaved=   2.
 NSaved= 2 IEnMin= 2 EnMin=-0.364146951126827E-01 IErMin= 2 ErrMin= 5.52D-03
 ErrMax= 5.52D-03 EMaxC= 1.00D-01 BMatC= 3.12D-03 BMatP= 4.23D-02
 IDIUse=3 WtCom= 9.45D-01 WtEn= 5.52D-02
 Coeff-Com: -0.328D+00 0.133D+01
 Coeff-En:   0.000D+00 0.100D+01
 Coeff:     -0.309D+00 0.131D+01
 RMSDP=3.06D-03 MaxDP=2.15D-02 DE=-1.08D-01 OVMax= 0.00D+00

 Cycle   3  Pass 1  IDiag  3:
 E=-0.468669420876324E-01 Delta-E=       -0.010452246975 Rises=F Damp=F
 DIIS: error= 1.62D-03 at cycle   3 NSaved=   3.
 NSaved= 3 IEnMin= 3 EnMin=-0.468669420876324E-01 IErMin= 3 ErrMin= 1.62D-03
 ErrMax= 1.62D-03 EMaxC= 1.00D-01 BMatC= 1.86D-04 BMatP= 3.12D-03
 IDIUse=3 WtCom= 9.84D-01 WtEn= 1.62D-02
 Coeff-Com:  0.271D+00-0.118D+01 0.191D+01
 Coeff-En:   0.000D+00 0.000D+00 0.100D+01
 Coeff:      0.267D+00-0.116D+01 0.189D+01
 Gap=     0.548 Goal=   None    Shift=    0.000
 RMSDP=1.43D-03 MaxDP=1.18D-02 DE=-1.05D-02 OVMax= 0.00D+00

 Cycle   4  Pass 1  IDiag  3:
 E=-0.481771680728684E-01 Delta-E=       -0.001310225985 Rises=F Damp=F
 DIIS: error= 4.72D-04 at cycle   4 NSaved=   4.
 NSaved= 4 IEnMin= 4 EnMin=-0.481771680728684E-01 IErMin= 4 ErrMin= 4.72D-04
 ErrMax= 4.72D-04 EMaxC= 1.00D-01 BMatC= 1.71D-05 BMatP= 1.86D-04
 IDIUse=3 WtCom= 9.95D-01 WtEn= 4.72D-03
 Coeff-Com: -0.139D+00 0.615D+00-0.128D+01 0.180D+01
 Coeff-En:   0.000D+00 0.000D+00 0.000D+00 0.100D+01
 Coeff:     -0.138D+00 0.612D+00-0.127D+01 0.180D+01
 Gap=     0.549 Goal=   None    Shift=    0.000
 RMSDP=5.70D-04 MaxDP=4.24D-03 DE=-1.31D-03 OVMax= 0.00D+00

 Cycle   5  Pass 1  IDiag  3:
 E=-0.483102669366531E-01 Delta-E=       -0.000133098864 Rises=F Damp=F
 DIIS: error= 1.37D-04 at cycle   5 NSaved=   5.
 NSaved= 5 IEnMin= 5 EnMin=-0.483102669366531E-01 IErMin= 5 ErrMin= 1.37D-04
 ErrMax= 1.37D-04 EMaxC= 1.00D-01 BMatC= 4.51D-07 BMatP= 1.71D-05
 IDIUse=3 WtCom= 9.99D-01 WtEn= 1.37D-03
 Coeff-Com:  0.644D-01-0.288D+00 0.626D+00-0.991D+00 0.159D+01
 Coeff-En:   0.000D+00 0.000D+00 0.000D+00 0.000D+00 0.100D+01
 Coeff:      0.643D-01-0.287D+00 0.626D+00-0.989D+00 0.159D+01
 Gap=     0.548 Goal=   None    Shift=    0.000
 RMSDP=6.77D-05 MaxDP=6.59D-04 DE=-1.33D-04 OVMax= 0.00D+00

 Cycle   6  Pass 1  IDiag  3:
 E=-0.483129101403392E-01 Delta-E=       -0.000002643204 Rises=F Damp=F
 DIIS: error= 2.59D-05 at cycle   6 NSaved=   6.
 NSaved= 6 IEnMin= 6 EnMin=-0.483129101403392E-01 IErMin= 6 ErrMin= 2.59D-05
 ErrMax= 2.59D-05 EMaxC= 1.00D-01 BMatC= 1.60D-08 BMatP= 4.51D-07
 IDIUse=1 WtCom= 1.00D+00 WtEn= 0.00D+00
 Coeff-Com: -0.485D-02 0.220D-01-0.519D-01 0.929D-01-0.286D+00 0.123D+01
 Coeff:     -0.485D-02 0.220D-01-0.519D-01 0.929D-01-0.286D+00 0.123D+01
 Gap=     0.548 Goal=   None    Shift=    0.000
 RMSDP=1.08D-05 MaxDP=1.11D-04 DE=-2.64D-06 OVMax= 0.00D+00

 Cycle   7  Pass 1  IDiag  3:
 E=-0.483129930417761E-01 Delta-E=       -0.000000082901 Rises=F Damp=F
 DIIS: error= 4.57D-06 at cycle   7 NSaved=   7.
 NSaved= 7 IEnMin= 7 EnMin=-0.483129930417761E-01 IErMin= 7 ErrMin= 4.57D-06
 ErrMax= 4.57D-06 EMaxC= 1.00D-01 BMatC= 1.01D-09 BMatP= 1.60D-08
 IDIUse=1 WtCom= 1.00D+00 WtEn= 0.00D+00
 Coeff-Com:  0.800D-03-0.376D-02 0.101D-01-0.206D-01 0.812D-01-0.548D+00
 Coeff-Com:  0.148D+01
 Coeff:      0.800D-03-0.376D-02 0.101D-01-0.206D-01 0.812D-01-0.548D+00
 Coeff:      0.148D+01
 Gap=     0.548 Goal=   None    Shift=    0.000
 RMSDP=2.85D-06 MaxDP=2.24D-05 DE=-8.29D-08 OVMax= 0.00D+00

 Cycle   8  Pass 1  IDiag  3:
 E=-0.483129979795365E-01 Delta-E=       -0.000000004938 Rises=F Damp=F
 DIIS: error= 4.05D-07 at cycle   8 NSaved=   8.
 NSaved= 8 IEnMin= 8 EnMin=-0.483129979795365E-01 IErMin= 8 ErrMin= 4.05D-07
 ErrMax= 4.05D-07 EMaxC= 1.00D-01 BMatC= 1.67D-11 BMatP= 1.01D-09
 IDIUse=1 WtCom= 1.00D+00 WtEn= 0.00D+00
 Coeff-Com:  0.200D-04-0.238D-04-0.621D-03 0.266D-02-0.190D-01 0.165D+00
 Coeff-Com: -0.519D+00 0.137D+01
 Coeff:      0.200D-04-0.238D-04-0.621D-03 0.266D-02-0.190D-01 0.165D+00
 Coeff:     -0.519D+00 0.137D+01
 Gap=     0.548 Goal=   None    Shift=    0.000
 RMSDP=3.15D-07 MaxDP=2.30D-06 DE=-4.94D-09 OVMax= 0.00D+00

 Cycle   9  Pass 1  IDiag  3:
 E=-0.483129980570425E-01 Delta-E=       -0.000000000078 Rises=F Damp=F
 DIIS: error= 1.50D-07 at cycle   9 NSaved=   9.
 NSaved= 9 IEnMin= 9 EnMin=-0.483129980570425E-01 IErMin= 9 ErrMin= 1.50D-07
 ErrMax= 1.50D-07 EMaxC= 1.00D-01 BMatC= 9.30D-13 BMatP= 1.67D-11
 IDIUse=1 WtCom= 1.00D+00 WtEn= 0.00D+00
 Coeff-Com: -0.923D-05 0.106D-04 0.293D-03-0.125D-02 0.901D-02-0.779D-01
 Coeff-Com:  0.247D+00-0.746D+00 0.157D+01
 Coeff:     -0.923D-05 0.106D-04 0.293D-03-0.125D-02 0.901D-02-0.779D-01
 Coeff:      0.247D+00-0.746D+00 0.157D+01
 Gap=     0.548 Goal=   None    Shift=    0.000
 RMSDP=8.67D-08 MaxDP=6.67D-07 DE=-7.75D-11 OVMax= 0.00D+00

 Cycle  10  Pass 1  IDiag  3:
 E=-0.483129980623573E-01 Delta-E=       -0.000000000005 Rises=F Damp=F
 DIIS: error= 4.44D-08 at cycle  10 NSaved=  10.
 NSaved=10 IEnMin=10 EnMin=-0.483129980623573E-01 IErMin=10 ErrMin= 4.44D-08
 ErrMax= 4.44D-08 EMaxC= 1.00D-01 BMatC= 7.74D-14 BMatP= 9.30D-13
 IDIUse=1 WtCom= 1.00D+00 WtEn= 0.00D+00
 Coeff-Com: -0.586D-05 0.421D-04-0.256D-03 0.813D-03-0.496D-02 0.411D-01
 Coeff-Com: -0.129D+00 0.396D+00-0.101D+01 0.171D+01
 Coeff:     -0.586D-05 0.421D-04-0.256D-03 0.813D-03-0.496D-02 0.411D-01
 Coeff:     -0.129D+00 0.396D+00-0.101D+01 0.171D+01
 Gap=     0.548 Goal=   None    Shift=    0.000
 RMSDP=3.01D-08 MaxDP=2.97D-07 DE=-5.31D-12 OVMax= 0.00D+00

 Cycle  11  Pass 1  IDiag  3:
 E=-0.483129980630679E-01 Delta-E=       -0.000000000001 Rises=F Damp=F
 DIIS: error= 1.11D-08 at cycle  11 NSaved=  11.
 NSaved=11 IEnMin=11 EnMin=-0.483129980630679E-01 IErMin=11 ErrMin= 1.11D-08
 ErrMax= 1.11D-08 EMaxC= 1.00D-01 BMatC= 6.35D-15 BMatP= 7.74D-14
 IDIUse=1 WtCom= 1.00D+00 WtEn= 0.00D+00
 Coeff-Com:  0.291D-05-0.220D-04 0.140D-03-0.449D-03 0.275D-02-0.229D-01
 Coeff-Com:  0.719D-01-0.221D+00 0.590D+00-0.119D+01 0.177D+01
 Coeff:      0.291D-05-0.220D-04 0.140D-03-0.449D-03 0.275D-02-0.229D-01
 Coeff:      0.719D-01-0.221D+00 0.590D+00-0.119D+01 0.177D+01
 Gap=     0.548 Goal=   None    Shift=    0.000
 RMSDP=9.57D-09 MaxDP=1.00D-07 DE=-7.11D-13 OVMax= 0.00D+00

 Cycle  12  Pass 2  IDiag  1:
 RMSDP=9.57D-09 MaxDP=1.00D-07 DE=-7.11D-13 OVMax= 0.00D+00

 SCF Done:  E(RPM6) = -0.483129980631E-01 A.U. after   12 cycles
             Convg  =    0.9572D-08             -V/T =  0.9991
 KE=-5.659299898749D+01 PE=-2.637850489456D+02 EE= 1.485055443119D+02
 Leave Link  502 at Sun Sep 13 11:19:03 2015, MaxMem=  671088640 cpu:       0.2
 (Enter /share/apps/g09/l601.exe)
 Copying SCF densities to generalized density rwf, IOpCl= 0 IROHF=0.

 **********************************************************************

            Population analysis using the SCF density.

 **********************************************************************

 Orbital symmetries:
       Occupied  (A) (A) (A) (A) (A) (A) (A) (A) (A) (A) (A) (A)
                 (A) (A) (A) (A) (A) (A) (A)
       Virtual   (A) (A) (A) (A) (A) (A) (A) (A) (A) (A) (A) (A)
                 (A) (A) (A) (A) (A) (A) (A)
 The electronic state is 1-A.
 Alpha  occ. eigenvalues --   -1.09839  -0.98200  -0.92876  -0.86164  -0.77996
 Alpha  occ. eigenvalues --   -0.71445  -0.57672  -0.57395  -0.54444  -0.53378
 Alpha  occ. eigenvalues --   -0.49968  -0.49612  -0.48667  -0.47110  -0.45689
 Alpha  occ. eigenvalues --   -0.44189  -0.41785  -0.41463  -0.40457
 Alpha virt. eigenvalues --    0.14383   0.15200   0.17040   0.17132   0.17808
 Alpha virt. eigenvalues --    0.22414   0.22447   0.22655   0.22773   0.22964
 Alpha virt. eigenvalues --    0.22964   0.23025   0.23090   0.24314   0.25003
 Alpha virt. eigenvalues --    0.26077   0.26288   0.26553   0.27186
          Condensed to atoms (all electrons):
              1          2          3          4          5          6
     1  C    4.497489   0.000000   0.000000   0.000000   0.000000   0.000000
     2  H    0.000000   0.848409   0.000000   0.000000   0.000000   0.000000
     3  H    0.000000   0.000000   0.848200   0.000000   0.000000   0.000000
     4  H    0.000000   0.000000   0.000000   0.851884   0.000000   0.000000
     5  C    0.000000   0.000000   0.000000   0.000000   4.021424   0.000000
     6  H    0.000000   0.000000   0.000000   0.000000   0.000000   0.886625
     7  C    0.000000   0.000000   0.000000   0.000000   0.000000   0.000000
     8  H    0.000000   0.000000   0.000000   0.000000   0.000000   0.000000
     9  C    0.000000   0.000000   0.000000   0.000000   0.000000   0.000000
    10  H    0.000000   0.000000   0.000000   0.000000   0.000000   0.000000
    11  H    0.000000   0.000000   0.000000   0.000000   0.000000   0.000000
    12  H    0.000000   0.000000   0.000000   0.000000   0.000000   0.000000
    13  C    0.000000   0.000000   0.000000   0.000000   0.000000   0.000000
    14  H    0.000000   0.000000   0.000000   0.000000   0.000000   0.000000
    15  H    0.000000   0.000000   0.000000   0.000000   0.000000   0.000000
    16  H    0.000000   0.000000   0.000000   0.000000   0.000000   0.000000
    17  C    0.000000   0.000000   0.000000   0.000000   0.000000   0.000000
    18  H    0.000000   0.000000   0.000000   0.000000   0.000000   0.000000
    19  H    0.000000   0.000000   0.000000   0.000000   0.000000   0.000000
    20  H    0.000000   0.000000   0.000000   0.000000   0.000000   0.000000
              7          8          9         10         11         12
     1  C    0.000000   0.000000   0.000000   0.000000   0.000000   0.000000
     2  H    0.000000   0.000000   0.000000   0.000000   0.000000   0.000000
     3  H    0.000000   0.000000   0.000000   0.000000   0.000000   0.000000
     4  H    0.000000   0.000000   0.000000   0.000000   0.000000   0.000000
     5  C    0.000000   0.000000   0.000000   0.000000   0.000000   0.000000
     6  H    0.000000   0.000000   0.000000   0.000000   0.000000   0.000000
     7  C    4.021439   0.000000   0.000000   0.000000   0.000000   0.000000
     8  H    0.000000   0.886621   0.000000   0.000000   0.000000   0.000000
     9  C    0.000000   0.000000   4.497459   0.000000   0.000000   0.000000
    10  H    0.000000   0.000000   0.000000   0.848204   0.000000   0.000000
    11  H    0.000000   0.000000   0.000000   0.000000   0.851884   0.000000
    12  H    0.000000   0.000000   0.000000   0.000000   0.000000   0.848422
    13  C    0.000000   0.000000   0.000000   0.000000   0.000000   0.000000
    14  H    0.000000   0.000000   0.000000   0.000000   0.000000   0.000000
    15  H    0.000000   0.000000   0.000000   0.000000   0.000000   0.000000
    16  H    0.000000   0.000000   0.000000   0.000000   0.000000   0.000000
    17  C    0.000000   0.000000   0.000000   0.000000   0.000000   0.000000
    18  H    0.000000   0.000000   0.000000   0.000000   0.000000   0.000000
    19  H    0.000000   0.000000   0.000000   0.000000   0.000000   0.000000
    20  H    0.000000   0.000000   0.000000   0.000000   0.000000   0.000000
             13         14         15         16         17         18
     1  C    0.000000   0.000000   0.000000   0.000000   0.000000   0.000000
     2  H    0.000000   0.000000   0.000000   0.000000   0.000000   0.000000
     3  H    0.000000   0.000000   0.000000   0.000000   0.000000   0.000000
     4  H    0.000000   0.000000   0.000000   0.000000   0.000000   0.000000
     5  C    0.000000   0.000000   0.000000   0.000000   0.000000   0.000000
     6  H    0.000000   0.000000   0.000000   0.000000   0.000000   0.000000
     7  C    0.000000   0.000000   0.000000   0.000000   0.000000   0.000000
     8  H    0.000000   0.000000   0.000000   0.000000   0.000000   0.000000
     9  C    0.000000   0.000000   0.000000   0.000000   0.000000   0.000000
    10  H    0.000000   0.000000   0.000000   0.000000   0.000000   0.000000
    11  H    0.000000   0.000000   0.000000   0.000000   0.000000   0.000000
    12  H    0.000000   0.000000   0.000000   0.000000   0.000000   0.000000
    13  C    4.497207   0.000000   0.000000   0.000000   0.000000   0.000000
    14  H    0.000000   0.851248   0.000000   0.000000   0.000000   0.000000
    15  H    0.000000   0.000000   0.848058   0.000000   0.000000   0.000000
    16  H    0.000000   0.000000   0.000000   0.849455   0.000000   0.000000
    17  C    0.000000   0.000000   0.000000   0.000000   4.497204   0.000000
    18  H    0.000000   0.000000   0.000000   0.000000   0.000000   0.848061
    19  H    0.000000   0.000000   0.000000   0.000000   0.000000   0.000000
    20  H    0.000000   0.000000   0.000000   0.000000   0.000000   0.000000
             19         20
     1  C    0.000000   0.000000
     2  H    0.000000   0.000000
     3  H    0.000000   0.000000
     4  H    0.000000   0.000000
     5  C    0.000000   0.000000
     6  H    0.000000   0.000000
     7  C    0.000000   0.000000
     8  H    0.000000   0.000000
     9  C    0.000000   0.000000
    10  H    0.000000   0.000000
    11  H    0.000000   0.000000
    12  H    0.000000   0.000000
    13  C    0.000000   0.000000
    14  H    0.000000   0.000000
    15  H    0.000000   0.000000
    16  H    0.000000   0.000000
    17  C    0.000000   0.000000
    18  H    0.000000   0.000000
    19  H    0.851239   0.000000
    20  H    0.000000   0.849469
 Mulliken atomic charges:
              1
     1  C   -0.497489
     2  H    0.151591
     3  H    0.151800
     4  H    0.148116
     5  C   -0.021424
     6  H    0.113375
     7  C   -0.021439
     8  H    0.113379
     9  C   -0.497459
    10  H    0.151796
    11  H    0.148116
    12  H    0.151578
    13  C   -0.497207
    14  H    0.148752
    15  H    0.151942
    16  H    0.150545
    17  C   -0.497204
    18  H    0.151939
    19  H    0.148761
    20  H    0.150531
 Sum of Mulliken atomic charges =   0.00000
 Mulliken charges with hydrogens summed into heavy atoms:
              1
     1  C   -0.045982
     5  C    0.091951
     7  C    0.091940
     9  C   -0.045969
    13  C   -0.045968
    17  C   -0.045972
 Sum of Mulliken charges with hydrogens summed into heavy atoms =   0.00000
 Charge=              0.0000 electrons
 Dipole moment (field-independent basis, Debye):
    X=              0.0000    Y=              0.0000    Z=              0.0000  Tot=              0.0000
 N-N= 1.718241906231D+02 E-N=-2.637850489673D+02  KE=-5.659299898749D+01
 Leave Link  601 at Sun Sep 13 11:19:05 2015, MaxMem=  671088640 cpu:       0.0
 (Enter /share/apps/g09/l701.exe)
 Compute integral first derivatives.
 ... and contract with generalized density number  0.
 Leave Link  701 at Sun Sep 13 11:19:08 2015, MaxMem=  671088640 cpu:       0.2
 (Enter /share/apps/g09/l702.exe)
 L702 exits ... SP integral derivatives will be done elsewhere.
 Leave Link  702 at Sun Sep 13 11:19:08 2015, MaxMem=  671088640 cpu:       0.1
 (Enter /share/apps/g09/l703.exe)
 Compute integral first derivatives, UseDBF=F ICtDFT=           0.
 Integral derivatives from FoFDir, PRISM(SPDF).
 Calling FoFJK, ICntrl=      2127 FMM=F ISym2X=0 I1Cent= 0 IOpClX= 0 NMat=1 NMatS=1 NMatT=0.
 FoFCou: FMM=F IPFlag=           0 FMFlag=      100000 FMFlg1=         800
         NFxFlg=           0 DoJE=F BraDBF=F KetDBF=F FulRan=T
         Omega=  0.000000  0.000000  1.000000  0.000000  0.000000 ICntrl=    2127 IOpCl=  0
         NMat0=    1 NMatS0=    1 NMatT0=    0 NMatD0=    1 NMtDS0=    0 NMtDT0=    0
         I1Cent=           0 NGrid=           0.
 Symmetry not used in FoFCou.
 Leave Link  703 at Sun Sep 13 11:19:10 2015, MaxMem=  671088640 cpu:       0.1
 (Enter /share/apps/g09/l716.exe)
 Dipole        = 6.26353438D-07 8.13975237D-06-1.58471399D-05
 ***** Axes restored to original set *****
 -------------------------------------------------------------------
 Center     Atomic                   Forces (Hartrees/Bohr)
 Number     Number              X              Y              Z
 -------------------------------------------------------------------
      1        6           0.003282712    0.007841678    0.013890593
      2        1           0.001340625   -0.014002230   -0.004020100
      3        1           0.002389844    0.003697682   -0.013871227
      4        1          -0.013569715   -0.002132070   -0.003341218
      5        6           0.001142191    0.010242604   -0.018375812
      6        1          -0.009052273   -0.010896604    0.018654596
      7        6          -0.001137830   -0.010245727    0.018379628
      8        1           0.009053844    0.010886336   -0.018661818
      9        6          -0.003283499   -0.007848216   -0.013888949
     10        1          -0.002403621   -0.003681150    0.013872900
     11        1           0.013570596    0.002115955    0.003353396
     12        1          -0.001321207    0.014004474    0.004002618
     13        6           0.002412298   -0.015803366    0.000251351
     14        1          -0.001336522    0.008552217    0.011353140
     15        1           0.004427235    0.011673087   -0.008276624
     16        1          -0.013240499    0.004823877   -0.003445184
     17        6          -0.002415094    0.015807852   -0.000247913
     18        1          -0.004413201   -0.011654848    0.008301611
     19        1           0.001306181   -0.008570325   -0.011348538
     20        1           0.013247935   -0.004811227    0.003417550
 -------------------------------------------------------------------
 Cartesian Forces:  Max     0.018661818 RMS     0.009622597
 Leave Link  716 at Sun Sep 13 11:19:12 2015, MaxMem=  671088640 cpu:       0.1
 (Enter /share/apps/g09/l103.exe)

 GradGradGradGradGradGradGradGradGradGradGradGradGradGradGradGradGradGrad
 Berny optimization.
 Internal  Forces:  Max     0.023389075 RMS     0.007077898
 Search for a local minimum.
 Step number   1 out of a maximum of  110
 All quantities printed in internal units (Hartrees-Bohrs-Radians)
 RMS Force = .70779D-02 SwitMx=.10000D-02 MixMth= 1
 Mixed Optimization -- RFO/linear search
 Second derivative matrix not updated -- first step.
     Eigenvalues ---    0.00237   0.00237   0.00237   0.00237   0.00237
     Eigenvalues ---    0.03921   0.03921   0.04607   0.04607   0.04607
     Eigenvalues ---    0.04607   0.05720   0.05720   0.05720   0.05720
     Eigenvalues ---    0.05720   0.05720   0.05720   0.05720   0.16000
     Eigenvalues ---    0.16000   0.16000   0.16000   0.16000   0.16000
     Eigenvalues ---    0.16000   0.16000   0.16000   0.16000   0.16000
     Eigenvalues ---    0.16000   0.16074   0.16074   0.16074   0.16074
     Eigenvalues ---    0.28519   0.28519   0.28519   0.28519   0.28519
     Eigenvalues ---    0.37230   0.37230   0.37230   0.37230   0.37230
     Eigenvalues ---    0.37230   0.37230   0.37230   0.37230   0.37230
     Eigenvalues ---    0.37230   0.37230   0.37230   0.372301000.00000
     Eigenvalues --- 1000.000001000.000001000.000001000.000001000.00000
     Eigenvalues --- 1000.000001000.000001000.000001000.000001000.00000
     Eigenvalues --- 1000.000001000.000001000.000001000.000001000.00000
     Eigenvalues --- 1000.000001000.000001000.000001000.000001000.00000
     Eigenvalues --- 1000.000001000.000001000.000001000.000001000.00000
     Eigenvalues --- 1000.000001000.000001000.000001000.000001000.00000
     Eigenvalues --- 1000.000001000.000001000.000001000.000001000.00000
     Eigenvalues --- 1000.000001000.000001000.000001000.000001000.00000
     Eigenvalues --- 1000.000001000.000001000.000001000.000001000.00000
 RFO step:  Lambda=-1.64687290D-02 EMin= 2.36824073D-03
 Linear search not attempted -- first point.
 Iteration  1 RMS(Cart)=  0.06277604 RMS(Int)=  0.00073909
 Iteration  2 RMS(Cart)=  0.00107869 RMS(Int)=  0.00026280
 Iteration  3 RMS(Cart)=  0.00000082 RMS(Int)=  0.00026280
 Variable       Old X    -DE/DX   Delta X   Delta X   Delta X     New X
                                 (Linear)    (Quad)   (Total)
    R1        2.02201   0.01365   0.00000   0.03511   0.03511   2.05711
    R2        2.02201   0.01387   0.00000   0.03567   0.03567   2.05767
    R3        2.02201   0.01357   0.00000   0.03490   0.03490   2.05691
    R4        2.91018   0.01035   0.00000   0.03430   0.03430   2.94448
    R5        2.02201   0.02339   0.00000   0.06016   0.06016   2.08216
    R6        2.91018   0.02222   0.00000   0.07365   0.07365   2.98383
    R7        2.91018   0.01129   0.00000   0.03743   0.03743   2.94760
    R8        2.02201   0.02339   0.00000   0.06016   0.06016   2.08217
    R9        2.91018   0.01034   0.00000   0.03429   0.03429   2.94447
   R10        2.91018   0.01127   0.00000   0.03736   0.03736   2.94754
   R11        2.02201   0.01386   0.00000   0.03566   0.03566   2.05767
   R12        2.02201   0.01357   0.00000   0.03491   0.03491   2.05691
   R13        2.02201   0.01364   0.00000   0.03510   0.03510   2.05710
   R14        2.02201   0.01364   0.00000   0.03509   0.03509   2.05710
   R15        2.02201   0.01400   0.00000   0.03601   0.03601   2.05802
   R16        2.02201   0.01374   0.00000   0.03533   0.03533   2.05734
   R17        2.02201   0.01400   0.00000   0.03601   0.03601   2.05802
   R18        2.02201   0.01365   0.00000   0.03510   0.03510   2.05711
   R19        2.02201   0.01373   0.00000   0.03533   0.03533   2.05733
    A1        1.91063  -0.00456   0.00000  -0.02220  -0.02279   1.88784
    A2        1.91063  -0.00493   0.00000  -0.03006  -0.03030   1.88033
    A3        1.91063   0.00574   0.00000   0.03326   0.03282   1.94345
    A4        1.91063  -0.00422   0.00000  -0.02542  -0.02561   1.88503
    A5        1.91063   0.00454   0.00000   0.02680   0.02639   1.93702
    A6        1.91063   0.00343   0.00000   0.01763   0.01741   1.92804
    A7        1.91063  -0.00005   0.00000  -0.01461  -0.01485   1.89579
    A8        1.91063   0.00289   0.00000   0.02765   0.02766   1.93830
    A9        1.91063  -0.00386   0.00000  -0.01542  -0.01630   1.89433
   A10        1.91063  -0.00195   0.00000  -0.01037  -0.01006   1.90057
   A11        1.91063  -0.00034   0.00000  -0.01698  -0.01719   1.89345
   A12        1.91063   0.00330   0.00000   0.02974   0.02976   1.94040
   A13        1.91063  -0.00195   0.00000  -0.01032  -0.01001   1.90062
   A14        1.91063   0.00290   0.00000   0.02767   0.02768   1.93831
   A15        1.91063   0.00329   0.00000   0.02967   0.02970   1.94033
   A16        1.91063  -0.00005   0.00000  -0.01459  -0.01482   1.89581
   A17        1.91063  -0.00033   0.00000  -0.01696  -0.01716   1.89347
   A18        1.91063  -0.00386   0.00000  -0.01547  -0.01635   1.89428
   A19        1.91063   0.00454   0.00000   0.02681   0.02640   1.93703
   A20        1.91063   0.00344   0.00000   0.01765   0.01742   1.92806
   A21        1.91063   0.00573   0.00000   0.03324   0.03280   1.94344
   A22        1.91063  -0.00423   0.00000  -0.02544  -0.02563   1.88501
   A23        1.91063  -0.00456   0.00000  -0.02219  -0.02277   1.88786
   A24        1.91063  -0.00493   0.00000  -0.03007  -0.03031   1.88032
   A25        1.91063   0.00397   0.00000   0.02270   0.02234   1.93297
   A26        1.91063   0.00574   0.00000   0.03408   0.03361   1.94424
   A27        1.91063   0.00444   0.00000   0.02346   0.02316   1.93380
   A28        1.91063  -0.00431   0.00000  -0.02097  -0.02148   1.88915
   A29        1.91063  -0.00470   0.00000  -0.02972  -0.02989   1.88074
   A30        1.91063  -0.00515   0.00000  -0.02955  -0.02994   1.88069
   A31        1.91063   0.00573   0.00000   0.03400   0.03352   1.94416
   A32        1.91063   0.00398   0.00000   0.02274   0.02238   1.93301
   A33        1.91063   0.00444   0.00000   0.02341   0.02311   1.93374
   A34        1.91063  -0.00431   0.00000  -0.02096  -0.02147   1.88916
   A35        1.91063  -0.00514   0.00000  -0.02950  -0.02989   1.88074
   A36        1.91063  -0.00469   0.00000  -0.02968  -0.02986   1.88078
    D1       -1.04914  -0.00022   0.00000   0.00008   0.00026  -1.04888
    D2        1.04526  -0.00087   0.00000  -0.00463  -0.00448   1.04077
    D3        3.13965   0.00258   0.00000   0.03928   0.03923  -3.10431
    D4        3.13965  -0.00093   0.00000  -0.00950  -0.00951   3.13014
    D5       -1.04914  -0.00158   0.00000  -0.01421  -0.01426  -1.06340
    D6        1.04526   0.00188   0.00000   0.02969   0.02945   1.07471
    D7        1.04526  -0.00064   0.00000  -0.00558  -0.00548   1.03978
    D8        3.13965  -0.00129   0.00000  -0.01029  -0.01022   3.12943
    D9       -1.04914   0.00217   0.00000   0.03362   0.03349  -1.01565
   D10        1.04682  -0.00052   0.00000   0.00730   0.00758   1.05441
   D11        3.14122   0.00000   0.00000   0.00005   0.00005   3.14127
   D12       -1.04757  -0.00093   0.00000   0.01621   0.01677  -1.03081
   D13        3.14122   0.00000   0.00000  -0.00002  -0.00002   3.14120
   D14       -1.04757   0.00052   0.00000  -0.00726  -0.00755  -1.05512
   D15        1.04682  -0.00042   0.00000   0.00890   0.00917   1.05599
   D16       -1.04757   0.00041   0.00000  -0.00896  -0.00922  -1.05679
   D17        1.04682   0.00093   0.00000  -0.01620  -0.01675   1.03007
   D18        3.14122   0.00000   0.00000  -0.00004  -0.00004   3.14118
   D19        2.78747  -0.00206   0.00000  -0.01645  -0.01638   2.77109
   D20       -1.40132  -0.00139   0.00000  -0.00736  -0.00717  -1.40849
   D21        0.69308  -0.00147   0.00000  -0.00832  -0.00811   0.68497
   D22        0.69308   0.00057   0.00000   0.02130   0.02109   0.71417
   D23        2.78747   0.00124   0.00000   0.03038   0.03030   2.81777
   D24       -1.40132   0.00117   0.00000   0.02942   0.02937  -1.37195
   D25       -1.40132   0.00114   0.00000   0.02618   0.02605  -1.37527
   D26        0.69308   0.00181   0.00000   0.03527   0.03526   0.72834
   D27        2.78747   0.00174   0.00000   0.03431   0.03433   2.82180
   D28        1.04712   0.00157   0.00000   0.01424   0.01429   1.06141
   D29        3.14151   0.00128   0.00000   0.01032   0.01025  -3.13143
   D30       -1.04728   0.00087   0.00000   0.00464   0.00450  -1.04278
   D31        3.14151   0.00093   0.00000   0.00961   0.00963  -3.13204
   D32       -1.04728   0.00064   0.00000   0.00569   0.00559  -1.04169
   D33        1.04711   0.00023   0.00000   0.00001  -0.00016   1.04695
   D34       -1.04728  -0.00187   0.00000  -0.02956  -0.02932  -1.07660
   D35        1.04712  -0.00216   0.00000  -0.03349  -0.03336   1.01376
   D36        3.14151  -0.00258   0.00000  -0.03916  -0.03911   3.10240
   D37       -0.69613  -0.00180   0.00000  -0.03510  -0.03509  -0.73122
   D38        1.39827  -0.00114   0.00000  -0.02603  -0.02590   1.37237
   D39       -2.79052  -0.00173   0.00000  -0.03412  -0.03413  -2.82465
   D40       -2.79052  -0.00123   0.00000  -0.03024  -0.03016  -2.82069
   D41       -0.69613  -0.00057   0.00000  -0.02117  -0.02097  -0.71710
   D42        1.39827  -0.00116   0.00000  -0.02926  -0.02921   1.36906
   D43        1.39827   0.00140   0.00000   0.00748   0.00729   1.40556
   D44       -2.79052   0.00207   0.00000   0.01655   0.01649  -2.77403
   D45       -0.69613   0.00147   0.00000   0.00846   0.00825  -0.68788
         Item               Value     Threshold  Converged?
 Maximum Force            0.023389     0.000450     NO 
 RMS     Force            0.007078     0.000300     NO 
 Maximum Displacement     0.152622     0.001800     NO 
 RMS     Displacement     0.063227     0.001200     NO 
 Predicted change in Energy=-8.845487D-03
 GradGradGradGradGradGradGradGradGradGradGradGradGradGradGradGradGradGrad

 Leave Link  103 at Sun Sep 13 11:19:14 2015, MaxMem=  671088640 cpu:       0.1
 (Enter /share/apps/g09/l202.exe)
                          Input orientation:                          
 ---------------------------------------------------------------------
 Center     Atomic      Atomic             Coordinates (Angstroms)
 Number     Number       Type             X           Y           Z
 ---------------------------------------------------------------------
      1          6           0       -4.018819    0.865595   -0.026883
      2          1           0       -3.696945   -0.173996   -0.052334
      3          1           0       -3.669036    1.351625   -0.936318
      4          1           0       -5.107192    0.876057   -0.037088
      5          6           0       -3.478748    1.595856    1.239163
      6          1           0       -3.864478    1.080981    2.133676
      7          6           0       -1.900388    1.573382    1.277013
      8          1           0       -1.514609    2.087894    0.382309
      9          6           0       -1.360280    2.304038    2.542812
     10          1           0       -1.711679    1.819509    3.452424
     11          1           0       -0.271935    2.291812    2.554040
     12          1           0       -1.680471    3.344175    2.566894
     13          6           0       -4.021577    3.058157    1.237562
     14          1           0       -3.994502    3.480712    2.240407
     15          1           0       -3.434398    3.699214    0.581578
     16          1           0       -5.053862    3.086930    0.892861
     17          6           0       -1.357685    0.111072    1.279208
     18          1           0       -1.943190   -0.528939    1.937704
     19          1           0       -1.387503   -0.312941    0.277051
     20          1           0       -0.324482    0.082754    1.621182
 ---------------------------------------------------------------------
                    Distance matrix (angstroms):
                    1          2          3          4          5
     1  C    0.000000
     2  H    1.088578   0.000000
     3  H    1.088873   1.763441   0.000000
     4  H    1.088470   1.758306   1.761554   0.000000
     5  C    1.558150   2.201806   2.197402   2.190606   0.000000
     6  H    2.176747   2.526198   3.088092   2.509691   1.101834
     7  C    2.586283   2.836919   2.841853   3.535069   1.578974
     8  H    2.816473   3.172956   2.631050   3.814589   2.198668
     9  C    3.967403   4.281990   4.282732   4.768057   2.586297
    10  H    4.282339   4.494293   4.828169   4.959466   2.840964
    11  H    4.768061   4.960251   4.960529   5.665511   3.535096
    12  H    4.282396   4.827427   4.494123   4.961325   2.837832
    13  C    2.531039   3.495144   2.786089   2.750428   1.559804
    14  H    3.461218   4.324592   3.838036   3.634459   2.195717
    15  H    2.956546   3.933513   2.805394   3.339341   2.204200
    16  H    2.617550   3.656262   2.876616   2.399085   2.196408
    17  C    3.058891   2.706733   3.433638   4.046806   2.589420
    18  H    3.180026   2.676171   3.843835   3.985565   2.713052
    19  H    2.899164   2.336947   3.073831   3.917714   2.990396
    20  H    4.120326   3.773603   4.397372   5.123817   3.519206
                    6          7          8          9         10
     6  H    0.000000
     7  C    2.198631   0.000000
     8  H    3.098877   1.101836   0.000000
     9  C    2.816783   1.558147   2.176766   0.000000
    10  H    2.630411   2.197408   3.088118   1.088872   0.000000
    11  H    3.814339   2.190616   2.510426   1.088471   1.761541
    12  H    3.174841   2.201787   2.525503   1.088572   1.763447
    13  C    2.176448   2.589509   2.820949   3.058575   3.431544
    14  H    2.405620   2.991881   3.397401   2.900886   3.072436
    15  H    3.073942   2.712191   2.514289   3.177251   3.839636
    16  H    2.641607   3.518920   3.712822   4.120414   4.396352
    17  C    2.820434   1.559769   2.176437   2.530968   2.786922
    18  H    2.514278   2.204109   3.074207   2.954944   2.804137
    19  H    3.394919   2.195721   2.406501   3.461646   3.838675
    20  H    3.713580   2.196338   2.640416   2.618469   2.879944
                   11         12         13         14         15
    11  H    0.000000
    12  H    1.758297   0.000000
    13  C    4.047248   2.707343   0.000000
    14  H    3.920377   2.340935   1.088569   0.000000
    15  H    3.984038   2.672788   1.089058   1.764418   0.000000
    16  H    5.124311   3.774696   1.088696   1.758747   1.759105
    17  C    2.749486   3.495037   3.972828   4.385337   4.204068
    18  H    3.336105   3.932673   4.204420   4.514068   4.684021
    19  H    3.635094   4.324779   4.384659   5.004300   4.514411
    20  H    2.398525   3.656494   4.761166   5.039703   4.881714
                   16         17         18         19         20
    16  H    0.000000
    17  C    4.760958   0.000000
    18  H    4.882877   1.089057   0.000000
    19  H    5.037910   1.088575   1.764429   0.000000
    20  H    5.650005   1.088695   1.759138   1.758771   0.000000
 Stoichiometry    C6H14
 Framework group  C1[X(C6H14)]
 Deg. of freedom    54
 Full point group                 C1      NOp   1
 Largest Abelian subgroup         C1      NOp   1
 Largest concise Abelian subgroup C1      NOp   1
                         Standard orientation:                         
 ---------------------------------------------------------------------
 Center     Atomic      Atomic             Coordinates (Angstroms)
 Number     Number       Type             X           Y           Z
 ---------------------------------------------------------------------
      1          6           0       -1.522345   -1.270538   -0.058942
      2          1           0       -1.004699   -2.181809    0.235385
      3          1           0       -1.684727   -1.304838   -1.135093
      4          1           0       -2.495664   -1.269975    0.428313
      5          6           0       -0.711162   -0.002302    0.342793
      6          1           0       -0.579911   -0.000553    1.436780
      7          6           0        0.711173    0.002118   -0.342847
      8          1           0        0.579975   -0.000041   -1.436842
      9          6           0        1.522200    1.270572    0.058506
     10          1           0        1.682867    1.306255    1.134868
     11          1           0        2.496310    1.268995   -0.427166
     12          1           0        1.005380    2.181635   -0.237891
     13          6           0       -1.534115    1.260474   -0.058625
     14          1           0       -1.211289    2.128926    0.512827
     15          1           0       -1.421317    1.488108   -1.117637
     16          1           0       -2.594304    1.109362    0.137395
     17          6           0        1.534251   -1.260367    0.059089
     18          1           0        1.423692   -1.485833    1.118801
     19          1           0        1.209600   -2.129746   -0.509926
     20          1           0        2.594070   -1.110228   -0.139653
 ---------------------------------------------------------------------
 Rotational constants (GHZ):      4.1243198      2.8211713      1.8373551
 Leave Link  202 at Sun Sep 13 11:19:14 2015, MaxMem=  671088640 cpu:       0.0
 (Enter /share/apps/g09/l301.exe)
 Standard basis: VSTO-6G (5D, 7F)
 Ernie: Thresh=  0.10000D-02 Tol=  0.10000D-05 Strict=F.
  NNHCO=     0 NNPyr=     0 NCTC=     0               EPep=         0.000000000
    EC=       131.573883017  ECS=         3.241393297   EG=         0.295482300
   EHC=         0.000500995  EAt=       -31.187935768  AtH=         2.796400831
 EPDDG=         0.000000000  ECC=       135.111259610 EAtT=        33.984336599
 There are    38 symmetry adapted basis functions of A   symmetry.
 Integral buffers will be    131072 words long.
 Regular integral format.
 Two-electron integral symmetry is turned off.
    38 basis functions,   228 primitive gaussians,    38 cartesian basis functions
    19 alpha electrons       19 beta electrons
       nuclear repulsion energy       169.0955962086 Hartrees.
 IExCor=    0 DFT=F Ex=HF Corr=None ExCW=0 ScaHFX=  1.000000
 ScaDFX=  1.000000  1.000000  1.000000  1.000000 ScalE2=  1.000000  1.000000
 IRadAn=      0 IRanWt=     -1 IRanGd=            0 ICorTp=0
 Leave Link  301 at Sun Sep 13 11:19:15 2015, MaxMem=  671088640 cpu:       0.1
 (Enter /share/apps/g09/l302.exe)
 Do NDO integrals.
 NPDir=0 NMtPBC=     1 NCelOv=     1 NCel=       1 NClECP=     1 NCelD=      1
         NCelK=      1 NCelE2=     1 NClLst=     1 CellRange=     0.0.
 One-electron integrals computed using PRISM.
 NBasis=    38 RedAO= F  NBF=    38
 NBsUse=    38 1.00D-04 NBFU=    38
 Leave Link  302 at Sun Sep 13 11:19:17 2015, MaxMem=  671088640 cpu:       0.2
 (Enter /share/apps/g09/l303.exe)
 DipDrv:  MaxL=1.
 Leave Link  303 at Sun Sep 13 11:19:18 2015, MaxMem=  671088640 cpu:       0.1
 (Enter /share/apps/g09/l401.exe)
 Initial guess read from the read-write file.
 B after Tr=     0.000000    0.000000    0.000000
         Rot=    1.000000    0.000000    0.000000    0.000000 Ang=   0.00 deg.
 Guess basis will be translated and rotated to current coordinates.
 Initial guess orbital symmetries:
       Occupied  (A) (A) (A) (A) (A) (A) (A) (A) (A) (A) (A) (A)
                 (A) (A) (A) (A) (A) (A) (A)
       Virtual   (A) (A) (A) (A) (A) (A) (A) (A) (A) (A) (A) (A)
                 (A) (A) (A) (A) (A) (A) (A)
 The electronic state of the initial guess is 1-A.
 Leave Link  401 at Sun Sep 13 11:19:18 2015, MaxMem=  671088640 cpu:       0.2
 (Enter /share/apps/g09/l502.exe)
 Closed shell SCF:
 Requested convergence on RMS density matrix=1.00D-08 within 128 cycles.
 Requested convergence on MAX density matrix=1.00D-06.
 Requested convergence on             energy=1.00D-06.
 No special actions if energy rises.
 Using DIIS extrapolation, IDIIS=  1040.
 Overlap will be assumed to be unity.
 Two-electron integral symmetry not used.
 Keep J ints in memory in canonical form, NReq=884654.
 IEnd=       81865 IEndB=       81865 NGot=   671088640 MDV=   671022095
 LenX=   671022095 LenY=   671020210
 Symmetry not used in FoFDir.
 MinBra= 0 MaxBra= 1 Meth=40.
 IRaf=       0 NMat=   1 IRICut=       1 DoRegI=T DoRafI=F ISym2E= 0 JSym2E=0.

 Cycle   1  Pass 1  IDiag  1:
 E=-0.530152278194009E-01
 DIIS: error= 1.93D-03 at cycle   1 NSaved=   1.
 NSaved= 1 IEnMin= 1 EnMin=-0.530152278194009E-01 IErMin= 1 ErrMin= 1.93D-03
 ErrMax= 1.93D-03 EMaxC= 1.00D-01 BMatC= 5.64D-04 BMatP= 5.64D-04
 IDIUse=3 WtCom= 9.81D-01 WtEn= 1.93D-02
 Coeff-Com:  0.100D+01
 Coeff-En:   0.100D+01
 Coeff:      0.100D+01
 GapD=    2.000 DampG=2.000 DampE=1.000 DampFc=2.0000 IDamp=-1.
 RMSDP=1.05D-03 MaxDP=6.21D-03              OVMax= 0.00D+00

 Cycle   2  Pass 1  IDiag  3:
 E=-0.547921093640866E-01 Delta-E=       -0.001776881545 Rises=F Damp=F
 DIIS: error= 8.72D-04 at cycle   2 NSaved=   2.
 NSaved= 2 IEnMin= 2 EnMin=-0.547921093640866E-01 IErMin= 2 ErrMin= 8.72D-04
 ErrMax= 8.72D-04 EMaxC= 1.00D-01 BMatC= 7.59D-05 BMatP= 5.64D-04
 IDIUse=3 WtCom= 9.91D-01 WtEn= 8.72D-03
 Coeff-Com: -0.470D+00 0.147D+01
 Coeff-En:   0.000D+00 0.100D+01
 Coeff:     -0.466D+00 0.147D+01
 Gap=     0.545 Goal=   None    Shift=    0.000
 RMSDP=6.41D-04 MaxDP=4.05D-03 DE=-1.78D-03 OVMax= 0.00D+00

 Cycle   3  Pass 1  IDiag  3:
 E=-0.551395582002954E-01 Delta-E=       -0.000347448836 Rises=F Damp=F
 DIIS: error= 1.84D-04 at cycle   3 NSaved=   3.
 NSaved= 3 IEnMin= 3 EnMin=-0.551395582002954E-01 IErMin= 3 ErrMin= 1.84D-04
 ErrMax= 1.84D-04 EMaxC= 1.00D-01 BMatC= 3.15D-06 BMatP= 7.59D-05
 IDIUse=3 WtCom= 9.98D-01 WtEn= 1.84D-03
 Coeff-Com:  0.187D+00-0.720D+00 0.153D+01
 Coeff-En:   0.000D+00 0.000D+00 0.100D+01
 Coeff:      0.187D+00-0.719D+00 0.153D+01
 Gap=     0.545 Goal=   None    Shift=    0.000
 RMSDP=1.71D-04 MaxDP=1.01D-03 DE=-3.47D-04 OVMax= 0.00D+00

 Cycle   4  Pass 1  IDiag  3:
 E=-0.551564144508632E-01 Delta-E=       -0.000016856251 Rises=F Damp=F
 DIIS: error= 1.67D-05 at cycle   4 NSaved=   4.
 NSaved= 4 IEnMin= 4 EnMin=-0.551564144508632E-01 IErMin= 4 ErrMin= 1.67D-05
 ErrMax= 1.67D-05 EMaxC= 1.00D-01 BMatC= 2.99D-08 BMatP= 3.15D-06
 IDIUse=1 WtCom= 1.00D+00 WtEn= 0.00D+00
 Coeff-Com: -0.637D-01 0.251D+00-0.578D+00 0.139D+01
 Coeff:     -0.637D-01 0.251D+00-0.578D+00 0.139D+01
 Gap=     0.545 Goal=   None    Shift=    0.000
 RMSDP=1.35D-05 MaxDP=7.61D-05 DE=-1.69D-05 OVMax= 0.00D+00

 Cycle   5  Pass 1  IDiag  3:
 E=-0.551565463918848E-01 Delta-E=       -0.000000131941 Rises=F Damp=F
 DIIS: error= 2.85D-06 at cycle   5 NSaved=   5.
 NSaved= 5 IEnMin= 5 EnMin=-0.551565463918848E-01 IErMin= 5 ErrMin= 2.85D-06
 ErrMax= 2.85D-06 EMaxC= 1.00D-01 BMatC= 7.70D-10 BMatP= 2.99D-08
 IDIUse=1 WtCom= 1.00D+00 WtEn= 0.00D+00
 Coeff-Com:  0.228D-01-0.906D-01 0.213D+00-0.579D+00 0.143D+01
 Coeff:      0.228D-01-0.906D-01 0.213D+00-0.579D+00 0.143D+01
 Gap=     0.545 Goal=   None    Shift=    0.000
 RMSDP=2.21D-06 MaxDP=1.68D-05 DE=-1.32D-07 OVMax= 0.00D+00

 Cycle   6  Pass 1  IDiag  3:
 E=-0.551565500258846E-01 Delta-E=       -0.000000003634 Rises=F Damp=F
 DIIS: error= 5.74D-07 at cycle   6 NSaved=   6.
 NSaved= 6 IEnMin= 6 EnMin=-0.551565500258846E-01 IErMin= 6 ErrMin= 5.74D-07
 ErrMax= 5.74D-07 EMaxC= 1.00D-01 BMatC= 2.55D-11 BMatP= 7.70D-10
 IDIUse=1 WtCom= 1.00D+00 WtEn= 0.00D+00
 Coeff-Com: -0.768D-02 0.306D-01-0.723D-01 0.200D+00-0.588D+00 0.144D+01
 Coeff:     -0.768D-02 0.306D-01-0.723D-01 0.200D+00-0.588D+00 0.144D+01
 Gap=     0.545 Goal=   None    Shift=    0.000
 RMSDP=4.44D-07 MaxDP=3.69D-06 DE=-3.63D-09 OVMax= 0.00D+00

 Cycle   7  Pass 1  IDiag  3:
 E=-0.551565501595235E-01 Delta-E=       -0.000000000134 Rises=F Damp=F
 DIIS: error= 1.16D-07 at cycle   7 NSaved=   7.
 NSaved= 7 IEnMin= 7 EnMin=-0.551565501595235E-01 IErMin= 7 ErrMin= 1.16D-07
 ErrMax= 1.16D-07 EMaxC= 1.00D-01 BMatC= 1.07D-12 BMatP= 2.55D-11
 IDIUse=1 WtCom= 1.00D+00 WtEn= 0.00D+00
 Coeff-Com:  0.220D-02-0.878D-02 0.209D-01-0.583D-01 0.178D+00-0.544D+00
 Coeff-Com:  0.141D+01
 Coeff:      0.220D-02-0.878D-02 0.209D-01-0.583D-01 0.178D+00-0.544D+00
 Coeff:      0.141D+01
 Gap=     0.545 Goal=   None    Shift=    0.000
 RMSDP=8.97D-08 MaxDP=6.07D-07 DE=-1.34D-10 OVMax= 0.00D+00

 Cycle   8  Pass 1  IDiag  3:
 E=-0.551565501657194E-01 Delta-E=       -0.000000000006 Rises=F Damp=F
 DIIS: error= 3.81D-08 at cycle   8 NSaved=   8.
 NSaved= 8 IEnMin= 8 EnMin=-0.551565501657194E-01 IErMin= 8 ErrMin= 3.81D-08
 ErrMax= 3.81D-08 EMaxC= 1.00D-01 BMatC= 9.98D-14 BMatP= 1.07D-12
 IDIUse=1 WtCom= 1.00D+00 WtEn= 0.00D+00
 Coeff-Com: -0.360D-03 0.145D-02-0.354D-02 0.101D-01-0.329D-01 0.126D+00
 Coeff-Com: -0.575D+00 0.147D+01
 Coeff:     -0.360D-03 0.145D-02-0.354D-02 0.101D-01-0.329D-01 0.126D+00
 Coeff:     -0.575D+00 0.147D+01
 Gap=     0.545 Goal=   None    Shift=    0.000
 RMSDP=3.06D-08 MaxDP=2.52D-07 DE=-6.20D-12 OVMax= 0.00D+00

 Cycle   9  Pass 1  IDiag  3:
 E=-0.551565501666573E-01 Delta-E=       -0.000000000001 Rises=F Damp=F
 DIIS: error= 1.67D-08 at cycle   9 NSaved=   9.
 NSaved= 9 IEnMin= 9 EnMin=-0.551565501666573E-01 IErMin= 9 ErrMin= 1.67D-08
 ErrMax= 1.67D-08 EMaxC= 1.00D-01 BMatC= 1.23D-14 BMatP= 9.98D-14
 IDIUse=1 WtCom= 1.00D+00 WtEn= 0.00D+00
 Coeff-Com:  0.527D-04-0.223D-03 0.579D-03-0.175D-02 0.663D-02-0.340D-01
 Coeff-Com:  0.235D+00-0.946D+00 0.174D+01
 Coeff:      0.527D-04-0.223D-03 0.579D-03-0.175D-02 0.663D-02-0.340D-01
 Coeff:      0.235D+00-0.946D+00 0.174D+01
 Gap=     0.545 Goal=   None    Shift=    0.000
 RMSDP=1.34D-08 MaxDP=1.30D-07 DE=-9.38D-13 OVMax= 0.00D+00

 Cycle  10  Pass 1  IDiag  3:
 E=-0.551565501662878E-01 Delta-E=        0.000000000000 Rises=F Damp=F
 DIIS: error= 3.73D-09 at cycle  10 NSaved=  10.
 NSaved=10 IEnMin= 9 EnMin=-0.551565501666573E-01 IErMin=10 ErrMin= 3.73D-09
 ErrMax= 3.73D-09 EMaxC= 1.00D-01 BMatC= 6.92D-16 BMatP= 1.23D-14
 IDIUse=1 WtCom= 1.00D+00 WtEn= 0.00D+00
 Coeff-Com: -0.673D-05 0.324D-04-0.998D-04 0.339D-03-0.162D-02 0.107D-01
 Coeff-Com: -0.909D-01 0.419D+00-0.966D+00 0.163D+01
 Coeff:     -0.673D-05 0.324D-04-0.998D-04 0.339D-03-0.162D-02 0.107D-01
 Coeff:     -0.909D-01 0.419D+00-0.966D+00 0.163D+01
 Gap=     0.545 Goal=   None    Shift=    0.000
 RMSDP=3.16D-09 MaxDP=3.16D-08 DE= 3.69D-13 OVMax= 0.00D+00

 Cycle  11  Pass 2  IDiag  1:
 RMSDP=3.16D-09 MaxDP=3.16D-08 DE= 3.69D-13 OVMax= 0.00D+00

 SCF Done:  E(RPM6) = -0.551565501663E-01 A.U. after   11 cycles
             Convg  =    0.3162D-08             -V/T =  0.9990
 KE=-5.634338221823D+01 PE=-2.589783616377D+02 EE= 1.461709910972D+02
 Leave Link  502 at Sun Sep 13 11:19:24 2015, MaxMem=  671088640 cpu:       0.7
 (Enter /share/apps/g09/l701.exe)
 Compute integral first derivatives.
 ... and contract with generalized density number  0.
 Leave Link  701 at Sun Sep 13 11:19:24 2015, MaxMem=  671088640 cpu:       0.1
 (Enter /share/apps/g09/l702.exe)
 L702 exits ... SP integral derivatives will be done elsewhere.
 Leave Link  702 at Sun Sep 13 11:19:25 2015, MaxMem=  671088640 cpu:       0.0
 (Enter /share/apps/g09/l703.exe)
 Compute integral first derivatives, UseDBF=F ICtDFT=           0.
 Integral derivatives from FoFDir, PRISM(SPDF).
 Calling FoFJK, ICntrl=      2127 FMM=F ISym2X=0 I1Cent= 0 IOpClX= 0 NMat=1 NMatS=1 NMatT=0.
 FoFCou: FMM=F IPFlag=           0 FMFlag=      100000 FMFlg1=         800
         NFxFlg=           0 DoJE=F BraDBF=F KetDBF=F FulRan=T
         Omega=  0.000000  0.000000  1.000000  0.000000  0.000000 ICntrl=    2127 IOpCl=  0
         NMat0=    1 NMatS0=    1 NMatT0=    0 NMatD0=    1 NMtDS0=    0 NMtDT0=    0
         I1Cent=           0 NGrid=           0.
 Symmetry not used in FoFCou.
 Leave Link  703 at Sun Sep 13 11:19:25 2015, MaxMem=  671088640 cpu:       0.1
 (Enter /share/apps/g09/l716.exe)
 Dipole        =-3.51594452D-06 1.69702606D-05 1.34339669D-05
 ***** Axes restored to original set *****
 -------------------------------------------------------------------
 Center     Atomic                   Forces (Hartrees/Bohr)
 Number     Number              X              Y              Z
 -------------------------------------------------------------------
      1        6           0.007447971    0.007252258    0.013269155
      2        1           0.000863840   -0.002172284    0.000031346
      3        1           0.000853068    0.000839040   -0.002059388
      4        1          -0.002714728   -0.000084561   -0.000237754
      5        6           0.007238718    0.008235816   -0.014596927
      6        1          -0.000819381   -0.002315771    0.003615066
      7        6          -0.007243074   -0.008218182    0.014598995
      8        1           0.000817348    0.002313006   -0.003615884
      9        6          -0.007447835   -0.007252625   -0.013268002
     10        1          -0.000854267   -0.000836981    0.002059049
     11        1           0.002715192    0.000082405    0.000240017
     12        1          -0.000864976    0.002173916   -0.000032857
     13        6           0.007447264   -0.015318227    0.000801111
     14        1           0.000468350    0.001245623    0.002106747
     15        1           0.000978171    0.001127864   -0.001525980
     16        1          -0.002537576    0.000269544   -0.000482664
     17        6          -0.007443396    0.015308201   -0.000805632
     18        1          -0.000974904   -0.001130999    0.001528697
     19        1          -0.000468935   -0.001247764   -0.002103119
     20        1           0.002539148   -0.000270279    0.000478023
 -------------------------------------------------------------------
 Cartesian Forces:  Max     0.015318227 RMS     0.005665981
 Leave Link  716 at Sun Sep 13 11:19:27 2015, MaxMem=  671088640 cpu:       0.0
 (Enter /share/apps/g09/l103.exe)

 GradGradGradGradGradGradGradGradGradGradGradGradGradGradGradGradGradGrad
 Berny optimization.
 Using GEDIIS/GDIIS optimizer.
 Internal  Forces:  Max     0.019253403 RMS     0.003597503
 Search for a local minimum.
 Step number   2 out of a maximum of  110
 All quantities printed in internal units (Hartrees-Bohrs-Radians)
 RMS Force = .35975D-02 SwitMx=.10000D-02 MixMth= 1
 Mixed Optimization -- RFO/linear search
 Update second derivatives using D2CorX and points    1    2
 DE= -6.84D-03 DEPred=-8.85D-03 R= 7.74D-01
 SS=  1.41D+00  RLast= 2.74D-01 DXNew= 5.0454D-01 8.2260D-01
 Trust test= 7.74D-01 RLast= 2.74D-01 DXMaxT set to 5.05D-01
 Use linear search instead of GDIIS.
     Eigenvalues ---    0.00237   0.00237   0.00237   0.00237   0.00237
     Eigenvalues ---    0.03658   0.03714   0.04511   0.04512   0.04834
     Eigenvalues ---    0.04913   0.05397   0.05398   0.05399   0.05409
     Eigenvalues ---    0.05482   0.05487   0.05498   0.05498   0.14880
     Eigenvalues ---    0.16000   0.16000   0.16000   0.16000   0.16000
     Eigenvalues ---    0.16000   0.16000   0.16000   0.16000   0.16000
     Eigenvalues ---    0.16008   0.16159   0.16160   0.16674   0.16862
     Eigenvalues ---    0.27382   0.28519   0.28519   0.28519   0.29017
     Eigenvalues ---    0.37225   0.37230   0.37230   0.37230   0.37230
     Eigenvalues ---    0.37230   0.37230   0.37230   0.37230   0.37230
     Eigenvalues ---    0.37230   0.37230   0.37230   0.479821000.00000
     Eigenvalues --- 1000.000001000.000001000.000001000.000001000.00000
     Eigenvalues --- 1000.000001000.000001000.000001000.000001000.00000
     Eigenvalues --- 1000.000001000.000001000.000001000.000001000.00000
     Eigenvalues --- 1000.000001000.000001000.000001000.000001000.00000
     Eigenvalues --- 1000.000001000.000001000.000001000.000001000.00000
     Eigenvalues --- 1000.000001000.000001000.000001000.000001000.00000
     Eigenvalues --- 1000.000001000.000001000.000001000.000001000.00000
     Eigenvalues --- 1000.000001000.000001000.000001000.000001000.00000
     Eigenvalues --- 1000.000001000.000001000.000001000.000001000.00000
 RFO step:  Lambda=-3.31451195D-03 EMin= 2.36662406D-03
 Quartic linear search produced a step of -0.13042.
 Iteration  1 RMS(Cart)=  0.02699995 RMS(Int)=  0.00030016
 Iteration  2 RMS(Cart)=  0.00031527 RMS(Int)=  0.00002871
 Iteration  3 RMS(Cart)=  0.00000008 RMS(Int)=  0.00002871
 Variable       Old X    -DE/DX   Delta X   Delta X   Delta X     New X
                                 (Linear)    (Quad)   (Total)
    R1        2.05711   0.00233  -0.00458   0.01673   0.01215   2.06926
    R2        2.05767   0.00237  -0.00465   0.01700   0.01235   2.07002
    R3        2.05691   0.00272  -0.00455   0.01755   0.01300   2.06991
    R4        2.94448  -0.01391  -0.00447  -0.03069  -0.03516   2.90931
    R5        2.08216   0.00430  -0.00785   0.02938   0.02154   2.10370
    R6        2.98383  -0.01925  -0.00961  -0.03403  -0.04364   2.94019
    R7        2.94760  -0.01410  -0.00488  -0.03024  -0.03512   2.91248
    R8        2.08217   0.00430  -0.00785   0.02938   0.02154   2.10371
    R9        2.94447  -0.01391  -0.00447  -0.03069  -0.03516   2.90931
   R10        2.94754  -0.01408  -0.00487  -0.03021  -0.03508   2.91246
   R11        2.05767   0.00237  -0.00465   0.01700   0.01235   2.07002
   R12        2.05691   0.00272  -0.00455   0.01756   0.01300   2.06992
   R13        2.05710   0.00233  -0.00458   0.01673   0.01215   2.06925
   R14        2.05710   0.00244  -0.00458   0.01697   0.01239   2.06949
   R15        2.05802   0.00211  -0.00470   0.01652   0.01182   2.06984
   R16        2.05734   0.00257  -0.00461   0.01735   0.01274   2.07008
   R17        2.05802   0.00211  -0.00470   0.01652   0.01183   2.06985
   R18        2.05711   0.00244  -0.00458   0.01697   0.01239   2.06950
   R19        2.05733   0.00257  -0.00461   0.01735   0.01274   2.07007
    A1        1.88784  -0.00006   0.00297  -0.00904  -0.00600   1.88184
    A2        1.88033   0.00000   0.00395  -0.00962  -0.00565   1.87468
    A3        1.94345  -0.00038  -0.00428   0.00778   0.00355   1.94700
    A4        1.88503  -0.00016   0.00334  -0.00796  -0.00462   1.88041
    A5        1.93702   0.00018  -0.00344   0.00921   0.00581   1.94283
    A6        1.92804   0.00041  -0.00227   0.00831   0.00605   1.93409
    A7        1.89579  -0.00005   0.00194   0.00081   0.00274   1.89852
    A8        1.93830  -0.00123  -0.00361  -0.00027  -0.00387   1.93443
    A9        1.89433   0.00223   0.00213   0.00722   0.00945   1.90378
   A10        1.90057   0.00042   0.00131  -0.00780  -0.00653   1.89405
   A11        1.89345  -0.00004   0.00224   0.00003   0.00226   1.89570
   A12        1.94040  -0.00129  -0.00388   0.00006  -0.00382   1.93658
   A13        1.90062   0.00042   0.00131  -0.00781  -0.00654   1.89408
   A14        1.93831  -0.00124  -0.00361  -0.00031  -0.00392   1.93440
   A15        1.94033  -0.00128  -0.00387   0.00010  -0.00377   1.93656
   A16        1.89581  -0.00005   0.00193   0.00080   0.00272   1.89853
   A17        1.89347  -0.00004   0.00224   0.00005   0.00227   1.89574
   A18        1.89428   0.00223   0.00213   0.00722   0.00945   1.90374
[...]
 ! D10   D(1,5,7,8)             61.0177         -DE/DX =    0.0                 !
 ! D11   D(1,5,7,9)            179.9761         -DE/DX =    0.0                 !
 ! D12   D(1,5,7,17)           -57.944          -DE/DX =    0.0                 !
 ! D13   D(6,5,7,8)            179.9784         -DE/DX =    0.0                 !
 ! D14   D(6,5,7,9)            -61.0632         -DE/DX =    0.0                 !
 ! D15   D(6,5,7,17)            61.0167         -DE/DX =    0.0                 !
 ! D16   D(13,5,7,8)           -61.0621         -DE/DX =    0.0                 !
 ! D17   D(13,5,7,9)            57.8963         -DE/DX =    0.0                 !
 ! D18   D(13,5,7,17)          179.9762         -DE/DX =    0.0                 !
 ! D19   D(1,5,13,14)          174.2913         -DE/DX =    0.0                 !
 ! D20   D(1,5,13,15)          -65.2433         -DE/DX =    0.0                 !
 ! D21   D(1,5,13,16)           54.6028         -DE/DX =    0.0                 !
 ! D22   D(6,5,13,14)           56.3566         -DE/DX =    0.0                 !
 ! D23   D(6,5,13,15)          176.822          -DE/DX =    0.0                 !
 ! D24   D(6,5,13,16)          -63.3319         -DE/DX =    0.0                 !
 ! D25   D(7,5,13,14)          -62.5097         -DE/DX =    0.0                 !
 ! D26   D(7,5,13,15)           57.9557         -DE/DX =    0.0                 !
 ! D27   D(7,5,13,16)          177.8018         -DE/DX =    0.0                 !
 ! D28   D(5,7,9,10)            57.9071         -DE/DX =    0.0                 !
 ! D29   D(5,7,9,11)           177.7534         -DE/DX =    0.0                 !
 ! D30   D(5,7,9,12)           -62.5579         -DE/DX =    0.0                 !
 ! D31   D(8,7,9,10)           176.7728         -DE/DX =    0.0                 !
 ! D32   D(8,7,9,11)           -63.381          -DE/DX =    0.0                 !
 ! D33   D(8,7,9,12)            56.3077         -DE/DX =    0.0                 !
 ! D34   D(17,7,9,10)          -65.292          -DE/DX =    0.0                 !
 ! D35   D(17,7,9,11)           54.5542         -DE/DX =    0.0                 !
 ! D36   D(17,7,9,12)          174.2429         -DE/DX =    0.0                 !
 ! D37   D(5,7,17,18)          -57.9775         -DE/DX =    0.0                 !
 ! D38   D(5,7,17,19)           62.4875         -DE/DX =    0.0                 !
 ! D39   D(5,7,17,20)         -177.8234         -DE/DX =    0.0                 !
 ! D40   D(8,7,17,18)         -176.845          -DE/DX =    0.0                 !
 ! D41   D(8,7,17,19)          -56.3801         -DE/DX =    0.0                 !
 ! D42   D(8,7,17,20)           63.3091         -DE/DX =    0.0                 !
 ! D43   D(9,7,17,18)           65.2212         -DE/DX =    0.0                 !
 ! D44   D(9,7,17,19)         -174.3138         -DE/DX =    0.0                 !
 ! D45   D(9,7,17,20)          -54.6247         -DE/DX =    0.0                 !
 --------------------------------------------------------------------------------
 GradGradGradGradGradGradGradGradGradGradGradGradGradGradGradGradGradGrad

 Largest change from initial coordinates is atom   15       0.288 Angstoms.
 Leave Link  103 at Sun Sep 13 11:20:42 2015, MaxMem=  671088640 cpu:       0.0
 (Enter /share/apps/g09/l202.exe)
                          Input orientation:                          
 ---------------------------------------------------------------------
 Center     Atomic      Atomic             Coordinates (Angstroms)
 Number     Number       Type             X           Y           Z
 ---------------------------------------------------------------------
      1          6           0       -3.964535    0.886593   -0.051638
      2          1           0       -3.686976   -0.172718   -0.057126
      3          1           0       -3.550979    1.342063   -0.957458
      4          1           0       -5.055785    0.936917   -0.129108
      5          6           0       -3.466111    1.595427    1.216193
      6          1           0       -3.871734    1.053805    2.105355
      7          6           0       -1.913063    1.573763    1.300014
      8          1           0       -1.507434    2.115041    0.410647
      9          6           0       -1.414637    2.283110    2.567542
     10          1           0       -1.828507    1.828270    3.473534
     11          1           0       -0.323416    2.232470    2.645238
     12          1           0       -1.691841    3.342513    2.572393
     13          6           0       -4.004177    3.033559    1.238104
     14          1           0       -3.755219    3.543212    2.174825
     15          1           0       -3.593578    3.630397    0.417014
     16          1           0       -5.094825    3.048655    1.139972
     17          6           0       -1.375008    0.135604    1.278698
     18          1           0       -1.785315   -0.460779    2.100265
     19          1           0       -1.624310   -0.374574    0.342349
     20          1           0       -0.284327    0.120559    1.376448
 ---------------------------------------------------------------------
                    Distance matrix (angstroms):
                    1          2          3          4          5
     1  C    0.000000
     2  H    1.095084   0.000000
     3  H    1.094984   1.767387   0.000000
     4  H    1.095154   1.763550   1.764866   0.000000
     5  C    1.535665   2.190082   2.190012   2.184155   0.000000
     6  H    2.165454   2.492953   3.093024   2.531494   1.117360
     7  C    2.551020   2.835276   2.798684   3.510650   1.555459
     8  H    2.785702   3.194223   2.577844   3.777580   2.180670
     9  C    3.913099   4.252470   4.227901   4.726745   2.551000
    10  H    4.228027   4.463566   4.778807   4.918218   2.798491
    11  H    4.726762   4.939761   4.918273   5.636557   3.510631
    12  H    4.252319   4.822010   4.462963   4.939749   2.835423
    13  C    2.504889   3.472528   2.808387   2.714969   1.535650
    14  H    3.472546   4.335251   3.833793   3.713806   2.190075
    15  H    2.808149   3.833694   2.669730   3.113058   2.189986
    16  H    2.715143   3.713802   3.113700   2.464046   2.184122
    17  C    3.006564   2.687877   3.345263   4.021460   2.551020
    18  H    3.345908   2.890265   3.964528   4.197574   2.799043
    19  H    2.687457   2.110668   2.889360   3.703688   2.834914
    20  H    4.021216   3.703940   4.196452   5.069513   3.510651
                    6          7          8          9         10
     6  H    0.000000
     7  C    2.180670   0.000000
     8  H    3.096478   1.117360   0.000000
     9  C    2.786061   1.535653   2.165423   0.000000
    10  H    2.578079   2.190003   3.092993   1.094984   0.000000
    11  H    3.777736   2.184148   2.531618   1.095155   1.764866
    12  H    3.195035   2.190060   2.492757   1.095080   1.767389
    13  C    2.165431   2.550999   2.786052   3.006043   3.344160
    14  H    2.493101   2.835060   3.194454   2.687082   2.887887
    15  H    3.093007   2.798851   2.578437   3.344808   3.963011
    16  H    2.531273   3.510631   3.777952   4.020920   4.195674
    17  C    2.785695   1.535662   2.165462   2.504890   2.808574
    18  H    2.578204   2.189996   3.093037   2.807967   2.669734
    19  H    3.193645   2.190095   2.493293   3.472568   3.833867
    20  H    3.777797   2.184130   2.531151   2.715315   3.114249
                   11         12         13         14         15
    11  H    0.000000
    12  H    1.763544   0.000000
    13  C    4.021166   2.687504   0.000000
    14  H    3.703594   2.110893   1.095067   0.000000
    15  H    4.196802   2.888795   1.094987   1.767379   0.000000
    16  H    5.069352   3.703847   1.095158   1.763534   1.764889
    17  C    2.714798   3.472506   3.913096   4.252087   4.228254
    18  H    3.112513   3.833624   4.228128   4.462962   4.779212
    19  H    3.713799   4.335249   4.252237   4.821596   4.463562
    20  H    2.464046   3.713808   4.726732   4.939540   4.918396
                   16         17         18         19         20
    16  H    0.000000
    17  C    4.726748   0.000000
    18  H    4.918449   1.094987   0.000000
    19  H    4.939552   1.095071   1.767377   0.000000
    20  H    5.636538   1.095156   1.764889   1.763539   0.000000
 Stoichiometry    C6H14
 Framework group  C1[X(C6H14)]
 Deg. of freedom    54
 Full point group                 C1      NOp   1
 Largest Abelian subgroup         C1      NOp   1
 Largest concise Abelian subgroup C1      NOp   1
                         Standard orientation:                         
 ---------------------------------------------------------------------
 Center     Atomic      Atomic             Coordinates (Angstroms)
 Number     Number       Type             X           Y           Z
 ---------------------------------------------------------------------
      1          6           0       -1.502213   -1.252399   -0.056871
      2          1           0       -1.013908   -2.167678    0.293887
      3          1           0       -1.619611   -1.334740   -1.142426
      4          1           0       -2.506196   -1.231863    0.380117
      5          6           0       -0.703140   -0.000099    0.332352
      6          1           0       -0.565629   -0.000309    1.441218
      7          6           0        0.703140   -0.000108   -0.332352
      8          1           0        0.565628   -0.000298   -1.441217
      9          6           0        1.501970    1.252477    0.056407
     10          1           0        1.619016    1.335452    1.141950
     11          1           0        2.506094    1.231786   -0.380252
     12          1           0        1.013692    2.167501   -0.295040
     13          6           0       -1.501956    1.252490   -0.056406
     14          1           0       -1.013269    2.167572    0.294282
     15          1           0       -1.619723    1.334990   -1.141911
     16          1           0       -2.505779    1.232184    0.380972
     17          6           0        1.502199   -1.252413    0.056870
     18          1           0        1.620315   -1.334282    1.142385
     19          1           0        1.013486   -2.167748   -0.293134
     20          1           0        2.505881   -1.232260   -0.380834
 ---------------------------------------------------------------------
 Rotational constants (GHZ):      4.1864891      2.9040165      1.8830325
 Leave Link  202 at Sun Sep 13 11:20:42 2015, MaxMem=  671088640 cpu:       0.0
 (Enter /share/apps/g09/l601.exe)
 Copying SCF densities to generalized density rwf, IOpCl= 0 IROHF=0.

 **********************************************************************

            Population analysis using the SCF density.

 **********************************************************************

 Orbital symmetries:
       Occupied  (A) (A) (A) (A) (A) (A) (A) (A) (A) (A) (A) (A)
                 (A) (A) (A) (A) (A) (A) (A)
       Virtual   (A) (A) (A) (A) (A) (A) (A) (A) (A) (A) (A) (A)
                 (A) (A) (A) (A) (A) (A) (A)
 The electronic state is 1-A.
 Alpha  occ. eigenvalues --   -1.06843  -0.96633  -0.90896  -0.84910  -0.77081
 Alpha  occ. eigenvalues --   -0.69608  -0.56960  -0.56760  -0.53610  -0.52883
 Alpha  occ. eigenvalues --   -0.48758  -0.48593  -0.47704  -0.46481  -0.45323
 Alpha  occ. eigenvalues --   -0.43311  -0.41341  -0.41176  -0.39585
 Alpha virt. eigenvalues --    0.15055   0.15912   0.17121   0.17813   0.18456
 Alpha virt. eigenvalues --    0.21811   0.22025   0.22121   0.22296   0.22452
 Alpha virt. eigenvalues --    0.22453   0.22658   0.22848   0.23663   0.24287
 Alpha virt. eigenvalues --    0.25566   0.25769   0.26074   0.26687
          Condensed to atoms (all electrons):
              1          2          3          4          5          6
     1  C    4.494860   0.000000   0.000000   0.000000   0.000000   0.000000
     2  H    0.000000   0.851830   0.000000   0.000000   0.000000   0.000000
     3  H    0.000000   0.000000   0.850458   0.000000   0.000000   0.000000
     4  H    0.000000   0.000000   0.000000   0.852836   0.000000   0.000000
     5  C    0.000000   0.000000   0.000000   0.000000   4.013647   0.000000
     6  H    0.000000   0.000000   0.000000   0.000000   0.000000   0.886390
     7  C    0.000000   0.000000   0.000000   0.000000   0.000000   0.000000
     8  H    0.000000   0.000000   0.000000   0.000000   0.000000   0.000000
     9  C    0.000000   0.000000   0.000000   0.000000   0.000000   0.000000
    10  H    0.000000   0.000000   0.000000   0.000000   0.000000   0.000000
    11  H    0.000000   0.000000   0.000000   0.000000   0.000000   0.000000
    12  H    0.000000   0.000000   0.000000   0.000000   0.000000   0.000000
    13  C    0.000000   0.000000   0.000000   0.000000   0.000000   0.000000
    14  H    0.000000   0.000000   0.000000   0.000000   0.000000   0.000000
    15  H    0.000000   0.000000   0.000000   0.000000   0.000000   0.000000
    16  H    0.000000   0.000000   0.000000   0.000000   0.000000   0.000000
    17  C    0.000000   0.000000   0.000000   0.000000   0.000000   0.000000
    18  H    0.000000   0.000000   0.000000   0.000000   0.000000   0.000000
    19  H    0.000000   0.000000   0.000000   0.000000   0.000000   0.000000
    20  H    0.000000   0.000000   0.000000   0.000000   0.000000   0.000000
              7          8          9         10         11         12
     1  C    0.000000   0.000000   0.000000   0.000000   0.000000   0.000000
     2  H    0.000000   0.000000   0.000000   0.000000   0.000000   0.000000
     3  H    0.000000   0.000000   0.000000   0.000000   0.000000   0.000000
     4  H    0.000000   0.000000   0.000000   0.000000   0.000000   0.000000
     5  C    0.000000   0.000000   0.000000   0.000000   0.000000   0.000000
     6  H    0.000000   0.000000   0.000000   0.000000   0.000000   0.000000
     7  C    4.013647   0.000000   0.000000   0.000000   0.000000   0.000000
     8  H    0.000000   0.886390   0.000000   0.000000   0.000000   0.000000
     9  C    0.000000   0.000000   4.494859   0.000000   0.000000   0.000000
    10  H    0.000000   0.000000   0.000000   0.850458   0.000000   0.000000
    11  H    0.000000   0.000000   0.000000   0.000000   0.852836   0.000000
    12  H    0.000000   0.000000   0.000000   0.000000   0.000000   0.851828
    13  C    0.000000   0.000000   0.000000   0.000000   0.000000   0.000000
    14  H    0.000000   0.000000   0.000000   0.000000   0.000000   0.000000
    15  H    0.000000   0.000000   0.000000   0.000000   0.000000   0.000000
    16  H    0.000000   0.000000   0.000000   0.000000   0.000000   0.000000
    17  C    0.000000   0.000000   0.000000   0.000000   0.000000   0.000000
    18  H    0.000000   0.000000   0.000000   0.000000   0.000000   0.000000
    19  H    0.000000   0.000000   0.000000   0.000000   0.000000   0.000000
    20  H    0.000000   0.000000   0.000000   0.000000   0.000000   0.000000
             13         14         15         16         17         18
     1  C    0.000000   0.000000   0.000000   0.000000   0.000000   0.000000
     2  H    0.000000   0.000000   0.000000   0.000000   0.000000   0.000000
     3  H    0.000000   0.000000   0.000000   0.000000   0.000000   0.000000
     4  H    0.000000   0.000000   0.000000   0.000000   0.000000   0.000000
     5  C    0.000000   0.000000   0.000000   0.000000   0.000000   0.000000
     6  H    0.000000   0.000000   0.000000   0.000000   0.000000   0.000000
     7  C    0.000000   0.000000   0.000000   0.000000   0.000000   0.000000
     8  H    0.000000   0.000000   0.000000   0.000000   0.000000   0.000000
     9  C    0.000000   0.000000   0.000000   0.000000   0.000000   0.000000
    10  H    0.000000   0.000000   0.000000   0.000000   0.000000   0.000000
    11  H    0.000000   0.000000   0.000000   0.000000   0.000000   0.000000
    12  H    0.000000   0.000000   0.000000   0.000000   0.000000   0.000000
    13  C    4.494861   0.000000   0.000000   0.000000   0.000000   0.000000
    14  H    0.000000   0.851822   0.000000   0.000000   0.000000   0.000000
    15  H    0.000000   0.000000   0.850457   0.000000   0.000000   0.000000
    16  H    0.000000   0.000000   0.000000   0.852841   0.000000   0.000000
    17  C    0.000000   0.000000   0.000000   0.000000   4.494861   0.000000
    18  H    0.000000   0.000000   0.000000   0.000000   0.000000   0.850456
    19  H    0.000000   0.000000   0.000000   0.000000   0.000000   0.000000
    20  H    0.000000   0.000000   0.000000   0.000000   0.000000   0.000000
             19         20
     1  C    0.000000   0.000000
     2  H    0.000000   0.000000
     3  H    0.000000   0.000000
     4  H    0.000000   0.000000
     5  C    0.000000   0.000000
     6  H    0.000000   0.000000
     7  C    0.000000   0.000000
     8  H    0.000000   0.000000
     9  C    0.000000   0.000000
    10  H    0.000000   0.000000
    11  H    0.000000   0.000000
    12  H    0.000000   0.000000
    13  C    0.000000   0.000000
    14  H    0.000000   0.000000
    15  H    0.000000   0.000000
    16  H    0.000000   0.000000
    17  C    0.000000   0.000000
    18  H    0.000000   0.000000
    19  H    0.851824   0.000000
    20  H    0.000000   0.852841
 Mulliken atomic charges:
              1
     1  C   -0.494860
     2  H    0.148170
     3  H    0.149542
     4  H    0.147164
     5  C   -0.013647
     6  H    0.113610
     7  C   -0.013647
     8  H    0.113610
     9  C   -0.494859
    10  H    0.149542
    11  H    0.147164
    12  H    0.148172
    13  C   -0.494861
    14  H    0.148178
    15  H    0.149543
    16  H    0.147159
    17  C   -0.494861
    18  H    0.149544
    19  H    0.148176
    20  H    0.147159
 Sum of Mulliken atomic charges =   0.00000
 Mulliken charges with hydrogens summed into heavy atoms:
              1
     1  C   -0.049984
     5  C    0.099963
     7  C    0.099963
     9  C   -0.049981
    13  C   -0.049980
    17  C   -0.049983
 Sum of Mulliken charges with hydrogens summed into heavy atoms =   0.00000
 Charge=              0.0000 electrons
 Dipole moment (field-independent basis, Debye):
    X=              0.0000    Y=              0.0001    Z=              0.0000  Tot=              0.0001
 N-N= 1.699955313949D+02 E-N=-2.607692547810D+02  KE=-5.636841919160D+01
 Leave Link  601 at Sun Sep 13 11:20:44 2015, MaxMem=  671088640 cpu:       0.0
 (Enter /share/apps/g09/l9999.exe)
 1\1\GINC-COMPUTE-0-14\FOpt\RPM6\ZDO\C6H14\HETANJIN\13-Sep-2015\0\\#p P
 M6 opt\\using PM6 to do opt and freq calc.\\0,1\C,-3.9645350002,0.8865
 933126,-0.0516383247\H,-3.6869763973,-0.1727177209,-0.0571257289\H,-3.
 5509788671,1.342063492,-0.9574579272\H,-5.0557854116,0.9369168268,-0.1
 291076877\C,-3.466111216,1.5954267859,1.2161931604\H,-3.8717344928,1.0
 538046851,2.1053545222\C,-1.9130630216,1.5737626017,1.3000143205\H,-1.
 5074341395,2.1150414859,0.4106465954\C,-1.4146370672,2.2831098662,2.56
 75422718\H,-1.8285074756,1.8282702545,3.4735344412\H,-0.3234158229,2.2
 324699117,2.6452382512\H,-1.6918408144,3.3425128686,2.5723925041\C,-4.
 0041769956,3.0335592366,1.2381040994\H,-3.7552192829,3.5432121884,2.17
 48251904\H,-3.5935781,3.6303966183,0.4170137815\H,-5.0948251558,3.0486
 549478,1.1399718689\C,-1.3750081261,0.1356037328,1.2786980137\H,-1.785
 3154968,-0.4607790937,2.1002651962\H,-1.6243095641,-0.3745740774,0.342
 3494885\H,-0.2843265424,0.1205588073,1.3764481531\\Version=EM64L-G09Re
 vA.01\State=1-A\HF=-0.0578608\RMSD=7.003e-09\RMSF=6.113e-06\Dipole=-0.
 0000007,0.0000292,0.0000169\PG=C01 [X(C6H14)]\\@


 I CLAIM NOT TO HAVE CONTROLLED EVENTS,
 BUT CONFESS PLAINLY THAT EVENTS HAVE CONTROLLED ME.

                                         A. LINCOLN
 Job cpu time:  0 days  0 hours  0 minutes 16.2 seconds.
 File lengths (MBytes):  RWF=      5 Int=      0 D2E=      0 Chk=      3 Scr=      1
 Normal termination of Gaussian 09 at Sun Sep 13 11:20:47 2015.
