 Entering Gaussian System, Link 0=/home/hetanjin/apps/g09D01/g09/g09
 Input=C6H14_5_r001_C1_2_opt_B3L.gjf
 Output=C6H14_5_r001_C1_2_opt_B3L.log
 Initial command:
 /home/hetanjin/apps/g09D01/g09/l1.exe "/state/partition1/Gau-3924.inp" -scrdir="/state/partition1/"
 Entering Link 1 = /home/hetanjin/apps/g09D01/g09/l1.exe PID=      3925.
  
 Copyright (c) 1988,1990,1992,1993,1995,1998,2003,2009,2013,
            Gaussian, Inc.  All Rights Reserved.
  
 This is part of the Gaussian(R) 09 program.  It is based on
 the Gaussian(R) 03 system (copyright 2003, Gaussian, Inc.),
 the Gaussian(R) 98 system (copyright 1998, Gaussian, Inc.),
 the Gaussian(R) 94 system (copyright 1995, Gaussian, Inc.),
 the Gaussian 92(TM) system (copyright 1992, Gaussian, Inc.),
 the Gaussian 90(TM) system (copyright 1990, Gaussian, Inc.),
 the Gaussian 88(TM) system (copyright 1988, Gaussian, Inc.),
 the Gaussian 86(TM) system (copyright 1986, Carnegie Mellon
 University), and the Gaussian 82(TM) system (copyright 1983,
 Carnegie Mellon University). Gaussian is a federally registered
 trademark of Gaussian, Inc.
  
 This software contains proprietary and confidential information,
 including trade secrets, belonging to Gaussian, Inc.
  
 This software is provided under written license and may be
 used, copied, transmitted, or stored only in accord with that
 written license.
  
 The following legend is applicable only to US Government
 contracts under FAR:
  
                    RESTRICTED RIGHTS LEGEND
  
 Use, reproduction and disclosure by the US Government is
 subject to restrictions as set forth in subparagraphs (a)
 and (c) of the Commercial Computer Software - Restricted
 Rights clause in FAR 52.227-19.
  
 Gaussian, Inc.
 340 Quinnipiac St., Bldg. 40, Wallingford CT 06492
  
  
 ---------------------------------------------------------------
 Warning -- This program may not be used in any manner that
 competes with the business of Gaussian, Inc. or will provide
 assistance to any competitor of Gaussian, Inc.  The licensee
 of this program is prohibited from giving any competitor of
 Gaussian, Inc. access to this program.  By using this program,
 the user acknowledges that Gaussian, Inc. is engaged in the
 business of creating and licensing software in the field of
 computational chemistry and represents and warrants to the
 licensee that it is not a competitor of Gaussian, Inc. and that
 it will not use this program in any manner prohibited above.
 ---------------------------------------------------------------
  

 Cite this work as:
 Gaussian 09, Revision D.01,
 M. J. Frisch, G. W. Trucks, H. B. Schlegel, G. E. Scuseria, 
 M. A. Robb, J. R. Cheeseman, G. Scalmani, V. Barone, B. Mennucci, 
 G. A. Petersson, H. Nakatsuji, M. Caricato, X. Li, H. P. Hratchian, 
 A. F. Izmaylov, J. Bloino, G. Zheng, J. L. Sonnenberg, M. Hada, 
 M. Ehara, K. Toyota, R. Fukuda, J. Hasegawa, M. Ishida, T. Nakajima, 
 Y. Honda, O. Kitao, H. Nakai, T. Vreven, J. A. Montgomery, Jr., 
 J. E. Peralta, F. Ogliaro, M. Bearpark, J. J. Heyd, E. Brothers, 
 K. N. Kudin, V. N. Staroverov, T. Keith, R. Kobayashi, J. Normand, 
 K. Raghavachari, A. Rendell, J. C. Burant, S. S. Iyengar, J. Tomasi, 
 M. Cossi, N. Rega, J. M. Millam, M. Klene, J. E. Knox, J. B. Cross, 
 V. Bakken, C. Adamo, J. Jaramillo, R. Gomperts, R. E. Stratmann, 
 O. Yazyev, A. J. Austin, R. Cammi, C. Pomelli, J. W. Ochterski, 
 R. L. Martin, K. Morokuma, V. G. Zakrzewski, G. A. Voth, 
 P. Salvador, J. J. Dannenberg, S. Dapprich, A. D. Daniels, 
 O. Farkas, J. B. Foresman, J. V. Ortiz, J. Cioslowski, 
 and D. J. Fox, Gaussian, Inc., Wallingford CT, 2013.
 
 ******************************************
 Gaussian 09:  ES64L-G09RevD.01 24-Apr-2013
                 7-Nov-2015 
 ******************************************
 %mem=6GB
 %nprocshared=4
 Will use up to    4 processors via shared memory.
 ----------------------------------------------
 #p B3LYP/6-31G(d) opt=tight int=ultrafine freq
 ----------------------------------------------
 1/7=10,14=-1,18=20,19=15,26=4,38=1/1,3;
 2/9=110,12=2,17=6,18=5,40=1/2;
 3/5=1,6=6,7=1,11=2,16=1,25=1,30=1,71=1,74=-5,75=-5/1,2,3;
 4//1;
 5/5=2,38=5/2;
 6/7=2,8=2,9=2,10=2,28=1/1;
 7//1,2,3,16;
 1/7=10,14=-1,18=20,19=15,26=4/3(2);
 2/9=110/2;
 99//99;
 2/9=110/2;
 3/5=1,6=6,7=1,11=2,16=1,25=1,30=1,71=1,74=-5,75=-5/1,2,3;
 4/5=5,16=3,69=1/1;
 5/5=2,38=5/2;
 7//1,2,3,16;
 1/7=10,14=-1,18=20,19=15,26=4/3(-5);
 2/9=110/2;
 6/7=2,8=2,9=2,10=2,19=2,28=1/1;
 99/9=1/99;
 Leave Link    1 at Sat Nov  7 02:12:02 2015, MaxMem=   805306368 cpu:         0.1
 (Enter /home/hetanjin/apps/g09D01/g09/l101.exe)
 ---------------------------------------------
 using B3LYP/6-31G(d) to do opt and freq calc.
 ---------------------------------------------
 Symbolic Z-matrix:
 Charge =  0 Multiplicity = 2
 C                     1.61803   0.98966  -0.00005 
 H                     1.59367   1.63643   0.88596 
 H                     2.57832   0.45929  -0.00002 
 C                     0.43635  -0.0005    0. 
 C                    -0.87859   0.82391  -0.00003 
 H                    -0.86571   1.48649  -0.87756 
 H                    -0.86571   1.48655   0.87745 
 C                    -2.19348   0.03388  0. 
 H                    -2.28903  -0.60502   0.88496 
 H                    -3.04849   0.71981  -0.00001 
 H                    -2.28904  -0.60506  -0.88493 
 C                     0.5289   -0.88501  -1.25865 
 H                    -0.26244  -1.64248  -1.28525 
 H                     0.44851  -0.28292  -2.17262 
 H                     1.4897   -1.41334  -1.29204 
 C                     0.52891  -0.8849    1.25873 
 H                     1.4897   -1.41324   1.29215 
 H                     0.44854  -0.28273   2.17265 
 H                    -0.26244  -1.64236   1.2854 
 
 NAtoms=     19 NQM=       19 NQMF=       0 NMMI=      0 NMMIF=      0
                NMic=       0 NMicF=      0.
                    Isotopes and Nuclear Properties:
 (Nuclear quadrupole moments (NQMom) in fm**2, nuclear magnetic moments (NMagM)
  in nuclear magnetons)

  Atom         1           2           3           4           5           6           7           8           9          10
 IAtWgt=          12           1           1          12          12           1           1          12           1           1
 AtmWgt=  12.0000000   1.0078250   1.0078250  12.0000000  12.0000000   1.0078250   1.0078250  12.0000000   1.0078250   1.0078250
 NucSpn=           0           1           1           0           0           1           1           0           1           1
 AtZEff=   0.0000000   0.0000000   0.0000000   0.0000000   0.0000000   0.0000000   0.0000000   0.0000000   0.0000000   0.0000000
 NQMom=    0.0000000   0.0000000   0.0000000   0.0000000   0.0000000   0.0000000   0.0000000   0.0000000   0.0000000   0.0000000
 NMagM=    0.0000000   2.7928460   2.7928460   0.0000000   0.0000000   2.7928460   2.7928460   0.0000000   2.7928460   2.7928460
 AtZNuc=   6.0000000   1.0000000   1.0000000   6.0000000   6.0000000   1.0000000   1.0000000   6.0000000   1.0000000   1.0000000

  Atom        11          12          13          14          15          16          17          18          19
 IAtWgt=           1          12           1           1           1          12           1           1           1
 AtmWgt=   1.0078250  12.0000000   1.0078250   1.0078250   1.0078250  12.0000000   1.0078250   1.0078250   1.0078250
 NucSpn=           1           0           1           1           1           0           1           1           1
 AtZEff=   0.0000000   0.0000000   0.0000000   0.0000000   0.0000000   0.0000000   0.0000000   0.0000000   0.0000000
 NQMom=    0.0000000   0.0000000   0.0000000   0.0000000   0.0000000   0.0000000   0.0000000   0.0000000   0.0000000
 NMagM=    2.7928460   0.0000000   2.7928460   2.7928460   2.7928460   0.0000000   2.7928460   2.7928460   2.7928460
 AtZNuc=   1.0000000   6.0000000   1.0000000   1.0000000   1.0000000   6.0000000   1.0000000   1.0000000   1.0000000
 Leave Link  101 at Sat Nov  7 02:12:02 2015, MaxMem=   805306368 cpu:         0.7
 (Enter /home/hetanjin/apps/g09D01/g09/l103.exe)

 GradGradGradGradGradGradGradGradGradGradGradGradGradGradGradGradGradGrad
 Berny optimization.
 Initialization pass.
                           ----------------------------
                           !    Initial Parameters    !
                           ! (Angstroms and Degrees)  !
 --------------------------                            --------------------------
 ! Name  Definition              Value          Derivative Info.                !
 --------------------------------------------------------------------------------
 ! R1    R(1,2)                  1.0972         estimate D2E/DX2                !
 ! R2    R(1,3)                  1.097          estimate D2E/DX2                !
 ! R3    R(1,4)                  1.5417         estimate D2E/DX2                !
 ! R4    R(4,5)                  1.552          estimate D2E/DX2                !
 ! R5    R(4,12)                 1.5411         estimate D2E/DX2                !
 ! R6    R(4,16)                 1.5411         estimate D2E/DX2                !
 ! R7    R(5,6)                  1.0996         estimate D2E/DX2                !
 ! R8    R(5,7)                  1.0996         estimate D2E/DX2                !
 ! R9    R(5,8)                  1.534          estimate D2E/DX2                !
 ! R10   R(8,9)                  1.0957         estimate D2E/DX2                !
 ! R11   R(8,10)                 1.0961         estimate D2E/DX2                !
 ! R12   R(8,11)                 1.0957         estimate D2E/DX2                !
 ! R13   R(12,13)                1.0958         estimate D2E/DX2                !
 ! R14   R(12,14)                1.0974         estimate D2E/DX2                !
 ! R15   R(12,15)                1.097          estimate D2E/DX2                !
 ! R16   R(16,17)                1.097          estimate D2E/DX2                !
 ! R17   R(16,18)                1.0974         estimate D2E/DX2                !
 ! R18   R(16,19)                1.0958         estimate D2E/DX2                !
 ! A1    A(2,1,3)              107.7219         estimate D2E/DX2                !
 ! A2    A(2,1,4)              111.195          estimate D2E/DX2                !
 ! A3    A(3,1,4)              111.1274         estimate D2E/DX2                !
 ! A4    A(1,4,5)              107.9534         estimate D2E/DX2                !
 ! A5    A(1,4,12)             108.8179         estimate D2E/DX2                !
 ! A6    A(1,4,16)             108.8179         estimate D2E/DX2                !
 ! A7    A(5,4,12)             110.8381         estimate D2E/DX2                !
 ! A8    A(5,4,16)             110.8381         estimate D2E/DX2                !
 ! A9    A(12,4,16)            109.5162         estimate D2E/DX2                !
 ! A10   A(4,5,6)              108.0687         estimate D2E/DX2                !
 ! A11   A(4,5,7)              108.0687         estimate D2E/DX2                !
 ! A12   A(4,5,8)              116.915          estimate D2E/DX2                !
 ! A13   A(6,5,7)              105.8765         estimate D2E/DX2                !
 ! A14   A(6,5,8)              108.6851         estimate D2E/DX2                !
 ! A15   A(7,5,8)              108.6852         estimate D2E/DX2                !
 ! A16   A(5,8,9)              112.0296         estimate D2E/DX2                !
 ! A17   A(5,8,10)             110.2629         estimate D2E/DX2                !
 ! A18   A(5,8,11)             112.0296         estimate D2E/DX2                !
 ! A19   A(9,8,10)             107.27           estimate D2E/DX2                !
 ! A20   A(9,8,11)             107.7399         estimate D2E/DX2                !
 ! A21   A(10,8,11)            107.27           estimate D2E/DX2                !
 ! A22   A(4,12,13)            111.913          estimate D2E/DX2                !
 ! A23   A(4,12,14)            111.1551         estimate D2E/DX2                !
 ! A24   A(4,12,15)            110.724          estimate D2E/DX2                !
 ! A25   A(13,12,14)           107.8276         estimate D2E/DX2                !
 ! A26   A(13,12,15)           107.389          estimate D2E/DX2                !
 ! A27   A(14,12,15)           107.6407         estimate D2E/DX2                !
 ! A28   A(4,16,17)            110.7241         estimate D2E/DX2                !
 ! A29   A(4,16,18)            111.155          estimate D2E/DX2                !
 ! A30   A(4,16,19)            111.913          estimate D2E/DX2                !
 ! A31   A(17,16,18)           107.6408         estimate D2E/DX2                !
 ! A32   A(17,16,19)           107.3889         estimate D2E/DX2                !
 ! A33   A(18,16,19)           107.8276         estimate D2E/DX2                !
 ! D1    D(2,1,4,5)             60.0094         estimate D2E/DX2                !
 ! D2    D(2,1,4,12)          -179.6279         estimate D2E/DX2                !
 ! D3    D(2,1,4,16)           -60.3531         estimate D2E/DX2                !
 ! D4    D(3,1,4,5)            179.9997         estimate D2E/DX2                !
 ! D5    D(3,1,4,12)           -59.6377         estimate D2E/DX2                !
 ! D6    D(3,1,4,16)            59.6371         estimate D2E/DX2                !
 ! D7    D(1,4,5,6)             57.0744         estimate D2E/DX2                !
 ! D8    D(1,4,5,7)            -57.0751         estimate D2E/DX2                !
 ! D9    D(1,4,5,8)            179.9996         estimate D2E/DX2                !
 ! D10   D(12,4,5,6)           -62.0124         estimate D2E/DX2                !
 ! D11   D(12,4,5,7)          -176.1619         estimate D2E/DX2                !
 ! D12   D(12,4,5,8)            60.9128         estimate D2E/DX2                !
 ! D13   D(16,4,5,6)           176.1612         estimate D2E/DX2                !
 ! D14   D(16,4,5,7)            62.0117         estimate D2E/DX2                !
 ! D15   D(16,4,5,8)           -60.9136         estimate D2E/DX2                !
 ! D16   D(1,4,12,13)          177.2395         estimate D2E/DX2                !
 ! D17   D(1,4,12,14)          -62.1296         estimate D2E/DX2                !
 ! D18   D(1,4,12,15)           57.4635         estimate D2E/DX2                !
 ! D19   D(5,4,12,13)          -64.1959         estimate D2E/DX2                !
 ! D20   D(5,4,12,14)           56.435          estimate D2E/DX2                !
 ! D21   D(5,4,12,15)          176.0282         estimate D2E/DX2                !
 ! D22   D(16,4,12,13)          58.4016         estimate D2E/DX2                !
 ! D23   D(16,4,12,14)         179.0325         estimate D2E/DX2                !
 ! D24   D(16,4,12,15)         -61.3744         estimate D2E/DX2                !
 ! D25   D(1,4,16,17)          -57.4641         estimate D2E/DX2                !
 ! D26   D(1,4,16,18)           62.129          estimate D2E/DX2                !
 ! D27   D(1,4,16,19)         -177.2401         estimate D2E/DX2                !
 ! D28   D(5,4,16,17)         -176.0287         estimate D2E/DX2                !
 ! D29   D(5,4,16,18)          -56.4356         estimate D2E/DX2                !
 ! D30   D(5,4,16,19)           64.1953         estimate D2E/DX2                !
 ! D31   D(12,4,16,17)          61.3738         estimate D2E/DX2                !
 ! D32   D(12,4,16,18)        -179.0331         estimate D2E/DX2                !
 ! D33   D(12,4,16,19)         -58.4022         estimate D2E/DX2                !
 ! D34   D(4,5,8,9)             60.6085         estimate D2E/DX2                !
 ! D35   D(4,5,8,10)           179.9992         estimate D2E/DX2                !
 ! D36   D(4,5,8,11)           -60.6101         estimate D2E/DX2                !
 ! D37   D(6,5,8,9)           -176.7844         estimate D2E/DX2                !
 ! D38   D(6,5,8,10)           -57.3938         estimate D2E/DX2                !
 ! D39   D(6,5,8,11)            61.9969         estimate D2E/DX2                !
 ! D40   D(7,5,8,9)            -61.9986         estimate D2E/DX2                !
 ! D41   D(7,5,8,10)            57.3921         estimate D2E/DX2                !
 ! D42   D(7,5,8,11)           176.7828         estimate D2E/DX2                !
 --------------------------------------------------------------------------------
 Trust Radius=3.00D-01 FncErr=1.00D-07 GrdErr=1.00D-06
 Number of steps in this run=    103 maximum allowed number of steps=    114.
 GradGradGradGradGradGradGradGradGradGradGradGradGradGradGradGradGradGrad

 Leave Link  103 at Sat Nov  7 02:12:02 2015, MaxMem=   805306368 cpu:         0.0
 (Enter /home/hetanjin/apps/g09D01/g09/l202.exe)
                          Input orientation:                          
 ---------------------------------------------------------------------
 Center     Atomic      Atomic             Coordinates (Angstroms)
 Number     Number       Type             X           Y           Z
 ---------------------------------------------------------------------
      1          6           0        1.618032    0.989661   -0.000046
      2          1           0        1.593672    1.636429    0.885962
      3          1           0        2.578316    0.459293   -0.000021
      4          6           0        0.436353   -0.000500    0.000000
      5          6           0       -0.878586    0.823914   -0.000030
      6          1           0       -0.865713    1.486486   -0.877558
      7          1           0       -0.865712    1.486551    0.877447
      8          6           0       -2.193477    0.033880   -0.000001
      9          1           0       -2.289029   -0.605019    0.884964
     10          1           0       -3.048488    0.719808   -0.000012
     11          1           0       -2.289041   -0.605062   -0.884933
     12          6           0        0.528897   -0.885012   -1.258652
     13          1           0       -0.262439   -1.642476   -1.285245
     14          1           0        0.448512   -0.282917   -2.172624
     15          1           0        1.489696   -1.413344   -1.292039
     16          6           0        0.528906   -0.884904    1.258727
     17          1           0        1.489700   -1.413241    1.292148
     18          1           0        0.448537   -0.282728    2.172647
     19          1           0       -0.262436   -1.642360    1.285396
 ---------------------------------------------------------------------
                    Distance matrix (angstroms):
                    1          2          3          4          5
     1  C    0.000000
     2  H    1.097229   0.000000
     3  H    1.097012   1.772044   0.000000
     4  C    1.541682   2.191769   2.190757   0.000000
     5  C    2.502114   2.749040   3.476078   1.552006   0.000000
     6  H    2.680644   3.030026   3.699531   2.162547   1.099647
     7  H    2.680649   2.463961   3.699532   2.162546   1.099645
     8  C    3.929519   4.206613   4.790719   2.630055   1.533979
     9  H    4.311771   4.483242   5.060337   2.928534   2.194177
    10  H    4.674316   4.814021   5.632832   3.558505   2.172398
    11  H    4.311773   4.820354   5.060344   2.928545   2.194176
    12  C    2.506931   3.477180   2.755254   1.541146   2.546677
    13  H    3.480812   4.348621   3.760202   2.199148   2.848595
    14  H    2.776207   3.788170   3.131636   2.190936   2.776046
    15  H    2.731327   3.749082   2.522137   2.185183   3.504764
    16  C    2.506930   2.762209   2.755248   1.541146   2.546677
    17  H    2.731332   3.078357   2.522136   2.185183   3.504763
    18  H    2.776200   2.578770   3.131619   2.190935   2.776047
    19  H    3.480812   3.788818   3.760201   2.199148   2.848591
                    6          7          8          9         10
     6  H    0.000000
     7  H    1.755005   0.000000
     8  C    2.154792   2.154792   0.000000
     9  H    3.083295   2.529931   1.095667   0.000000
    10  H    2.474346   2.474336   1.096148   1.764972   0.000000
    11  H    2.529919   3.083293   1.095666   1.769897   1.764972
    12  C    2.777440   3.483126   3.136859   3.551646   4.117925
    13  H    3.212562   3.851232   2.861980   3.145344   3.872245
    14  H    2.556398   3.763128   3.435223   4.116640   4.237300
    15  H    3.758824   4.320186   4.162882   4.435256   5.178299
    16  C    3.483126   2.777433   3.136866   2.856360   4.117921
    17  H    4.320186   3.758821   4.162884   3.885591   5.178294
    18  H    3.763127   2.556392   3.435241   3.042411   4.237300
    19  H    3.851232   3.212545   2.861983   2.311601   3.872234
                   11         12         13         14         15
    11  H    0.000000
    12  C    2.856364   0.000000
    13  H    2.311621   1.095752   0.000000
    14  H    3.042388   1.097417   1.772369   0.000000
    15  H    3.885603   1.096989   1.767067   1.771259   0.000000
    16  C    3.551678   2.517379   2.769826   3.484684   2.776468
    17  H    4.435281   2.776463   3.124979   3.790297   2.584187
    18  H    4.116677   3.484683   3.783044   4.345271   3.790297
    19  H    3.145384   2.769831   2.570641   3.783046   3.124994
                   16         17         18         19
    16  C    0.000000
    17  H    1.096988   0.000000
    18  H    1.097417   1.771259   0.000000
    19  H    1.095752   1.767066   1.772370   0.000000
 Stoichiometry    C6H13(2)
 Framework group  C1[X(C6H13)]
 Deg. of freedom    51
 Full point group                 C1      NOp   1
 Largest Abelian subgroup         C1      NOp   1
 Largest concise Abelian subgroup C1      NOp   1
                         Standard orientation:                         
 ---------------------------------------------------------------------
 Center     Atomic      Atomic             Coordinates (Angstroms)
 Number     Number       Type             X           Y           Z
 ---------------------------------------------------------------------
      1          6           0       -1.595736   -0.514929   -0.979685
      2          1           0       -1.562811   -1.607329   -1.077104
      3          1           0       -2.581203   -0.244824   -0.580521
      4          6           0       -0.465957   -0.002664   -0.064279
      5          6           0        0.888420   -0.423006   -0.694913
      6          1           0        0.932796   -0.011093   -1.713530
      7          1           0        0.885204   -1.516349   -0.812430
      8          6           0        2.161290   -0.013271    0.056760
      9          1           0        2.200449   -0.443513    1.063658
     10          1           0        3.049506   -0.363658   -0.481610
     11          1           0        2.248457    1.074504    0.154893
     12          6           0       -0.568844    1.531404    0.041449
     13          1           0        0.183696    1.945818    0.721609
     14          1           0       -0.433426    2.005922   -0.938765
     15          1           0       -1.553817    1.829118    0.421685
     16          6           0       -0.637116   -0.627742    1.333975
     17          1           0       -1.623897   -0.387326    1.748519
     18          1           0       -0.551281   -1.721003    1.292272
     19          1           0        0.113985   -0.259015    2.041477
 ---------------------------------------------------------------------
 Rotational constants (GHZ):      4.3973643      2.5387701      2.4969844
 Leave Link  202 at Sat Nov  7 02:12:02 2015, MaxMem=   805306368 cpu:         0.0
 (Enter /home/hetanjin/apps/g09D01/g09/l301.exe)
 Standard basis: 6-31G(d) (6D, 7F)
 Ernie: Thresh=  0.10000D-02 Tol=  0.10000D-05 Strict=F.
 There are   116 symmetry adapted cartesian basis functions of A   symmetry.
 There are   116 symmetry adapted basis functions of A   symmetry.
   116 basis functions,   220 primitive gaussians,   116 cartesian basis functions
    25 alpha electrons       24 beta electrons
       nuclear repulsion energy       254.3122845454 Hartrees.
 IExCor=  402 DFT=T Ex+Corr=B3LYP ExCW=0 ScaHFX=  0.200000
 ScaDFX=  0.800000  0.720000  1.000000  0.810000 ScalE2=  1.000000  1.000000
 IRadAn=      5 IRanWt=     -1 IRanGd=            0 ICorTp=0 IEmpDi=  4
 NAtoms=   19 NActive=   19 NUniq=   19 SFac= 1.00D+00 NAtFMM=   60 NAOKFM=F Big=F
 Integral buffers will be    131072 words long.
 Raffenetti 2 integral format.
 Two-electron integral symmetry is turned on.
 Leave Link  301 at Sat Nov  7 02:12:02 2015, MaxMem=   805306368 cpu:         0.2
 (Enter /home/hetanjin/apps/g09D01/g09/l302.exe)
 NPDir=0 NMtPBC=     1 NCelOv=     1 NCel=       1 NClECP=     1 NCelD=      1
         NCelK=      1 NCelE2=     1 NClLst=     1 CellRange=     0.0.
 One-electron integrals computed using PRISM.
 NBasis=   116 RedAO= T EigKep=  3.89D-03  NBF=   116
 NBsUse=   116 1.00D-06 EigRej= -1.00D+00 NBFU=   116
 Precomputing XC quadrature grid using
 IXCGrd= 4 IRadAn=           5 IRanWt=          -1 IRanGd=           0 AccXCQ= 0.00D+00.
 Generated NRdTot=       0 NPtTot=           0 NUsed=           0 NTot=          32
 NSgBfM=   116   116   116   116   116 MxSgAt=    19 MxSgA2=    19.
 Leave Link  302 at Sat Nov  7 02:12:03 2015, MaxMem=   805306368 cpu:         1.6
 (Enter /home/hetanjin/apps/g09D01/g09/l303.exe)
 DipDrv:  MaxL=1.
 Leave Link  303 at Sat Nov  7 02:12:03 2015, MaxMem=   805306368 cpu:         0.1
 (Enter /home/hetanjin/apps/g09D01/g09/l401.exe)
 ExpMin= 1.61D-01 ExpMax= 3.05D+03 ExpMxC= 4.57D+02 IAcc=3 IRadAn=         5 AccDes= 0.00D+00
 Harris functional with IExCor=  402 and IRadAn=       5 diagonalized for initial guess.
 HarFok:  IExCor=  402 AccDes= 0.00D+00 IRadAn=         5 IDoV= 1 UseB2=F ITyADJ=14
 ICtDFT=  3500011 ScaDFX=  1.000000  1.000000  1.000000  1.000000
 FoFCou: FMM=F IPFlag=           0 FMFlag=      100000 FMFlg1=           0
         NFxFlg=           0 DoJE=T BraDBF=F KetDBF=T FulRan=T
         wScrn=  0.000000 ICntrl=     500 IOpCl=  0 I1Cent=   200000004 NGrid=           0
         NMat0=    1 NMatS0=      1 NMatT0=    0 NMatD0=    1 NMtDS0=    0 NMtDT0=    0
 Petite list used in FoFCou.
 Harris En= -236.440027880244    
 JPrj=0 DoOrth=F DoCkMO=F.
 Initial guess <Sx>= 0.0000 <Sy>= 0.0000 <Sz>= 0.5000 <S**2>= 0.7500 S= 0.5000
 Leave Link  401 at Sat Nov  7 02:12:05 2015, MaxMem=   805306368 cpu:         7.4
 (Enter /home/hetanjin/apps/g09D01/g09/l502.exe)
 UHF open shell SCF:
 Using DIIS extrapolation, IDIIS=  1040.
 Integral symmetry usage will be decided dynamically.
 Keep R1 and R2 ints in memory in canonical form, NReq=47059932.
 IVT=       60514 IEndB=       60514 NGot=   805306368 MDV=   759189273
 LenX=   759189273 LenY=   759175376
 Requested convergence on RMS density matrix=1.00D-08 within 128 cycles.
 Requested convergence on MAX density matrix=1.00D-06.
 Requested convergence on             energy=1.00D-06.
 No special actions if energy rises.
 FoFCou: FMM=F IPFlag=           0 FMFlag=           0 FMFlg1=           0
         NFxFlg=           0 DoJE=F BraDBF=F KetDBF=F FulRan=T
         wScrn=  0.000000 ICntrl=     600 IOpCl=  0 I1Cent=           0 NGrid=           0
         NMat0=    1 NMatS0=   6786 NMatT0=    0 NMatD0=    1 NMtDS0=    0 NMtDT0=    0
 Symmetry not used in FoFCou.
 Integral accuracy reduced to 1.0D-05 until final iterations.

 Cycle   1  Pass 0  IDiag  1:
 E= -236.144634653967    
 DIIS: error= 5.40D-02 at cycle   1 NSaved=   1.
 NSaved= 1 IEnMin= 1 EnMin= -236.144634653967     IErMin= 1 ErrMin= 5.40D-02
 ErrMax= 5.40D-02  0.00D+00 EMaxC= 1.00D-01 BMatC= 9.15D-01 BMatP= 9.15D-01
 IDIUse=3 WtCom= 4.60D-01 WtEn= 5.40D-01
 Coeff-Com:  0.100D+01
 Coeff-En:   0.100D+01
 Coeff:      0.100D+01
 Gap=     0.274 Goal=   None    Shift=    0.000
 Gap=     0.214 Goal=   None    Shift=    0.000
 GapD=    0.214 DampG=1.000 DampE=0.500 DampFc=0.5000 IDamp=-1.
 Damping current iteration by 5.00D-01
 RMSDP=9.72D-03 MaxDP=1.43D-01              OVMax= 1.79D-01

 Cycle   2  Pass 0  IDiag  1:
 E= -236.256981111076     Delta-E=       -0.112346457109 Rises=F Damp=T
 DIIS: error= 8.54D-03 at cycle   2 NSaved=   2.
 NSaved= 2 IEnMin= 2 EnMin= -236.256981111076     IErMin= 2 ErrMin= 8.54D-03
 ErrMax= 8.54D-03  0.00D+00 EMaxC= 1.00D-01 BMatC= 4.17D-02 BMatP= 9.15D-01
 IDIUse=3 WtCom= 9.15D-01 WtEn= 8.54D-02
 Coeff-Com:  0.788D-01 0.921D+00
 Coeff-En:   0.133D+00 0.867D+00
 Coeff:      0.834D-01 0.917D+00
 Gap=     0.308 Goal=   None    Shift=    0.000
 Gap=     0.260 Goal=   None    Shift=    0.000
 RMSDP=1.74D-03 MaxDP=2.72D-02 DE=-1.12D-01 OVMax= 1.05D-01

 Cycle   3  Pass 0  IDiag  1:
 E= -236.398107754003     Delta-E=       -0.141126642927 Rises=F Damp=F
 DIIS: error= 2.99D-03 at cycle   3 NSaved=   3.
 NSaved= 3 IEnMin= 3 EnMin= -236.398107754003     IErMin= 3 ErrMin= 2.99D-03
 ErrMax= 2.99D-03  0.00D+00 EMaxC= 1.00D-01 BMatC= 8.58D-03 BMatP= 4.17D-02
 IDIUse=3 WtCom= 9.70D-01 WtEn= 2.99D-02
 Coeff-Com:  0.301D-02 0.260D+00 0.737D+00
 Coeff-En:   0.000D+00 0.000D+00 0.100D+01
 Coeff:      0.292D-02 0.252D+00 0.745D+00
 Gap=     0.311 Goal=   None    Shift=    0.000
 Gap=     0.237 Goal=   None    Shift=    0.000
 RMSDP=6.79D-04 MaxDP=1.54D-02 DE=-1.41D-01 OVMax= 1.56D-02

 Cycle   4  Pass 0  IDiag  1:
 E= -236.399479884776     Delta-E=       -0.001372130774 Rises=F Damp=F
 DIIS: error= 1.72D-03 at cycle   4 NSaved=   4.
 NSaved= 4 IEnMin= 4 EnMin= -236.399479884776     IErMin= 4 ErrMin= 1.72D-03
 ErrMax= 1.72D-03  0.00D+00 EMaxC= 1.00D-01 BMatC= 3.26D-03 BMatP= 8.58D-03
 IDIUse=3 WtCom= 9.83D-01 WtEn= 1.72D-02
 Coeff-Com: -0.525D-02 0.343D-01 0.388D+00 0.583D+00
 Coeff-En:   0.000D+00 0.000D+00 0.262D+00 0.738D+00
 Coeff:     -0.516D-02 0.337D-01 0.386D+00 0.585D+00
 Gap=     0.306 Goal=   None    Shift=    0.000
 Gap=     0.245 Goal=   None    Shift=    0.000
 RMSDP=2.43D-04 MaxDP=5.82D-03 DE=-1.37D-03 OVMax= 7.28D-03

 Cycle   5  Pass 0  IDiag  1:
 E= -236.400270130405     Delta-E=       -0.000790245628 Rises=F Damp=F
 DIIS: error= 2.43D-04 at cycle   5 NSaved=   5.
 NSaved= 5 IEnMin= 5 EnMin= -236.400270130405     IErMin= 5 ErrMin= 2.43D-04
 ErrMax= 2.43D-04  0.00D+00 EMaxC= 1.00D-01 BMatC= 6.18D-05 BMatP= 3.26D-03
 IDIUse=3 WtCom= 9.98D-01 WtEn= 2.43D-03
 Coeff-Com: -0.137D-02-0.279D-02 0.835D-01 0.190D+00 0.731D+00
 Coeff-En:   0.000D+00 0.000D+00 0.000D+00 0.000D+00 0.100D+01
 Coeff:     -0.137D-02-0.279D-02 0.833D-01 0.190D+00 0.731D+00
 Gap=     0.307 Goal=   None    Shift=    0.000
 Gap=     0.245 Goal=   None    Shift=    0.000
 RMSDP=4.17D-05 MaxDP=9.64D-04 DE=-7.90D-04 OVMax= 1.13D-03

 Cycle   6  Pass 0  IDiag  1:
 E= -236.400285638835     Delta-E=       -0.000015508431 Rises=F Damp=F
 DIIS: error= 8.06D-05 at cycle   6 NSaved=   6.
 NSaved= 6 IEnMin= 6 EnMin= -236.400285638835     IErMin= 6 ErrMin= 8.06D-05
 ErrMax= 8.06D-05  0.00D+00 EMaxC= 1.00D-01 BMatC= 5.15D-06 BMatP= 6.18D-05
 IDIUse=1 WtCom= 1.00D+00 WtEn= 0.00D+00
 Coeff-Com: -0.167D-03-0.265D-02 0.358D-02 0.258D-01 0.224D+00 0.749D+00
 Coeff:     -0.167D-03-0.265D-02 0.358D-02 0.258D-01 0.224D+00 0.749D+00
 Gap=     0.307 Goal=   None    Shift=    0.000
 Gap=     0.245 Goal=   None    Shift=    0.000
 RMSDP=1.72D-05 MaxDP=4.40D-04 DE=-1.55D-05 OVMax= 4.61D-04

 Cycle   7  Pass 0  IDiag  1:
 E= -236.400287232164     Delta-E=       -0.000001593328 Rises=F Damp=F
 DIIS: error= 4.08D-05 at cycle   7 NSaved=   7.
 NSaved= 7 IEnMin= 7 EnMin= -236.400287232164     IErMin= 7 ErrMin= 4.08D-05
 ErrMax= 4.08D-05  0.00D+00 EMaxC= 1.00D-01 BMatC= 1.39D-06 BMatP= 5.15D-06
 IDIUse=1 WtCom= 1.00D+00 WtEn= 0.00D+00
 Coeff-Com:  0.229D-03-0.367D-03-0.190D-01-0.359D-01-0.918D-01 0.316D+00
 Coeff-Com:  0.830D+00
 Coeff:      0.229D-03-0.367D-03-0.190D-01-0.359D-01-0.918D-01 0.316D+00
 Coeff:      0.830D+00
 Gap=     0.307 Goal=   None    Shift=    0.000
 Gap=     0.245 Goal=   None    Shift=    0.000
 RMSDP=7.48D-06 MaxDP=2.51D-04 DE=-1.59D-06 OVMax= 2.30D-04

 Initial convergence to 1.0D-05 achieved.  Increase integral accuracy.
 Cycle   8  Pass 1  IDiag  1:
 E= -236.400283467861     Delta-E=        0.000003764303 Rises=F Damp=F
 DIIS: error= 9.60D-06 at cycle   1 NSaved=   1.
 NSaved= 1 IEnMin= 1 EnMin= -236.400283467861     IErMin= 1 ErrMin= 9.60D-06
 ErrMax= 9.60D-06  0.00D+00 EMaxC= 1.00D-01 BMatC= 9.56D-08 BMatP= 9.56D-08
 IDIUse=1 WtCom= 1.00D+00 WtEn= 0.00D+00
 Coeff-Com:  0.100D+01
 Coeff:      0.100D+01
 Gap=     0.307 Goal=   None    Shift=    0.000
 Gap=     0.245 Goal=   None    Shift=    0.000
 RMSDP=7.48D-06 MaxDP=2.51D-04 DE= 3.76D-06 OVMax= 6.67D-05

 Cycle   9  Pass 1  IDiag  1:
 E= -236.400283491558     Delta-E=       -0.000000023697 Rises=F Damp=F
 DIIS: error= 6.70D-06 at cycle   2 NSaved=   2.
 NSaved= 2 IEnMin= 2 EnMin= -236.400283491558     IErMin= 2 ErrMin= 6.70D-06
 ErrMax= 6.70D-06  0.00D+00 EMaxC= 1.00D-01 BMatC= 5.44D-08 BMatP= 9.56D-08
 IDIUse=1 WtCom= 1.00D+00 WtEn= 0.00D+00
 Coeff-Com:  0.412D+00 0.588D+00
 Coeff:      0.412D+00 0.588D+00
 Gap=     0.307 Goal=   None    Shift=    0.000
 Gap=     0.245 Goal=   None    Shift=    0.000
 RMSDP=1.23D-06 MaxDP=2.66D-05 DE=-2.37D-08 OVMax= 2.93D-05

 Cycle  10  Pass 1  IDiag  1:
 E= -236.400283505352     Delta-E=       -0.000000013794 Rises=F Damp=F
 DIIS: error= 2.58D-06 at cycle   3 NSaved=   3.
 NSaved= 3 IEnMin= 3 EnMin= -236.400283505352     IErMin= 3 ErrMin= 2.58D-06
 ErrMax= 2.58D-06  0.00D+00 EMaxC= 1.00D-01 BMatC= 5.40D-09 BMatP= 5.44D-08
 IDIUse=1 WtCom= 1.00D+00 WtEn= 0.00D+00
 Coeff-Com: -0.130D-01 0.185D+00 0.828D+00
 Coeff:     -0.130D-01 0.185D+00 0.828D+00
 Gap=     0.307 Goal=   None    Shift=    0.000
 Gap=     0.245 Goal=   None    Shift=    0.000
 RMSDP=5.07D-07 MaxDP=1.26D-05 DE=-1.38D-08 OVMax= 1.46D-05

 Cycle  11  Pass 1  IDiag  1:
 E= -236.400283507187     Delta-E=       -0.000000001835 Rises=F Damp=F
 DIIS: error= 1.15D-06 at cycle   4 NSaved=   4.
 NSaved= 4 IEnMin= 4 EnMin= -236.400283507187     IErMin= 4 ErrMin= 1.15D-06
 ErrMax= 1.15D-06  0.00D+00 EMaxC= 1.00D-01 BMatC= 9.91D-10 BMatP= 5.40D-09
 IDIUse=1 WtCom= 1.00D+00 WtEn= 0.00D+00
 Coeff-Com: -0.805D-01-0.430D-01 0.299D+00 0.824D+00
 Coeff:     -0.805D-01-0.430D-01 0.299D+00 0.824D+00
 Gap=     0.307 Goal=   None    Shift=    0.000
 Gap=     0.245 Goal=   None    Shift=    0.000
 RMSDP=2.35D-07 MaxDP=5.62D-06 DE=-1.83D-09 OVMax= 6.45D-06

 Cycle  12  Pass 1  IDiag  1:
 E= -236.400283507582     Delta-E=       -0.000000000395 Rises=F Damp=F
 DIIS: error= 2.69D-07 at cycle   5 NSaved=   5.
 NSaved= 5 IEnMin= 5 EnMin= -236.400283507582     IErMin= 5 ErrMin= 2.69D-07
 ErrMax= 2.69D-07  0.00D+00 EMaxC= 1.00D-01 BMatC= 5.48D-11 BMatP= 9.91D-10
 IDIUse=1 WtCom= 1.00D+00 WtEn= 0.00D+00
 Coeff-Com: -0.105D-01-0.263D-01-0.485D-01 0.122D+00 0.964D+00
 Coeff:     -0.105D-01-0.263D-01-0.485D-01 0.122D+00 0.964D+00
 Gap=     0.307 Goal=   None    Shift=    0.000
 Gap=     0.245 Goal=   None    Shift=    0.000
 RMSDP=6.53D-08 MaxDP=2.46D-06 DE=-3.95D-10 OVMax= 2.26D-06

 Cycle  13  Pass 1  IDiag  1:
 E= -236.400283507603     Delta-E=       -0.000000000021 Rises=F Damp=F
 DIIS: error= 1.44D-07 at cycle   6 NSaved=   6.
 NSaved= 6 IEnMin= 6 EnMin= -236.400283507603     IErMin= 6 ErrMin= 1.44D-07
 ErrMax= 1.44D-07  0.00D+00 EMaxC= 1.00D-01 BMatC= 1.84D-11 BMatP= 5.48D-11
 IDIUse=1 WtCom= 1.00D+00 WtEn= 0.00D+00
 Coeff-Com:  0.290D-02-0.845D-02-0.541D-01-0.212D-01 0.480D+00 0.601D+00
 Coeff:      0.290D-02-0.845D-02-0.541D-01-0.212D-01 0.480D+00 0.601D+00
 Gap=     0.307 Goal=   None    Shift=    0.000
 Gap=     0.245 Goal=   None    Shift=    0.000
 RMSDP=2.20D-08 MaxDP=7.08D-07 DE=-2.09D-11 OVMax= 6.79D-07

 Cycle  14  Pass 1  IDiag  1:
 E= -236.400283507611     Delta-E=       -0.000000000008 Rises=F Damp=F
 DIIS: error= 2.80D-08 at cycle   7 NSaved=   7.
 NSaved= 7 IEnMin= 7 EnMin= -236.400283507611     IErMin= 7 ErrMin= 2.80D-08
 ErrMax= 2.80D-08  0.00D+00 EMaxC= 1.00D-01 BMatC= 4.66D-13 BMatP= 1.84D-11
 IDIUse=1 WtCom= 1.00D+00 WtEn= 0.00D+00
 Coeff-Com:  0.138D-02-0.109D-02-0.135D-01-0.131D-01 0.909D-01 0.190D+00
 Coeff-Com:  0.745D+00
 Coeff:      0.138D-02-0.109D-02-0.135D-01-0.131D-01 0.909D-01 0.190D+00
 Coeff:      0.745D+00
 Gap=     0.307 Goal=   None    Shift=    0.000
 Gap=     0.245 Goal=   None    Shift=    0.000
 RMSDP=4.70D-09 MaxDP=1.05D-07 DE=-7.79D-12 OVMax= 1.12D-07

 SCF Done:  E(UB3LYP) =  -236.400283508     A.U. after   14 cycles
            NFock= 14  Conv=0.47D-08     -V/T= 2.0103
 <Sx>= 0.0000 <Sy>= 0.0000 <Sz>= 0.5000 <S**2>= 0.7527 S= 0.5013
 <L.S>= 0.000000000000E+00
 KE= 2.339803885734D+02 PE=-1.054170440293D+03 EE= 3.294774836667D+02
 Annihilation of the first spin contaminant:
 S**2 before annihilation     0.7527,   after     0.7500
 Leave Link  502 at Sat Nov  7 02:12:47 2015, MaxMem=   805306368 cpu:       165.7
 (Enter /home/hetanjin/apps/g09D01/g09/l601.exe)
 Copying SCF densities to generalized density rwf, IOpCl= 1 IROHF=0.

 **********************************************************************

            Population analysis using the SCF density.

 **********************************************************************

 Orbital symmetries:
 Alpha Orbitals:
       Occupied  (A) (A) (A) (A) (A) (A) (A) (A) (A) (A) (A) (A)
                 (A) (A) (A) (A) (A) (A) (A) (A) (A) (A) (A) (A)
                 (A)
       Virtual   (A) (A) (A) (A) (A) (A) (A) (A) (A) (A) (A) (A)
                 (A) (A) (A) (A) (A) (A) (A) (A) (A) (A) (A) (A)
                 (A) (A) (A) (A) (A) (A) (A) (A) (A) (A) (A) (A)
                 (A) (A) (A) (A) (A) (A) (A) (A) (A) (A) (A) (A)
                 (A) (A) (A) (A) (A) (A) (A) (A) (A) (A) (A) (A)
                 (A) (A) (A) (A) (A) (A) (A) (A) (A) (A) (A) (A)
                 (A) (A) (A) (A) (A) (A) (A) (A) (A) (A) (A) (A)
                 (A) (A) (A) (A) (A) (A) (A)
 Beta  Orbitals:
       Occupied  (A) (A) (A) (A) (A) (A) (A) (A) (A) (A) (A) (A)
                 (A) (A) (A) (A) (A) (A) (A) (A) (A) (A) (A) (A)
       Virtual   (A) (A) (A) (A) (A) (A) (A) (A) (A) (A) (A) (A)
                 (A) (A) (A) (A) (A) (A) (A) (A) (A) (A) (A) (A)
                 (A) (A) (A) (A) (A) (A) (A) (A) (A) (A) (A) (A)
                 (A) (A) (A) (A) (A) (A) (A) (A) (A) (A) (A) (A)
                 (A) (A) (A) (A) (A) (A) (A) (A) (A) (A) (A) (A)
                 (A) (A) (A) (A) (A) (A) (A) (A) (A) (A) (A) (A)
                 (A) (A) (A) (A) (A) (A) (A) (A) (A) (A) (A) (A)
                 (A) (A) (A) (A) (A) (A) (A) (A)
 The electronic state is 2-A.
 Alpha  occ. eigenvalues --  -10.19693 -10.19188 -10.17590 -10.17569 -10.17073
 Alpha  occ. eigenvalues --  -10.16873  -0.81983  -0.73232  -0.68189  -0.67197
 Alpha  occ. eigenvalues --   -0.61789  -0.52226  -0.45546  -0.44658  -0.43490
 Alpha  occ. eigenvalues --   -0.41189  -0.39386  -0.38023  -0.37408  -0.35795
 Alpha  occ. eigenvalues --   -0.34416  -0.32380  -0.31501  -0.30739  -0.22849
 Alpha virt. eigenvalues --    0.07877   0.12363   0.13364   0.13726   0.14263
 Alpha virt. eigenvalues --    0.15262   0.16581   0.17560   0.18233   0.19755
 Alpha virt. eigenvalues --    0.20509   0.21850   0.22492   0.23962   0.25021
 Alpha virt. eigenvalues --    0.25768   0.26193   0.27310   0.49270   0.50757
 Alpha virt. eigenvalues --    0.51684   0.52196   0.53225   0.57186   0.59534
 Alpha virt. eigenvalues --    0.60902   0.62775   0.63864   0.70159   0.71791
 Alpha virt. eigenvalues --    0.75397   0.76321   0.80918   0.82301   0.87349
 Alpha virt. eigenvalues --    0.88336   0.89405   0.90533   0.90729   0.91339
 Alpha virt. eigenvalues --    0.91706   0.93656   0.94097   0.95580   0.96323
 Alpha virt. eigenvalues --    0.97918   0.98616   0.99801   1.02397   1.03751
 Alpha virt. eigenvalues --    1.25889   1.30972   1.39529   1.40397   1.48595
 Alpha virt. eigenvalues --    1.60589   1.63856   1.67822   1.71228   1.72590
 Alpha virt. eigenvalues --    1.79945   1.84596   1.87000   1.92404   1.93309
 Alpha virt. eigenvalues --    1.95600   1.99964   2.09676   2.09941   2.11375
 Alpha virt. eigenvalues --    2.11930   2.15139   2.24214   2.24668   2.26187
 Alpha virt. eigenvalues --    2.27042   2.30609   2.35605   2.36376   2.47750
 Alpha virt. eigenvalues --    2.56629   2.68968   2.71185   2.73858   2.76066
 Alpha virt. eigenvalues --    4.11666   4.20617   4.27257   4.30861   4.44560
 Alpha virt. eigenvalues --    4.66719
  Beta  occ. eigenvalues --  -10.19717 -10.17748 -10.17572 -10.17464 -10.17073
  Beta  occ. eigenvalues --  -10.16856  -0.81497  -0.73005  -0.68043  -0.65396
  Beta  occ. eigenvalues --   -0.61026  -0.51851  -0.45313  -0.44405  -0.43183
  Beta  occ. eigenvalues --   -0.40653  -0.38894  -0.37900  -0.37329  -0.35423
  Beta  occ. eigenvalues --   -0.34288  -0.31879  -0.31033  -0.30552
  Beta virt. eigenvalues --   -0.06082   0.08015   0.12603   0.13730   0.14041
  Beta virt. eigenvalues --    0.14549   0.15327   0.16753   0.17726   0.18368
  Beta virt. eigenvalues --    0.20179   0.20717   0.22036   0.22691   0.24193
  Beta virt. eigenvalues --    0.25789   0.26215   0.26451   0.27613   0.49552
  Beta virt. eigenvalues --    0.50973   0.51732   0.52356   0.56022   0.58114
  Beta virt. eigenvalues --    0.61120   0.62501   0.63517   0.64605   0.70489
  Beta virt. eigenvalues --    0.71951   0.75616   0.76511   0.81773   0.82584
  Beta virt. eigenvalues --    0.87463   0.88524   0.89594   0.90814   0.91195
  Beta virt. eigenvalues --    0.91732   0.92132   0.94147   0.94575   0.95889
  Beta virt. eigenvalues --    0.97199   0.98018   0.99014   0.99979   1.02522
  Beta virt. eigenvalues --    1.03937   1.26932   1.31777   1.40303   1.41010
  Beta virt. eigenvalues --    1.48839   1.61094   1.64242   1.68023   1.71842
  Beta virt. eigenvalues --    1.73903   1.80403   1.86609   1.87865   1.93203
  Beta virt. eigenvalues --    1.93942   1.96681   2.03241   2.09941   2.10184
  Beta virt. eigenvalues --    2.12024   2.13584   2.17582   2.25227   2.25596
  Beta virt. eigenvalues --    2.26649   2.27680   2.30666   2.35869   2.36493
  Beta virt. eigenvalues --    2.48212   2.57394   2.69115   2.71361   2.74333
  Beta virt. eigenvalues --    2.76924   4.12502   4.22681   4.27927   4.31081
  Beta virt. eigenvalues --    4.44589   4.66904
          Condensed to atoms (all electrons):
               1          2          3          4          5          6
     1  C    5.392958   0.346758   0.344821   0.384631  -0.054806  -0.001248
     2  H    0.346758   0.602895  -0.044514  -0.038015  -0.007031  -0.000163
     3  H    0.344821  -0.044514   0.604944  -0.037087   0.005398   0.000005
     4  C    0.384631  -0.038015  -0.037087   4.749266   0.392109  -0.035701
     5  C   -0.054806  -0.007031   0.005398   0.392109   5.023968   0.370127
     6  H   -0.001248  -0.000163   0.000005  -0.035701   0.370127   0.609000
     7  H   -0.005560   0.005417  -0.000037  -0.035644   0.367259  -0.036887
     8  C    0.004557  -0.000004  -0.000183  -0.036823   0.363886  -0.040356
     9  H    0.000050  -0.000004   0.000001  -0.005575  -0.033675   0.005162
    10  H   -0.000120  -0.000003   0.000002   0.004104  -0.026755  -0.003195
    11  H    0.000042   0.000003   0.000002  -0.005652  -0.033838  -0.004133
    12  C   -0.059280   0.005965  -0.006579   0.381489  -0.057815  -0.006596
    13  H    0.005398  -0.000213  -0.000073  -0.028244  -0.005903  -0.000090
    14  H   -0.001682  -0.000024  -0.000059  -0.029971  -0.004361   0.004785
    15  H   -0.005845  -0.000022   0.004567  -0.029435   0.005404  -0.000064
    16  C   -0.062017  -0.001848  -0.001910   0.376605  -0.056771   0.006276
    17  H   -0.004997  -0.000186   0.004723  -0.029812   0.005531  -0.000179
    18  H   -0.003932   0.004143  -0.000185  -0.030135  -0.004757  -0.000040
    19  H    0.005785  -0.000149  -0.000156  -0.026316  -0.005552  -0.000058
               7          8          9         10         11         12
     1  C   -0.005560   0.004557   0.000050  -0.000120   0.000042  -0.059280
     2  H    0.005417  -0.000004  -0.000004  -0.000003   0.000003   0.005965
     3  H   -0.000037  -0.000183   0.000001   0.000002   0.000002  -0.006579
     4  C   -0.035644  -0.036823  -0.005575   0.004104  -0.005652   0.381489
     5  C    0.367259   0.363886  -0.033675  -0.026755  -0.033838  -0.057815
     6  H   -0.036887  -0.040356   0.005162  -0.003195  -0.004133  -0.006596
     7  H    0.620059  -0.040388  -0.004079  -0.003317   0.005235   0.006197
     8  C   -0.040388   5.086065   0.376229   0.371925   0.377489  -0.005632
     9  H   -0.004079   0.376229   0.576710  -0.031381  -0.032989  -0.000373
    10  H   -0.003317   0.371925  -0.031381   0.577034  -0.031269   0.000080
    11  H    0.005235   0.377489  -0.032989  -0.031269   0.572931   0.003341
    12  C    0.006197  -0.005632  -0.000373   0.000080   0.003341   5.150003
    13  H   -0.000053   0.002055   0.000159  -0.000059   0.002767   0.365209
    14  H   -0.000026  -0.000270   0.000052  -0.000030   0.000283   0.368583
    15  H   -0.000185   0.000085  -0.000020   0.000000  -0.000118   0.366710
    16  C   -0.006848  -0.005296   0.003023   0.000092  -0.000416  -0.063557
    17  H   -0.000080   0.000076  -0.000110   0.000000  -0.000022  -0.004439
    18  H    0.004726  -0.000234   0.000274  -0.000030   0.000054   0.005845
    19  H   -0.000082   0.001667   0.002995  -0.000067   0.000191  -0.004690
              13         14         15         16         17         18
     1  C    0.005398  -0.001682  -0.005845  -0.062017  -0.004997  -0.003932
     2  H   -0.000213  -0.000024  -0.000022  -0.001848  -0.000186   0.004143
     3  H   -0.000073  -0.000059   0.004567  -0.001910   0.004723  -0.000185
     4  C   -0.028244  -0.029971  -0.029435   0.376605  -0.029812  -0.030135
     5  C   -0.005903  -0.004361   0.005404  -0.056771   0.005531  -0.004757
     6  H   -0.000090   0.004785  -0.000064   0.006276  -0.000179  -0.000040
     7  H   -0.000053  -0.000026  -0.000185  -0.006848  -0.000080   0.004726
     8  C    0.002055  -0.000270   0.000085  -0.005296   0.000076  -0.000234
     9  H    0.000159   0.000052  -0.000020   0.003023  -0.000110   0.000274
    10  H   -0.000059  -0.000030   0.000000   0.000092   0.000000  -0.000030
    11  H    0.002767   0.000283  -0.000118  -0.000416  -0.000022   0.000054
    12  C    0.365209   0.368583   0.366710  -0.063557  -0.004439   0.005845
    13  H    0.582976  -0.031235  -0.031446  -0.004597  -0.000190  -0.000036
    14  H   -0.031235   0.574989  -0.030043   0.005708  -0.000070  -0.000192
    15  H   -0.031446  -0.030043   0.584651  -0.004292   0.003869  -0.000072
    16  C   -0.004597   0.005708  -0.004292   5.169096   0.365916   0.365139
    17  H   -0.000190  -0.000070   0.003869   0.365916   0.580071  -0.030706
    18  H   -0.000036  -0.000192  -0.000072   0.365139  -0.030706   0.580453
    19  H    0.003637  -0.000035  -0.000185   0.363733  -0.030311  -0.030516
              19
     1  C    0.005785
     2  H   -0.000149
     3  H   -0.000156
     4  C   -0.026316
     5  C   -0.005552
     6  H   -0.000058
     7  H   -0.000082
     8  C    0.001667
     9  H    0.002995
    10  H   -0.000067
    11  H    0.000191
    12  C   -0.004690
    13  H    0.003637
    14  H   -0.000035
    15  H   -0.000185
    16  C    0.363733
    17  H   -0.030311
    18  H   -0.030516
    19  H    0.569733
          Atomic-Atomic Spin Densities.
               1          2          3          4          5          6
     1  C    1.130019  -0.011707  -0.011715  -0.031849  -0.008509   0.004216
     2  H   -0.011707  -0.025647   0.006243   0.002134   0.001052  -0.000284
     3  H   -0.011715   0.006243  -0.025713   0.002190   0.000175  -0.000079
     4  C   -0.031849   0.002134   0.002190  -0.031119   0.004650  -0.000787
     5  C   -0.008509   0.001052   0.000175   0.004650   0.015053  -0.003847
     6  H    0.004216  -0.000284  -0.000079  -0.000787  -0.003847   0.000717
     7  H   -0.000107   0.000001   0.000010   0.000506  -0.000078   0.000045
     8  C    0.000092  -0.000071  -0.000005   0.000356  -0.002329   0.001230
     9  H    0.000022   0.000003   0.000001  -0.000075   0.000313  -0.000058
    10  H   -0.000006   0.000001   0.000000  -0.000020   0.000179  -0.000121
    11  H    0.000000   0.000001   0.000000   0.000016  -0.000165   0.000037
    12  C   -0.007604   0.000126   0.001055   0.004890   0.003244  -0.000750
    13  H    0.000131  -0.000002  -0.000051   0.000296  -0.000381   0.000106
    14  H    0.003096  -0.000057  -0.000207  -0.000541  -0.000782   0.000272
    15  H   -0.000126   0.000009   0.000007   0.000487   0.000007  -0.000007
    16  C   -0.028455  -0.002447  -0.002486   0.011968  -0.004861   0.000495
    17  H    0.000590   0.000051   0.000056   0.000290   0.000024  -0.000003
    18  H    0.000923   0.000113   0.000066   0.000247   0.000109  -0.000014
    19  H    0.002539   0.000143   0.000153  -0.002762   0.001099  -0.000082
               7          8          9         10         11         12
     1  C   -0.000107   0.000092   0.000022  -0.000006   0.000000  -0.007604
     2  H    0.000001  -0.000071   0.000003   0.000001   0.000001   0.000126
     3  H    0.000010  -0.000005   0.000001   0.000000   0.000000   0.001055
     4  C    0.000506   0.000356  -0.000075  -0.000020   0.000016   0.004890
     5  C   -0.000078  -0.002329   0.000313   0.000179  -0.000165   0.003244
     6  H    0.000045   0.001230  -0.000058  -0.000121   0.000037  -0.000750
     7  H   -0.000798   0.000123   0.000012  -0.000005  -0.000004  -0.000004
     8  C    0.000123   0.000810  -0.000573  -0.000013   0.000182  -0.000593
     9  H    0.000012  -0.000573   0.000388   0.000086  -0.000026   0.000042
    10  H   -0.000005  -0.000013   0.000086  -0.000087  -0.000013   0.000007
    11  H   -0.000004   0.000182  -0.000026  -0.000013   0.000029  -0.000021
    12  C   -0.000004  -0.000593   0.000042   0.000007  -0.000021   0.011824
    13  H    0.000004   0.000101  -0.000028   0.000001   0.000014  -0.001030
    14  H   -0.000004   0.000151  -0.000006  -0.000003   0.000009  -0.002849
    15  H    0.000000   0.000001   0.000000   0.000000   0.000000   0.000007
    16  C   -0.000194   0.001720  -0.000294  -0.000022   0.000016  -0.004718
    17  H    0.000001  -0.000007   0.000004   0.000000   0.000000   0.000083
    18  H   -0.000010  -0.000051   0.000018   0.000001   0.000000   0.000032
    19  H    0.000041  -0.001073   0.000432   0.000015  -0.000013   0.001015
              13         14         15         16         17         18
     1  C    0.000131   0.003096  -0.000126  -0.028455   0.000590   0.000923
     2  H   -0.000002  -0.000057   0.000009  -0.002447   0.000051   0.000113
     3  H   -0.000051  -0.000207   0.000007  -0.002486   0.000056   0.000066
     4  C    0.000296  -0.000541   0.000487   0.011968   0.000290   0.000247
     5  C   -0.000381  -0.000782   0.000007  -0.004861   0.000024   0.000109
     6  H    0.000106   0.000272  -0.000007   0.000495  -0.000003  -0.000014
     7  H    0.000004  -0.000004   0.000000  -0.000194   0.000001  -0.000010
     8  C    0.000101   0.000151   0.000001   0.001720  -0.000007  -0.000051
     9  H   -0.000028  -0.000006   0.000000  -0.000294   0.000004   0.000018
    10  H    0.000001  -0.000003   0.000000  -0.000022   0.000000   0.000001
    11  H    0.000014   0.000009   0.000000   0.000016   0.000000   0.000000
    12  C   -0.001030  -0.002849   0.000007  -0.004718   0.000083   0.000032
    13  H   -0.000733   0.000874   0.000085   0.001163  -0.000012  -0.000005
    14  H    0.000874   0.000584  -0.000039   0.000428  -0.000009  -0.000003
    15  H    0.000085  -0.000039  -0.000669  -0.000259  -0.000010   0.000001
    16  C    0.001163   0.000428  -0.000259   0.075571  -0.000768  -0.001493
    17  H   -0.000012  -0.000009  -0.000010  -0.000768  -0.001997   0.000332
    18  H   -0.000005  -0.000003   0.000001  -0.001493   0.000332  -0.001934
    19  H   -0.000769  -0.000084   0.000062  -0.014758   0.000431   0.000704
              19
     1  C    0.002539
     2  H    0.000143
     3  H    0.000153
     4  C   -0.002762
     5  C    0.001099
     6  H   -0.000082
     7  H    0.000041
     8  C   -0.001073
     9  H    0.000432
    10  H    0.000015
    11  H   -0.000013
    12  C    0.001015
    13  H   -0.000769
    14  H   -0.000084
    15  H    0.000062
    16  C   -0.014758
    17  H    0.000431
    18  H    0.000704
    19  H    0.031565
 Mulliken charges and spin densities:
               1          2
     1  C   -0.285513   1.041550
     2  H    0.126997  -0.030338
     3  H    0.126321  -0.030301
     4  C    0.080206  -0.039124
     5  C   -0.242418   0.004953
     6  H    0.133353   0.001086
     7  H    0.124294  -0.000461
     8  C   -0.454850   0.000050
     9  H    0.143552   0.000261
    10  H    0.142989   0.000001
    11  H    0.146098   0.000060
    12  C   -0.444461   0.004757
    13  H    0.139938  -0.000235
    14  H    0.143598   0.000831
    15  H    0.136440  -0.000444
    16  C   -0.448035   0.030606
    17  H    0.140916  -0.000946
    18  H    0.140200  -0.000965
    19  H    0.150376   0.018658
 Sum of Mulliken charges =   0.00000   1.00000
 Mulliken charges and spin densities with hydrogens summed into heavy atoms:
               1          2
     1  C   -0.032195   0.980911
     4  C    0.080206  -0.039124
     5  C    0.015229   0.005578
     8  C   -0.022211   0.000372
    12  C   -0.024485   0.004909
    16  C   -0.016544   0.047354
 Electronic spatial extent (au):  <R**2>=            682.7380
 Charge=              0.0000 electrons
 Dipole moment (field-independent basis, Debye):
    X=              0.1320    Y=             -0.1606    Z=              0.5911  Tot=              0.6266
 Quadrupole moment (field-independent basis, Debye-Ang):
   XX=            -40.9135   YY=            -40.5311   ZZ=            -42.0687
   XY=              0.1547   XZ=             -1.1655   YZ=             -0.0390
 Traceless Quadrupole moment (field-independent basis, Debye-Ang):
   XX=              0.2576   YY=              0.6400   ZZ=             -0.8976
   XY=              0.1547   XZ=             -1.1655   YZ=             -0.0390
 Octapole moment (field-independent basis, Debye-Ang**2):
  XXX=             -0.9030  YYY=             -2.1332  ZZZ=              3.3600  XYY=              0.5286
  XXY=             -0.0086  XXZ=              2.1350  XZZ=              3.4782  YZZ=              1.1986
  YYZ=             -0.2694  XYZ=             -0.1258
 Hexadecapole moment (field-independent basis, Debye-Ang**3):
 XXXX=           -484.1762 YYYY=           -237.3048 ZZZZ=           -229.0154 XXXY=             -3.5020
 XXXZ=            -10.5214 YYYX=              2.7149 YYYZ=             -0.0220 ZZZX=             -5.0730
 ZZZY=             -1.9278 XXYY=           -120.7641 XXZZ=           -122.1017 YYZZ=            -77.0851
 XXYZ=              1.2345 YYXZ=              0.3647 ZZXY=             -1.0567
 N-N= 2.543122845454D+02 E-N=-1.054170444399D+03  KE= 2.339803885734D+02
                          Isotropic Fermi Contact Couplings
        Atom                 a.u.       MegaHertz       Gauss      10(-4) cm-1
     1  C(13)              0.30293     340.54804     121.51601     113.59460
     2  H(1)              -0.00414     -18.52462      -6.61005      -6.17915
     3  H(1)              -0.00416     -18.58055      -6.63000      -6.19781
     4  C(13)             -0.00946     -10.63844      -3.79606      -3.54860
     5  C(13)              0.00816       9.17688       3.27454       3.06108
     6  H(1)              -0.00017      -0.75227      -0.26843      -0.25093
     7  H(1)              -0.00022      -0.99295      -0.35431      -0.33121
     8  C(13)             -0.00007      -0.08293      -0.02959      -0.02766
     9  H(1)               0.00005       0.22781       0.08129       0.07599
    10  H(1)               0.00003       0.13463       0.04804       0.04491
    11  H(1)               0.00004       0.19917       0.07107       0.06643
    12  C(13)              0.00728       8.18436       2.92038       2.73001
    13  H(1)              -0.00012      -0.55835      -0.19923      -0.18624
    14  H(1)              -0.00019      -0.82929      -0.29591      -0.27662
    15  H(1)              -0.00021      -0.93842      -0.33485      -0.31302
    16  C(13)              0.04849      54.50837      19.44994      18.18203
    17  H(1)              -0.00001      -0.02339      -0.00835      -0.00780
    18  H(1)              -0.00026      -1.17405      -0.41893      -0.39162
    19  H(1)               0.00711      31.78379      11.34125      10.60193
 --------------------------------------------------------
       Center         ----  Spin Dipole Couplings  ----
                      3XX-RR        3YY-RR        3ZZ-RR
 --------------------------------------------------------
     1   Atom       -0.466743     -0.244190      0.710933
     2   Atom       -0.059028      0.071810     -0.012782
     3   Atom        0.046221     -0.039417     -0.006804
     4   Atom       -0.004492     -0.021150      0.025642
     5   Atom        0.017842     -0.008781     -0.009061
     6   Atom        0.013966     -0.008355     -0.005611
     7   Atom        0.008270     -0.002944     -0.005327
     8   Atom        0.004195     -0.002491     -0.001703
     9   Atom        0.002607     -0.002053     -0.000554
    10   Atom        0.002699     -0.001482     -0.001216
    11   Atom        0.002418     -0.001201     -0.001218
    12   Atom       -0.008135      0.009069     -0.000934
    13   Atom       -0.001075      0.001525     -0.000450
    14   Atom       -0.003921      0.009649     -0.005728
    15   Atom       -0.005986      0.005735      0.000251
    16   Atom       -0.026732     -0.024689      0.051421
    17   Atom       -0.002891     -0.008791      0.011682
    18   Atom       -0.005798      0.002555      0.003243
    19   Atom        0.000161     -0.003791      0.003630
 --------------------------------------------------------
                        XY            XZ            YZ
 --------------------------------------------------------
     1   Atom        0.056062     -0.129018     -0.529613
     2   Atom       -0.003987     -0.006347      0.003574
     3   Atom       -0.032821     -0.038173     -0.008469
     4   Atom        0.004466      0.027042      0.002048
     5   Atom       -0.005357      0.006289     -0.001404
     6   Atom        0.003162     -0.003409     -0.000746
     7   Atom       -0.007007      0.002034     -0.001023
     8   Atom        0.000488      0.001500     -0.000019
     9   Atom       -0.000040      0.001848     -0.000036
    10   Atom        0.000012      0.000501     -0.000013
    11   Atom        0.001790      0.001296      0.000439
    12   Atom        0.006203      0.004285      0.013283
    13   Atom        0.003446      0.002666      0.003251
    14   Atom        0.007854      0.001619      0.001893
    15   Atom       -0.000484     -0.000099      0.007947
    16   Atom       -0.003752      0.013556     -0.019578
    17   Atom       -0.000037     -0.004215      0.001284
    18   Atom       -0.002657      0.005430     -0.007741
    19   Atom        0.002636      0.005713      0.001286
 --------------------------------------------------------


 ---------------------------------------------------------------------------------
              Anisotropic Spin Dipole Couplings in Principal Axis System
 ---------------------------------------------------------------------------------

       Atom             a.u.   MegaHertz   Gauss  10(-4) cm-1        Axes

              Baa    -0.4815   -64.607   -23.053   -21.551  0.8124  0.4952  0.3079
     1 C(13)  Bbb    -0.4789   -64.265   -22.931   -21.436 -0.5748  0.7689  0.2799
              Bcc     0.9604   128.872    45.985    42.987 -0.0981 -0.4044  0.9093
 
              Baa    -0.0600   -32.000   -11.418   -10.674  0.9910  0.0264  0.1313
     2 H(1)   Bbb    -0.0121    -6.469    -2.308    -2.158 -0.1299 -0.0483  0.9903
              Bcc     0.0721    38.468    13.726    12.832 -0.0325  0.9985  0.0445
 
              Baa    -0.0600   -31.999   -11.418   -10.674  0.4021  0.8144  0.4184
     3 H(1)   Bbb    -0.0122    -6.490    -2.316    -2.165  0.2325 -0.5328  0.8137
              Bcc     0.0721    38.489    13.734    12.839  0.8856 -0.2299 -0.4036
 
              Baa    -0.0237    -3.187    -1.137    -1.063 -0.5762  0.7665  0.2837
     4 C(13)  Bbb    -0.0180    -2.421    -0.864    -0.808  0.6403  0.6390 -0.4263
              Bcc     0.0418     5.608     2.001     1.871  0.5081  0.0640  0.8589
 
              Baa    -0.0105    -1.412    -0.504    -0.471 -0.1568  0.2813  0.9467
     5 C(13)  Bbb    -0.0098    -1.311    -0.468    -0.437  0.2373  0.9412 -0.2404
              Bcc     0.0203     2.723     0.972     0.908  0.9587 -0.1870  0.2143
 
              Baa    -0.0088    -4.707    -1.679    -1.570 -0.1221  0.9875  0.0997
     6 H(1)   Bbb    -0.0062    -3.293    -1.175    -1.098  0.1782 -0.0770  0.9810
              Bcc     0.0150     7.999     2.854     2.668  0.9764  0.1375 -0.1665
 
              Baa    -0.0063    -3.369    -1.202    -1.124  0.4256  0.9030  0.0593
     7 H(1)   Bbb    -0.0056    -3.001    -1.071    -1.001 -0.1435  0.0026  0.9896
              Bcc     0.0119     6.369     2.273     2.125  0.8935 -0.4297  0.1307
 
              Baa    -0.0026    -0.343    -0.122    -0.114 -0.1220  0.9640  0.2361
     8 C(13)  Bbb    -0.0020    -0.272    -0.097    -0.091 -0.2073 -0.2574  0.9438
              Bcc     0.0046     0.615     0.220     0.205  0.9706  0.0663  0.2312
 
              Baa    -0.0021    -1.096    -0.391    -0.365 -0.0019  0.9997  0.0262
     9 H(1)   Bbb    -0.0014    -0.750    -0.267    -0.250 -0.4185 -0.0246  0.9079
              Bcc     0.0035     1.845     0.658     0.616  0.9082 -0.0092  0.4184
 
              Baa    -0.0015    -0.791    -0.282    -0.264 -0.0113  0.9975  0.0705
    10 H(1)   Bbb    -0.0013    -0.682    -0.243    -0.228 -0.1245 -0.0713  0.9896
              Bcc     0.0028     1.474     0.526     0.492  0.9922  0.0024  0.1250
 
              Baa    -0.0020    -1.044    -0.372    -0.348 -0.4252  0.8768  0.2244
    11 H(1)   Bbb    -0.0016    -0.848    -0.303    -0.283 -0.1606 -0.3171  0.9347
              Bcc     0.0035     1.892     0.675     0.631  0.8907  0.3614  0.2756
 
              Baa    -0.0101    -1.361    -0.485    -0.454  0.8864 -0.4203  0.1938
    12 C(13)  Bbb    -0.0101    -1.358    -0.485    -0.453 -0.3852 -0.4378  0.8124
              Bcc     0.0203     2.719     0.970     0.907  0.2566  0.7948  0.5499
 
              Baa    -0.0036    -1.922    -0.686    -0.641  0.8611 -0.3378 -0.3800
    13 H(1)   Bbb    -0.0029    -1.522    -0.543    -0.508  0.0877 -0.6375  0.7654
              Bcc     0.0065     3.444     1.229     1.149  0.5008  0.6925  0.5193
 
              Baa    -0.0078    -4.151    -1.481    -1.384  0.8649 -0.3508 -0.3592
    14 H(1)   Bbb    -0.0058    -3.074    -1.097    -1.026  0.2802 -0.2564  0.9251
              Bcc     0.0135     7.225     2.578     2.410  0.4166  0.9007  0.1235
 
              Baa    -0.0061    -3.233    -1.154    -1.078  0.9549  0.1919 -0.2266
    15 H(1)   Bbb    -0.0054    -2.856    -1.019    -0.953  0.2958 -0.5480  0.7825
              Bcc     0.0114     6.089     2.173     2.031 -0.0259  0.8142  0.5800
 
              Baa    -0.0297    -3.989    -1.424    -1.331  0.5463  0.8305  0.1091
    16 C(13)  Bbb    -0.0288    -3.858    -1.377    -1.287  0.8216 -0.5060 -0.2625
              Bcc     0.0585     7.848     2.800     2.618  0.1628 -0.2330  0.9587
 
              Baa    -0.0089    -4.739    -1.691    -1.581 -0.0440  0.9965 -0.0712
    17 H(1)   Bbb    -0.0040    -2.137    -0.762    -0.713  0.9652  0.0608  0.2544
              Bcc     0.0129     6.875     2.453     2.293 -0.2578  0.0576  0.9645
 
              Baa    -0.0085    -4.516    -1.612    -1.506  0.8612 -0.1363 -0.4896
    18 H(1)   Bbb    -0.0040    -2.144    -0.765    -0.715  0.4078  0.7603  0.5056
              Bcc     0.0125     6.660     2.376     2.222  0.3033 -0.6351  0.7104
 
              Baa    -0.0055    -2.957    -1.055    -0.986 -0.6230  0.7280  0.2860
    19 H(1)   Bbb    -0.0029    -1.540    -0.549    -0.514  0.5014  0.6524 -0.5684
              Bcc     0.0084     4.496     1.604     1.500  0.6004  0.2107  0.7715
 

 ---------------------------------------------------------------------------------

 No NMR shielding tensors so no spin-rotation constants.
 Leave Link  601 at Sat Nov  7 02:12:48 2015, MaxMem=   805306368 cpu:         1.5
 (Enter /home/hetanjin/apps/g09D01/g09/l701.exe)
 Compute integral first derivatives.
 ... and contract with generalized density number  0.
 Leave Link  701 at Sat Nov  7 02:12:48 2015, MaxMem=   805306368 cpu:         0.6
 (Enter /home/hetanjin/apps/g09D01/g09/l702.exe)
 L702 exits ... SP integral derivatives will be done elsewhere.
 Leave Link  702 at Sat Nov  7 02:12:48 2015, MaxMem=   805306368 cpu:         0.1
 (Enter /home/hetanjin/apps/g09D01/g09/l703.exe)
 Compute integral first derivatives, UseDBF=F ICtDFT=           0.
 Integral derivatives from FoFJK, PRISM(SPDF).
 Calling FoFJK, ICntrl=      2127 FMM=F ISym2X=0 I1Cent= 0 IOpClX= 1 NMat=1 NMatS=1 NMatT=0.
 FoFJK:  IHMeth= 1 ICntrl=    2127 DoSepK=F KAlg= 0 I1Cent=   0 FoldK=F
 IRaf=         0 NMat=   1 IRICut=       1 DoRegI=T DoRafI=F ISym2E= 0.
 FoFCou: FMM=F IPFlag=           0 FMFlag=      100000 FMFlg1=         800
         NFxFlg=           0 DoJE=F BraDBF=F KetDBF=F FulRan=T
         wScrn=  0.000000 ICntrl=    2127 IOpCl=  1 I1Cent=           0 NGrid=           0
         NMat0=    1 NMatS0=      1 NMatT0=    0 NMatD0=    1 NMtDS0=    0 NMtDT0=    0
 Symmetry not used in FoFCou.
 Leave Link  703 at Sat Nov  7 02:12:56 2015, MaxMem=   805306368 cpu:        32.2
 (Enter /home/hetanjin/apps/g09D01/g09/l716.exe)
 Dipole        = 5.19281040D-02-6.31960969D-02 2.32543915D-01
 ***** Axes restored to original set *****
 -------------------------------------------------------------------
 Center     Atomic                   Forces (Hartrees/Bohr)
 Number     Number              X              Y              Z
 -------------------------------------------------------------------
      1        6          -0.004886745   -0.029797712    0.034312920
      2        1          -0.001692113    0.011549505   -0.008900787
      3        1           0.002948361    0.006018671   -0.013037206
      4        6           0.001031451    0.012018259   -0.014823415
      5        6          -0.001617030    0.001030703   -0.000450769
      6        1           0.000391040   -0.000404700    0.000616134
      7        1           0.000082820   -0.000005095    0.000004545
      8        6           0.000100813   -0.000238219    0.000167500
      9        1          -0.000205424   -0.000085279    0.000062752
     10        1           0.000103194    0.000004475    0.000017686
     11        1          -0.000009076    0.000026907   -0.000004165
     12        6          -0.000286244   -0.001007628   -0.001477464
     13        1          -0.000002662   -0.000165404    0.000210854
     14        1           0.000170046   -0.000143535    0.000736932
     15        1           0.000017029    0.000059993    0.000026662
     16        6           0.004963303    0.001486715    0.003654098
     17        1          -0.000281193   -0.000291328    0.000236439
     18        1          -0.000136187   -0.000350747   -0.000006040
     19        1          -0.000691384    0.000294419   -0.001346676
 -------------------------------------------------------------------
 Cartesian Forces:  Max     0.034312920 RMS     0.007177438
 Leave Link  716 at Sat Nov  7 02:12:56 2015, MaxMem=   805306368 cpu:         0.1
 (Enter /home/hetanjin/apps/g09D01/g09/l103.exe)

 GradGradGradGradGradGradGradGradGradGradGradGradGradGradGradGradGradGrad
 Berny optimization.
 FormGI is forming the generalized inverse of G from B-inverse, IUseBI=4.
 Internal  Forces:  Max     0.013507351 RMS     0.003221733
 Search for a local minimum.
 Step number   1 out of a maximum of  103
 All quantities printed in internal units (Hartrees-Bohrs-Radians)
 RMS Force = .32217D-02 SwitMx=.10000D-02 MixMth= 1
 Mixed Optimization -- RFO/linear search
 Second derivative matrix not updated -- first step.
 ITU=  0
     Eigenvalues ---    0.00230   0.00230   0.00230   0.00230   0.00316
     Eigenvalues ---    0.03068   0.03552   0.04398   0.04674   0.05293
     Eigenvalues ---    0.05319   0.05319   0.05393   0.05432   0.05447
     Eigenvalues ---    0.05447   0.05522   0.09014   0.12691   0.14927
     Eigenvalues ---    0.15195   0.16000   0.16000   0.16000   0.16000
     Eigenvalues ---    0.16000   0.16000   0.16000   0.16000   0.16000
     Eigenvalues ---    0.16000   0.16000   0.21977   0.27481   0.28370
     Eigenvalues ---    0.28418   0.28418   0.29059   0.33721   0.33721
     Eigenvalues ---    0.33969   0.33969   0.33990   0.34015   0.34017
     Eigenvalues ---    0.34017   0.34112   0.34156   0.34156   0.34166
     Eigenvalues ---    0.34166
 RFO step:  Lambda=-1.36057415D-02 EMin= 2.30000000D-03
 Linear search not attempted -- first point.
 Iteration  1 RMS(Cart)=  0.04581473 RMS(Int)=  0.00838814
 Iteration  2 RMS(Cart)=  0.00662174 RMS(Int)=  0.00571870
 Iteration  3 RMS(Cart)=  0.00009123 RMS(Int)=  0.00571830
 Iteration  4 RMS(Cart)=  0.00000205 RMS(Int)=  0.00571830
 Iteration  5 RMS(Cart)=  0.00000006 RMS(Int)=  0.00571830
 ITry= 1 IFail=0 DXMaxC= 1.97D-01 DCOld= 1.00D+10 DXMaxT= 3.00D-01 DXLimC= 3.00D+00 Rises=F
 Variable       Old X    -DE/DX   Delta X   Delta X   Delta X     New X
                                 (Linear)    (Quad)   (Total)
    R1        2.07346  -0.00034   0.00000  -0.00097  -0.00097   2.07250
    R2        2.07305  -0.00033   0.00000  -0.00093  -0.00093   2.07212
    R3        2.91336  -0.01064   0.00000  -0.03578  -0.03578   2.87758
    R4        2.93287   0.00115   0.00000   0.00400   0.00400   2.93686
    R5        2.91234   0.00113   0.00000   0.00378   0.00378   2.91612
    R6        2.91234   0.00165   0.00000   0.00554   0.00554   2.91789
    R7        2.07803  -0.00073   0.00000  -0.00208  -0.00208   2.07595
    R8        2.07803   0.00000   0.00000   0.00000   0.00000   2.07803
    R9        2.89880   0.00016   0.00000   0.00052   0.00052   2.89932
   R10        2.07051   0.00012   0.00000   0.00033   0.00033   2.07084
   R11        2.07142  -0.00008   0.00000  -0.00022  -0.00022   2.07120
   R12        2.07051  -0.00001   0.00000  -0.00003  -0.00003   2.07048
   R13        2.07067   0.00011   0.00000   0.00031   0.00031   2.07098
   R14        2.07382  -0.00070   0.00000  -0.00200  -0.00200   2.07182
   R15        2.07301  -0.00001   0.00000  -0.00004  -0.00004   2.07297
   R16        2.07301  -0.00010   0.00000  -0.00028  -0.00028   2.07273
   R17        2.07382  -0.00019   0.00000  -0.00053  -0.00053   2.07329
   R18        2.07067   0.00026   0.00000   0.00074   0.00074   2.07141
    A1        1.88010  -0.00072   0.00000   0.12292   0.08774   1.96784
    A2        1.94072   0.01351   0.00000   0.14511   0.11714   2.05786
    A3        1.93954   0.01350   0.00000   0.14513   0.11715   2.05669
    A4        1.88414   0.00094   0.00000   0.00750   0.00743   1.89157
    A5        1.89923   0.00114   0.00000   0.00898   0.00890   1.90813
    A6        1.89923  -0.00269   0.00000  -0.02681  -0.02677   1.87246
    A7        1.93449  -0.00079   0.00000   0.00434   0.00427   1.93876
    A8        1.93449   0.00079   0.00000   0.00347   0.00347   1.93796
    A9        1.91142   0.00056   0.00000   0.00203   0.00204   1.91346
   A10        1.88615  -0.00028   0.00000  -0.00228  -0.00228   1.88388
   A11        1.88616  -0.00001   0.00000  -0.00062  -0.00062   1.88554
   A12        2.04055  -0.00001   0.00000  -0.00003  -0.00003   2.04052
   A13        1.84789  -0.00002   0.00000  -0.00020  -0.00020   1.84769
   A14        1.89691   0.00032   0.00000   0.00278   0.00278   1.89969
   A15        1.89691   0.00001   0.00000   0.00031   0.00031   1.89722
   A16        1.95529   0.00030   0.00000   0.00196   0.00196   1.95725
   A17        1.92445  -0.00016   0.00000  -0.00120  -0.00120   1.92325
   A18        1.95528  -0.00003   0.00000  -0.00011  -0.00011   1.95518
   A19        1.87221  -0.00008   0.00000  -0.00057  -0.00057   1.87164
   A20        1.88042  -0.00008   0.00000  -0.00001  -0.00001   1.88041
   A21        1.87221   0.00004   0.00000  -0.00015  -0.00015   1.87206
   A22        1.95325  -0.00008   0.00000  -0.00018  -0.00018   1.95307
   A23        1.94002  -0.00034   0.00000  -0.00188  -0.00188   1.93814
   A24        1.93250  -0.00003   0.00000  -0.00047  -0.00047   1.93202
   A25        1.88195   0.00031   0.00000   0.00237   0.00237   1.88432
   A26        1.87429   0.00004   0.00000   0.00013   0.00013   1.87443
   A27        1.87869   0.00012   0.00000   0.00017   0.00017   1.87886
   A28        1.93250   0.00095   0.00000   0.00655   0.00653   1.93903
   A29        1.94002   0.00076   0.00000   0.00544   0.00541   1.94543
   A30        1.95325  -0.00252   0.00000  -0.01663  -0.01662   1.93663
   A31        1.87869  -0.00032   0.00000   0.00227   0.00221   1.88090
   A32        1.87429   0.00052   0.00000   0.00099   0.00100   1.87529
   A33        1.88195   0.00066   0.00000   0.00179   0.00179   1.88374
    D1        1.04736  -0.00870   0.00000  -0.18256  -0.18887   0.85849
    D2       -3.13510  -0.00844   0.00000  -0.16779  -0.17404   2.97405
    D3       -1.05336  -0.00866   0.00000  -0.17571  -0.18200  -1.23537
    D4        3.14159   0.00849   0.00000   0.16745   0.17371  -2.96789
    D5       -1.04087   0.00875   0.00000   0.18222   0.18854  -0.85233
    D6        1.04086   0.00853   0.00000   0.17430   0.18058   1.22144
    D7        0.99614   0.00113   0.00000   0.01338   0.01340   1.00953
    D8       -0.99615   0.00130   0.00000   0.01508   0.01509  -0.98106
    D9        3.14159   0.00131   0.00000   0.01520   0.01521  -3.12639
   D10       -1.08232  -0.00038   0.00000  -0.00471  -0.00470  -1.08702
   D11       -3.07460  -0.00021   0.00000  -0.00301  -0.00301  -3.07762
   D12        1.06313  -0.00021   0.00000  -0.00289  -0.00289   1.06024
   D13        3.07459  -0.00110   0.00000  -0.01263  -0.01265   3.06195
   D14        1.08231  -0.00093   0.00000  -0.01094  -0.01095   1.07135
   D15       -1.06314  -0.00092   0.00000  -0.01082  -0.01083  -1.07398
   D16        3.09341  -0.00128   0.00000  -0.01641  -0.01642   3.07699
   D17       -1.08437  -0.00117   0.00000  -0.01481  -0.01482  -1.09919
   D18        1.00293  -0.00126   0.00000  -0.01613  -0.01615   0.98678
   D19       -1.12043   0.00012   0.00000   0.00092   0.00093  -1.11950
   D20        0.98498   0.00022   0.00000   0.00252   0.00253   0.98750
   D21        3.07227   0.00013   0.00000   0.00119   0.00120   3.07347
   D22        1.01930   0.00097   0.00000   0.00956   0.00957   1.02887
   D23        3.12471   0.00108   0.00000   0.01115   0.01117   3.13587
   D24       -1.07118   0.00099   0.00000   0.00983   0.00984  -1.06135
   D25       -1.00294  -0.00041   0.00000  -0.00555  -0.00558  -1.00852
   D26        1.08436   0.00032   0.00000   0.00518   0.00519   1.08954
   D27       -3.09342  -0.00005   0.00000  -0.00019  -0.00019  -3.09362
   D28       -3.07228  -0.00038   0.00000  -0.00022  -0.00025  -3.07253
   D29       -0.98499   0.00035   0.00000   0.01052   0.01052  -0.97447
   D30        1.12042  -0.00001   0.00000   0.00515   0.00514   1.12556
   D31        1.07117  -0.00029   0.00000  -0.00936  -0.00936   1.06182
   D32       -3.12472   0.00044   0.00000   0.00137   0.00141  -3.12331
   D33       -1.01931   0.00007   0.00000  -0.00400  -0.00397  -1.02328
   D34        1.05782   0.00007   0.00000   0.00078   0.00078   1.05860
   D35        3.14158   0.00006   0.00000   0.00053   0.00053  -3.14108
   D36       -1.05785  -0.00001   0.00000  -0.00054  -0.00054  -1.05839
   D37       -3.08547  -0.00006   0.00000  -0.00001  -0.00001  -3.08548
   D38       -1.00171  -0.00007   0.00000  -0.00027  -0.00027  -1.00198
   D39        1.08205  -0.00014   0.00000  -0.00134  -0.00134   1.08071
   D40       -1.08208   0.00009   0.00000   0.00138   0.00138  -1.08070
   D41        1.00168   0.00008   0.00000   0.00113   0.00113   1.00281
   D42        3.08544   0.00001   0.00000   0.00006   0.00006   3.08550
         Item               Value     Threshold  Converged?
 Maximum Force            0.013507     0.000015     NO 
 RMS     Force            0.003222     0.000010     NO 
 Maximum Displacement     0.197341     0.000060     NO 
 RMS     Displacement     0.043140     0.000040     NO 
 Predicted change in Energy=-9.824636D-03
 Lowest energy point so far.  Saving SCF results.
 GradGradGradGradGradGradGradGradGradGradGradGradGradGradGradGradGradGrad

 Leave Link  103 at Sat Nov  7 02:12:57 2015, MaxMem=   805306368 cpu:         2.8
 (Enter /home/hetanjin/apps/g09D01/g09/l202.exe)
                          Input orientation:                          
 ---------------------------------------------------------------------
 Center     Atomic      Atomic             Coordinates (Angstroms)
 Number     Number       Type             X           Y           Z
 ---------------------------------------------------------------------
      1          6           0        1.614197    0.943764    0.059085
      2          1           0        1.600602    1.740858    0.812244
      3          1           0        2.616662    0.529676   -0.102010
      4          6           0        0.432903   -0.016152    0.015882
      5          6           0       -0.877569    0.819284    0.014520
      6          1           0       -0.849237    1.491709   -0.853720
      7          1           0       -0.866639    1.471137    0.900066
      8          6           0       -2.198496    0.039105   -0.005801
      9          1           0       -2.308590   -0.609555    0.870549
     10          1           0       -3.047418    0.732371   -0.005439
     11          1           0       -2.291436   -0.588223   -0.899259
     12          6           0        0.533442   -0.893114   -1.249871
     13          1           0       -0.262438   -1.645428   -1.290258
     14          1           0        0.467989   -0.282547   -2.158129
     15          1           0        1.491250   -1.427188   -1.276423
     16          6           0        0.520323   -0.908064    1.273272
     17          1           0        1.475826   -1.445355    1.310571
     18          1           0        0.433256   -0.315617    2.192584
     19          1           0       -0.278929   -1.658200    1.278266
 ---------------------------------------------------------------------
                    Distance matrix (angstroms):
                    1          2          3          4          5
     1  C    0.000000
     2  H    1.096718   0.000000
     3  H    1.096520   1.826252   0.000000
     4  C    1.522748   2.254949   2.254025   0.000000
     5  C    2.495272   2.761701   3.508148   1.554120   0.000000
     6  H    2.683647   2.973083   3.674647   2.161882   1.098544
     7  H    2.672063   2.483494   3.744848   2.163936   1.099648
     8  C    3.919088   4.242441   4.841039   2.632068   1.534256
     9  H    4.296456   4.561757   5.147992   2.932297   2.195948
    10  H    4.666852   4.825945   5.668528   3.559969   2.171681
    11  H    4.303415   4.847868   5.096541   2.930320   2.194331
    12  C    2.501104   3.511261   2.771591   1.543147   2.553809
    13  H    3.470794   4.399814   3.798977   2.200919   2.855808
    14  H    2.780948   3.768301   3.082876   2.190553   2.782977
    15  H    2.723988   3.796182   2.544624   2.186589   3.510622
    16  C    2.469834   2.897643   2.890179   1.544079   2.553878
    17  H    2.700603   3.227359   2.682841   2.192380   3.513802
    18  H    2.744537   2.738088   3.278253   2.197205   2.783923
    19  H    3.441010   3.911957   3.882835   2.190124   2.844882
                    6          7          8          9         10
     6  H    0.000000
     7  H    1.753993   0.000000
[...]
 79087,-0.06444958,-0.12533135,-0.01957471,-0.01663421,-0.00941639,0.00
 194387,0.01122717,0.00857672,-0.00180907,0.01150743,0.46901559,0.00496
 985,-0.01950656,-0.05207789,-0.01156377,-0.01108150,0.00248185,0.00511
 162,0.00529667,0.00173534,-0.00174534,0.03097434,0.43649065,-0.0366391
 2,0.00873559,0.00163194,0.00149540,0.00178537,0.00069340,-0.00265966,-
 0.00142878,-0.00060729,-0.12697506,0.03538718,-0.00412746,0.44773140,-
 0.01453619,0.01118717,0.00194404,-0.00159704,0.00041049,-0.00050332,-0
 .00455908,-0.00292060,0.00046683,0.03602381,-0.10379372,-0.00228269,0.
 02168395,0.52213357,0.00028561,0.00111691,-0.00028546,-0.00119076,-0.0
 0000863,0.00040820,0.00009601,-0.00036549,0.00011797,-0.00141844,-0.00
 152038,-0.07714393,-0.00188245,-0.00277264,0.59736390,0.00103510,0.000
 91784,-0.00025258,-0.00007483,-0.00022663,-0.00022478,0.00010575,0.000
 00166,-0.00010855,-0.00130574,0.01716816,-0.02220348,-0.04754855,-0.00
 613873,0.00839383,0.05889269,-0.00141499,0.00035421,-0.00051799,0.0002
 4987,0.00008272,0.00007192,0.00006058,0.00004329,-0.00006483,0.0010328
 3,-0.01235916,0.01545635,-0.00599068,-0.14407898,0.12107203,0.00678496
 ,0.15551505,0.00036829,0.00015013,0.00072098,-0.00020241,-0.00009004,-
 0.00041668,-0.00011773,-0.00021952,-0.00000660,0.00010049,-0.00091380,
 -0.00106807,0.00755122,0.12126545,-0.20939154,-0.00859891,-0.13430778,
 0.22495837,0.00080966,0.00167367,0.00104497,-0.00038401,-0.00070071,-0
 .00016279,0.00031117,-0.00021594,-0.00017904,-0.00233218,0.01578564,0.
 02284044,-0.04723862,-0.00100807,-0.00175641,-0.00044128,0.00062638,0.
 00086446,0.05894923,-0.00157941,0.00021768,0.00064303,0.00016536,0.000
 64220,0.00008570,-0.00000362,0.00014764,0.00018477,0.00154179,-0.01283
 123,-0.01695419,-0.00077263,-0.13191442,-0.11648221,0.00009077,0.01268
 714,0.01661771,0.00151386,0.14274037,-0.00065578,-0.00052053,0.0001974
 7,0.00063528,0.00058139,0.00022512,0.00010754,0.00045592,0.00015109,-0
 .00020526,0.00049115,-0.00147632,-0.00091118,-0.11670513,-0.21859968,-
 0.00007290,-0.01516205,-0.02190387,0.00184515,0.12992131,0.23562989,-0
 .00277046,0.00295760,0.00096948,0.00015534,-0.00024495,-0.00011355,-0.
 00056384,-0.00076037,-0.00046244,-0.02502553,-0.01112244,-0.00080939,-
 0.15957614,-0.05090072,-0.00290514,-0.00339464,-0.00193354,-0.00006223
 ,-0.00246953,-0.00144734,-0.00014036,0.49634000,0.00323095,-0.00301066
 ,-0.00089339,0.00027510,0.00020099,0.00041647,0.00139117,0.00123217,-0
 .00012213,0.01327713,0.01460840,0.00128469,-0.04729634,-0.11412176,-0.
 00149499,-0.01909230,-0.01128839,-0.00165945,-0.01816787,-0.01084984,0
 .00027409,-0.04157263,0.55521810,-0.00020110,-0.00023278,0.00044898,0.
 00017141,0.00023772,-0.00004422,-0.00001773,0.00011920,0.00032441,-0.0
 0000641,-0.00028027,0.00005908,-0.00248394,-0.00119256,-0.08285063,0.0
 2443954,0.01426164,0.00195761,-0.02548080,-0.01494876,0.00018756,-0.00
 250977,-0.00154150,0.57648269,0.00005788,0.00005869,-0.00043327,0.0000
 9663,0.00003667,0.00010372,0.00000116,0.00007759,0.00005474,0.00118038
 ,-0.00009237,0.00066627,-0.00179035,-0.01785242,0.02535464,-0.00522593
 ,-0.00336877,-0.00045016,0.00122203,0.00072812,-0.00045699,-0.05153307
 ,-0.01536103,0.02089912,0.05527021,-0.00006986,0.00013601,-0.00011780,
 0.00003588,-0.00000448,0.00005716,-0.00007843,-0.00000942,0.00002143,0
 .00063823,0.00005442,-0.00019314,-0.00150727,-0.01063423,0.01365384,-0
 .00343075,-0.00086073,-0.00071990,0.00052813,0.00014207,-0.00016430,-0
 .01573434,-0.14107373,0.12311536,0.01860475,0.15169654,0.00025152,-0.0
 0017775,0.00008660,-0.00003923,-0.00001765,-0.00002649,0.00006911,0.00
 002907,-0.00003452,-0.00026219,0.00077141,-0.00020113,0.00092795,-0.00
 172223,0.00221495,-0.00069178,-0.00039135,0.00160668,0.00057632,0.0000
 8561,0.00082379,0.02144568,0.12309302,-0.21895837,-0.02219633,-0.13766
 853,0.23491576,-0.00122185,0.00122320,0.00037233,-0.00002621,-0.000059
 05,-0.00008147,-0.00049700,-0.00039077,-0.00005704,-0.00232409,-0.0053
 2780,-0.00035312,-0.02311887,0.01965303,-0.00018355,0.00103704,0.00007
 155,0.00067171,0.00106715,0.00009836,-0.00061320,-0.20040754,0.1305276
 1,-0.00116668,0.00324349,-0.00262586,-0.00083420,0.21940964,-0.0005733
 0,0.00068400,0.00011456,0.00000714,-0.00000694,-0.00004204,-0.00027846
 ,-0.00021007,0.00005478,-0.00275769,-0.00232875,-0.00025593,-0.0162191
 8,0.01250384,-0.00011537,0.00073192,0.00086825,-0.00001198,0.00073931,
 0.00083496,0.00007737,0.13116218,-0.15888671,0.00110079,0.01419365,-0.
 01281414,-0.00099828,-0.14086947,0.17143941,-0.00004227,0.00004502,0.0
 0016906,-0.00000738,0.00002086,0.00000251,-0.00004385,-0.00000822,-0.0
 0000369,-0.00003767,-0.00015932,0.00003834,-0.00074755,0.00067027,-0.0
 0106661,0.00027200,-0.00034797,0.00009846,-0.00018300,0.00039459,0.000
 06861,-0.00116686,0.00108826,-0.04933579,-0.02172483,0.01769210,0.0005
 1201,0.00144209,-0.00108534,0.04815019,0.00000438,-0.00007592,0.000182
 24,0.00017427,0.00021812,0.00007239,-0.00007870,0.00013413,0.00011152,
 0.00135621,-0.00019678,-0.00077888,-0.00080342,-0.01689280,-0.02599412
 ,0.00121439,0.00070405,0.00050012,-0.00527735,-0.00343526,-0.00003014,
 -0.04988909,-0.00928927,-0.01359604,-0.00081696,0.00217431,0.00192042,
 0.00222809,0.01341273,0.02228936,0.05363937,-0.00001398,-0.00001117,0.
 00001301,0.00005769,0.00011296,0.00003946,-0.00009107,0.00003750,0.000
 05565,0.00066232,0.00002623,0.00010278,-0.00089294,-0.01007705,-0.0140
 6348,0.00053412,0.00012588,0.00015823,-0.00347677,-0.00091735,0.000451
 59,-0.00965666,-0.13266117,-0.12061030,0.00149261,0.01319155,0.0169918
 0,-0.00184369,-0.01225561,-0.01825974,0.01195732,0.14221417,-0.0001799
 3,0.00013712,0.00007462,0.00001529,0.00009708,0.00003576,-0.00008989,-
 0.00003132,0.00000674,0.00036010,-0.00080221,-0.00034560,-0.00114283,0
 .00050684,0.00058229,-0.00052922,-0.00008414,0.00078586,0.00025796,0.0
 0015082,0.00166899,-0.01409406,-0.12057056,-0.22878221,-0.00095652,-0.
 01572336,-0.02105427,0.00084355,0.00115264,0.00095521,0.01446824,0.135
 08393,0.24592206,0.00071748,-0.01784250,-0.01979215,-0.00333025,-0.003
 48219,-0.00031941,0.00055852,-0.00054231,-0.00114666,-0.08051968,0.005
 02677,0.00170894,-0.00322882,0.01781370,0.02451145,0.00084045,-0.00089
 588,0.00016380,-0.00516109,0.00370373,0.00075896,0.00046613,0.00059285
 ,0.00052596,-0.00019368,-0.00004056,0.00027120,0.00018506,-0.00014075,
 0.00001689,-0.00077051,0.00043399,0.00010056,0.57871666,-0.00476680,-0
 .02150301,-0.01936701,-0.00217104,-0.00177280,-0.00089045,0.00157657,0
 .00141867,0.00051945,0.00381427,-0.10117342,-0.04584128,0.00566401,-0.
 01321976,-0.01550058,-0.00067543,0.00007278,-0.00061391,0.00243830,-0.
 00115331,0.00010534,0.00055111,0.00061699,0.00122902,0.00007296,-0.000
 01728,-0.00006167,-0.00043400,-0.00052661,-0.00041512,-0.00015467,-0.0
 0010381,-0.00103784,0.00771114,0.54410159,-0.00500352,-0.00731743,-0.0
 0409785,0.00069114,0.00167327,-0.00003497,0.00108978,0.00048842,0.0008
 5612,0.00489209,-0.04073794,-0.13834532,0.00540982,-0.00432593,-0.0015
 5564,-0.00094760,0.00134112,0.00077104,-0.00106866,0.00163006,0.000984
 41,-0.00013316,0.00066971,0.00014100,-0.00002155,-0.00010452,0.0000274
 9,-0.00047556,-0.00019945,0.00012105,0.00009208,-0.00025724,0.00004141
 ,0.00985983,-0.05836893,0.49756043,0.00027431,-0.00040962,-0.00029113,
 0.00016684,0.00010351,-0.00020851,0.00049067,0.00016165,0.00016519,0.0
 0230309,0.00235298,0.00043151,-0.00003536,0.00013344,-0.00050587,-0.00
 004281,0.00007507,0.00002241,0.00012432,-0.00020203,-0.00004344,-0.000
 93781,0.00042835,0.00010857,0.00001504,-0.00003469,-0.00003856,0.00010
 605,0.00014612,0.00010663,-0.00114657,0.00100099,0.00081329,-0.1894438
 1,-0.13093876,-0.00642836,0.20592215,0.00150143,-0.00206667,-0.0033852
 1,-0.00100152,-0.00042280,-0.00032465,-0.00004049,0.00008367,0.0001860
 4,-0.01349216,-0.01237332,0.00006276,-0.00127366,-0.00003200,0.0003381
 5,0.00001960,-0.00000553,-0.00010120,0.00019000,0.00016586,-0.00000817
 ,-0.00028977,-0.00025977,-0.00088125,0.00006382,0.00006394,0.00009348,
 0.00008174,0.00039288,0.00043616,0.00113400,0.00025261,0.00054918,-0.1
 3053977,-0.17063883,-0.00519257,0.14436938,0.18338152,0.00171657,-0.00
 363448,-0.00359839,-0.00121989,-0.00108470,-0.00007682,-0.00009639,0.0
 0023592,-0.00017766,-0.02171047,-0.01736355,-0.00127638,-0.00048646,0.
 00064517,0.00072421,0.00008414,-0.00005534,-0.00000946,-0.00010692,0.0
 0014287,0.00000400,0.00039642,0.00002516,0.00022648,0.00013371,-0.0000
 2553,-0.00015830,0.00001857,0.00014112,-0.00000840,0.00042428,-0.00021
 848,0.00008568,-0.00573976,-0.00432368,-0.05019638,0.00589976,0.007705
 31,0.05194323,0.00025025,0.00007518,-0.00033123,-0.00003841,0.00004992
 ,0.00002633,-0.00017927,0.00014860,-0.00009943,-0.00136083,-0.00131126
 ,0.00191783,0.00023796,-0.00068571,0.00090651,0.00011324,0.00025136,-0
 .00002018,-0.00000973,-0.00002796,-0.00017546,-0.00004101,0.00010022,0
 .00002104,0.00010409,-0.00001423,-0.00016443,-0.00001854,0.00002751,-0
 .00003793,-0.00009118,-0.00018110,0.00001963,-0.05091221,0.00817461,-0
 .01232107,0.00236749,-0.01375249,0.02119993,0.04912413,0.00035134,0.00
 102985,-0.00015472,0.00011526,0.00013888,0.00000489,-0.00006081,-0.000
 04506,0.00010725,-0.00123411,0.01095742,-0.01565402,-0.00021527,0.0011
 9012,-0.00024671,-0.00003550,-0.00005172,0.00025276,-0.00027018,0.0001
 7175,0.00011069,-0.00003363,0.00007954,0.00010369,-0.00002783,-0.00007
 287,-0.00010340,-0.00000115,0.00004891,0.00001314,-0.00003138,-0.00012
 634,0.00006124,0.00835149,-0.13685195,0.12396622,0.00297167,-0.0124526
 7,0.01746904,-0.00987921,0.14631292,0.00110079,0.00103309,0.00124151,-
 0.00010057,-0.00007653,0.00001397,-0.00036053,-0.00003976,-0.00025279,
 -0.00195108,0.01574617,-0.02142818,-0.00069403,0.00163839,0.00050755,0
 .00059106,-0.00101035,0.00043987,-0.00024325,-0.00015243,0.00046776,0.
 00029944,-0.00021626,-0.00000520,-0.00020001,-0.00004606,0.00014071,0.
 00008091,0.00000775,0.00002608,0.00015099,0.00015012,-0.00010676,-0.01
 231870,0.12310170,-0.22235187,0.00066721,-0.00119296,0.00200540,0.0131
 2519,-0.13397365,0.24333338,0.00061007,-0.00125645,-0.00043091,0.00025
 306,0.00009341,-0.00001565,0.00048894,0.00025802,-0.00004591,-0.002521
 36,0.00078982,-0.00016192,0.00097362,-0.00049019,0.00071104,0.00002171
 ,-0.00006120,-0.00012305,-0.00006358,0.00022656,0.00009376,0.00006150,
 0.00005632,-0.00035184,-0.00001893,-0.00001495,0.00010575,-0.00002452,
 0.00012789,0.00015310,0.00032733,0.00013461,0.00027614,-0.24960958,0.1
 1007049,0.00269982,-0.02064088,0.01204662,-0.00019200,-0.00061699,-0.0
 0026776,-0.00041360,0.27024498,0.00180137,0.00055913,0.00013463,-0.000
 34837,0.00024233,0.00022555,-0.00097244,-0.00034196,-0.00002301,0.0163
 0536,-0.01070724,0.00045227,-0.00126618,-0.00171634,-0.00403942,-0.000
 30542,0.00041196,-0.00000831,0.00136499,-0.00064032,-0.00039513,-0.000
 63534,-0.00010145,-0.00026293,0.00008550,0.00004778,-0.00003502,0.0000
 9304,0.00016544,0.00017580,0.00017236,0.00016185,0.00038537,0.10944741
 ,-0.10853916,-0.00050961,-0.02048507,0.01253013,0.00023911,0.01680961,
 -0.00921383,-0.00083161,-0.12121690,0.11627501,0.00088537,0.00093227,0
 .00058004,-0.00001118,0.00024366,0.00003891,-0.00046539,-0.00009437,0.
 00029399,0.02498908,-0.01348376,-0.00086528,-0.00097935,-0.00231660,-0
 .00490963,-0.00004344,-0.00026676,0.00017914,0.00147493,-0.00120677,0.
 00010100,-0.00048949,-0.00028624,-0.00006923,0.00002682,0.00005316,0.0
 0001635,0.00007059,0.00007866,0.00007360,0.00010823,0.00025572,0.00011
 947,0.00196508,-0.00018989,-0.04850033,-0.00033133,0.00060656,-0.00083
 485,-0.02490116,0.01201556,0.00123426,-0.00248483,0.00374732,0.0513359
 0,-0.00402115,-0.01720222,0.01704440,-0.00057933,0.00036420,-0.0007770
 7,-0.00042983,0.00004112,-0.00084573,-0.07330223,-0.00086590,0.0056466
 5,-0.00171525,0.02016045,-0.02365260,-0.00534584,0.00397977,-0.0008446
 2,0.00082244,-0.00084141,-0.00023695,0.00052610,0.00039630,-0.00061256
 ,-0.00070213,0.00049937,-0.00016347,0.00027792,-0.00009460,-0.00005676
 ,-0.00019139,-0.00003855,-0.00027226,0.00165745,-0.00074067,0.00172684
 ,0.00002500,0.00036133,-0.00096236,0.00000585,0.00017287,0.00033831,-0
 .00013397,-0.00030813,0.00097491,0.57513417,-0.01088525,-0.02131379,0.
 01569921,-0.00003686,0.00049085,-0.00071388,0.00040021,0.00066334,-0.0
 0074641,0.00827907,-0.09865054,0.04232497,0.00612987,-0.01411416,0.016
 46171,0.00232711,-0.00126491,-0.00000685,-0.00075909,0.00027142,0.0005
 9681,0.00070657,0.00066132,-0.00122949,-0.00010385,-0.00019412,0.00110
 512,-0.00041243,-0.00057851,0.00035151,0.00006006,-0.00000940,0.000057
 23,0.00009921,0.01064406,-0.01317108,-0.00001390,0.00050710,-0.0006477
 4,0.00018815,-0.00201020,-0.00507666,-0.00013078,0.00033903,-0.0005381
 0,-0.00223587,0.52651010,0.00890084,0.00873967,-0.00061659,-0.00076514
 ,-0.00051894,-0.00029239,-0.00057760,-0.00056861,-0.00004887,-0.007936
 45,0.02954269,-0.12269373,-0.00418215,0.00466725,-0.00274748,0.0009962
 7,-0.00104195,0.00061379,0.00090675,-0.00147673,0.00073883,0.00009331,
 -0.00061730,-0.00005694,-0.00007064,0.00031220,0.00005454,0.00044758,0
 .00017614,0.00015702,0.00001106,0.00010238,0.00002905,-0.00000359,0.01
 548206,-0.03466264,0.00016675,0.00155680,0.00163782,0.00062380,-0.0026
 8044,-0.00437369,-0.00046764,0.00101786,0.00149335,-0.00455480,0.06975
 893,0.49026522,0.00088032,-0.00127369,0.00023068,0.00002316,-0.0000660
 0,0.00006198,0.00030987,0.00033760,-0.00006431,-0.00045707,-0.00007772
 ,0.00001726,0.00074685,-0.00048038,-0.00028710,0.00003272,0.00010625,-
 0.00003432,0.00000662,-0.00006408,0.00010978,0.00002272,0.00000163,0.0
 0037884,0.00034159,0.00016234,-0.00028215,0.00000006,0.00015244,-0.000
 16506,-0.00001321,-0.00000906,-0.00010297,-0.00003816,-0.00016026,0.00
 039327,-0.00009218,0.00010436,-0.00002230,0.00024193,-0.00020712,-0.00
 010292,0.00044218,-0.00018593,-0.00049483,-0.24913748,0.11278869,-0.00
 621056,0.26878652,0.00131272,0.00067762,-0.00092866,-0.00007256,-0.000
 05346,0.00019874,-0.00045046,-0.00020964,0.00042067,0.01643541,-0.0113
 8411,0.00010386,-0.00131159,-0.00213459,0.00413790,0.00145260,-0.00065
 618,0.00036573,-0.00030841,0.00039081,0.00000829,-0.00070657,-0.000121
 63,0.00024808,0.00017863,0.00019780,-0.00039613,0.00010045,0.00017822,
 -0.00016980,0.00008843,0.00004583,0.00004343,-0.00019801,0.00038710,-0
 .00113754,-0.00011903,0.00005157,0.00007036,-0.00024732,-0.00005786,-0
 .00008073,-0.00026559,0.00057001,0.00032709,0.11230755,-0.11118630,0.0
 0233303,-0.12364932,0.11968013,-0.00103373,-0.00101443,0.00059353,0.00
 010753,-0.00000725,-0.00002790,0.00036945,0.00016377,-0.00008916,-0.02
 328673,0.01296709,-0.00127840,0.00108609,0.00258042,-0.00464960,-0.001
 44596,0.00116557,0.00013228,0.00001933,0.00027837,0.00020246,0.0004852
 7,0.00027273,-0.00002005,-0.00007902,-0.00024654,0.00008189,-0.0000588
 9,-0.00006125,0.00004995,-0.00002538,-0.00005371,0.00001335,-0.0010369
 3,0.00050049,0.00149983,-0.00002388,-0.00004769,-0.00012635,0.00029823
 ,-0.00010691,0.00030483,0.00053046,-0.00027546,-0.00047002,-0.00598977
 ,0.00216359,-0.04865874,0.00636893,-0.00602378,0.05133289,-0.00026145,
 0.00067082,0.00035752,0.00015170,-0.00015312,0.00008811,0.00005283,-0.
 00007110,0.00012177,-0.00164738,-0.00081665,-0.00100284,0.00032980,-0.
 00054282,-0.00095280,-0.00002336,-0.00003055,0.00014709,0.00011353,0.0
 0022733,-0.00000179,-0.00001484,0.00007670,-0.00001281,-0.00007930,-0.
 00017746,-0.00002323,-0.00001251,0.00003028,0.00004180,0.00009006,-0.0
 0002211,0.00016497,0.00006886,0.00001887,-0.00021666,0.00016149,0.0003
 1144,0.00024315,0.00065345,0.00003443,-0.00006406,0.00027622,-0.000244
 08,-0.00031481,-0.05181029,0.01209699,0.01935019,-0.00158831,0.0153853
 9,0.02532191,0.05038595,0.00038129,0.00131826,0.00046502,0.00004507,-0
 .00008238,-0.00003687,-0.00001773,-0.00010109,0.00004583,-0.00212066,0
 .01061312,0.01654702,-0.00028996,0.00125119,0.00024705,-0.00028511,0.0
 0013920,-0.00012608,-0.00001083,-0.00009091,-0.00025610,-0.00000298,0.
 00008373,-0.00008931,-0.00001823,-0.00011622,-0.00005996,0.00000450,0.
 00005359,-0.00001201,-0.00003907,-0.00007816,0.00009452,0.00011082,-0.
 00229430,0.00297124,0.00026271,0.00003018,0.00014988,-0.00003898,0.000
 91830,0.00113283,-0.00020162,-0.00007211,0.00007688,0.01236623,-0.1259
 6457,-0.11936454,0.00010825,-0.00886790,-0.01289291,-0.01384214,0.1347
 5902,-0.00103759,-0.00141722,0.00116816,0.00031542,0.00068158,-0.00011
 617,-0.00001884,0.00012292,0.00000400,0.00260584,-0.01392762,-0.021589
 14,0.00086512,-0.00168089,0.00052468,0.00019248,0.00014052,0.00047456,
 -0.00056630,0.00103274,0.00053084,-0.00031919,0.00023856,-0.00001387,-
 0.00014969,-0.00015804,-0.00012146,-0.00008613,-0.00000556,0.00002499,
 0.00020534,0.00003814,0.00016554,-0.00032234,0.00515294,-0.00384546,-0
 .00008529,0.00007605,0.00040106,0.00017526,-0.00101678,-0.00165375,0.0
 0010320,0.00004631,0.00030789,0.01951564,-0.11905913,-0.23176949,0.000
 31677,0.00100725,0.00192427,-0.02139343,0.12878264,0.25354189,0.000469
 89,-0.00135997,0.00119147,-0.00006689,-0.00012334,0.00003863,0.0001212
 9,0.00023303,-0.00017697,0.00133334,0.00164957,-0.00056416,-0.00018582
 ,0.00021578,0.00047016,0.00010992,-0.00024708,0.00006400,-0.00004879,0
 .00007784,-0.00000702,-0.00094827,0.00042512,-0.00010480,-0.00117215,0
 .00108538,-0.00087240,0.00009664,0.00020229,-0.00010871,0.00004427,-0.
 00004771,0.00004795,-0.00000281,-0.00005068,-0.00023852,0.00038298,0.0
 0020612,0.00042000,0.00016977,0.00026688,0.00009485,-0.00006980,-0.000
 11182,0.00002081,-0.19108003,-0.12849790,-0.00672799,-0.02050814,-0.01
 993233,-0.00160692,0.00315356,0.00358844,-0.00031628,0.20820102,0.0000
 4988,-0.00214493,0.00401676,-0.00015001,0.00008478,-0.00027249,-0.0003
 0756,-0.00013645,-0.00008948,-0.01451640,-0.01350270,-0.00083640,-0.00
 092150,0.00008122,-0.00041769,0.00016112,0.00026515,-0.00003122,0.0000
 5760,-0.00001453,0.00013748,-0.00033618,-0.00032612,0.00085363,0.00123
 149,0.00026714,-0.00053751,0.00011072,0.00043786,-0.00043019,0.0000596
 4,0.00007149,-0.00006996,0.00039084,0.00055304,-0.00141782,0.00019722,
 0.00079213,0.00052958,0.00031312,0.00003481,-0.00011305,0.00010171,0.0
 0002974,0.00004561,-0.12832184,-0.16480073,-0.00742051,0.01241199,0.01
 249257,0.00063791,-0.01295221,-0.01149897,-0.00005441,0.14242037,0.177
 31451,-0.00037309,0.00275354,-0.00276948,0.00037136,0.00024840,0.00010
 015,0.00017163,-0.00001126,0.00022945,0.02056124,0.01813593,-0.0010159
 0,0.00007916,-0.00088266,0.00075646,0.00014988,-0.00025864,0.00005759,
 -0.00008315,0.00005350,-0.00000194,-0.00048397,0.00003913,0.00030868,-
 0.00050002,0.00026248,0.00007378,-0.00003749,-0.00012860,-0.00003260,-
 0.00011170,0.00002014,-0.00019718,0.00079687,0.00051934,0.00158769,-0.
 00042494,-0.00047679,-0.00056488,-0.00026286,-0.00016785,0.00045691,0.
 00001407,-0.00004371,-0.00012457,-0.00627780,-0.00732976,-0.04906907,-
 0.00011099,-0.00052779,-0.00081507,-0.02185408,-0.01767514,0.00004147,
 0.00837590,0.00546975,0.05097850\\-0.00000027,0.00000041,-0.00000121,-
 0.00000025,0.00000080,-0.00000178,-0.00000022,0.00000043,-0.00000124,-
 0.00000002,0.00000012,-0.00000021,-0.00000016,-0.00000018,-0.00000043,
 -0.00000060,-0.00000074,-0.00000088,-0.00000007,0.00000040,-0.00000084
 ,-0.00000003,-0.00000051,0.00000052,0.00000032,0.00000002,0.00000098,-
 0.00000019,-0.00000069,0.00000029,-0.00000016,-0.00000112,0.00000094,-
 0.00000019,-0.00000068,0.00000034,-0.00000005,-0.00000093,0.00000107,-
 0.00000060,-0.00000134,-0.00000008,-0.00000009,-0.00000049,0.00000042,
 0.00000052,0.00000092,0.00000047,0.00000068,0.00000123,0.00000049,0.00
 000070,0.00000155,0.00000003,0.00000071,0.00000079,0.00000110\\\@


 Boundary, n.  In political geography, an imaginary
 line between two nations, separating the imaginary
 rights of one from the imaginary rights of another.
                               -- Ambrose Bierce
 Job cpu time:       0 days  0 hours 31 minutes  0.4 seconds.
 File lengths (MBytes):  RWF=     64 Int=      0 D2E=      0 Chk=      3 Scr=      1
 Normal termination of Gaussian 09 at Sat Nov  7 02:30:32 2015.
