 Entering Gaussian System, Link 0=/share/apps/g09/g09
 Input=C6H14_1_03_1_opt_B3L.gjf
 Output=C6H14_1_03_1_opt_B3L.log
 Initial command:
 /share/apps/g09/l1.exe /state/partition1/Gau-10676.inp -scrdir=/state/partition1/
 Entering Link 1 = /share/apps/g09/l1.exe PID=     10679.
  
 Copyright (c) 1988,1990,1992,1993,1995,1998,2003,2009, Gaussian, Inc.
                  All Rights Reserved.
  
 This is part of the Gaussian(R) 09 program.  It is based on
 the Gaussian(R) 03 system (copyright 2003, Gaussian, Inc.),
 the Gaussian(R) 98 system (copyright 1998, Gaussian, Inc.),
 the Gaussian(R) 94 system (copyright 1995, Gaussian, Inc.),
 the Gaussian 92(TM) system (copyright 1992, Gaussian, Inc.),
 the Gaussian 90(TM) system (copyright 1990, Gaussian, Inc.),
 the Gaussian 88(TM) system (copyright 1988, Gaussian, Inc.),
 the Gaussian 86(TM) system (copyright 1986, Carnegie Mellon
 University), and the Gaussian 82(TM) system (copyright 1983,
 Carnegie Mellon University). Gaussian is a federally registered
 trademark of Gaussian, Inc.
  
 This software contains proprietary and confidential information,
 including trade secrets, belonging to Gaussian, Inc.
  
 This software is provided under written license and may be
 used, copied, transmitted, or stored only in accord with that
 written license.
  
 The following legend is applicable only to US Government
 contracts under FAR:
  
                    RESTRICTED RIGHTS LEGEND
  
 Use, reproduction and disclosure by the US Government is
 subject to restrictions as set forth in subparagraphs (a)
 and (c) of the Commercial Computer Software - Restricted
 Rights clause in FAR 52.227-19.
  
 Gaussian, Inc.
 340 Quinnipiac St., Bldg. 40, Wallingford CT 06492
  
  
 ---------------------------------------------------------------
 Warning -- This program may not be used in any manner that
 competes with the business of Gaussian, Inc. or will provide
 assistance to any competitor of Gaussian, Inc.  The licensee
 of this program is prohibited from giving any competitor of
 Gaussian, Inc. access to this program.  By using this program,
 the user acknowledges that Gaussian, Inc. is engaged in the
 business of creating and licensing software in the field of
 computational chemistry and represents and warrants to the
 licensee that it is not a competitor of Gaussian, Inc. and that
 it will not use this program in any manner prohibited above.
 ---------------------------------------------------------------
  

 Cite this work as:
 Gaussian 09, Revision A.01,
 M. J. Frisch, G. W. Trucks, H. B. Schlegel, G. E. Scuseria, 
 M. A. Robb, J. R. Cheeseman, G. Scalmani, V. Barone, B. Mennucci, 
 G. A. Petersson, H. Nakatsuji, M. Caricato, X. Li, H. P. Hratchian, 
 A. F. Izmaylov, J. Bloino, G. Zheng, J. L. Sonnenberg, M. Hada, 
 M. Ehara, K. Toyota, R. Fukuda, J. Hasegawa, M. Ishida, T. Nakajima, 
 Y. Honda, O. Kitao, H. Nakai, T. Vreven, J. A. Montgomery, Jr., 
 J. E. Peralta, F. Ogliaro, M. Bearpark, J. J. Heyd, E. Brothers, 
 K. N. Kudin, V. N. Staroverov, R. Kobayashi, J. Normand, 
 K. Raghavachari, A. Rendell, J. C. Burant, S. S. Iyengar, J. Tomasi, 
 M. Cossi, N. Rega, J. M. Millam, M. Klene, J. E. Knox, J. B. Cross, 
 V. Bakken, C. Adamo, J. Jaramillo, R. Gomperts, R. E. Stratmann, 
 O. Yazyev, A. J. Austin, R. Cammi, C. Pomelli, J. W. Ochterski, 
 R. L. Martin, K. Morokuma, V. G. Zakrzewski, G. A. Voth, 
 P. Salvador, J. J. Dannenberg, S. Dapprich, A. D. Daniels, 
 O. Farkas, J. B. Foresman, J. V. Ortiz, J. Cioslowski, 
 and D. J. Fox, Gaussian, Inc., Wallingford CT, 2009.
 
 ******************************************
 Gaussian 09:  EM64L-G09RevA.01  8-May-2009
                18-Sep-2015 
 ******************************************
 %mem=3GB
 %nprocshared=2
 Will use up to    2 processors via shared memory.
 -----------------------------------------
 #p B3LYP/6-31G(d) opt=tight int=ultrafine
 -----------------------------------------
 1/7=10,14=-1,18=20,19=15,26=3,38=1/1,3;
 2/9=110,12=2,17=6,18=5,40=1/2;
 3/5=1,6=6,7=1,11=2,16=1,25=1,30=1,71=1,74=-5,75=-5/1,2,3;
 4//1;
 5/5=2,38=5/2;
 6/7=2,8=2,9=2,10=2,28=1/1;
 7//1,2,3,16;
 1/7=10,14=-1,18=20,19=15/3(2);
 2/9=110/2;
 99//99;
 2/9=110/2;
 3/5=1,6=6,7=1,11=2,16=1,25=1,30=1,71=1,74=-5,75=-5/1,2,3;
 4/5=5,16=3/1;
 5/5=2,38=5/2;
 7//1,2,3,16;
 1/7=10,14=-1,18=20,19=15/3(-5);
 2/9=110/2;
 6/7=2,8=2,9=2,10=2,19=2,28=1/1;
 99/9=1/99;
 Leave Link    1 at Fri Sep 18 13:20:46 2015, MaxMem=  402653184 cpu:       0.1
 (Enter /share/apps/g09/l101.exe)
 ---------------------------------------------
 using B3LYP/6-31G(d) to do opt and freq calc.
 ---------------------------------------------
 Symbolic Z-matrix:
 Charge =  0 Multiplicity = 1
 C                    -2.96253   0.5228    0.12177 
 H                    -2.80676   1.55781  -0.20297 
 H                    -3.06929   0.53487   1.21238 
 H                    -3.91721   0.18713  -0.29794 
 C                    -1.81561  -0.3835   -0.32058 
 H                    -2.02302  -1.42629  -0.01059 
 H                    -1.76006  -0.40257  -1.42656 
 C                    -0.47135   0.07644   0.26096 
 H                    -0.52761   0.09948   1.36594 
 H                    -0.26443   1.11876  -0.04938 
 C                     0.67797  -0.83694  -0.18521 
 H                     0.73597  -0.85604  -1.29053 
 H                     0.46505  -1.87927   0.12236 
 C                     2.03142  -0.40532   0.39827 
 H                     2.7585   -1.23282   0.27668 
 H                     1.93708  -0.24772   1.49059 
 C                     2.58639   0.85692  -0.25836 
 H                     1.90834   1.70837  -0.12855 
 H                     3.55349   1.13665   0.1731 
 H                     2.73214   0.71923  -1.33564 
 
 NAtoms=     20 NQM=     20 NQMF=      0 NMic=      0 NMicF=      0 NTot=     20.
                    Isotopes and Nuclear Properties:
 (Nuclear quadrupole moments (NQMom) in fm**2, nuclear magnetic moments (NMagM)
  in nuclear magnetons)

  Atom         1           2           3           4           5           6           7           8           9          10
 IAtWgt=          12           1           1           1          12           1           1          12           1           1
 AtmWgt=  12.0000000   1.0078250   1.0078250   1.0078250  12.0000000   1.0078250   1.0078250  12.0000000   1.0078250   1.0078250
 NucSpn=           0           1           1           1           0           1           1           0           1           1
 AtZEff=   0.0000000   0.0000000   0.0000000   0.0000000   0.0000000   0.0000000   0.0000000   0.0000000   0.0000000   0.0000000
 NQMom=    0.0000000   0.0000000   0.0000000   0.0000000   0.0000000   0.0000000   0.0000000   0.0000000   0.0000000   0.0000000
 NMagM=    0.0000000   2.7928460   2.7928460   2.7928460   0.0000000   2.7928460   2.7928460   0.0000000   2.7928460   2.7928460

  Atom        11          12          13          14          15          16          17          18          19          20
 IAtWgt=          12           1           1          12           1           1          12           1           1           1
 AtmWgt=  12.0000000   1.0078250   1.0078250  12.0000000   1.0078250   1.0078250  12.0000000   1.0078250   1.0078250   1.0078250
 NucSpn=           0           1           1           0           1           1           0           1           1           1
 AtZEff=   0.0000000   0.0000000   0.0000000   0.0000000   0.0000000   0.0000000   0.0000000   0.0000000   0.0000000   0.0000000
 NQMom=    0.0000000   0.0000000   0.0000000   0.0000000   0.0000000   0.0000000   0.0000000   0.0000000   0.0000000   0.0000000
 NMagM=    0.0000000   2.7928460   2.7928460   0.0000000   2.7928460   2.7928460   0.0000000   2.7928460   2.7928460   2.7928460
 Leave Link  101 at Fri Sep 18 13:20:46 2015, MaxMem=  402653184 cpu:       0.1
 (Enter /share/apps/g09/l103.exe)

 GradGradGradGradGradGradGradGradGradGradGradGradGradGradGradGradGradGrad
 Berny optimization.
 Initialization pass.
                           ----------------------------
                           !    Initial Parameters    !
                           ! (Angstroms and Degrees)  !
 --------------------------                            --------------------------
 ! Name  Definition              Value          Derivative Info.                !
 --------------------------------------------------------------------------------
 ! R1    R(1,2)                  1.0959         estimate D2E/DX2                !
 ! R2    R(1,3)                  1.0959         estimate D2E/DX2                !
 ! R3    R(1,4)                  1.0956         estimate D2E/DX2                !
 ! R4    R(1,5)                  1.5272         estimate D2E/DX2                !
 ! R5    R(5,6)                  1.1075         estimate D2E/DX2                !
 ! R6    R(5,7)                  1.1075         estimate D2E/DX2                !
 ! R7    R(5,8)                  1.5352         estimate D2E/DX2                !
 ! R8    R(8,9)                  1.1066         estimate D2E/DX2                !
 ! R9    R(8,10)                 1.1071         estimate D2E/DX2                !
 ! R10   R(8,11)                 1.5344         estimate D2E/DX2                !
 ! R11   R(11,12)                1.107          estimate D2E/DX2                !
 ! R12   R(11,13)                1.1074         estimate D2E/DX2                !
 ! R13   R(11,14)                1.5358         estimate D2E/DX2                !
 ! R14   R(14,15)                1.1082         estimate D2E/DX2                !
 ! R15   R(14,16)                1.1077         estimate D2E/DX2                !
 ! R16   R(14,17)                1.5272         estimate D2E/DX2                !
 ! R17   R(17,18)                1.0962         estimate D2E/DX2                !
 ! R18   R(17,19)                1.0953         estimate D2E/DX2                !
 ! R19   R(17,20)                1.0958         estimate D2E/DX2                !
 ! A1    A(2,1,3)              107.3583         estimate D2E/DX2                !
 ! A2    A(2,1,4)              107.4404         estimate D2E/DX2                !
 ! A3    A(2,1,5)              111.5851         estimate D2E/DX2                !
 ! A4    A(3,1,4)              107.4419         estimate D2E/DX2                !
 ! A5    A(3,1,5)              111.5889         estimate D2E/DX2                !
 ! A6    A(4,1,5)              111.1997         estimate D2E/DX2                !
 ! A7    A(1,5,6)              109.6968         estimate D2E/DX2                !
 ! A8    A(1,5,7)              109.7018         estimate D2E/DX2                !
 ! A9    A(1,5,8)              111.7199         estimate D2E/DX2                !
 ! A10   A(6,5,7)              105.8241         estimate D2E/DX2                !
 ! A11   A(6,5,8)              109.8801         estimate D2E/DX2                !
 ! A12   A(7,5,8)              109.8477         estimate D2E/DX2                !
 ! A13   A(5,8,9)              109.8746         estimate D2E/DX2                !
 ! A14   A(5,8,10)             109.8496         estimate D2E/DX2                !
 ! A15   A(5,8,11)             111.5553         estimate D2E/DX2                !
 ! A16   A(9,8,10)             105.6531         estimate D2E/DX2                !
 ! A17   A(9,8,11)             109.9267         estimate D2E/DX2                !
 ! A18   A(10,8,11)            109.8132         estimate D2E/DX2                !
 ! A19   A(8,11,12)            109.8679         estimate D2E/DX2                !
 ! A20   A(8,11,13)            109.6035         estimate D2E/DX2                !
 ! A21   A(8,11,14)            112.4794         estimate D2E/DX2                !
 ! A22   A(12,11,13)           105.7329         estimate D2E/DX2                !
 ! A23   A(12,11,14)           109.7569         estimate D2E/DX2                !
 ! A24   A(13,11,14)           109.1748         estimate D2E/DX2                !
 ! A25   A(11,14,15)           109.0658         estimate D2E/DX2                !
 ! A26   A(11,14,16)           109.8521         estimate D2E/DX2                !
 ! A27   A(11,14,17)           112.9033         estimate D2E/DX2                !
 ! A28   A(15,14,16)           105.6832         estimate D2E/DX2                !
 ! A29   A(15,14,17)           109.3629         estimate D2E/DX2                !
 ! A30   A(16,14,17)           109.7155         estimate D2E/DX2                !
 ! A31   A(14,17,18)           111.4873         estimate D2E/DX2                !
 ! A32   A(14,17,19)           111.2579         estimate D2E/DX2                !
 ! A33   A(14,17,20)           111.5412         estimate D2E/DX2                !
 ! A34   A(18,17,19)           107.5255         estimate D2E/DX2                !
 ! A35   A(18,17,20)           107.2357         estimate D2E/DX2                !
 ! A36   A(19,17,20)           107.5731         estimate D2E/DX2                !
 ! D1    D(2,1,5,6)           -177.8529         estimate D2E/DX2                !
 ! D2    D(2,1,5,7)            -62.0147         estimate D2E/DX2                !
 ! D3    D(2,1,5,8)             60.0474         estimate D2E/DX2                !
 ! D4    D(3,1,5,6)             62.0409         estimate D2E/DX2                !
 ! D5    D(3,1,5,7)            177.8791         estimate D2E/DX2                !
 ! D6    D(3,1,5,8)            -60.0588         estimate D2E/DX2                !
 ! D7    D(4,1,5,6)            -57.9083         estimate D2E/DX2                !
 ! D8    D(4,1,5,7)             57.93           estimate D2E/DX2                !
 ! D9    D(4,1,5,8)            179.9921         estimate D2E/DX2                !
 ! D10   D(1,5,8,9)             57.801          estimate D2E/DX2                !
 ! D11   D(1,5,8,10)           -58.0175         estimate D2E/DX2                !
 ! D12   D(1,5,8,11)           179.9725         estimate D2E/DX2                !
 ! D13   D(6,5,8,9)            -64.1933         estimate D2E/DX2                !
 ! D14   D(6,5,8,10)           179.9881         estimate D2E/DX2                !
 ! D15   D(6,5,8,11)            57.9781         estimate D2E/DX2                !
 ! D16   D(7,5,8,9)            179.7792         estimate D2E/DX2                !
 ! D17   D(7,5,8,10)            63.9606         estimate D2E/DX2                !
 ! D18   D(7,5,8,11)           -58.0494         estimate D2E/DX2                !
 ! D19   D(5,8,11,12)           58.0872         estimate D2E/DX2                !
 ! D20   D(5,8,11,13)          -57.6824         estimate D2E/DX2                !
 ! D21   D(5,8,11,14)         -179.3307         estimate D2E/DX2                !
 ! D22   D(9,8,11,12)         -179.7714         estimate D2E/DX2                !
 ! D23   D(9,8,11,13)           64.459          estimate D2E/DX2                !
 ! D24   D(9,8,11,14)          -57.1893         estimate D2E/DX2                !
 ! D25   D(10,8,11,12)         -63.9439         estimate D2E/DX2                !
 ! D26   D(10,8,11,13)        -179.7134         estimate D2E/DX2                !
 ! D27   D(10,8,11,14)          58.6383         estimate D2E/DX2                !
 ! D28   D(8,11,14,15)         164.8373         estimate D2E/DX2                !
 ! D29   D(8,11,14,16)          49.442          estimate D2E/DX2                !
 ! D30   D(8,11,14,17)         -73.371          estimate D2E/DX2                !
 ! D31   D(12,11,14,15)        -72.518          estimate D2E/DX2                !
 ! D32   D(12,11,14,16)        172.0867         estimate D2E/DX2                !
 ! D33   D(12,11,14,17)         49.2737         estimate D2E/DX2                !
 ! D34   D(13,11,14,15)         42.9454         estimate D2E/DX2                !
 ! D35   D(13,11,14,16)        -72.4499         estimate D2E/DX2                !
 ! D36   D(13,11,14,17)        164.7371         estimate D2E/DX2                !
 ! D37   D(11,14,17,18)         60.3221         estimate D2E/DX2                !
 ! D38   D(11,14,17,19)       -179.6517         estimate D2E/DX2                !
 ! D39   D(11,14,17,20)        -59.5284         estimate D2E/DX2                !
 ! D40   D(15,14,17,18)       -178.0539         estimate D2E/DX2                !
 ! D41   D(15,14,17,19)        -58.0276         estimate D2E/DX2                !
 ! D42   D(15,14,17,20)         62.0956         estimate D2E/DX2                !
 ! D43   D(16,14,17,18)        -62.567          estimate D2E/DX2                !
 ! D44   D(16,14,17,19)         57.4593         estimate D2E/DX2                !
 ! D45   D(16,14,17,20)        177.5825         estimate D2E/DX2                !
 --------------------------------------------------------------------------------
 Trust Radius=3.00D-01 FncErr=1.00D-07 GrdErr=1.00D-06
 Number of steps in this run= 110 maximum allowed number of steps= 120.
 GradGradGradGradGradGradGradGradGradGradGradGradGradGradGradGradGradGrad

 Leave Link  103 at Fri Sep 18 13:20:46 2015, MaxMem=  402653184 cpu:       0.0
 (Enter /share/apps/g09/l202.exe)
                          Input orientation:                          
 ---------------------------------------------------------------------
 Center     Atomic      Atomic             Coordinates (Angstroms)
 Number     Number       Type             X           Y           Z
 ---------------------------------------------------------------------
      1          6           0       -2.962525    0.522803    0.121774
      2          1           0       -2.806755    1.557807   -0.202966
      3          1           0       -3.069286    0.534872    1.212379
      4          1           0       -3.917212    0.187129   -0.297939
      5          6           0       -1.815611   -0.383496   -0.320584
      6          1           0       -2.023019   -1.426288   -0.010594
      7          1           0       -1.760061   -0.402573   -1.426557
      8          6           0       -0.471349    0.076441    0.260963
      9          1           0       -0.527607    0.099475    1.365940
     10          1           0       -0.264430    1.118762   -0.049378
     11          6           0        0.677974   -0.836942   -0.185212
     12          1           0        0.735967   -0.856035   -1.290531
     13          1           0        0.465048   -1.879272    0.122360
     14          6           0        2.031422   -0.405324    0.398270
     15          1           0        2.758500   -1.232818    0.276682
     16          1           0        1.937076   -0.247720    1.490590
     17          6           0        2.586391    0.856919   -0.258360
     18          1           0        1.908343    1.708373   -0.128550
     19          1           0        3.553485    1.136655    0.173103
     20          1           0        2.732142    0.719227   -1.335642
 ---------------------------------------------------------------------
                    Distance matrix (angstroms):
                    1          2          3          4          5
     1  C    0.000000
     2  H    1.095880   0.000000
     3  H    1.095885   1.765933   0.000000
     4  H    1.095565   1.766605   1.766625   0.000000
     5  C    1.527243   2.182855   2.182905   2.177809   0.000000
     6  H    2.167752   3.091290   2.537023   2.504725   1.107487
     7  H    2.167849   2.536894   3.091417   2.504961   1.107531
     8  C    2.534674   2.804246   2.804394   3.492649   1.535181
     9  H    2.766944   3.127733   2.583270   3.776983   2.176368
    10  H    2.768425   2.584524   3.130523   3.777901   2.176349
    11  C    3.898253   4.228294   4.228131   4.709264   2.538091
    12  H    4.192212   4.422704   4.762261   4.870883   2.770314
    13  H    4.185477   4.756474   4.416758   4.863216   2.763141
    14  C    5.086981   5.255790   5.250139   6.018468   3.913680
    15  H    5.986345   6.244174   6.161440   6.849202   4.690476
    16  H    5.145236   5.350887   5.074792   6.136825   4.169106
    17  C    5.571948   5.438781   5.852646   6.538122   4.573852
    18  H    5.019322   4.718088   5.286964   6.023285   4.275585
    19  H    6.545062   6.385253   6.730775   7.545515   5.601944
    20  H    5.881486   5.715378   6.339003   6.750842   4.788361
                    6          7          8          9         10
     6  H    0.000000
     7  H    1.766944   0.000000
     8  C    2.177066   2.176685   0.000000
     9  H    2.541467   3.093386   1.106648   0.000000
    10  H    3.093771   2.539290   1.107050   1.763897   0.000000
    11  C    2.770051   2.770131   1.534368   2.176321   2.175168
    12  H    3.094419   2.540529   2.175835   3.092969   2.537928
    13  H    2.532459   3.087215   2.172755   2.539152   3.090282
    14  C    4.200956   4.207772   2.552413   2.782056   2.791803
    15  H    4.794047   4.899768   3.485159   3.709446   3.843742
    16  H    4.396013   4.711958   2.723522   2.492136   3.014200
    17  C    5.149862   4.673612   3.198221   3.592917   2.870438
    18  H    5.029475   4.426974   2.911676   3.279620   2.252743
    19  H    6.140018   5.758638   4.163059   4.376519   3.824434
    20  H    5.382429   4.631046   3.636575   4.278855   3.285353
                   11         12         13         14         15
    11  C    0.000000
    12  H    1.107004   0.000000
    13  H    1.107425   1.765410   0.000000
    14  C    1.535763   2.175636   2.168450   0.000000
    15  H    2.167637   2.586264   2.387811   1.108229   0.000000
    16  H    2.177345   3.089878   2.588606   1.107657   1.765992
    17  C    2.552758   2.724639   3.483071   1.527223   2.163999
    18  H    2.827657   3.049730   3.875210   2.181835   3.088298
    19  H    3.506000   3.748526   4.317040   2.178319   2.501426
    20  H    2.822190   2.543266   3.744020   2.182218   2.531948
                   16         17         18         19         20
    16  H    0.000000
    17  C    2.168101   0.000000
    18  H    2.539437   1.096163   0.000000
    19  H    2.503007   1.095301   1.767583   0.000000
    20  H    3.091068   1.095782   1.764689   1.767813   0.000000
 Stoichiometry    C6H14
 Framework group  C1[X(C6H14)]
 Deg. of freedom    54
 Full point group                 C1      NOp   1
 Largest Abelian subgroup         C1      NOp   1
 Largest concise Abelian subgroup C1      NOp   1
                         Standard orientation:                         
 ---------------------------------------------------------------------
 Center     Atomic      Atomic             Coordinates (Angstroms)
 Number     Number       Type             X           Y           Z
 ---------------------------------------------------------------------
      1          6           0       -2.962525    0.522803    0.121774
      2          1           0       -2.806755    1.557807   -0.202966
      3          1           0       -3.069286    0.534872    1.212379
      4          1           0       -3.917212    0.187129   -0.297939
      5          6           0       -1.815611   -0.383496   -0.320584
      6          1           0       -2.023019   -1.426288   -0.010594
      7          1           0       -1.760061   -0.402573   -1.426557
      8          6           0       -0.471349    0.076441    0.260963
      9          1           0       -0.527607    0.099475    1.365940
     10          1           0       -0.264430    1.118762   -0.049378
     11          6           0        0.677974   -0.836942   -0.185212
     12          1           0        0.735967   -0.856035   -1.290531
     13          1           0        0.465048   -1.879272    0.122360
     14          6           0        2.031422   -0.405324    0.398270
     15          1           0        2.758500   -1.232818    0.276682
     16          1           0        1.937076   -0.247720    1.490590
     17          6           0        2.586391    0.856919   -0.258360
     18          1           0        1.908343    1.708373   -0.128550
     19          1           0        3.553485    1.136655    0.173103
     20          1           0        2.732142    0.719227   -1.335642
 ---------------------------------------------------------------------
 Rotational constants (GHZ):      8.7215472      1.3432891      1.2612903
 Leave Link  202 at Fri Sep 18 13:20:46 2015, MaxMem=  402653184 cpu:       0.0
 (Enter /share/apps/g09/l301.exe)
 Standard basis: 6-31G(d) (6D, 7F)
 Ernie: Thresh=  0.10000D-02 Tol=  0.10000D-05 Strict=F.
 There are   118 symmetry adapted basis functions of A   symmetry.
 Integral buffers will be    131072 words long.
 Raffenetti 2 integral format.
 Two-electron integral symmetry is turned on.
   118 basis functions,   224 primitive gaussians,   118 cartesian basis functions
    25 alpha electrons       25 beta electrons
       nuclear repulsion energy       247.0939601692 Hartrees.
 IExCor=  402 DFT=T Ex+Corr=B3LYP ExCW=0 ScaHFX=  0.200000
 ScaDFX=  0.800000  0.720000  1.000000  0.810000 ScalE2=  1.000000  1.000000
 IRadAn=      5 IRanWt=     -1 IRanGd=            0 ICorTp=0
 NAtoms=   20 NActive=   20 NUniq=   20 SFac= 7.50D-01 NAtFMM=   80 NAOKFM=F Big=F
 Leave Link  301 at Fri Sep 18 13:20:46 2015, MaxMem=  402653184 cpu:       0.1
 (Enter /share/apps/g09/l302.exe)
 NPDir=0 NMtPBC=     1 NCelOv=     1 NCel=       1 NClECP=     1 NCelD=      1
         NCelK=      1 NCelE2=     1 NClLst=     1 CellRange=     0.0.
 One-electron integrals computed using PRISM.
 NBasis=   118 RedAO= T  NBF=   118
 NBsUse=   118 1.00D-06 NBFU=   118
 Precomputing XC quadrature grid using
 IXCGrd= 2 IRadAn=           5 IRanWt=          -1 IRanGd=           0 AccXCQ= 1.00D-10.
 NRdTot=    1655 NPtTot=      442746 NUsed=      454604 NTot=      454636
 NSgBfM=   118   118   118   118   118 NAtAll=    20    20.
 Leave Link  302 at Fri Sep 18 13:20:47 2015, MaxMem=  402653184 cpu:       1.2
 (Enter /share/apps/g09/l303.exe)
 DipDrv:  MaxL=1.
 Leave Link  303 at Fri Sep 18 13:20:47 2015, MaxMem=  402653184 cpu:       0.1
 (Enter /share/apps/g09/l401.exe)
 Harris functional with IExCor=  402 diagonalized for initial guess.
 ExpMin= 1.61D-01 ExpMax= 3.05D+03 ExpMxC= 4.57D+02 IAcc=3 IRadAn=         5 AccDes= 0.00D+00
 HarFok:  IExCor=  402 AccDes= 0.00D+00 IRadAn=         5 IDoV= 1
 ScaDFX=  1.000000  1.000000  1.000000  1.000000
 FoFCou: FMM=F IPFlag=           0 FMFlag=      100000 FMFlg1=           0
         NFxFlg=           0 DoJE=T BraDBF=F KetDBF=T FulRan=T
         Omega=  0.000000  0.000000  1.000000  0.000000  0.000000 ICntrl=     500 IOpCl=  0
         NMat0=    1 NMatS0=    1 NMatT0=    0 NMatD0=    1 NMtDS0=    0 NMtDT0=    0
         I1Cent=           4 NGrid=           0.
 Petite list used in FoFCou.
 Harris En= -237.178900484148    
 Initial guess orbital symmetries:
       Occupied  (A) (A) (A) (A) (A) (A) (A) (A) (A) (A) (A) (A)
                 (A) (A) (A) (A) (A) (A) (A) (A) (A) (A) (A) (A)
                 (A)
       Virtual   (A) (A) (A) (A) (A) (A) (A) (A) (A) (A) (A) (A)
                 (A) (A) (A) (A) (A) (A) (A) (A) (A) (A) (A) (A)
                 (A) (A) (A) (A) (A) (A) (A) (A) (A) (A) (A) (A)
                 (A) (A) (A) (A) (A) (A) (A) (A) (A) (A) (A) (A)
                 (A) (A) (A) (A) (A) (A) (A) (A) (A) (A) (A) (A)
                 (A) (A) (A) (A) (A) (A) (A) (A) (A) (A) (A) (A)
                 (A) (A) (A) (A) (A) (A) (A) (A) (A) (A) (A) (A)
                 (A) (A) (A) (A) (A) (A) (A) (A) (A)
 The electronic state of the initial guess is 1-A.
 Leave Link  401 at Fri Sep 18 13:20:52 2015, MaxMem=  402653184 cpu:       9.9
 (Enter /share/apps/g09/l502.exe)
 Closed shell SCF:
 Requested convergence on RMS density matrix=1.00D-08 within 128 cycles.
 Requested convergence on MAX density matrix=1.00D-06.
 Requested convergence on             energy=1.00D-06.
 No special actions if energy rises.
 Using DIIS extrapolation, IDIIS=  1040.
 Integral symmetry usage will be decided dynamically.
       454411 words used for storage of precomputed grid.
 Keep R1 ints in memory in canonical form, NReq=26108466.
 IEnd=      515955 IEndB=      515955 NGot=   402653184 MDV=   377517153
 LenX=   377517153 LenY=   377502788
 Symmetry not used in FoFDir.
 MinBra= 0 MaxBra= 2 Meth= 1.
 IRaf=       0 NMat=   1 IRICut=       1 DoRegI=T DoRafI=F ISym2E= 0 JSym2E=0.
 Integral accuracy reduced to 1.0D-05 until final iterations.

 Cycle   1  Pass 0  IDiag  1:
 E= -236.793200308738    
 DIIS: error= 4.70D-02 at cycle   1 NSaved=   1.
 NSaved= 1 IEnMin= 1 EnMin= -236.793200308738     IErMin= 1 ErrMin= 4.70D-02
 ErrMax= 4.70D-02 EMaxC= 1.00D-01 BMatC= 2.54D-01 BMatP= 2.54D-01
 IDIUse=3 WtCom= 5.30D-01 WtEn= 4.70D-01
 Coeff-Com:  0.100D+01
 Coeff-En:   0.100D+01
 Coeff:      0.100D+01
 Gap=     0.359 Goal=   None    Shift=    0.000
 GapD=    0.359 DampG=1.000 DampE=0.500 DampFc=0.5000 IDamp=-1.
 Damping current iteration by 5.00D-01
 RMSDP=1.01D-02 MaxDP=1.48D-01              OVMax= 1.85D-01

 Cycle   2  Pass 0  IDiag  1:
 E= -236.920673206617     Delta-E=       -0.127472897879 Rises=F Damp=T
 DIIS: error= 8.80D-03 at cycle   2 NSaved=   2.
 NSaved= 2 IEnMin= 2 EnMin= -236.920673206617     IErMin= 2 ErrMin= 8.80D-03
 ErrMax= 8.80D-03 EMaxC= 1.00D-01 BMatC= 9.82D-03 BMatP= 2.54D-01
 IDIUse=3 WtCom= 9.12D-01 WtEn= 8.80D-02
 Coeff-Com:  0.865D-01 0.914D+00
 Coeff-En:   0.140D+00 0.860D+00
 Coeff:      0.912D-01 0.909D+00
 Gap=     0.397 Goal=   None    Shift=    0.000
 RMSDP=1.47D-03 MaxDP=2.48D-02 DE=-1.27D-01 OVMax= 9.80D-02

 Cycle   3  Pass 0  IDiag  1:
 E= -237.082226049291     Delta-E=       -0.161552842674 Rises=F Damp=F
 DIIS: error= 1.83D-03 at cycle   3 NSaved=   3.
 NSaved= 3 IEnMin= 3 EnMin= -237.082226049291     IErMin= 3 ErrMin= 1.83D-03
 ErrMax= 1.83D-03 EMaxC= 1.00D-01 BMatC= 6.51D-04 BMatP= 9.82D-03
 IDIUse=3 WtCom= 9.82D-01 WtEn= 1.83D-02
 Coeff-Com:  0.588D-02 0.149D+00 0.845D+00
 Coeff-En:   0.000D+00 0.000D+00 0.100D+01
 Coeff:      0.577D-02 0.146D+00 0.848D+00
 Gap=     0.390 Goal=   None    Shift=    0.000
 RMSDP=3.82D-04 MaxDP=6.08D-03 DE=-1.62D-01 OVMax= 7.04D-03

 Cycle   4  Pass 0  IDiag  1:
 E= -237.082677831210     Delta-E=       -0.000451781920 Rises=F Damp=F
 DIIS: error= 7.71D-04 at cycle   4 NSaved=   4.
 NSaved= 4 IEnMin= 4 EnMin= -237.082677831210     IErMin= 4 ErrMin= 7.71D-04
 ErrMax= 7.71D-04 EMaxC= 1.00D-01 BMatC= 2.04D-04 BMatP= 6.51D-04
 IDIUse=3 WtCom= 9.92D-01 WtEn= 7.71D-03
 Coeff-Com:  0.270D-03 0.209D-01 0.361D+00 0.618D+00
 Coeff-En:   0.000D+00 0.000D+00 0.169D+00 0.831D+00
 Coeff:      0.268D-03 0.207D-01 0.359D+00 0.620D+00
 Gap=     0.391 Goal=   None    Shift=    0.000
 RMSDP=1.49D-04 MaxDP=2.67D-03 DE=-4.52D-04 OVMax= 3.25D-03

 Cycle   5  Pass 0  IDiag  1:
 E= -237.082867376128     Delta-E=       -0.000189544918 Rises=F Damp=F
 DIIS: error= 2.20D-04 at cycle   5 NSaved=   5.
 NSaved= 5 IEnMin= 5 EnMin= -237.082867376128     IErMin= 5 ErrMin= 2.20D-04
 ErrMax= 2.20D-04 EMaxC= 1.00D-01 BMatC= 1.85D-05 BMatP= 2.04D-04
 IDIUse=3 WtCom= 9.98D-01 WtEn= 2.20D-03
 Coeff-Com:  0.135D-03-0.117D-02 0.110D+00 0.296D+00 0.595D+00
 Coeff-En:   0.000D+00 0.000D+00 0.000D+00 0.000D+00 0.100D+01
 Coeff:      0.135D-03-0.117D-02 0.110D+00 0.295D+00 0.596D+00
 Gap=     0.391 Goal=   None    Shift=    0.000
 RMSDP=3.45D-05 MaxDP=7.25D-04 DE=-1.90D-04 OVMax= 7.61D-04

 Cycle   6  Pass 0  IDiag  1:
 E= -237.082885167687     Delta-E=       -0.000017791559 Rises=F Damp=F
 DIIS: error= 3.37D-05 at cycle   6 NSaved=   6.
 NSaved= 6 IEnMin= 6 EnMin= -237.082885167687     IErMin= 6 ErrMin= 3.37D-05
 ErrMax= 3.37D-05 EMaxC= 1.00D-01 BMatC= 2.46D-07 BMatP= 1.85D-05
 IDIUse=1 WtCom= 1.00D+00 WtEn= 0.00D+00
 Coeff-Com:  0.141D-03-0.106D-02 0.289D-01 0.873D-01 0.212D+00 0.673D+00
 Coeff:      0.141D-03-0.106D-02 0.289D-01 0.873D-01 0.212D+00 0.673D+00
 Gap=     0.391 Goal=   None    Shift=    0.000
 RMSDP=6.18D-06 MaxDP=9.73D-05 DE=-1.78D-05 OVMax= 1.33D-04

 Initial convergence to 1.0D-05 achieved.  Increase integral accuracy.
 Cycle   7  Pass 1  IDiag  1:
 E= -237.082866135709     Delta-E=        0.000019031978 Rises=F Damp=F
 DIIS: error= 7.34D-06 at cycle   1 NSaved=   1.
 NSaved= 1 IEnMin= 1 EnMin= -237.082866135709     IErMin= 1 ErrMin= 7.34D-06
 ErrMax= 7.34D-06 EMaxC= 1.00D-01 BMatC= 1.90D-08 BMatP= 1.90D-08
 IDIUse=1 WtCom= 1.00D+00 WtEn= 0.00D+00
 Coeff-Com:  0.100D+01
 Coeff:      0.100D+01
 Gap=     0.391 Goal=   None    Shift=    0.000
 RMSDP=6.18D-06 MaxDP=9.73D-05 DE= 1.90D-05 OVMax= 4.88D-05

 Cycle   8  Pass 1  IDiag  1:
 E= -237.082866135264     Delta-E=        0.000000000445 Rises=F Damp=F
 DIIS: error= 9.40D-06 at cycle   2 NSaved=   2.
 NSaved= 2 IEnMin= 1 EnMin= -237.082866135709     IErMin= 1 ErrMin= 7.34D-06
 ErrMax= 9.40D-06 EMaxC= 1.00D-01 BMatC= 2.17D-08 BMatP= 1.90D-08
 IDIUse=1 WtCom= 1.00D+00 WtEn= 0.00D+00
 Coeff-Com:  0.518D+00 0.482D+00
 Coeff:      0.518D+00 0.482D+00
 Gap=     0.391 Goal=   None    Shift=    0.000
 RMSDP=1.13D-06 MaxDP=2.80D-05 DE= 4.45D-10 OVMax= 2.75D-05

 Cycle   9  Pass 1  IDiag  1:
 E= -237.082866155913     Delta-E=       -0.000000020649 Rises=F Damp=F
 DIIS: error= 8.49D-07 at cycle   3 NSaved=   3.
 NSaved= 3 IEnMin= 3 EnMin= -237.082866155913     IErMin= 3 ErrMin= 8.49D-07
 ErrMax= 8.49D-07 EMaxC= 1.00D-01 BMatC= 1.93D-10 BMatP= 1.90D-08
 IDIUse=1 WtCom= 1.00D+00 WtEn= 0.00D+00
 Coeff-Com:  0.248D-01 0.911D-01 0.884D+00
 Coeff:      0.248D-01 0.911D-01 0.884D+00
 Gap=     0.391 Goal=   None    Shift=    0.000
 RMSDP=1.53D-07 MaxDP=3.12D-06 DE=-2.06D-08 OVMax= 2.88D-06

 Cycle  10  Pass 1  IDiag  1:
 E= -237.082866156081     Delta-E=       -0.000000000168 Rises=F Damp=F
 DIIS: error= 3.03D-07 at cycle   4 NSaved=   4.
 NSaved= 4 IEnMin= 4 EnMin= -237.082866156081     IErMin= 4 ErrMin= 3.03D-07
 ErrMax= 3.03D-07 EMaxC= 1.00D-01 BMatC= 2.51D-11 BMatP= 1.93D-10
 IDIUse=1 WtCom= 1.00D+00 WtEn= 0.00D+00
 Coeff-Com: -0.994D-02 0.195D-01 0.369D+00 0.622D+00
 Coeff:     -0.994D-02 0.195D-01 0.369D+00 0.622D+00
 Gap=     0.391 Goal=   None    Shift=    0.000
 RMSDP=5.36D-08 MaxDP=8.32D-07 DE=-1.68D-10 OVMax= 1.05D-06

 Cycle  11  Pass 1  IDiag  1:
 E= -237.082866156105     Delta-E=       -0.000000000024 Rises=F Damp=F
 DIIS: error= 7.41D-08 at cycle   5 NSaved=   5.
 NSaved= 5 IEnMin= 5 EnMin= -237.082866156105     IErMin= 5 ErrMin= 7.41D-08
 ErrMax= 7.41D-08 EMaxC= 1.00D-01 BMatC= 2.04D-12 BMatP= 2.51D-11
 IDIUse=1 WtCom= 1.00D+00 WtEn= 0.00D+00
 Coeff-Com: -0.574D-02 0.559D-02 0.139D+00 0.309D+00 0.552D+00
 Coeff:     -0.574D-02 0.559D-02 0.139D+00 0.309D+00 0.552D+00
 Gap=     0.391 Goal=   None    Shift=    0.000
 RMSDP=1.29D-08 MaxDP=2.48D-07 DE=-2.43D-11 OVMax= 2.62D-07

 Cycle  12  Pass 1  IDiag  1:
 E= -237.082866156108     Delta-E=       -0.000000000003 Rises=F Damp=F
 DIIS: error= 1.27D-08 at cycle   6 NSaved=   6.
 NSaved= 6 IEnMin= 6 EnMin= -237.082866156108     IErMin= 6 ErrMin= 1.27D-08
 ErrMax= 1.27D-08 EMaxC= 1.00D-01 BMatC= 2.43D-14 BMatP= 2.04D-12
 IDIUse=1 WtCom= 1.00D+00 WtEn= 0.00D+00
 Coeff-Com: -0.112D-02 0.593D-03 0.203D-01 0.543D-01 0.144D+00 0.782D+00
 Coeff:     -0.112D-02 0.593D-03 0.203D-01 0.543D-01 0.144D+00 0.782D+00
 Gap=     0.391 Goal=   None    Shift=    0.000
 RMSDP=2.19D-09 MaxDP=3.05D-08 DE=-2.84D-12 OVMax= 3.79D-08

 SCF Done:  E(RB3LYP) =  -237.082866156     A.U. after   12 cycles
             Convg  =    0.2187D-08             -V/T =  2.0107
 KE= 2.345842320865D+02 PE=-1.041089302717D+03 EE= 3.223282443057D+02
 Leave Link  502 at Fri Sep 18 13:21:42 2015, MaxMem=  402653184 cpu:     100.2
 (Enter /share/apps/g09/l601.exe)
 Copying SCF densities to generalized density rwf, IOpCl= 0 IROHF=0.

 **********************************************************************

            Population analysis using the SCF density.

 **********************************************************************

 Orbital symmetries:
       Occupied  (A) (A) (A) (A) (A) (A) (A) (A) (A) (A) (A) (A)
                 (A) (A) (A) (A) (A) (A) (A) (A) (A) (A) (A) (A)
                 (A)
       Virtual   (A) (A) (A) (A) (A) (A) (A) (A) (A) (A) (A) (A)
                 (A) (A) (A) (A) (A) (A) (A) (A) (A) (A) (A) (A)
                 (A) (A) (A) (A) (A) (A) (A) (A) (A) (A) (A) (A)
                 (A) (A) (A) (A) (A) (A) (A) (A) (A) (A) (A) (A)
                 (A) (A) (A) (A) (A) (A) (A) (A) (A) (A) (A) (A)
                 (A) (A) (A) (A) (A) (A) (A) (A) (A) (A) (A) (A)
                 (A) (A) (A) (A) (A) (A) (A) (A) (A) (A) (A) (A)
                 (A) (A) (A) (A) (A) (A) (A) (A) (A)
 The electronic state is 1-A.
 Alpha  occ. eigenvalues --  -10.17721 -10.17674 -10.17484 -10.17458 -10.16870
 Alpha  occ. eigenvalues --  -10.16855  -0.79983  -0.76043  -0.69991  -0.63701
 Alpha  occ. eigenvalues --   -0.58066  -0.56221  -0.46613  -0.44586  -0.43028
 Alpha  occ. eigenvalues --   -0.40692  -0.40481  -0.38014  -0.36351  -0.35339
 Alpha  occ. eigenvalues --   -0.33745  -0.32746  -0.32085  -0.31249  -0.29883
 Alpha virt. eigenvalues --    0.09177   0.10594   0.11693   0.12389   0.14649
 Alpha virt. eigenvalues --    0.15993   0.16316   0.17319   0.17916   0.19063
 Alpha virt. eigenvalues --    0.19185   0.19801   0.20469   0.22400   0.23342
 Alpha virt. eigenvalues --    0.26150   0.26650   0.28100   0.29018   0.50462
 Alpha virt. eigenvalues --    0.50924   0.51501   0.53805   0.55229   0.55853
 Alpha virt. eigenvalues --    0.58738   0.62341   0.64483   0.65890   0.68427
 Alpha virt. eigenvalues --    0.69566   0.71327   0.77863   0.78357   0.80487
 Alpha virt. eigenvalues --    0.84349   0.85816   0.87246   0.88653   0.89859
 Alpha virt. eigenvalues --    0.90479   0.91581   0.93513   0.93792   0.94816
 Alpha virt. eigenvalues --    0.95540   0.97180   0.98173   1.00075   1.02250
 Alpha virt. eigenvalues --    1.04619   1.14012   1.23808   1.40015   1.42390
 Alpha virt. eigenvalues --    1.44438   1.50837   1.54441   1.59786   1.67497
 Alpha virt. eigenvalues --    1.72043   1.79965   1.80803   1.87491   1.91056
 Alpha virt. eigenvalues --    1.92839   1.94799   1.96898   1.99245   2.01681
 Alpha virt. eigenvalues --    2.03335   2.06223   2.14173   2.21945   2.24008
 Alpha virt. eigenvalues --    2.26866   2.32078   2.33473   2.36792   2.41296
 Alpha virt. eigenvalues --    2.42561   2.45747   2.56637   2.58231   2.64646
 Alpha virt. eigenvalues --    2.74297   2.81608   4.11707   4.19044   4.29201
 Alpha virt. eigenvalues --    4.38413   4.45681   4.56076
          Condensed to atoms (all electrons):
              1          2          3          4          5          6
     1  C    5.069226   0.377890   0.378089   0.370152   0.370354  -0.038353
     2  H    0.377890   0.580075  -0.033405  -0.031528  -0.034236   0.005207
     3  H    0.378089  -0.033405   0.580089  -0.031607  -0.034345  -0.004531
     4  H    0.370152  -0.031528  -0.031607   0.582964  -0.028059  -0.002659
     5  C    0.370354  -0.034236  -0.034345  -0.028059   4.952546   0.376324
     6  H   -0.038353   0.005207  -0.004531  -0.002659   0.376324   0.613202
     7  H   -0.038160  -0.004544   0.005202  -0.002751   0.376274  -0.040381
     8  C   -0.046292  -0.004791  -0.004767   0.004448   0.386042  -0.039228
     9  H   -0.002930  -0.000399   0.004860  -0.000033  -0.038775  -0.005260
    10  H   -0.002647   0.004923  -0.000406  -0.000031  -0.038321   0.005549
    11  C    0.003941   0.000050   0.000049  -0.000151  -0.039297  -0.003522
    12  H    0.000043   0.000004   0.000005   0.000002  -0.003555  -0.000433
    13  H    0.000055   0.000006   0.000004   0.000002  -0.004217   0.005247
    14  C   -0.000150   0.000002   0.000001   0.000002   0.003917   0.000011
    15  H    0.000002   0.000000   0.000000   0.000000  -0.000152  -0.000004
    16  H   -0.000002   0.000001  -0.000002   0.000000   0.000104   0.000008
    17  C    0.000002  -0.000003   0.000000   0.000000   0.000127  -0.000002
    18  H    0.000008  -0.000004   0.000001   0.000000  -0.000152   0.000000
    19  H    0.000000   0.000000   0.000000   0.000000   0.000000   0.000000
    20  H    0.000000   0.000000   0.000000   0.000000  -0.000016   0.000001
              7          8          9         10         11         12
     1  C   -0.038160  -0.046292  -0.002930  -0.002647   0.003941   0.000043
     2  H   -0.004544  -0.004791  -0.000399   0.004923   0.000050   0.000004
     3  H    0.005202  -0.004767   0.004860  -0.000406   0.000049   0.000005
     4  H   -0.002751   0.004448  -0.000033  -0.000031  -0.000151   0.000002
     5  C    0.376274   0.386042  -0.038775  -0.038321  -0.039297  -0.003555
     6  H   -0.040381  -0.039228  -0.005260   0.005549  -0.003522  -0.000433
     7  H    0.613037  -0.039055   0.005603  -0.005256  -0.003450   0.005028
     8  C   -0.039055   4.985466   0.372001   0.373342   0.384167  -0.040204
     9  H    0.005603   0.372001   0.616342  -0.041616  -0.038654   0.005653
    10  H   -0.005256   0.373342  -0.041616   0.611817  -0.040345  -0.005169
    11  C   -0.003450   0.384167  -0.038654  -0.040345   4.993077   0.371707
    12  H    0.005028  -0.040204   0.005653  -0.005169   0.371707   0.617663
    13  H   -0.000436  -0.038623  -0.005104   0.005659   0.369691  -0.039421
    14  C    0.000065  -0.041337  -0.003886  -0.003363   0.374338  -0.039464
    15  H    0.000004   0.004695   0.000048  -0.000013  -0.033636  -0.001264
    16  H    0.000007  -0.007992   0.006033  -0.000151  -0.039692   0.005611
    17  C   -0.000007  -0.005355  -0.000259   0.001962  -0.046938  -0.007423
    18  H    0.000014   0.002356   0.000253   0.003760  -0.004605  -0.000032
    19  H    0.000000   0.000098  -0.000020  -0.000129   0.004534   0.000049
    20  H   -0.000003  -0.000293   0.000040   0.000230  -0.004860   0.005726
             13         14         15         16         17         18
     1  C    0.000055  -0.000150   0.000002  -0.000002   0.000002   0.000008
     2  H    0.000006   0.000002   0.000000   0.000001  -0.000003  -0.000004
     3  H    0.000004   0.000001   0.000000  -0.000002   0.000000   0.000001
     4  H    0.000002   0.000002   0.000000   0.000000   0.000000   0.000000
     5  C   -0.004217   0.003917  -0.000152   0.000104   0.000127  -0.000152
     6  H    0.005247   0.000011  -0.000004   0.000008  -0.000002   0.000000
     7  H   -0.000436   0.000065   0.000004   0.000007  -0.000007   0.000014
     8  C   -0.038623  -0.041337   0.004695  -0.007992  -0.005355   0.002356
     9  H   -0.005104  -0.003886   0.000048   0.006033  -0.000259   0.000253
    10  H    0.005659  -0.003363  -0.000013  -0.000151   0.001962   0.003760
    11  C    0.369691   0.374338  -0.033636  -0.039692  -0.046938  -0.004605
    12  H   -0.039421  -0.039464  -0.001264   0.005611  -0.007423  -0.000032
    13  H    0.617816  -0.034171  -0.005083  -0.001333   0.005054  -0.000010
    14  C   -0.034171   4.966016   0.370842   0.375845   0.379392  -0.037114
    15  H   -0.005083   0.370842   0.618299  -0.038790  -0.038947   0.005327
    16  H   -0.001333   0.375845  -0.038790   0.614554  -0.040227  -0.004356
    17  C    0.005054   0.379392  -0.038947  -0.040227   5.066750   0.378294
    18  H   -0.000010  -0.037114   0.005327  -0.004356   0.378294   0.575570
    19  H   -0.000175  -0.029072  -0.003107  -0.002721   0.372473  -0.030727
    20  H    0.000044  -0.034981  -0.004515   0.005271   0.377617  -0.033543
             19         20
     1  C    0.000000   0.000000
     2  H    0.000000   0.000000
     3  H    0.000000   0.000000
     4  H    0.000000   0.000000
     5  C    0.000000  -0.000016
     6  H    0.000000   0.000001
     7  H    0.000000  -0.000003
     8  C    0.000098  -0.000293
     9  H   -0.000020   0.000040
    10  H   -0.000129   0.000230
    11  C    0.004534  -0.004860
    12  H    0.000049   0.005726
    13  H   -0.000175   0.000044
    14  C   -0.029072  -0.034981
    15  H   -0.003107  -0.004515
    16  H   -0.002721   0.005271
    17  C    0.372473   0.377617
    18  H   -0.030727  -0.033543
    19  H    0.579158  -0.031252
    20  H   -0.031252   0.579409
 Mulliken atomic charges:
              1
     1  C   -0.441228
     2  H    0.140751
     3  H    0.140762
     4  H    0.139251
     5  C   -0.244562
     6  H    0.128823
     7  H    0.128810
     8  C   -0.244679
     9  H    0.126103
    10  H    0.130204
    11  C   -0.246404
    12  H    0.125473
    13  H    0.124996
    14  C   -0.246892
    15  H    0.126293
    16  H    0.127832
    17  C   -0.442512
    18  H    0.144962
    19  H    0.140893
    20  H    0.141125
 Sum of Mulliken atomic charges =   0.00000
 Mulliken charges with hydrogens summed into heavy atoms:
              1
     1  C   -0.020465
     5  C    0.013070
     8  C    0.011629
    11  C    0.004065
    14  C    0.007233
    17  C   -0.015532
 Sum of Mulliken charges with hydrogens summed into heavy atoms =   0.00000
 Electronic spatial extent (au):  <R**2>=           1022.7552
 Charge=              0.0000 electrons
 Dipole moment (field-independent basis, Debye):
    X=              0.0134    Y=             -0.0414    Z=              0.0009  Tot=              0.0435
 Quadrupole moment (field-independent basis, Debye-Ang):
   XX=            -42.2466   YY=            -41.5984   ZZ=            -41.1563
   XY=              0.0738   XZ=              0.0405   YZ=             -0.1076
 Traceless Quadrupole moment (field-independent basis, Debye-Ang):
   XX=             -0.5795   YY=              0.0687   ZZ=              0.5108
   XY=              0.0738   XZ=              0.0405   YZ=             -0.1076
 Octapole moment (field-independent basis, Debye-Ang**2):
  XXX=              1.7272  YYY=             -0.2836  ZZZ=             -0.0028  XYY=             -0.3781
  XXY=             -1.7355  XXZ=             -0.2039  XZZ=             -0.1530  YZZ=             -0.0494
  YYZ=              0.1991  XYZ=              0.7180
 Hexadecapole moment (field-independent basis, Debye-Ang**3):
 XXXX=          -1129.2086 YYYY=           -181.9610 ZZZZ=           -104.8551 XXXY=              4.9249
 XXXZ=              5.6065 YYYX=             -1.8612 YYYZ=             -1.5803 ZZZX=             -2.2332
 ZZZY=              0.4942 XXYY=           -220.9867 XXZZ=           -204.8888 YYZZ=            -50.7332
 XXYZ=              1.3702 YYXZ=              0.8889 ZZXY=              0.0753
 N-N= 2.470939601692D+02 E-N=-1.041089304141D+03  KE= 2.345842320865D+02
 No NMR shielding tensors so no spin-rotation constants.
 Leave Link  601 at Fri Sep 18 13:21:42 2015, MaxMem=  402653184 cpu:       0.3
 (Enter /share/apps/g09/l701.exe)
 Compute integral first derivatives.
 ... and contract with generalized density number  0.
 Leave Link  701 at Fri Sep 18 13:21:42 2015, MaxMem=  402653184 cpu:       0.3
 (Enter /share/apps/g09/l702.exe)
 L702 exits ... SP integral derivatives will be done elsewhere.
 Leave Link  702 at Fri Sep 18 13:21:42 2015, MaxMem=  402653184 cpu:       0.0
 (Enter /share/apps/g09/l703.exe)
 Compute integral first derivatives, UseDBF=F ICtDFT=           0.
 Integral derivatives from FoFDir, PRISM(SPDF).
 Calling FoFJK, ICntrl=      2127 FMM=F ISym2X=0 I1Cent= 0 IOpClX= 0 NMat=1 NMatS=1 NMatT=0.
 FoFCou: FMM=F IPFlag=           0 FMFlag=      100000 FMFlg1=         800
         NFxFlg=           0 DoJE=F BraDBF=F KetDBF=F FulRan=T
         Omega=  0.000000  0.000000  1.000000  0.000000  0.000000 ICntrl=    2127 IOpCl=  0
         NMat0=    1 NMatS0=    1 NMatT0=    0 NMatD0=    1 NMtDS0=    0 NMtDT0=    0
         I1Cent=           0 NGrid=           0.
 Symmetry not used in FoFCou.
 Leave Link  703 at Fri Sep 18 13:21:54 2015, MaxMem=  402653184 cpu:      22.5
 (Enter /share/apps/g09/l716.exe)
 Dipole        = 5.28659401D-03-1.62919294D-02 3.46439718D-04
 ***** Axes restored to original set *****
 -------------------------------------------------------------------
 Center     Atomic                   Forces (Hartrees/Bohr)
 Number     Number              X              Y              Z
 -------------------------------------------------------------------
      1        6          -0.005489602   -0.000868383   -0.001690794
      2        1           0.000797426    0.000515315   -0.000490225
      3        1           0.000560758   -0.000428261    0.000807329
      4        1          -0.001157038    0.000369701    0.000071001
      5        6          -0.000922598    0.001062412    0.000175570
      6        1           0.001800620    0.004997767   -0.000744535
      7        1           0.000514329    0.000623265    0.005303452
      8        6          -0.000419446   -0.002714036   -0.004286742
      9        1           0.000078448   -0.001595547   -0.004257877
     10        1          -0.002547387   -0.005055511    0.000457909
     11        6           0.001750707   -0.002900133    0.004166367
     12        1           0.000005226    0.000783994    0.004507142
     13        1          -0.000522018    0.005300552   -0.000585634
     14        6           0.005553285   -0.007504580    0.000758470
     15        1          -0.002962485    0.005010371    0.000221382
     16        1          -0.000507612   -0.000992620   -0.005270083
     17        6           0.002144639    0.003430154    0.001274970
     18        1           0.000761332    0.000410283    0.000220860
     19        1           0.000550939    0.000664612    0.000120301
     20        1           0.000010476   -0.001109356   -0.000758864
 -------------------------------------------------------------------
 Cartesian Forces:  Max     0.007504580 RMS     0.002665987
 Leave Link  716 at Fri Sep 18 13:21:54 2015, MaxMem=  402653184 cpu:       0.0
 (Enter /share/apps/g09/l103.exe)

 GradGradGradGradGradGradGradGradGradGradGradGradGradGradGradGradGradGrad
 Berny optimization.
 Internal  Forces:  Max     0.009022470 RMS     0.002491879
 Search for a local minimum.
 Step number   1 out of a maximum of  110
 All quantities printed in internal units (Hartrees-Bohrs-Radians)
 RMS Force = .24919D-02 SwitMx=.10000D-02 MixMth= 1
 Mixed Optimization -- RFO/linear search
 Second derivative matrix not updated -- first step.
     Eigenvalues ---    0.00293   0.00301   0.00311   0.00406   0.00406
     Eigenvalues ---    0.03459   0.03461   0.03542   0.03572   0.04768
     Eigenvalues ---    0.04785   0.04795   0.04820   0.05446   0.05464
     Eigenvalues ---    0.05479   0.05486   0.08168   0.08211   0.08311
     Eigenvalues ---    0.08405   0.12088   0.12114   0.12195   0.12258
     Eigenvalues ---    0.16000   0.16000   0.16000   0.16000   0.16000
     Eigenvalues ---    0.16000   0.21843   0.21855   0.21869   0.21878
     Eigenvalues ---    0.28898   0.28950   0.29024   0.29680   0.29681
     Eigenvalues ---    0.32788   0.32849   0.32863   0.32868   0.32874
     Eigenvalues ---    0.32914   0.32919   0.32958   0.34110   0.34141
     Eigenvalues ---    0.34142   0.34153   0.34177   0.342071000.00000
     Eigenvalues --- 1000.000001000.000001000.000001000.000001000.00000
     Eigenvalues --- 1000.000001000.000001000.000001000.000001000.00000
     Eigenvalues --- 1000.000001000.000001000.000001000.000001000.00000
     Eigenvalues --- 1000.000001000.000001000.000001000.000001000.00000
     Eigenvalues --- 1000.000001000.000001000.000001000.000001000.00000
     Eigenvalues --- 1000.000001000.000001000.000001000.000001000.00000
     Eigenvalues --- 1000.000001000.000001000.000001000.000001000.00000
     Eigenvalues --- 1000.000001000.000001000.000001000.000001000.00000
     Eigenvalues --- 1000.000001000.000001000.000001000.000001000.00000
 RFO step:  Lambda=-2.64145134D-03 EMin= 2.92876510D-03
 Linear search not attempted -- first point.
 Iteration  1 RMS(Cart)=  0.03949468 RMS(Int)=  0.00043520
 Iteration  2 RMS(Cart)=  0.00071016 RMS(Int)=  0.00008849
 Iteration  3 RMS(Cart)=  0.00000048 RMS(Int)=  0.00008849
 Variable       Old X    -DE/DX   Delta X   Delta X   Delta X     New X
                                 (Linear)    (Quad)   (Total)
    R1        2.07091   0.00075   0.00000   0.00217   0.00217   2.07308
    R2        2.07092   0.00074   0.00000   0.00216   0.00216   2.07308
    R3        2.07032   0.00087   0.00000   0.00252   0.00252   2.07284
    R4        2.88607   0.00335   0.00000   0.01120   0.01120   2.89727
    R5        2.09285  -0.00525   0.00000  -0.01585  -0.01585   2.07699
    R6        2.09293  -0.00528   0.00000  -0.01594  -0.01594   2.07699
    R7        2.90107   0.00023   0.00000   0.00079   0.00079   2.90186
    R8        2.09126  -0.00429   0.00000  -0.01291  -0.01291   2.07835
    R9        2.09202  -0.00536   0.00000  -0.01617  -0.01617   2.07585
   R10        2.89953   0.00189   0.00000   0.00646   0.00646   2.90599
   R11        2.09193  -0.00451   0.00000  -0.01360  -0.01360   2.07833
   R12        2.09273  -0.00505   0.00000  -0.01524  -0.01524   2.07749
   R13        2.90217   0.00356   0.00000   0.01221   0.01221   2.91438
   R14        2.09425  -0.00571   0.00000  -0.01727  -0.01727   2.07698
   R15        2.09317  -0.00530   0.00000  -0.01599  -0.01599   2.07718
   R16        2.88603   0.00369   0.00000   0.01233   0.01233   2.89837
   R17        2.07145  -0.00013   0.00000  -0.00037  -0.00037   2.07108
   R18        2.06982   0.00070   0.00000   0.00204   0.00204   2.07186
   R19        2.07073   0.00089   0.00000   0.00257   0.00257   2.07330
    A1        1.87376   0.00083   0.00000   0.00127   0.00119   1.87495
    A2        1.87519  -0.00006   0.00000   0.00159   0.00161   1.87680
    A3        1.94753  -0.00117   0.00000  -0.00818  -0.00821   1.93932
    A4        1.87521  -0.00007   0.00000   0.00146   0.00148   1.87669
    A5        1.94759  -0.00118   0.00000  -0.00833  -0.00836   1.93923
    A6        1.94080   0.00170   0.00000   0.01250   0.01253   1.95333
    A7        1.91457  -0.00169   0.00000  -0.00347  -0.00337   1.91121
    A8        1.91466  -0.00180   0.00000  -0.00393  -0.00386   1.91080
    A9        1.94988   0.00694   0.00000   0.03302   0.03305   1.98293
   A10        1.84698   0.00146   0.00000   0.00115   0.00099   1.84797
   A11        1.91777  -0.00271   0.00000  -0.01525  -0.01536   1.90241
   A12        1.91720  -0.00255   0.00000  -0.01344  -0.01355   1.90365
   A13        1.91767  -0.00249   0.00000  -0.01392  -0.01387   1.90380
   A14        1.91724  -0.00374   0.00000  -0.01951  -0.01978   1.89746
   A15        1.94701   0.00833   0.00000   0.03867   0.03873   1.98574
   A16        1.84399   0.00199   0.00000   0.00570   0.00552   1.84951
   A17        1.91858  -0.00314   0.00000  -0.01595  -0.01580   1.90278
   A18        1.91660  -0.00138   0.00000   0.00287   0.00298   1.91958
   A19        1.91756  -0.00275   0.00000  -0.01365  -0.01368   1.90388
   A20        1.91294  -0.00375   0.00000  -0.01969  -0.01995   1.89299
   A21        1.96314   0.00902   0.00000   0.04297   0.04301   2.00615
   A22        1.84539   0.00185   0.00000   0.00099   0.00077   1.84615
   A23        1.91562  -0.00311   0.00000  -0.01323  -0.01313   1.90249
   A24        1.90546  -0.00174   0.00000  -0.00008   0.00003   1.90549
   A25        1.90356  -0.00085   0.00000   0.00241   0.00241   1.90596
   A26        1.91728  -0.00258   0.00000  -0.01525  -0.01522   1.90206
   A27        1.97053   0.00568   0.00000   0.02719   0.02720   1.99773
   A28        1.84452   0.00110   0.00000  -0.00037  -0.00043   1.84409
   A29        1.90874  -0.00243   0.00000  -0.01079  -0.01093   1.89781
   A30        1.91490  -0.00123   0.00000  -0.00502  -0.00495   1.90995
   A31        1.94582   0.00105   0.00000   0.00751   0.00751   1.95333
   A32        1.94182   0.00068   0.00000   0.00350   0.00349   1.94531
   A33        1.94676  -0.00163   0.00000  -0.01042  -0.01040   1.93636
   A34        1.87667  -0.00085   0.00000  -0.00452  -0.00454   1.87214
   A35        1.87162   0.00045   0.00000   0.00405   0.00408   1.87569
   A36        1.87750   0.00029   0.00000  -0.00018  -0.00018   1.87732
    D1       -3.10412  -0.00019   0.00000  -0.00348  -0.00342  -3.10754
    D2       -1.08236  -0.00041   0.00000  -0.00632  -0.00633  -1.08869
    D3        1.04802  -0.00023   0.00000  -0.00392  -0.00389   1.04413
    D4        1.08282   0.00037   0.00000   0.00623   0.00624   1.08906
    D5        3.10458   0.00014   0.00000   0.00339   0.00333   3.10791
    D6       -1.04822   0.00032   0.00000   0.00580   0.00577  -1.04245
    D7       -1.01069   0.00010   0.00000   0.00151   0.00155  -1.00914
    D8        1.01107  -0.00013   0.00000  -0.00133  -0.00136   1.00971
    D9        3.14145   0.00005   0.00000   0.00108   0.00107  -3.14066
   D10        1.00882  -0.00036   0.00000  -0.00360  -0.00352   1.00529
   D11       -1.01260   0.00083   0.00000   0.00877   0.00863  -1.00397
   D12        3.14111  -0.00045   0.00000  -0.00739  -0.00735   3.13377
   D13       -1.12038  -0.00101   0.00000  -0.01088  -0.01070  -1.13109
   D14        3.14139   0.00017   0.00000   0.00149   0.00145  -3.14035
   D15        1.01191  -0.00110   0.00000  -0.01467  -0.01452   0.99739
   D16        3.13774   0.00026   0.00000   0.00433   0.00433  -3.14112
   D17        1.11632   0.00145   0.00000   0.01670   0.01648   1.13280
   D18       -1.01315   0.00017   0.00000   0.00054   0.00051  -1.01264
   D19        1.01381  -0.00070   0.00000  -0.00231  -0.00211   1.01170
   D20       -1.00675   0.00079   0.00000   0.01556   0.01553  -0.99122
   D21       -3.12991  -0.00042   0.00000   0.00062   0.00079  -3.12912
   D22       -3.13760  -0.00041   0.00000  -0.00491  -0.00484   3.14074
   D23        1.12502   0.00107   0.00000   0.01296   0.01280   1.13782
   D24       -0.99814  -0.00014   0.00000  -0.00198  -0.00194  -1.00008
   D25       -1.11603  -0.00060   0.00000  -0.00555  -0.00556  -1.12159
   D26       -3.13659   0.00088   0.00000   0.01232   0.01208  -3.12451
   D27        1.02343  -0.00033   0.00000  -0.00261  -0.00265   1.02078
   D28        2.87695  -0.00018   0.00000   0.03045   0.03049   2.90745
   D29        0.86293   0.00041   0.00000   0.03797   0.03803   0.90096
   D30       -1.28057  -0.00009   0.00000   0.03659   0.03675  -1.24381
   D31       -1.26568   0.00028   0.00000   0.03309   0.03304  -1.23263
   D32        3.00348   0.00087   0.00000   0.04062   0.04058   3.04406
   D33        0.85999   0.00038   0.00000   0.03923   0.03930   0.89929
   D34        0.74954  -0.00020   0.00000   0.02687   0.02675   0.77628
   D35       -1.26449   0.00038   0.00000   0.03440   0.03428  -1.23021
   D36        2.87521  -0.00011   0.00000   0.03301   0.03300   2.90821
   D37        1.05282  -0.00035   0.00000   0.00096   0.00099   1.05381
   D38       -3.13551  -0.00025   0.00000   0.00269   0.00273  -3.13279
   D39       -1.03897  -0.00053   0.00000  -0.00222  -0.00218  -1.04115
   D40       -3.10763   0.00066   0.00000   0.01466   0.01461  -3.09302
   D41       -1.01277   0.00075   0.00000   0.01638   0.01634  -0.99643
   D42        1.08377   0.00047   0.00000   0.01147   0.01144   1.09521
   D43       -1.09200  -0.00009   0.00000   0.00531   0.00531  -1.08669
   D44        1.00285   0.00001   0.00000   0.00704   0.00704   1.00990
   D45        3.09940  -0.00027   0.00000   0.00213   0.00214   3.10154
         Item               Value     Threshold  Converged?
 Maximum Force            0.009022     0.000015     NO 
 RMS     Force            0.002492     0.000010     NO 
 Maximum Displacement     0.146381     0.000060     NO 
 RMS     Displacement     0.039793     0.000040     NO 
 Predicted change in Energy=-1.349080D-03
 GradGradGradGradGradGradGradGradGradGradGradGradGradGradGradGradGradGrad

 Leave Link  103 at Fri Sep 18 13:21:54 2015, MaxMem=  402653184 cpu:       0.1
 (Enter /share/apps/g09/l202.exe)
                          Input orientation:                          
 ---------------------------------------------------------------------
 Center     Atomic      Atomic             Coordinates (Angstroms)
 Number     Number       Type             X           Y           Z
 ---------------------------------------------------------------------
      1          6           0       -3.012330    0.517513    0.116144
      2          1           0       -2.863268    1.549561   -0.224634
      3          1           0       -3.111570    0.543264    1.208372
      4          1           0       -3.967921    0.168781   -0.294241
      5          6           0       -1.844589   -0.379340   -0.311219
      6          1           0       -2.037240   -1.411820    0.012642
      7          1           0       -1.791044   -0.413358   -1.408483
      8          6           0       -0.486200    0.073431    0.243613
      9          1           0       -0.539472    0.107052    1.341624
     10          1           0       -0.299001    1.105836   -0.081633
     11          6           0        0.686213   -0.829864   -0.173867
     12          1           0        0.739892   -0.864920   -1.271805
     13          1           0        0.465346   -1.857720    0.147566
     14          6           0        2.061550   -0.409415    0.383026
     15          1           0        2.777418   -1.230347    0.236041
     16          1           0        1.981316   -0.277022    1.471264
     17          6           0        2.638241    0.865514   -0.244963
     18          1           0        1.985804    1.731499   -0.085147
     19          1           0        3.618246    1.113722    0.179345
     20          1           0        2.767101    0.745627   -1.327898
 ---------------------------------------------------------------------
                    Distance matrix (angstroms):
                    1          2          3          4          5
     1  C    0.000000
     2  H    1.097029   0.000000
     3  H    1.097029   1.768557   0.000000
     4  H    1.096898   1.769649   1.769581   0.000000
     5  C    1.533167   2.183085   2.183024   2.193003   0.000000
     6  H    2.164217   3.083569   2.531068   2.513962   1.099097
     7  H    2.163919   2.530655   3.083317   2.513805   1.099097
     8  C    2.568032   2.837017   2.836206   3.524309   1.535598
     9  H    2.790216   3.151829   2.612226   3.799227   2.161434
    10  H    2.783414   2.606301   3.145019   3.792657   2.155760
    11  C    3.946992   4.273529   4.268397   4.761590   2.574256
    12  H    4.232811   4.461955   4.792495   4.918096   2.799652
    13  H    4.211526   4.777841   4.436706   4.894462   2.780628
    14  C    5.164754   5.334855   5.324468   6.094877   3.967469
    15  H    6.049013   6.305351   6.226660   6.909294   4.731454
    16  H    5.234895   5.448162   5.165217   6.221669   4.221998
    17  C    5.672782   5.543910   5.939390   6.642984   4.652937
    18  H    5.147390   4.854489   5.391504   6.158949   4.379345
    19  H    6.657626   6.508700   6.831891   7.659446   5.684404
    20  H    5.961469   5.793493   6.405653   6.838254   4.854573
                    6          7          8          9         10
     6  H    0.000000
     7  H    1.754176   0.000000
     8  C    2.159871   2.160788   0.000000
     9  H    2.513260   3.065999   1.099817   0.000000
    10  H    3.060875   2.508920   1.098494   1.755294   0.000000
    11  C    2.791174   2.799028   1.537785   2.162597   2.173957
    12  H    3.108273   2.574534   2.163399   3.067818   2.525804
    13  H    2.545579   3.098188   2.154996   2.509136   3.069108
    14  C    4.235810   4.248765   2.596846   2.819746   2.843255
    15  H    4.823253   4.923696   3.514413   3.743355   3.875954
    16  H    4.423137   4.747866   2.778233   2.553172   3.086038
    17  C    5.206989   4.754773   3.260098   3.631857   2.951580
    18  H    5.106359   4.540509   2.994676   3.324384   2.368924
    19  H    6.196020   5.840684   4.234715   4.432933   3.925938
    20  H    5.434457   4.703874   3.674978   4.297389   3.329251
                   11         12         13         14         15
    11  C    0.000000
    12  H    1.099807   0.000000
    13  H    1.099359   1.753750   0.000000
    14  C    1.542226   2.166271   2.168155   0.000000
    15  H    2.168306   2.560986   2.397311   1.099090   0.000000
    16  H    2.165499   3.067765   2.559091   1.099194   1.751680
    17  C    2.586460   2.766322   3.505931   1.533749   2.154848
    18  H    2.873568   3.114779   3.904925   2.192815   3.082588
    19  H    3.535407   3.782298   4.332580   2.187403   2.490957
    20  H    2.853779   2.589708   3.775246   2.181556   2.520017
                   16         17         18         19         20
    16  H    0.000000
    17  C    2.163880   0.000000
    18  H    2.540982   1.095968   0.000000
    19  H    2.506544   1.096382   1.765352   0.000000
    20  H    3.081976   1.097144   1.768276   1.769667   0.000000
 Stoichiometry    C6H14
 Framework group  C1[X(C6H14)]
 Deg. of freedom    54
 Full point group                 C1      NOp   1
 Largest Abelian subgroup         C1      NOp   1
 Largest concise Abelian subgroup C1      NOp   1
                         Standard orientation:                         
 ---------------------------------------------------------------------
 Center     Atomic      Atomic             Coordinates (Angstroms)
 Number     Number       Type             X           Y           Z
 ---------------------------------------------------------------------
      1          6           0       -3.011008    0.521210    0.121974
      2          1           0       -2.860355    1.555296   -0.211854
      3          1           0       -3.109528    0.539686    1.214414
      4          1           0       -3.967461    0.176950   -0.290176
      5          6           0       -1.845100   -0.374741   -0.312229
      6          1           0       -2.039354   -1.409068    0.004707
      7          1           0       -1.792294   -0.401370   -1.409733
      8          6           0       -0.485580    0.071868    0.244821
      9          1           0       -0.538114    0.098094    1.343069
     10          1           0       -0.296778    1.106139   -0.073497
     11          6           0        0.684995   -0.830601   -0.179547
     12          1           0        0.737934   -0.858263   -1.277731
     13          1           0        0.462532   -1.860238    0.135010
     14          6           0        2.061409   -0.416356    0.379333
     15          1           0        2.775750   -1.237513    0.226304
     16          1           0        1.982079   -0.291246    1.468499
     17          6           0        2.639938    0.861819   -0.240313
     18          1           0        1.989114    1.727829   -0.074186
     19          1           0        3.620636    1.105419    0.185059
     20          1           0        2.767919    0.749094   -1.324121
 ---------------------------------------------------------------------
 Rotational constants (GHZ):      8.8488929      1.3031408      1.2239554
 Leave Link  202 at Fri Sep 18 13:21:54 2015, MaxMem=  402653184 cpu:       0.0
 (Enter /share/apps/g09/l301.exe)
 Standard basis: 6-31G(d) (6D, 7F)
 Ernie: Thresh=  0.10000D-02 Tol=  0.10000D-05 Strict=F.
 There are   118 symmetry adapted basis functions of A   symmetry.
 Integral buffers will be    131072 words long.
 Raffenetti 2 integral format.
 Two-electron integral symmetry is turned on.
   118 basis functions,   224 primitive gaussians,   118 cartesian basis functions
    25 alpha electrons       25 beta electrons
       nuclear repulsion energy       245.6996446031 Hartrees.
 IExCor=  402 DFT=T Ex+Corr=B3LYP ExCW=0 ScaHFX=  0.200000
 ScaDFX=  0.800000  0.720000  1.000000  0.810000 ScalE2=  1.000000  1.000000
 IRadAn=      5 IRanWt=     -1 IRanGd=            0 ICorTp=0
 NAtoms=   20 NActive=   20 NUniq=   20 SFac= 7.50D-01 NAtFMM=   80 NAOKFM=F Big=F
 Leave Link  301 at Fri Sep 18 13:21:54 2015, MaxMem=  402653184 cpu:       0.1
 (Enter /share/apps/g09/l302.exe)
 NPDir=0 NMtPBC=     1 NCelOv=     1 NCel=       1 NClECP=     1 NCelD=      1
         NCelK=      1 NCelE2=     1 NClLst=     1 CellRange=     0.0.
 One-electron integrals computed using PRISM.
 NBasis=   118 RedAO= T  NBF=   118
 NBsUse=   118 1.00D-06 NBFU=   118
 Precomputing XC quadrature grid using
 IXCGrd= 2 IRadAn=           5 IRanWt=          -1 IRanGd=           0 AccXCQ= 1.00D-10.
 NRdTot=    1655 NPtTot=      443048 NUsed=      454906 NTot=      454938
 NSgBfM=   118   118   118   118   118 NAtAll=    20    20.
 Leave Link  302 at Fri Sep 18 13:21:54 2015, MaxMem=  402653184 cpu:       1.2
 (Enter /share/apps/g09/l303.exe)
 DipDrv:  MaxL=1.
 Leave Link  303 at Fri Sep 18 13:21:54 2015, MaxMem=  402653184 cpu:       0.1
 (Enter /share/apps/g09/l401.exe)
 Initial guess read from the read-write file.
 B after Tr=     0.000000    0.000000    0.000000
         Rot=    1.000000    0.000000    0.000000    0.000000 Ang=   0.00 deg.
 Guess basis will be translated and rotated to current coordinates.
 Initial guess orbital symmetries:
       Occupied  (A) (A) (A) (A) (A) (A) (A) (A) (A) (A) (A) (A)
                 (A) (A) (A) (A) (A) (A) (A) (A) (A) (A) (A) (A)
                 (A)
       Virtual   (A) (A) (A) (A) (A) (A) (A) (A) (A) (A) (A) (A)
                 (A) (A) (A) (A) (A) (A) (A) (A) (A) (A) (A) (A)
                 (A) (A) (A) (A) (A) (A) (A) (A) (A) (A) (A) (A)
                 (A) (A) (A) (A) (A) (A) (A) (A) (A) (A) (A) (A)
                 (A) (A) (A) (A) (A) (A) (A) (A) (A) (A) (A) (A)
                 (A) (A) (A) (A) (A) (A) (A) (A) (A) (A) (A) (A)
                 (A) (A) (A) (A) (A) (A) (A) (A) (A) (A) (A) (A)
                 (A) (A) (A) (A) (A) (A) (A) (A) (A)
 The electronic state of the initial guess is 1-A.
 Generating alternative initial guess.
 Harris functional with IExCor=  402 diagonalized for initial guess.
 ExpMin= 1.61D-01 ExpMax= 3.05D+03 ExpMxC= 4.57D+02 IAcc=3 IRadAn=         5 AccDes= 0.00D+00
 HarFok:  IExCor=  402 AccDes= 0.00D+00 IRadAn=         5 IDoV= 1
 ScaDFX=  1.000000  1.000000  1.000000  1.000000
 FoFCou: FMM=F IPFlag=           0 FMFlag=      100000 FMFlg1=           0
         NFxFlg=           0 DoJE=T BraDBF=F KetDBF=T FulRan=T
         Omega=  0.000000  0.000000  1.000000  0.000000  0.000000 ICntrl=     500 IOpCl=  0
         NMat0=    1 NMatS0=    1 NMatT0=    0 NMatD0=    1 NMtDS0=    0 NMtDT0=    0
         I1Cent=           4 NGrid=           0.
 Petite list used in FoFCou.
 Harris En= -237.182666755179    
 Leave Link  401 at Fri Sep 18 13:21:59 2015, MaxMem=  402653184 cpu:       9.8
 (Enter /share/apps/g09/l502.exe)
 Closed shell SCF:
 Requested convergence on RMS density matrix=1.00D-08 within 128 cycles.
 Requested convergence on MAX density matrix=1.00D-06.
 Requested convergence on             energy=1.00D-06.
 No special actions if energy rises.
 Using DIIS extrapolation, IDIIS=  1040.
 Integral symmetry usage will be decided dynamically.
       454713 words used for storage of precomputed grid.
 Keep R1 ints in memory in canonical form, NReq=26108768.
 IEnd=      516257 IEndB=      516257 NGot=   402653184 MDV=   377516851
 LenX=   377516851 LenY=   377502486
 Symmetry not used in FoFDir.
 MinBra= 0 MaxBra= 2 Meth= 1.
 IRaf=       0 NMat=   1 IRICut=       1 DoRegI=T DoRafI=F ISym2E= 0 JSym2E=0.
 Integral accuracy reduced to 1.0D-05 until final iterations.

 Cycle   1  Pass 0  IDiag  1:
 E= -237.082882860760    
 DIIS: error= 1.67D-03 at cycle   1 NSaved=   1.
 NSaved= 1 IEnMin= 1 EnMin= -237.082882860760     IErMin= 1 ErrMin= 1.67D-03
 ErrMax= 1.67D-03 EMaxC= 1.00D-01 BMatC= 5.67D-04 BMatP= 5.67D-04
 IDIUse=3 WtCom= 9.83D-01 WtEn= 1.67D-02
 Coeff-Com:  0.100D+01
 Coeff-En:   0.100D+01
 Coeff:      0.100D+01
 Gap=     0.398 Goal=   None    Shift=    0.000
 GapD=    0.398 DampG=1.000 DampE=1.000 DampFc=1.0000 IDamp=-1.
 RMSDP=3.12D-04 MaxDP=4.31D-03              OVMax= 8.59D-03

 Cycle   2  Pass 0  IDiag  1:
 E= -237.083929365867     Delta-E=       -0.001046505107 Rises=F Damp=F
 DIIS: error= 3.98D-04 at cycle   2 NSaved=   2.
 NSaved= 2 IEnMin= 2 EnMin= -237.083929365867     IErMin= 2 ErrMin= 3.98D-04
 ErrMax= 3.98D-04 EMaxC= 1.00D-01 BMatC= 2.94D-05 BMatP= 5.67D-04
 IDIUse=3 WtCom= 9.96D-01 WtEn= 3.98D-03
 Coeff-Com:  0.280D-01 0.972D+00
 Coeff-En:   0.000D+00 0.100D+01
 Coeff:      0.279D-01 0.972D+00
 Gap=     0.396 Goal=   None    Shift=    0.000
 RMSDP=1.03D-04 MaxDP=1.65D-03 DE=-1.05D-03 OVMax= 2.11D-03

 Cycle   3  Pass 0  IDiag  1:
 E= -237.083933587255     Delta-E=       -0.000004221388 Rises=F Damp=F
 DIIS: error= 4.39D-04 at cycle   3 NSaved=   3.
 NSaved= 3 IEnMin= 3 EnMin= -237.083933587255     IErMin= 2 ErrMin= 3.98D-04
 ErrMax= 4.39D-04 EMaxC= 1.00D-01 BMatC= 3.13D-05 BMatP= 2.94D-05
 IDIUse=3 WtCom= 9.96D-01 WtEn= 4.39D-03
 Coeff-Com: -0.334D-01 0.522D+00 0.512D+00
 Coeff-En:   0.000D+00 0.465D+00 0.535D+00
 Coeff:     -0.333D-01 0.522D+00 0.512D+00
 Gap=     0.397 Goal=   None    Shift=    0.000
 RMSDP=5.14D-05 MaxDP=8.56D-04 DE=-4.22D-06 OVMax= 1.01D-03

 Cycle   4  Pass 0  IDiag  1:
 E= -237.083965606400     Delta-E=       -0.000032019145 Rises=F Damp=F
 DIIS: error= 3.81D-05 at cycle   4 NSaved=   4.
 NSaved= 4 IEnMin= 4 EnMin= -237.083965606400     IErMin= 4 ErrMin= 3.81D-05
 ErrMax= 3.81D-05 EMaxC= 1.00D-01 BMatC= 3.19D-07 BMatP= 2.94D-05
 IDIUse=1 WtCom= 1.00D+00 WtEn= 0.00D+00
 Coeff-Com: -0.130D-01 0.130D+00 0.164D+00 0.719D+00
 Coeff:     -0.130D-01 0.130D+00 0.164D+00 0.719D+00
 Gap=     0.397 Goal=   None    Shift=    0.000
 RMSDP=6.10D-06 MaxDP=7.50D-05 DE=-3.20D-05 OVMax= 1.15D-04

 Initial convergence to 1.0D-05 achieved.  Increase integral accuracy.
 Cycle   5  Pass 1  IDiag  1:
 E= -237.083953396393     Delta-E=        0.000012210008 Rises=F Damp=F
 DIIS: error= 1.05D-05 at cycle   1 NSaved=   1.
 NSaved= 1 IEnMin= 1 EnMin= -237.083953396393     IErMin= 1 ErrMin= 1.05D-05
 ErrMax= 1.05D-05 EMaxC= 1.00D-01 BMatC= 1.90D-08 BMatP= 1.90D-08
 IDIUse=1 WtCom= 1.00D+00 WtEn= 0.00D+00
 Coeff-Com:  0.100D+01
 Coeff:      0.100D+01
 Gap=     0.397 Goal=   None    Shift=    0.000
 RMSDP=6.10D-06 MaxDP=7.50D-05 DE= 1.22D-05 OVMax= 5.50D-05

 Cycle   6  Pass 1  IDiag  1:
 E= -237.083953395760     Delta-E=        0.000000000633 Rises=F Damp=F
 DIIS: error= 1.08D-05 at cycle   2 NSaved=   2.
 NSaved= 2 IEnMin= 1 EnMin= -237.083953396393     IErMin= 1 ErrMin= 1.05D-05
 ErrMax= 1.08D-05 EMaxC= 1.00D-01 BMatC= 2.18D-08 BMatP= 1.90D-08
 IDIUse=1 WtCom= 1.00D+00 WtEn= 0.00D+00
 Coeff-Com:  0.518D+00 0.482D+00
 Coeff:      0.518D+00 0.482D+00
 Gap=     0.397 Goal=   None    Shift=    0.000
 RMSDP=1.26D-06 MaxDP=2.44D-05 DE= 6.33D-10 OVMax= 2.73D-05

 Cycle   7  Pass 1  IDiag  1:
 E= -237.083953417079     Delta-E=       -0.000000021319 Rises=F Damp=F
 DIIS: error= 1.12D-06 at cycle   3 NSaved=   3.
 NSaved= 3 IEnMin= 3 EnMin= -237.083953417079     IErMin= 3 ErrMin= 1.12D-06
 ErrMax= 1.12D-06 EMaxC= 1.00D-01 BMatC= 3.02D-10 BMatP= 1.90D-08
 IDIUse=1 WtCom= 1.00D+00 WtEn= 0.00D+00
 Coeff-Com:  0.988D-01 0.145D+00 0.756D+00
 Coeff:      0.988D-01 0.145D+00 0.756D+00
 Gap=     0.397 Goal=   None    Shift=    0.000
 RMSDP=2.03D-07 MaxDP=3.32D-06 DE=-2.13D-08 OVMax= 4.38D-06

 Cycle   8  Pass 1  IDiag  1:
 E= -237.083953417356     Delta-E=       -0.000000000277 Rises=F Damp=F
 DIIS: error= 3.30D-07 at cycle   4 NSaved=   4.
 NSaved= 4 IEnMin= 4 EnMin= -237.083953417356     IErMin= 4 ErrMin= 3.30D-07
 ErrMax= 3.30D-07 EMaxC= 1.00D-01 BMatC= 2.42D-11 BMatP= 3.02D-10
 IDIUse=1 WtCom= 1.00D+00 WtEn= 0.00D+00
 Coeff-Com: -0.103D-01 0.882D-02 0.251D+00 0.750D+00
 Coeff:     -0.103D-01 0.882D-02 0.251D+00 0.750D+00
 Gap=     0.397 Goal=   None    Shift=    0.000
 RMSDP=6.39D-08 MaxDP=1.17D-06 DE=-2.77D-10 OVMax= 1.44D-06

 Cycle   9  Pass 1  IDiag  1:
 E= -237.083953417383     Delta-E=       -0.000000000027 Rises=F Damp=F
 DIIS: error= 8.08D-08 at cycle   5 NSaved=   5.
 NSaved= 5 IEnMin= 5 EnMin= -237.083953417383     IErMin= 5 ErrMin= 8.08D-08
 ErrMax= 8.08D-08 EMaxC= 1.00D-01 BMatC= 1.55D-12 BMatP= 2.42D-11
 IDIUse=1 WtCom= 1.00D+00 WtEn= 0.00D+00
 Coeff-Com: -0.710D-02 0.147D-02 0.108D+00 0.369D+00 0.529D+00
 Coeff:     -0.710D-02 0.147D-02 0.108D+00 0.369D+00 0.529D+00
 Gap=     0.397 Goal=   None    Shift=    0.000
 RMSDP=1.20D-08 MaxDP=2.09D-07 DE=-2.75D-11 OVMax= 2.39D-07

 Cycle  10  Pass 1  IDiag  1:
 E= -237.083953417384     Delta-E=       -0.000000000001 Rises=F Damp=F
 DIIS: error= 1.10D-08 at cycle   6 NSaved=   6.
 NSaved= 6 IEnMin= 6 EnMin= -237.083953417384     IErMin= 6 ErrMin= 1.10D-08
 ErrMax= 1.10D-08 EMaxC= 1.00D-01 BMatC= 3.26D-14 BMatP= 1.55D-12
 IDIUse=1 WtCom= 1.00D+00 WtEn= 0.00D+00
 Coeff-Com: -0.129D-02-0.136D-03 0.137D-01 0.564D-01 0.160D+00 0.772D+00
 Coeff:     -0.129D-02-0.136D-03 0.137D-01 0.564D-01 0.160D+00 0.772D+00
 Gap=     0.397 Goal=   None    Shift=    0.000
 RMSDP=1.94D-09 MaxDP=3.20D-08 DE=-7.39D-13 OVMax= 4.11D-08

 SCF Done:  E(RB3LYP) =  -237.083953417     A.U. after   10 cycles
             Convg  =    0.1939D-08             -V/T =  2.0106
 KE= 2.346046160431D+02 PE=-1.038305312171D+03 EE= 3.209170981079D+02
 Leave Link  502 at Fri Sep 18 13:22:44 2015, MaxMem=  402653184 cpu:      89.8
 (Enter /share/apps/g09/l701.exe)
 Compute integral first derivatives.
 ... and contract with generalized density number  0.
 Leave Link  701 at Fri Sep 18 13:22:45 2015, MaxMem=  402653184 cpu:       0.3
 (Enter /share/apps/g09/l702.exe)
 L702 exits ... SP integral derivatives will be done elsewhere.
 Leave Link  702 at Fri Sep 18 13:22:45 2015, MaxMem=  402653184 cpu:       0.0
 (Enter /share/apps/g09/l703.exe)
 Compute integral first derivatives, UseDBF=F ICtDFT=           0.
 Integral derivatives from FoFDir, PRISM(SPDF).
 Calling FoFJK, ICntrl=      2127 FMM=F ISym2X=0 I1Cent= 0 IOpClX= 0 NMat=1 NMatS=1 NMatT=0.
 FoFCou: FMM=F IPFlag=           0 FMFlag=      100000 FMFlg1=         800
         NFxFlg=           0 DoJE=F BraDBF=F KetDBF=F FulRan=T
         Omega=  0.000000  0.000000  1.000000  0.000000  0.000000 ICntrl=    2127 IOpCl=  0
         NMat0=    1 NMatS0=    1 NMatT0=    0 NMatD0=    1 NMtDS0=    0 NMtDT0=    0
         I1Cent=           0 NGrid=           0.
 Symmetry not used in FoFCou.
 Leave Link  703 at Fri Sep 18 13:22:56 2015, MaxMem=  402653184 cpu:      23.5
 (Enter /share/apps/g09/l716.exe)
 Dipole        = 8.38870664D-03-2.00383155D-02 2.39061321D-03
 ***** Axes restored to original set *****
 -------------------------------------------------------------------
 Center     Atomic                   Forces (Hartrees/Bohr)
 Number     Number              X              Y              Z
 -------------------------------------------------------------------
      1        6           0.000613774    0.000401951    0.000422861
      2        1           0.000050472    0.000115458    0.000017050
      3        1           0.000040983    0.000053375    0.000101572
      4        1           0.000946540   -0.000474477   -0.000185024
      5        6           0.000528827   -0.001292096   -0.000609272
      6        1          -0.000372563   -0.000247846    0.000095548
      7        1          -0.000163316    0.000099353   -0.000271272
      8        6           0.000587621    0.000992193    0.000325807
      9        1           0.000056609    0.000059672    0.000556683
     10        1           0.000359348    0.000509787   -0.000114166
     11        6          -0.000254283    0.000160649   -0.000624404
     12        1           0.000162200   -0.000210874   -0.000566303
     13        1           0.000490335    0.000072403    0.000601262
     14        6          -0.000946824   -0.000226468    0.000836022
     15        1          -0.000933235    0.000019582   -0.000792008
     16        1          -0.000074539    0.000119771    0.000346646
     17        6          -0.000719160    0.000486959   -0.000292635
     18        1          -0.000187428   -0.000005585    0.000080856
     19        1          -0.000148172   -0.000605907    0.000214970
     20        1          -0.000037188   -0.000027902   -0.000144194
 -------------------------------------------------------------------
 Cartesian Forces:  Max     0.001292096 RMS     0.000461919
 Leave Link  716 at Fri Sep 18 13:22:56 2015, MaxMem=  402653184 cpu:       0.0
 (Enter /share/apps/g09/l103.exe)

 GradGradGradGradGradGradGradGradGradGradGradGradGradGradGradGradGradGrad
 Berny optimization.
[...]

 Largest change from initial coordinates is atom   18       0.142 Angstoms.
 Leave Link  103 at Fri Sep 18 13:28:35 2015, MaxMem=  402653184 cpu:       0.1
 (Enter /share/apps/g09/l202.exe)
                          Input orientation:                          
 ---------------------------------------------------------------------
 Center     Atomic      Atomic             Coordinates (Angstroms)
 Number     Number       Type             X           Y           Z
 ---------------------------------------------------------------------
      1          6           0       -2.989502    0.532828    0.100862
      2          1           0       -2.841176    1.542694   -0.301375
      3          1           0       -3.071121    0.621215    1.191335
      4          1           0       -3.950016    0.162622   -0.275677
      5          6           0       -1.836671   -0.395592   -0.294540
      6          1           0       -2.031513   -1.406435    0.091444
      7          1           0       -1.802585   -0.490852   -1.389318
      8          6           0       -0.470359    0.084272    0.212863
      9          1           0       -0.503003    0.174794    1.309416
     10          1           0       -0.284663    1.097420   -0.170146
     11          6           0        0.684556   -0.846567   -0.182198
     12          1           0        0.737230   -0.913348   -1.279484
     13          1           0        0.455041   -1.861856    0.172063
     14          6           0        2.061330   -0.433088    0.364407
     15          1           0        2.781383   -1.231986    0.141055
     16          1           0        2.009825   -0.369367    1.460943
     17          6           0        2.597881    0.888742   -0.198110
     18          1           0        1.957440    1.736991    0.068254
     19          1           0        3.601695    1.102058    0.187027
     20          1           0        2.662724    0.853450   -1.293072
 ---------------------------------------------------------------------
                    Distance matrix (angstroms):
                    1          2          3          4          5
     1  C    0.000000
     2  H    1.097098   0.000000
     3  H    1.097090   1.769232   0.000000
     4  H    1.096093   1.770532   1.770562   0.000000
     5  C    1.532099   2.183124   2.183023   2.185906   0.000000
     6  H    2.163000   3.083378   2.530199   2.505468   1.099432
     7  H    2.162714   2.529348   3.083123   2.505730   1.099443
     8  C    2.561216   2.830584   2.830137   3.514658   1.534449
     9  H    2.787735   3.151643   2.609303   3.794017   2.162565
    10  H    2.776394   2.598316   3.137634   3.784150   2.157147
    11  C    3.934661   4.260699   4.259822   4.744097   2.563705
    12  H    4.229103   4.449025   4.792011   4.912800   2.804131
    13  H    4.195766   4.762368   4.431521   4.868624   2.760361
    14  C    5.149112   5.327433   5.304471   6.074607   3.953483
    15  H    6.034841   6.285520   6.228101   6.886968   4.713356
    16  H    5.258996   5.503994   5.183623   6.230454   4.228231
    17  C    5.606684   5.479202   5.842920   6.588491   4.617799
    18  H    5.091494   4.816751   5.271877   6.123312   4.367471
    19  H    6.616293   6.476364   6.765081   7.623973   5.661333
    20  H    5.830395   5.634841   6.253254   6.726117   4.775115
                    6          7          8          9         10
     6  H    0.000000
     7  H    1.755949   0.000000
     8  C    2.161979   2.161614   0.000000
     9  H    2.513978   3.068414   1.100768   0.000000
    10  H    3.064180   2.512583   1.098930   1.757275   0.000000
    11  C    2.786640   2.787389   1.535045   2.162958   2.172238
    12  H    3.128661   2.577057   2.163473   3.069957   2.513580
    13  H    2.529201   3.068295   2.155329   2.521778   3.069460
    14  C    4.215836   4.243668   2.588450   2.799708   2.851646
    15  H    4.816313   4.889180   3.508778   3.759161   3.863110
    16  H    4.391292   4.761639   2.813326   2.575534   3.174364
    17  C    5.175227   4.763019   3.198463   3.521056   2.890223
    18  H    5.078721   4.607123   2.940510   3.167763   2.343697
    19  H    6.167229   5.850510   4.197402   4.355241   3.902740
    20  H    5.390716   4.664267   3.560292   4.153955   3.163475
                   11         12         13         14         15
    11  C    0.000000
    12  H    1.100577   0.000000
    13  H    1.099541   1.756783   0.000000
    14  C    1.537937   2.164779   2.158365   0.000000
    15  H    2.156322   2.509587   2.410304   1.098454   0.000000
    16  H    2.164248   3.070073   2.511193   1.099592   1.755425
    17  C    2.583092   2.806942   3.506364   1.533476   2.155504
    18  H    2.890975   3.213970   3.901241   2.192656   3.082046
    19  H    3.527488   3.797061   4.322782   2.181940   2.474427
    20  H    2.835004   2.613290   3.793859   2.182679   2.533741
                   16         17         18         19         20
    16  H    0.000000
    17  C    2.163586   0.000000
    18  H    2.525682   1.095737   0.000000
    19  H    2.514360   1.096119   1.766585   0.000000
    20  H    3.083205   1.097447   1.769541   1.770357   0.000000
 Stoichiometry    C6H14
 Framework group  C1[X(C6H14)]
 Deg. of freedom    54
 Full point group                 C1      NOp   1
 Largest Abelian subgroup         C1      NOp   1
 Largest concise Abelian subgroup C1      NOp   1
                         Standard orientation:                         
 ---------------------------------------------------------------------
 Center     Atomic      Atomic             Coordinates (Angstroms)
 Number     Number       Type             X           Y           Z
 ---------------------------------------------------------------------
      1          6           0       -2.989033    0.533567    0.114030
      2          1           0       -2.843561    1.537889   -0.302863
      3          1           0       -3.063719    0.636784    1.203697
      4          1           0       -3.951824    0.158078   -0.251294
      5          6           0       -1.838485   -0.399928   -0.276040
      6          1           0       -2.030576   -1.405457    0.124913
      7          1           0       -1.811356   -0.510085   -1.369614
      8          6           0       -0.469100    0.087071    0.216050
      9          1           0       -0.494774    0.192515    1.311455
     10          1           0       -0.286138    1.094944   -0.181900
     11          6           0        0.683534   -0.848838   -0.173659
     12          1           0        0.729226   -0.930549   -1.270247
     13          1           0        0.456570   -1.859252    0.195856
     14          6           0        2.063650   -0.427682    0.358466
     15          1           0        2.782490   -1.229407    0.141426
     16          1           0        2.019122   -0.349040    1.454339
     17          6           0        2.596229    0.886469   -0.225415
     18          1           0        1.957260    1.738141    0.033453
     19          1           0        3.602419    1.105207    0.150366
     20          1           0        2.654095    0.836276   -1.320186
 ---------------------------------------------------------------------
 Rotational constants (GHZ):      8.7112859      1.3268931      1.2361592
 Leave Link  202 at Fri Sep 18 13:28:35 2015, MaxMem=  402653184 cpu:       0.0
 (Enter /share/apps/g09/l601.exe)
 Copying SCF densities to generalized density rwf, IOpCl= 0 IROHF=0.

 **********************************************************************

            Population analysis using the SCF density.

 **********************************************************************

 Orbital symmetries:
       Occupied  (A) (A) (A) (A) (A) (A) (A) (A) (A) (A) (A) (A)
                 (A) (A) (A) (A) (A) (A) (A) (A) (A) (A) (A) (A)
                 (A)
       Virtual   (A) (A) (A) (A) (A) (A) (A) (A) (A) (A) (A) (A)
                 (A) (A) (A) (A) (A) (A) (A) (A) (A) (A) (A) (A)
                 (A) (A) (A) (A) (A) (A) (A) (A) (A) (A) (A) (A)
                 (A) (A) (A) (A) (A) (A) (A) (A) (A) (A) (A) (A)
                 (A) (A) (A) (A) (A) (A) (A) (A) (A) (A) (A) (A)
                 (A) (A) (A) (A) (A) (A) (A) (A) (A) (A) (A) (A)
                 (A) (A) (A) (A) (A) (A) (A) (A) (A) (A) (A) (A)
                 (A) (A) (A) (A) (A) (A) (A) (A) (A)
 The electronic state is 1-A.
 Alpha  occ. eigenvalues --  -10.17623 -10.17586 -10.17383 -10.17306 -10.16986
 Alpha  occ. eigenvalues --  -10.16944  -0.79880  -0.76005  -0.70066  -0.63962
 Alpha  occ. eigenvalues --   -0.58260  -0.56080  -0.46748  -0.44528  -0.43085
 Alpha  occ. eigenvalues --   -0.40884  -0.40331  -0.38125  -0.36361  -0.35374
 Alpha  occ. eigenvalues --   -0.33725  -0.32748  -0.31655  -0.31313  -0.30412
 Alpha virt. eigenvalues --    0.09123   0.10653   0.12220   0.12886   0.14746
 Alpha virt. eigenvalues --    0.16002   0.16330   0.17165   0.18182   0.19168
 Alpha virt. eigenvalues --    0.19259   0.19940   0.20431   0.22263   0.22612
 Alpha virt. eigenvalues --    0.25394   0.26332   0.27871   0.29246   0.50194
 Alpha virt. eigenvalues --    0.50577   0.51504   0.53607   0.55283   0.55808
 Alpha virt. eigenvalues --    0.58646   0.62186   0.64311   0.65740   0.68172
 Alpha virt. eigenvalues --    0.68972   0.71339   0.77559   0.78371   0.80911
 Alpha virt. eigenvalues --    0.84620   0.86371   0.87592   0.88925   0.90071
 Alpha virt. eigenvalues --    0.90291   0.91640   0.93782   0.94128   0.94869
 Alpha virt. eigenvalues --    0.95517   0.97487   0.98362   1.00168   1.02012
 Alpha virt. eigenvalues --    1.03856   1.13141   1.23578   1.39058   1.41743
 Alpha virt. eigenvalues --    1.44862   1.50241   1.53486   1.59108   1.67055
 Alpha virt. eigenvalues --    1.69730   1.79828   1.81101   1.88122   1.91697
 Alpha virt. eigenvalues --    1.92478   1.95570   1.97079   1.99589   2.01614
 Alpha virt. eigenvalues --    2.02922   2.06248   2.14505   2.21943   2.25222
 Alpha virt. eigenvalues --    2.27388   2.32111   2.33636   2.36125   2.40515
 Alpha virt. eigenvalues --    2.42010   2.44834   2.58032   2.59828   2.64190
 Alpha virt. eigenvalues --    2.74751   2.80194   4.11207   4.18765   4.29151
 Alpha virt. eigenvalues --    4.38419   4.45532   4.55425
          Condensed to atoms (all electrons):
              1          2          3          4          5          6
     1  C    5.066116   0.377245   0.377419   0.371327   0.371580  -0.038625
     2  H    0.377245   0.580188  -0.032946  -0.031380  -0.034642   0.005274
     3  H    0.377419  -0.032946   0.580127  -0.031442  -0.034712  -0.004495
     4  H    0.371327  -0.031380  -0.031442   0.579223  -0.027194  -0.002678
     5  C    0.371580  -0.034642  -0.034712  -0.027194   4.951102   0.376288
     6  H   -0.038625   0.005274  -0.004495  -0.002678   0.376288   0.613647
     7  H   -0.038712  -0.004517   0.005275  -0.002720   0.376560  -0.040242
     8  C   -0.042745  -0.004547  -0.004494   0.004130   0.388503  -0.040487
     9  H   -0.002929  -0.000393   0.004848  -0.000035  -0.040450  -0.005554
    10  H   -0.002666   0.005007  -0.000416  -0.000037  -0.040470   0.005965
    11  C    0.003590   0.000032   0.000032  -0.000130  -0.035638  -0.003636
    12  H    0.000016   0.000003   0.000006   0.000002  -0.003585  -0.000447
    13  H    0.000053   0.000008   0.000003   0.000002  -0.004336   0.005674
    14  C   -0.000128   0.000001   0.000001   0.000001   0.003571  -0.000016
    15  H    0.000002   0.000000   0.000000   0.000000  -0.000129  -0.000004
    16  H   -0.000001   0.000000  -0.000001   0.000000   0.000026   0.000004
    17  C    0.000002  -0.000002   0.000000   0.000000   0.000124   0.000001
    18  H    0.000006  -0.000002   0.000001   0.000000  -0.000093   0.000000
    19  H    0.000000   0.000000   0.000000   0.000000  -0.000001   0.000000
    20  H    0.000000   0.000000   0.000000   0.000000  -0.000024   0.000000
              7          8          9         10         11         12
     1  C   -0.038712  -0.042745  -0.002929  -0.002666   0.003590   0.000016
     2  H   -0.004517  -0.004547  -0.000393   0.005007   0.000032   0.000003
     3  H    0.005275  -0.004494   0.004848  -0.000416   0.000032   0.000006
     4  H   -0.002720   0.004130  -0.000035  -0.000037  -0.000130   0.000002
     5  C    0.376560   0.388503  -0.040450  -0.040470  -0.035638  -0.003585
     6  H   -0.040242  -0.040487  -0.005554   0.005965  -0.003636  -0.000447
     7  H    0.613314  -0.040529   0.006002  -0.005519  -0.003330   0.005066
     8  C   -0.040529   4.980649   0.372118   0.373615   0.385725  -0.041161
     9  H    0.006002   0.372118   0.620420  -0.041173  -0.041282   0.006056
    10  H   -0.005519   0.373615  -0.041173   0.612083  -0.038620  -0.005481
    11  C   -0.003330   0.385725  -0.041282  -0.038620   4.984882   0.370551
    12  H    0.005066  -0.041161   0.006056  -0.005481   0.370551   0.620034
    13  H   -0.000471  -0.041203  -0.005050   0.005890   0.370720  -0.039017
    14  C    0.000057  -0.038985  -0.002975  -0.004079   0.378781  -0.039297
    15  H    0.000004   0.004594   0.000017  -0.000031  -0.033494  -0.002782
    16  H    0.000008  -0.006954   0.005732  -0.000197  -0.039570   0.005990
    17  C   -0.000012  -0.004615  -0.000563   0.002855  -0.045338  -0.006494
    18  H    0.000009   0.002832   0.000354   0.002388  -0.004785  -0.000106
    19  H    0.000000   0.000108  -0.000025  -0.000085   0.004316  -0.000017
    20  H    0.000001  -0.000531   0.000074   0.000296  -0.004140   0.005487
             13         14         15         16         17         18
     1  C    0.000053  -0.000128   0.000002  -0.000001   0.000002   0.000006
     2  H    0.000008   0.000001   0.000000   0.000000  -0.000002  -0.000002
     3  H    0.000003   0.000001   0.000000  -0.000001   0.000000   0.000001
     4  H    0.000002   0.000001   0.000000   0.000000   0.000000   0.000000
     5  C   -0.004336   0.003571  -0.000129   0.000026   0.000124  -0.000093
     6  H    0.005674  -0.000016  -0.000004   0.000004   0.000001   0.000000
     7  H   -0.000471   0.000057   0.000004   0.000008  -0.000012   0.000009
     8  C   -0.041203  -0.038985   0.004594  -0.006954  -0.004615   0.002832
     9  H   -0.005050  -0.002975   0.000017   0.005732  -0.000563   0.000354
    10  H    0.005890  -0.004079  -0.000031  -0.000197   0.002855   0.002388
    11  C    0.370720   0.378781  -0.033494  -0.039570  -0.045338  -0.004785
    12  H   -0.039017  -0.039297  -0.002782   0.005990  -0.006494  -0.000106
    13  H    0.617946  -0.034483  -0.003981  -0.002807   0.005040  -0.000027
    14  C   -0.034483   4.958547   0.373236   0.375236   0.378207  -0.034500
    15  H   -0.003981   0.373236   0.613894  -0.038569  -0.039952   0.005209
    16  H   -0.002807   0.375236  -0.038569   0.614449  -0.040615  -0.004544
    17  C    0.005040   0.378207  -0.039952  -0.040615   5.065866   0.378496
    18  H   -0.000027  -0.034500   0.005209  -0.004544   0.378496   0.573071
    19  H   -0.000161  -0.028516  -0.003563  -0.002463   0.373009  -0.031309
    20  H    0.000011  -0.036225  -0.004094   0.005378   0.376833  -0.033016
             19         20
     1  C    0.000000   0.000000
     2  H    0.000000   0.000000
     3  H    0.000000   0.000000
     4  H    0.000000   0.000000
     5  C   -0.000001  -0.000024
     6  H    0.000000   0.000000
     7  H    0.000000   0.000001
     8  C    0.000108  -0.000531
     9  H   -0.000025   0.000074
    10  H   -0.000085   0.000296
    11  C    0.004316  -0.004140
    12  H   -0.000017   0.005487
    13  H   -0.000161   0.000011
    14  C   -0.028516  -0.036225
    15  H   -0.003563  -0.004094
    16  H   -0.002463   0.005378
    17  C    0.373009   0.376833
    18  H   -0.031309  -0.033016
    19  H    0.578871  -0.031320
    20  H   -0.031320   0.581322
 Mulliken atomic charges:
              1
     1  C   -0.441549
     2  H    0.140671
     3  H    0.140794
     4  H    0.140932
     5  C   -0.246480
     6  H    0.129331
     7  H    0.129755
     8  C   -0.246023
     9  H    0.124806
    10  H    0.130676
    11  C   -0.248665
    12  H    0.125177
    13  H    0.126189
    14  C   -0.248433
    15  H    0.129642
    16  H    0.128899
    17  C   -0.442841
    18  H    0.146015
    19  H    0.141156
    20  H    0.139948
 Sum of Mulliken atomic charges =   0.00000
 Mulliken charges with hydrogens summed into heavy atoms:
              1
     1  C   -0.019153
     5  C    0.012606
     8  C    0.009460
    11  C    0.002702
    14  C    0.010109
    17  C   -0.015723
 Sum of Mulliken charges with hydrogens summed into heavy atoms =   0.00000
 Electronic spatial extent (au):  <R**2>=           1035.9088
 Charge=              0.0000 electrons
 Dipole moment (field-independent basis, Debye):
    X=              0.0238    Y=             -0.0531    Z=              0.0044  Tot=              0.0583
 Quadrupole moment (field-independent basis, Debye-Ang):
   XX=            -41.9302   YY=            -41.6392   ZZ=            -41.1231
   XY=              0.0272   XZ=              0.0488   YZ=             -0.1478
 Traceless Quadrupole moment (field-independent basis, Debye-Ang):
   XX=             -0.3660   YY=             -0.0751   ZZ=              0.4411
   XY=              0.0272   XZ=              0.0488   YZ=             -0.1478
 Octapole moment (field-independent basis, Debye-Ang**2):
  XXX=              1.7257  YYY=             -0.2606  ZZZ=             -0.0016  XYY=             -0.2675
  XXY=             -1.8104  XXZ=             -0.2242  XZZ=             -0.1740  YZZ=             -0.0337
  YYZ=              0.2458  XYZ=              0.7396
 Hexadecapole moment (field-independent basis, Debye-Ang**3):
 XXXX=          -1141.5475 YYYY=           -188.0821 ZZZZ=            -99.4076 XXXY=              4.8353
 XXXZ=              5.5077 YYYX=             -1.8231 YYYZ=             -1.6622 ZZZX=             -1.9477
 ZZZY=              0.4565 XXYY=           -225.2210 XXZZ=           -207.4550 YYZZ=            -50.1228
 XXYZ=              1.2942 YYXZ=              0.8168 ZZXY=             -0.1316
 N-N= 2.463230418992D+02 E-N=-1.039569889690D+03  KE= 2.346209379897D+02
 No NMR shielding tensors so no spin-rotation constants.
 Leave Link  601 at Fri Sep 18 13:28:36 2015, MaxMem=  402653184 cpu:       0.3
 (Enter /share/apps/g09/l9999.exe)
 1\1\GINC-COMPUTE-0-12\FOpt\RB3LYP\6-31G(d)\C6H14\HETANJIN\18-Sep-2015\
 0\\#p B3LYP/6-31G(d) opt=tight int=ultrafine\\using B3LYP/6-31G(d) to 
 do opt and freq calc.\\0,1\C,-2.9895021242,0.5328279044,0.1008623119\H
 ,-2.8411761425,1.5426939864,-0.3013748698\H,-3.0711208609,0.6212149676
 ,1.1913354814\H,-3.9500155532,0.1626223166,-0.2756774657\C,-1.83667099
 59,-0.3955918488,-0.294540331\H,-2.0315134892,-1.4064345131,0.09144408
 76\H,-1.802584625,-0.4908522491,-1.3893180559\C,-0.4703592754,0.084272
 0821,0.2128627685\H,-0.503002974,0.1747940092,1.3094162265\H,-0.284663
 483,1.0974198572,-0.1701458906\C,0.6845556387,-0.8465673222,-0.1821984
 775\H,0.7372296508,-0.9133479041,-1.2794839189\H,0.4550406009,-1.86185
 62394,0.1720627007\C,2.0613296135,-0.4330878567,0.3644070601\H,2.78138
 31098,-1.2319861955,0.1410550408\H,2.0098245216,-0.3693668751,1.460942
 7211\C,2.5978808224,0.888742491,-0.1981102128\H,1.9574399626,1.7369908
 222,0.0682538605\H,3.60169503,1.1020578826,0.1870265294\H,2.6627235731
 ,0.8534496846,-1.2930715661\\Version=EM64L-G09RevA.01\State=1-A\HF=-23
 7.084132\RMSD=6.174e-09\RMSF=7.790e-07\Dipole=0.0093548,-0.02091,0.001
 4997\Quadrupole=-0.2725782,-0.0527498,0.325328,0.0205147,0.0327179,-0.
 1149881\PG=C01 [X(C6H14)]\\@


 IMAGINATION WILL OFTEN CARRY US TO WORLDS THAT NEVER WERE.
 BUT WITHOUT IT, WE GO NOWHERE. -- CARL SAGAN (COSMOS)
 Job cpu time:  0 days  0 hours 15 minutes 36.2 seconds.
 File lengths (MBytes):  RWF=     15 Int=      0 D2E=      0 Chk=      2 Scr=      1
 Normal termination of Gaussian 09 at Fri Sep 18 13:28:36 2015.
