 Entering Gaussian System, Link 0=/home/hetanjin/apps/g09D01/g09/g09
 Input=C6H14_3_r006_C10_2_opt_B3L.gjf
 Output=C6H14_3_r006_C10_2_opt_B3L.log
 Initial command:
 /home/hetanjin/apps/g09D01/g09/l1.exe "/state/partition1/Gau-10990.inp" -scrdir="/state/partition1/"
 Entering Link 1 = /home/hetanjin/apps/g09D01/g09/l1.exe PID=     10992.
  
 Copyright (c) 1988,1990,1992,1993,1995,1998,2003,2009,2013,
            Gaussian, Inc.  All Rights Reserved.
  
 This is part of the Gaussian(R) 09 program.  It is based on
 the Gaussian(R) 03 system (copyright 2003, Gaussian, Inc.),
 the Gaussian(R) 98 system (copyright 1998, Gaussian, Inc.),
 the Gaussian(R) 94 system (copyright 1995, Gaussian, Inc.),
 the Gaussian 92(TM) system (copyright 1992, Gaussian, Inc.),
 the Gaussian 90(TM) system (copyright 1990, Gaussian, Inc.),
 the Gaussian 88(TM) system (copyright 1988, Gaussian, Inc.),
 the Gaussian 86(TM) system (copyright 1986, Carnegie Mellon
 University), and the Gaussian 82(TM) system (copyright 1983,
 Carnegie Mellon University). Gaussian is a federally registered
 trademark of Gaussian, Inc.
  
 This software contains proprietary and confidential information,
 including trade secrets, belonging to Gaussian, Inc.
  
 This software is provided under written license and may be
 used, copied, transmitted, or stored only in accord with that
 written license.
  
 The following legend is applicable only to US Government
 contracts under FAR:
  
                    RESTRICTED RIGHTS LEGEND
  
 Use, reproduction and disclosure by the US Government is
 subject to restrictions as set forth in subparagraphs (a)
 and (c) of the Commercial Computer Software - Restricted
 Rights clause in FAR 52.227-19.
  
 Gaussian, Inc.
 340 Quinnipiac St., Bldg. 40, Wallingford CT 06492
  
  
 ---------------------------------------------------------------
 Warning -- This program may not be used in any manner that
 competes with the business of Gaussian, Inc. or will provide
 assistance to any competitor of Gaussian, Inc.  The licensee
 of this program is prohibited from giving any competitor of
 Gaussian, Inc. access to this program.  By using this program,
 the user acknowledges that Gaussian, Inc. is engaged in the
 business of creating and licensing software in the field of
 computational chemistry and represents and warrants to the
 licensee that it is not a competitor of Gaussian, Inc. and that
 it will not use this program in any manner prohibited above.
 ---------------------------------------------------------------
  

 Cite this work as:
 Gaussian 09, Revision D.01,
 M. J. Frisch, G. W. Trucks, H. B. Schlegel, G. E. Scuseria, 
 M. A. Robb, J. R. Cheeseman, G. Scalmani, V. Barone, B. Mennucci, 
 G. A. Petersson, H. Nakatsuji, M. Caricato, X. Li, H. P. Hratchian, 
 A. F. Izmaylov, J. Bloino, G. Zheng, J. L. Sonnenberg, M. Hada, 
 M. Ehara, K. Toyota, R. Fukuda, J. Hasegawa, M. Ishida, T. Nakajima, 
 Y. Honda, O. Kitao, H. Nakai, T. Vreven, J. A. Montgomery, Jr., 
 J. E. Peralta, F. Ogliaro, M. Bearpark, J. J. Heyd, E. Brothers, 
 K. N. Kudin, V. N. Staroverov, T. Keith, R. Kobayashi, J. Normand, 
 K. Raghavachari, A. Rendell, J. C. Burant, S. S. Iyengar, J. Tomasi, 
 M. Cossi, N. Rega, J. M. Millam, M. Klene, J. E. Knox, J. B. Cross, 
 V. Bakken, C. Adamo, J. Jaramillo, R. Gomperts, R. E. Stratmann, 
 O. Yazyev, A. J. Austin, R. Cammi, C. Pomelli, J. W. Ochterski, 
 R. L. Martin, K. Morokuma, V. G. Zakrzewski, G. A. Voth, 
 P. Salvador, J. J. Dannenberg, S. Dapprich, A. D. Daniels, 
 O. Farkas, J. B. Foresman, J. V. Ortiz, J. Cioslowski, 
 and D. J. Fox, Gaussian, Inc., Wallingford CT, 2013.
 
 ******************************************
 Gaussian 09:  ES64L-G09RevD.01 24-Apr-2013
                 7-Nov-2015 
 ******************************************
 %mem=6GB
 %nprocshared=4
 Will use up to    4 processors via shared memory.
 ----------------------------------------------
 #p B3LYP/6-31G(d) opt=tight int=ultrafine freq
 ----------------------------------------------
 1/7=10,14=-1,18=20,19=15,26=4,38=1/1,3;
 2/9=110,12=2,17=6,18=5,40=1/2;
 3/5=1,6=6,7=1,11=2,16=1,25=1,30=1,71=1,74=-5,75=-5/1,2,3;
 4//1;
 5/5=2,38=5/2;
 6/7=2,8=2,9=2,10=2,28=1/1;
 7//1,2,3,16;
 1/7=10,14=-1,18=20,19=15,26=4/3(2);
 2/9=110/2;
 99//99;
 2/9=110/2;
 3/5=1,6=6,7=1,11=2,16=1,25=1,30=1,71=1,74=-5,75=-5/1,2,3;
 4/5=5,16=3,69=1/1;
 5/5=2,38=5/2;
 7//1,2,3,16;
 1/7=10,14=-1,18=20,19=15,26=4/3(-5);
 2/9=110/2;
 6/7=2,8=2,9=2,10=2,19=2,28=1/1;
 99/9=1/99;
 Leave Link    1 at Sat Nov  7 02:05:02 2015, MaxMem=   805306368 cpu:         0.2
 (Enter /home/hetanjin/apps/g09D01/g09/l101.exe)
 ---------------------------------------------
 using B3LYP/6-31G(d) to do opt and freq calc.
 ---------------------------------------------
 Symbolic Z-matrix:
 Charge =  0 Multiplicity = 2
 C                    -2.58543  -0.17306  -0.29185 
 H                    -2.56946  -0.21059  -1.38848 
 H                    -2.79867   0.86056   0.00159 
 H                    -3.42636  -0.7886    0.04788 
 C                    -1.2643   -0.68112   0.2975 
 H                    -1.30509  -0.61825   1.39536 
 H                    -1.16192  -1.74928   0.0599 
 C                     0.        0.05117  -0.19883 
 H                     0.        0.00139  -1.30033 
 C                     1.2643   -0.68112   0.29751 
 H                     1.30509  -0.61823   1.39536 
 C                     2.58543  -0.17306  -0.29185 
 H                     2.79867   0.86057   0.00157 
 H                     3.42636  -0.78859   0.04789 
 H                     2.56946  -0.21061  -1.38848 
 C                    0.         1.53336   0.20729 
 H                    -0.88093   2.05894  -0.1759 
 H                    -0.00001   1.63604   1.30101 
 H                     0.88093   2.05894  -0.17589 
 
 NAtoms=     19 NQM=       19 NQMF=       0 NMMI=      0 NMMIF=      0
                NMic=       0 NMicF=      0.
                    Isotopes and Nuclear Properties:
 (Nuclear quadrupole moments (NQMom) in fm**2, nuclear magnetic moments (NMagM)
  in nuclear magnetons)

  Atom         1           2           3           4           5           6           7           8           9          10
 IAtWgt=          12           1           1           1          12           1           1          12           1          12
 AtmWgt=  12.0000000   1.0078250   1.0078250   1.0078250  12.0000000   1.0078250   1.0078250  12.0000000   1.0078250  12.0000000
 NucSpn=           0           1           1           1           0           1           1           0           1           0
 AtZEff=   0.0000000   0.0000000   0.0000000   0.0000000   0.0000000   0.0000000   0.0000000   0.0000000   0.0000000   0.0000000
 NQMom=    0.0000000   0.0000000   0.0000000   0.0000000   0.0000000   0.0000000   0.0000000   0.0000000   0.0000000   0.0000000
 NMagM=    0.0000000   2.7928460   2.7928460   2.7928460   0.0000000   2.7928460   2.7928460   0.0000000   2.7928460   0.0000000
 AtZNuc=   6.0000000   1.0000000   1.0000000   1.0000000   6.0000000   1.0000000   1.0000000   6.0000000   1.0000000   6.0000000

  Atom        11          12          13          14          15          16          17          18          19
 IAtWgt=           1          12           1           1           1          12           1           1           1
 AtmWgt=   1.0078250  12.0000000   1.0078250   1.0078250   1.0078250  12.0000000   1.0078250   1.0078250   1.0078250
 NucSpn=           1           0           1           1           1           0           1           1           1
 AtZEff=   0.0000000   0.0000000   0.0000000   0.0000000   0.0000000   0.0000000   0.0000000   0.0000000   0.0000000
 NQMom=    0.0000000   0.0000000   0.0000000   0.0000000   0.0000000   0.0000000   0.0000000   0.0000000   0.0000000
 NMagM=    2.7928460   0.0000000   2.7928460   2.7928460   2.7928460   0.0000000   2.7928460   2.7928460   2.7928460
 AtZNuc=   1.0000000   6.0000000   1.0000000   1.0000000   1.0000000   6.0000000   1.0000000   1.0000000   1.0000000
 Leave Link  101 at Sat Nov  7 02:05:02 2015, MaxMem=   805306368 cpu:         0.8
 (Enter /home/hetanjin/apps/g09D01/g09/l103.exe)

 GradGradGradGradGradGradGradGradGradGradGradGradGradGradGradGradGradGrad
 Berny optimization.
 Initialization pass.
                           ----------------------------
                           !    Initial Parameters    !
                           ! (Angstroms and Degrees)  !
 --------------------------                            --------------------------
 ! Name  Definition              Value          Derivative Info.                !
 --------------------------------------------------------------------------------
 ! R1    R(1,2)                  1.0974         estimate D2E/DX2                !
 ! R2    R(1,3)                  1.0954         estimate D2E/DX2                !
 ! R3    R(1,4)                  1.0961         estimate D2E/DX2                !
 ! R4    R(1,5)                  1.5332         estimate D2E/DX2                !
 ! R5    R(5,6)                  1.1004         estimate D2E/DX2                !
 ! R6    R(5,7)                  1.099          estimate D2E/DX2                !
 ! R7    R(5,8)                  1.5431         estimate D2E/DX2                !
 ! R8    R(8,9)                  1.1026         estimate D2E/DX2                !
 ! R9    R(8,10)                 1.5431         estimate D2E/DX2                !
 ! R10   R(8,16)                 1.5368         estimate D2E/DX2                !
 ! R11   R(10,11)                1.1004         estimate D2E/DX2                !
 ! R12   R(10,12)                1.5332         estimate D2E/DX2                !
 ! R13   R(12,13)                1.0954         estimate D2E/DX2                !
 ! R14   R(12,14)                1.0961         estimate D2E/DX2                !
 ! R15   R(12,15)                1.0974         estimate D2E/DX2                !
 ! R16   R(16,17)                1.095          estimate D2E/DX2                !
 ! R17   R(16,18)                1.0985         estimate D2E/DX2                !
 ! R18   R(16,19)                1.095          estimate D2E/DX2                !
 ! A1    A(2,1,3)              107.6254         estimate D2E/DX2                !
 ! A2    A(2,1,4)              107.559          estimate D2E/DX2                !
 ! A3    A(2,1,5)              111.115          estimate D2E/DX2                !
 ! A4    A(3,1,4)              107.3082         estimate D2E/DX2                !
 ! A5    A(3,1,5)              112.1749         estimate D2E/DX2                !
 ! A6    A(4,1,5)              110.8451         estimate D2E/DX2                !
 ! A7    A(1,5,6)              109.4277         estimate D2E/DX2                !
 ! A8    A(1,5,7)              108.6152         estimate D2E/DX2                !
 ! A9    A(1,5,8)              115.1572         estimate D2E/DX2                !
 ! A10   A(6,5,7)              105.9422         estimate D2E/DX2                !
 ! A11   A(6,5,8)              108.915          estimate D2E/DX2                !
 ! A12   A(7,5,8)              108.3832         estimate D2E/DX2                !
 ! A13   A(5,8,9)              107.4517         estimate D2E/DX2                !
 ! A14   A(5,8,10)             110.0384         estimate D2E/DX2                !
 ! A15   A(5,8,16)             111.882          estimate D2E/DX2                !
 ! A16   A(9,8,10)             107.4518         estimate D2E/DX2                !
 ! A17   A(9,8,16)             107.9103         estimate D2E/DX2                !
 ! A18   A(10,8,16)            111.882          estimate D2E/DX2                !
 ! A19   A(8,10,11)            108.915          estimate D2E/DX2                !
 ! A20   A(8,10,12)            115.1571         estimate D2E/DX2                !
 ! A21   A(11,10,12)           109.4277         estimate D2E/DX2                !
 ! A22   A(10,12,13)           112.1749         estimate D2E/DX2                !
 ! A23   A(10,12,14)           110.8451         estimate D2E/DX2                !
 ! A24   A(10,12,15)           111.1149         estimate D2E/DX2                !
 ! A25   A(13,12,14)           107.3082         estimate D2E/DX2                !
 ! A26   A(13,12,15)           107.6254         estimate D2E/DX2                !
 ! A27   A(14,12,15)           107.559          estimate D2E/DX2                !
 ! A28   A(8,16,17)            111.7423         estimate D2E/DX2                !
 ! A29   A(8,16,18)            110.6857         estimate D2E/DX2                !
 ! A30   A(8,16,19)            111.7423         estimate D2E/DX2                !
 ! A31   A(17,16,18)           107.6699         estimate D2E/DX2                !
 ! A32   A(17,16,19)           107.12           estimate D2E/DX2                !
 ! A33   A(18,16,19)           107.67           estimate D2E/DX2                !
 ! D1    D(2,1,5,6)            179.2076         estimate D2E/DX2                !
 ! D2    D(2,1,5,7)            -65.5701         estimate D2E/DX2                !
 ! D3    D(2,1,5,8)             56.1554         estimate D2E/DX2                !
 ! D4    D(3,1,5,6)             58.6833         estimate D2E/DX2                !
 ! D5    D(3,1,5,7)            173.9055         estimate D2E/DX2                !
 ! D6    D(3,1,5,8)            -64.369          estimate D2E/DX2                !
 ! D7    D(4,1,5,6)            -61.2484         estimate D2E/DX2                !
 ! D8    D(4,1,5,7)             53.9738         estimate D2E/DX2                !
 ! D9    D(4,1,5,8)            175.6993         estimate D2E/DX2                !
 ! D10   D(1,5,8,9)            -54.8991         estimate D2E/DX2                !
 ! D11   D(1,5,8,10)          -171.5975         estimate D2E/DX2                !
 ! D12   D(1,5,8,16)            63.3728         estimate D2E/DX2                !
 ! D13   D(6,5,8,9)           -178.2239         estimate D2E/DX2                !
 ! D14   D(6,5,8,10)            65.0777         estimate D2E/DX2                !
 ! D15   D(6,5,8,16)           -59.952          estimate D2E/DX2                !
 ! D16   D(7,5,8,9)             66.9516         estimate D2E/DX2                !
 ! D17   D(7,5,8,10)           -49.7467         estimate D2E/DX2                !
 ! D18   D(7,5,8,16)          -174.7765         estimate D2E/DX2                !
 ! D19   D(5,8,10,11)          -65.0785         estimate D2E/DX2                !
 ! D20   D(5,8,10,12)          171.5967         estimate D2E/DX2                !
 ! D21   D(9,8,10,11)          178.2232         estimate D2E/DX2                !
 ! D22   D(9,8,10,12)           54.8984         estimate D2E/DX2                !
 ! D23   D(16,8,10,11)          59.9512         estimate D2E/DX2                !
 ! D24   D(16,8,10,12)         -63.3736         estimate D2E/DX2                !
 ! D25   D(5,8,16,17)          -57.9911         estimate D2E/DX2                !
 ! D26   D(5,8,16,18)           62.0011         estimate D2E/DX2                !
 ! D27   D(5,8,16,19)         -178.0067         estimate D2E/DX2                !
 ! D28   D(9,8,16,17)           60.0075         estimate D2E/DX2                !
 ! D29   D(9,8,16,18)          179.9997         estimate D2E/DX2                !
 ! D30   D(9,8,16,19)          -60.0081         estimate D2E/DX2                !
 ! D31   D(10,8,16,17)         178.0062         estimate D2E/DX2                !
 ! D32   D(10,8,16,18)         -62.0016         estimate D2E/DX2                !
 ! D33   D(10,8,16,19)          57.9905         estimate D2E/DX2                !
 ! D34   D(8,10,12,13)          64.3686         estimate D2E/DX2                !
 ! D35   D(8,10,12,14)        -175.6996         estimate D2E/DX2                !
 ! D36   D(8,10,12,15)         -56.1557         estimate D2E/DX2                !
 ! D37   D(11,10,12,13)        -58.6837         estimate D2E/DX2                !
 ! D38   D(11,10,12,14)         61.2481         estimate D2E/DX2                !
 ! D39   D(11,10,12,15)       -179.208          estimate D2E/DX2                !
 --------------------------------------------------------------------------------
 Trust Radius=3.00D-01 FncErr=1.00D-07 GrdErr=1.00D-06
 Number of steps in this run=    100 maximum allowed number of steps=    114.
 GradGradGradGradGradGradGradGradGradGradGradGradGradGradGradGradGradGrad

 Leave Link  103 at Sat Nov  7 02:05:02 2015, MaxMem=   805306368 cpu:         0.0
 (Enter /home/hetanjin/apps/g09D01/g09/l202.exe)
                          Input orientation:                          
 ---------------------------------------------------------------------
 Center     Atomic      Atomic             Coordinates (Angstroms)
 Number     Number       Type             X           Y           Z
 ---------------------------------------------------------------------
      1          6           0       -2.585432   -0.173063   -0.291849
      2          1           0       -2.569458   -0.210592   -1.388477
      3          1           0       -2.798673    0.860561    0.001587
      4          1           0       -3.426358   -0.788597    0.047878
      5          6           0       -1.264298   -0.681121    0.297502
      6          1           0       -1.305088   -0.618252    1.395357
      7          1           0       -1.161923   -1.749281    0.059899
      8          6           0        0.000001    0.051166   -0.198829
      9          1           0        0.000003    0.001388   -1.300329
     10          6           0        1.264300   -0.681115    0.297508
     11          1           0        1.305092   -0.618234    1.395362
     12          6           0        2.585433   -0.173062   -0.291851
     13          1           0        2.798671    0.860567    0.001568
     14          1           0        3.426361   -0.788588    0.047886
     15          1           0        2.569459   -0.210609   -1.388479
     16          6           0       -0.000004    1.533363    0.207287
     17          1           0       -0.880930    2.058937   -0.175897
     18          1           0       -0.000012    1.636037    1.301012
     19          1           0        0.880926    2.058939   -0.175885
 ---------------------------------------------------------------------
                    Distance matrix (angstroms):
                    1          2          3          4          5
     1  C    0.000000
     2  H    1.097386   0.000000
     3  H    1.095425   1.769798   0.000000
     4  H    1.096108   1.769600   1.765178   0.000000
     5  C    1.533249   2.183430   2.195144   2.179075   0.000000
     6  H    2.164287   3.084566   2.521959   2.518830   1.100410
     7  H    2.152805   2.538998   3.081173   2.459822   1.099046
     8  C    2.596805   2.843572   2.920251   3.536383   1.543062
     9  H    2.780636   2.579697   3.204021   3.765858   2.148800
    10  C    3.927581   4.214456   4.355696   4.698525   2.528598
    11  H    4.263923   4.788326   4.579337   4.922536   2.794820
    12  C    5.170865   5.270379   5.490271   6.052762   3.927581
    13  H    5.490269   5.647691   5.597344   6.439944   4.355697
    14  H    6.052763   6.192501   6.439944   6.852719   4.698525
    15  H    5.270380   5.138917   5.647701   6.192497   4.214452
    16  C    3.137748   3.491409   2.885745   4.142078   2.551572
    17  H    2.810800   3.077700   2.268335   3.825928   2.806955
    18  H    3.534748   4.152763   3.181567   4.380530   2.823946
    19  H    4.124429   4.304219   3.873894   5.168290   3.511981
                    6          7          8          9         10
     6  H    0.000000
     7  H    1.755896   0.000000
     8  C    2.166289   2.158383   0.000000
     9  H    3.058421   2.503025   1.102624   0.000000
    10  C    2.794813   2.661577   1.543061   2.148800   0.000000
    11  H    2.610180   3.024713   2.166288   3.058421   1.100410
    12  C    4.263921   4.080548   2.596804   2.780631   1.533250
    13  H    4.579344   4.743523   2.920247   3.204008   2.195144
    14  H    4.922530   4.687795   3.536382   3.765856   2.179075
    15  H    4.788322   4.288184   2.843573   2.579693   2.183430
    16  C    2.782841   3.485331   1.536827   2.149384   2.551572
    17  H    3.133064   3.825844   2.192649   2.504775   3.511981
    18  H    2.606519   3.788242   2.182049   3.072304   2.823951
    19  H    3.796684   4.327975   2.192649   2.504779   2.806951
                   11         12         13         14         15
    11  H    0.000000
    12  C    2.164287   0.000000
    13  H    2.521962   1.095424   0.000000
    14  H    2.518828   1.096108   1.765178   0.000000
    15  H    3.084567   1.097387   1.769799   1.769600   0.000000
    16  C    2.782834   3.137755   2.885751   4.142082   3.491425
    17  H    3.796682   4.124432   3.873893   5.168291   4.304228
    18  H    2.606518   3.534767   3.181593   4.380544   4.152788
    19  H    3.133048   2.810804   2.268332   3.825928   3.077723
                   16         17         18         19
    16  C    0.000000
    17  H    1.095029   0.000000
    18  H    1.098534   1.770910   0.000000
    19  H    1.095029   1.761856   1.770910   0.000000
 Stoichiometry    C6H13(2)
 Framework group  C1[X(C6H13)]
 Deg. of freedom    51
 Full point group                 C1      NOp   1
 Largest Abelian subgroup         C1      NOp   1
 Largest concise Abelian subgroup C1      NOp   1
                         Standard orientation:                         
 ---------------------------------------------------------------------
 Center     Atomic      Atomic             Coordinates (Angstroms)
 Number     Number       Type             X           Y           Z
 ---------------------------------------------------------------------
      1          6           0       -2.564798   -0.165883   -0.291110
      2          1           0       -2.548947   -0.208631   -1.387549
      3          1           0       -2.760328    0.872577   -0.002452
      4          1           0       -3.416374   -0.765290    0.050917
      5          6           0       -1.252902   -0.693974    0.301259
      6          1           0       -1.293128   -0.625456    1.398797
      7          1           0       -1.168843   -1.764801    0.068527
      8          6           0        0.024072    0.014163   -0.197661
      9          1           0        0.023744   -0.040579   -1.298925
     10          6           0        1.275320   -0.737555    0.302674
     11          1           0        1.316664   -0.670432    1.400256
     12          6           0        2.605298   -0.255016   -0.288231
     13          1           0        2.836184    0.776097    0.000648
     14          1           0        3.435326   -0.883407    0.054744
     15          1           0        2.589205   -0.297232   -1.384688
     16          6           0        0.049425    1.497958    0.201774
     17          1           0       -0.822125    2.036904   -0.184264
     18          1           0        0.050663    1.605552    1.295026
     19          1           0        0.939469    2.006536   -0.183270
 ---------------------------------------------------------------------
 Rotational constants (GHZ):      6.7884509      1.8420218      1.5997570
 Leave Link  202 at Sat Nov  7 02:05:02 2015, MaxMem=   805306368 cpu:         0.0
 (Enter /home/hetanjin/apps/g09D01/g09/l301.exe)
 Standard basis: 6-31G(d) (6D, 7F)
 Ernie: Thresh=  0.10000D-02 Tol=  0.10000D-05 Strict=F.
 There are   116 symmetry adapted cartesian basis functions of A   symmetry.
 There are   116 symmetry adapted basis functions of A   symmetry.
   116 basis functions,   220 primitive gaussians,   116 cartesian basis functions
    25 alpha electrons       24 beta electrons
       nuclear repulsion energy       244.3247981167 Hartrees.
 IExCor=  402 DFT=T Ex+Corr=B3LYP ExCW=0 ScaHFX=  0.200000
 ScaDFX=  0.800000  0.720000  1.000000  0.810000 ScalE2=  1.000000  1.000000
 IRadAn=      5 IRanWt=     -1 IRanGd=            0 ICorTp=0 IEmpDi=  4
 NAtoms=   19 NActive=   19 NUniq=   19 SFac= 1.00D+00 NAtFMM=   60 NAOKFM=F Big=F
 Integral buffers will be    131072 words long.
 Raffenetti 2 integral format.
 Two-electron integral symmetry is turned on.
 Leave Link  301 at Sat Nov  7 02:05:02 2015, MaxMem=   805306368 cpu:         0.2
 (Enter /home/hetanjin/apps/g09D01/g09/l302.exe)
 NPDir=0 NMtPBC=     1 NCelOv=     1 NCel=       1 NClECP=     1 NCelD=      1
         NCelK=      1 NCelE2=     1 NClLst=     1 CellRange=     0.0.
 One-electron integrals computed using PRISM.
 NBasis=   116 RedAO= T EigKep=  3.88D-03  NBF=   116
 NBsUse=   116 1.00D-06 EigRej= -1.00D+00 NBFU=   116
 Precomputing XC quadrature grid using
 IXCGrd= 4 IRadAn=           5 IRanWt=          -1 IRanGd=           0 AccXCQ= 0.00D+00.
 Generated NRdTot=       0 NPtTot=           0 NUsed=           0 NTot=          32
 NSgBfM=   116   116   116   116   116 MxSgAt=    19 MxSgA2=    19.
 Leave Link  302 at Sat Nov  7 02:05:03 2015, MaxMem=   805306368 cpu:         2.1
 (Enter /home/hetanjin/apps/g09D01/g09/l303.exe)
 DipDrv:  MaxL=1.
 Leave Link  303 at Sat Nov  7 02:05:03 2015, MaxMem=   805306368 cpu:         0.2
 (Enter /home/hetanjin/apps/g09D01/g09/l401.exe)
 ExpMin= 1.61D-01 ExpMax= 3.05D+03 ExpMxC= 4.57D+02 IAcc=3 IRadAn=         5 AccDes= 0.00D+00
 Harris functional with IExCor=  402 and IRadAn=       5 diagonalized for initial guess.
 HarFok:  IExCor=  402 AccDes= 0.00D+00 IRadAn=         5 IDoV= 1 UseB2=F ITyADJ=14
 ICtDFT=  3500011 ScaDFX=  1.000000  1.000000  1.000000  1.000000
 FoFCou: FMM=F IPFlag=           0 FMFlag=      100000 FMFlg1=           0
         NFxFlg=           0 DoJE=T BraDBF=F KetDBF=T FulRan=T
         wScrn=  0.000000 ICntrl=     500 IOpCl=  0 I1Cent=   200000004 NGrid=           0
         NMat0=    1 NMatS0=      1 NMatT0=    0 NMatD0=    1 NMtDS0=    0 NMtDT0=    0
 Petite list used in FoFCou.
 Harris En= -236.451868320107    
 JPrj=0 DoOrth=F DoCkMO=F.
 Initial guess <Sx>= 0.0000 <Sy>= 0.0000 <Sz>= 0.5000 <S**2>= 0.7500 S= 0.5000
 Leave Link  401 at Sat Nov  7 02:05:06 2015, MaxMem=   805306368 cpu:        11.1
 (Enter /home/hetanjin/apps/g09D01/g09/l502.exe)
 UHF open shell SCF:
 Using DIIS extrapolation, IDIIS=  1040.
 Integral symmetry usage will be decided dynamically.
 Keep R1 and R2 ints in memory in canonical form, NReq=47059932.
 IVT=       60514 IEndB=       60514 NGot=   805306368 MDV=   759189273
 LenX=   759189273 LenY=   759175376
 Requested convergence on RMS density matrix=1.00D-08 within 128 cycles.
 Requested convergence on MAX density matrix=1.00D-06.
 Requested convergence on             energy=1.00D-06.
 No special actions if energy rises.
 FoFCou: FMM=F IPFlag=           0 FMFlag=           0 FMFlg1=           0
         NFxFlg=           0 DoJE=F BraDBF=F KetDBF=F FulRan=T
         wScrn=  0.000000 ICntrl=     600 IOpCl=  0 I1Cent=           0 NGrid=           0
         NMat0=    1 NMatS0=   6786 NMatT0=    0 NMatD0=    1 NMtDS0=    0 NMtDT0=    0
 Symmetry not used in FoFCou.
 Integral accuracy reduced to 1.0D-05 until final iterations.

 Cycle   1  Pass 0  IDiag  1:
 E= -236.151468448948    
 DIIS: error= 4.30D-02 at cycle   1 NSaved=   1.
 NSaved= 1 IEnMin= 1 EnMin= -236.151468448948     IErMin= 1 ErrMin= 4.30D-02
 ErrMax= 4.30D-02  0.00D+00 EMaxC= 1.00D-01 BMatC= 9.11D-01 BMatP= 9.11D-01
 IDIUse=3 WtCom= 5.70D-01 WtEn= 4.30D-01
 Coeff-Com:  0.100D+01
 Coeff-En:   0.100D+01
 Coeff:      0.100D+01
 Gap=     0.264 Goal=   None    Shift=    0.000
 Gap=     0.252 Goal=   None    Shift=    0.000
 GapD=    0.252 DampG=1.000 DampE=0.500 DampFc=0.5000 IDamp=-1.
 Damping current iteration by 5.00D-01
 RMSDP=9.39D-03 MaxDP=1.35D-01              OVMax= 1.78D-01

 Cycle   2  Pass 0  IDiag  1:
 E= -236.266322665856     Delta-E=       -0.114854216908 Rises=F Damp=T
 DIIS: error= 9.93D-03 at cycle   2 NSaved=   2.
 NSaved= 2 IEnMin= 2 EnMin= -236.266322665856     IErMin= 2 ErrMin= 9.93D-03
 ErrMax= 9.93D-03  0.00D+00 EMaxC= 1.00D-01 BMatC= 3.85D-02 BMatP= 9.11D-01
 IDIUse=3 WtCom= 9.01D-01 WtEn= 9.93D-02
 Coeff-Com:  0.699D-01 0.930D+00
 Coeff-En:   0.111D+00 0.889D+00
 Coeff:      0.740D-01 0.926D+00
 Gap=     0.298 Goal=   None    Shift=    0.000
 Gap=     0.259 Goal=   None    Shift=    0.000
 RMSDP=1.46D-03 MaxDP=2.30D-02 DE=-1.15D-01 OVMax= 1.00D-01

 Cycle   3  Pass 0  IDiag  1:
 E= -236.405847678444     Delta-E=       -0.139525012588 Rises=F Damp=F
 DIIS: error= 2.72D-03 at cycle   3 NSaved=   3.
 NSaved= 3 IEnMin= 3 EnMin= -236.405847678444     IErMin= 3 ErrMin= 2.72D-03
 ErrMax= 2.72D-03  0.00D+00 EMaxC= 1.00D-01 BMatC= 5.14D-03 BMatP= 3.85D-02
 IDIUse=3 WtCom= 9.73D-01 WtEn= 2.72D-02
 Coeff-Com: -0.149D-02 0.203D+00 0.798D+00
 Coeff-En:   0.000D+00 0.000D+00 0.100D+01
 Coeff:     -0.145D-02 0.198D+00 0.804D+00
 Gap=     0.302 Goal=   None    Shift=    0.000
 Gap=     0.247 Goal=   None    Shift=    0.000
 RMSDP=5.56D-04 MaxDP=1.27D-02 DE=-1.40D-01 OVMax= 1.40D-02

 Cycle   4  Pass 0  IDiag  1:
 E= -236.406577021403     Delta-E=       -0.000729342959 Rises=F Damp=F
 DIIS: error= 1.45D-03 at cycle   4 NSaved=   4.
 NSaved= 4 IEnMin= 4 EnMin= -236.406577021403     IErMin= 4 ErrMin= 1.45D-03
 ErrMax= 1.45D-03  0.00D+00 EMaxC= 1.00D-01 BMatC= 2.35D-03 BMatP= 5.14D-03
 IDIUse=3 WtCom= 9.86D-01 WtEn= 1.45D-02
 Coeff-Com: -0.445D-02 0.313D-01 0.411D+00 0.562D+00
 Coeff-En:   0.000D+00 0.000D+00 0.297D+00 0.703D+00
 Coeff:     -0.439D-02 0.308D-01 0.409D+00 0.564D+00
 Gap=     0.297 Goal=   None    Shift=    0.000
 Gap=     0.253 Goal=   None    Shift=    0.000
 RMSDP=2.26D-04 MaxDP=4.37D-03 DE=-7.29D-04 OVMax= 6.52D-03

 Cycle   5  Pass 0  IDiag  1:
 E= -236.407165879292     Delta-E=       -0.000588857889 Rises=F Damp=F
 DIIS: error= 3.68D-04 at cycle   5 NSaved=   5.
 NSaved= 5 IEnMin= 5 EnMin= -236.407165879292     IErMin= 5 ErrMin= 3.68D-04
 ErrMax= 3.68D-04  0.00D+00 EMaxC= 1.00D-01 BMatC= 7.29D-05 BMatP= 2.35D-03
 IDIUse=3 WtCom= 9.96D-01 WtEn= 3.68D-03
 Coeff-Com: -0.112D-02-0.400D-02 0.845D-01 0.204D+00 0.717D+00
 Coeff-En:   0.000D+00 0.000D+00 0.000D+00 0.000D+00 0.100D+01
 Coeff:     -0.111D-02-0.398D-02 0.842D-01 0.203D+00 0.718D+00
 Gap=     0.298 Goal=   None    Shift=    0.000
 Gap=     0.252 Goal=   None    Shift=    0.000
 RMSDP=4.13D-05 MaxDP=1.13D-03 DE=-5.89D-04 OVMax= 1.17D-03

 Cycle   6  Pass 0  IDiag  1:
 E= -236.407185629507     Delta-E=       -0.000019750215 Rises=F Damp=F
 DIIS: error= 5.65D-05 at cycle   6 NSaved=   6.
 NSaved= 6 IEnMin= 6 EnMin= -236.407185629507     IErMin= 6 ErrMin= 5.65D-05
 ErrMax= 5.65D-05  0.00D+00 EMaxC= 1.00D-01 BMatC= 2.36D-06 BMatP= 7.29D-05
 IDIUse=1 WtCom= 1.00D+00 WtEn= 0.00D+00
 Coeff-Com:  0.110D-03-0.202D-02-0.197D-01-0.198D-01 0.401D-01 0.100D+01
 Coeff:      0.110D-03-0.202D-02-0.197D-01-0.198D-01 0.401D-01 0.100D+01
 Gap=     0.298 Goal=   None    Shift=    0.000
 Gap=     0.252 Goal=   None    Shift=    0.000
 RMSDP=1.64D-05 MaxDP=4.32D-04 DE=-1.98D-05 OVMax= 4.65D-04

 Cycle   7  Pass 0  IDiag  1:
 E= -236.407186687296     Delta-E=       -0.000001057788 Rises=F Damp=F
 DIIS: error= 4.13D-05 at cycle   7 NSaved=   7.
 NSaved= 7 IEnMin= 7 EnMin= -236.407186687296     IErMin= 7 ErrMin= 4.13D-05
 ErrMax= 4.13D-05  0.00D+00 EMaxC= 1.00D-01 BMatC= 9.47D-07 BMatP= 2.36D-06
 IDIUse=1 WtCom= 1.00D+00 WtEn= 0.00D+00
 Coeff-Com:  0.172D-03-0.278D-03-0.197D-01-0.359D-01-0.804D-01 0.447D+00
 Coeff-Com:  0.690D+00
 Coeff:      0.172D-03-0.278D-03-0.197D-01-0.359D-01-0.804D-01 0.447D+00
 Coeff:      0.690D+00
 Gap=     0.298 Goal=   None    Shift=    0.000
 Gap=     0.253 Goal=   None    Shift=    0.000
 RMSDP=6.14D-06 MaxDP=1.93D-04 DE=-1.06D-06 OVMax= 1.91D-04

 Initial convergence to 1.0D-05 achieved.  Increase integral accuracy.
 Cycle   8  Pass 1  IDiag  1:
 E= -236.407170827006     Delta-E=        0.000015860290 Rises=F Damp=F
 DIIS: error= 1.02D-05 at cycle   1 NSaved=   1.
 NSaved= 1 IEnMin= 1 EnMin= -236.407170827006     IErMin= 1 ErrMin= 1.02D-05
 ErrMax= 1.02D-05  0.00D+00 EMaxC= 1.00D-01 BMatC= 9.99D-08 BMatP= 9.99D-08
 IDIUse=1 WtCom= 1.00D+00 WtEn= 0.00D+00
 Coeff-Com:  0.100D+01
 Coeff:      0.100D+01
 Gap=     0.298 Goal=   None    Shift=    0.000
 Gap=     0.252 Goal=   None    Shift=    0.000
 RMSDP=6.14D-06 MaxDP=1.93D-04 DE= 1.59D-05 OVMax= 7.95D-05

 Cycle   9  Pass 1  IDiag  1:
 E= -236.407170832299     Delta-E=       -0.000000005293 Rises=F Damp=F
 DIIS: error= 1.07D-05 at cycle   2 NSaved=   2.
 NSaved= 2 IEnMin= 2 EnMin= -236.407170832299     IErMin= 1 ErrMin= 1.02D-05
 ErrMax= 1.07D-05  0.00D+00 EMaxC= 1.00D-01 BMatC= 1.16D-07 BMatP= 9.99D-08
 IDIUse=1 WtCom= 1.00D+00 WtEn= 0.00D+00
 Coeff-Com:  0.521D+00 0.479D+00
 Coeff:      0.521D+00 0.479D+00
 Gap=     0.298 Goal=   None    Shift=    0.000
 Gap=     0.253 Goal=   None    Shift=    0.000
 RMSDP=1.59D-06 MaxDP=4.12D-05 DE=-5.29D-09 OVMax= 4.02D-05

 Cycle  10  Pass 1  IDiag  1:
 E= -236.407170861959     Delta-E=       -0.000000029660 Rises=F Damp=F
 DIIS: error= 1.77D-06 at cycle   3 NSaved=   3.
 NSaved= 3 IEnMin= 3 EnMin= -236.407170861959     IErMin= 3 ErrMin= 1.77D-06
 ErrMax= 1.77D-06  0.00D+00 EMaxC= 1.00D-01 BMatC= 2.51D-09 BMatP= 9.99D-08
 IDIUse=1 WtCom= 1.00D+00 WtEn= 0.00D+00
 Coeff-Com: -0.792D-01 0.149D-01 0.106D+01
 Coeff:     -0.792D-01 0.149D-01 0.106D+01
 Gap=     0.298 Goal=   None    Shift=    0.000
 Gap=     0.253 Goal=   None    Shift=    0.000
 RMSDP=4.59D-07 MaxDP=1.20D-05 DE=-2.97D-08 OVMax= 1.28D-05

 Cycle  11  Pass 1  IDiag  1:
 E= -236.407170863305     Delta-E=       -0.000000001346 Rises=F Damp=F
 DIIS: error= 9.82D-07 at cycle   4 NSaved=   4.
 NSaved= 4 IEnMin= 4 EnMin= -236.407170863305     IErMin= 4 ErrMin= 9.82D-07
 ErrMax= 9.82D-07  0.00D+00 EMaxC= 1.00D-01 BMatC= 6.03D-10 BMatP= 2.51D-09
 IDIUse=1 WtCom= 1.00D+00 WtEn= 0.00D+00
 Coeff-Com: -0.121D+00-0.844D-01 0.353D+00 0.852D+00
 Coeff:     -0.121D+00-0.844D-01 0.353D+00 0.852D+00
 Gap=     0.298 Goal=   None    Shift=    0.000
 Gap=     0.253 Goal=   None    Shift=    0.000
 RMSDP=2.08D-07 MaxDP=5.94D-06 DE=-1.35D-09 OVMax= 6.53D-06

 Cycle  12  Pass 1  IDiag  1:
 E= -236.407170863553     Delta-E=       -0.000000000248 Rises=F Damp=F
 DIIS: error= 3.33D-07 at cycle   5 NSaved=   5.
 NSaved= 5 IEnMin= 5 EnMin= -236.407170863553     IErMin= 5 ErrMin= 3.33D-07
 ErrMax= 3.33D-07  0.00D+00 EMaxC= 1.00D-01 BMatC= 7.81D-11 BMatP= 6.03D-10
 IDIUse=1 WtCom= 1.00D+00 WtEn= 0.00D+00
 Coeff-Com: -0.448D-01-0.373D-01 0.641D-01 0.366D+00 0.652D+00
 Coeff:     -0.448D-01-0.373D-01 0.641D-01 0.366D+00 0.652D+00
 Gap=     0.298 Goal=   None    Shift=    0.000
 Gap=     0.253 Goal=   None    Shift=    0.000
 RMSDP=4.55D-08 MaxDP=1.29D-06 DE=-2.48D-10 OVMax= 1.62D-06

 Cycle  13  Pass 1  IDiag  1:
 E= -236.407170863576     Delta-E=       -0.000000000023 Rises=F Damp=F
 DIIS: error= 8.29D-08 at cycle   6 NSaved=   6.
 NSaved= 6 IEnMin= 6 EnMin= -236.407170863576     IErMin= 6 ErrMin= 8.29D-08
 ErrMax= 8.29D-08  0.00D+00 EMaxC= 1.00D-01 BMatC= 5.57D-12 BMatP= 7.81D-11
 IDIUse=1 WtCom= 1.00D+00 WtEn= 0.00D+00
 Coeff-Com:  0.221D-02-0.223D-03-0.292D-01 0.470D-02 0.215D+00 0.807D+00
 Coeff:      0.221D-02-0.223D-03-0.292D-01 0.470D-02 0.215D+00 0.807D+00
 Gap=     0.298 Goal=   None    Shift=    0.000
 Gap=     0.253 Goal=   None    Shift=    0.000
 RMSDP=1.55D-08 MaxDP=3.27D-07 DE=-2.32D-11 OVMax= 4.36D-07

 Cycle  14  Pass 1  IDiag  1:
 E= -236.407170863578     Delta-E=       -0.000000000002 Rises=F Damp=F
 DIIS: error= 2.34D-08 at cycle   7 NSaved=   7.
 NSaved= 7 IEnMin= 7 EnMin= -236.407170863578     IErMin= 7 ErrMin= 2.34D-08
 ErrMax= 2.34D-08  0.00D+00 EMaxC= 1.00D-01 BMatC= 2.86D-13 BMatP= 5.57D-12
 IDIUse=1 WtCom= 1.00D+00 WtEn= 0.00D+00
 Coeff-Com:  0.283D-02 0.188D-02-0.108D-01-0.174D-01 0.214D-01 0.208D+00
 Coeff-Com:  0.794D+00
 Coeff:      0.283D-02 0.188D-02-0.108D-01-0.174D-01 0.214D-01 0.208D+00
 Coeff:      0.794D+00
 Gap=     0.298 Goal=   None    Shift=    0.000
 Gap=     0.253 Goal=   None    Shift=    0.000
 RMSDP=4.02D-09 MaxDP=8.42D-08 DE=-1.88D-12 OVMax= 9.53D-08

 SCF Done:  E(UB3LYP) =  -236.407170864     A.U. after   14 cycles
            NFock= 14  Conv=0.40D-08     -V/T= 2.0105
 <Sx>= 0.0000 <Sy>= 0.0000 <Sz>= 0.5000 <S**2>= 0.7529 S= 0.5014
 <L.S>= 0.000000000000E+00
 KE= 2.339451864471D+02 PE=-1.034221994045D+03 EE= 3.195448386178D+02
 Annihilation of the first spin contaminant:
 S**2 before annihilation     0.7529,   after     0.7500
 Leave Link  502 at Sat Nov  7 02:06:01 2015, MaxMem=   805306368 cpu:       200.6
 (Enter /home/hetanjin/apps/g09D01/g09/l601.exe)
 Copying SCF densities to generalized density rwf, IOpCl= 1 IROHF=0.

 **********************************************************************

            Population analysis using the SCF density.

 **********************************************************************

 Orbital symmetries:
 Alpha Orbitals:
       Occupied  (A) (A) (A) (A) (A) (A) (A) (A) (A) (A) (A) (A)
                 (A) (A) (A) (A) (A) (A) (A) (A) (A) (A) (A) (A)
                 (A)
       Virtual   (A) (A) (A) (A) (A) (A) (A) (A) (A) (A) (A) (A)
                 (A) (A) (A) (A) (A) (A) (A) (A) (A) (A) (A) (A)
                 (A) (A) (A) (A) (A) (A) (A) (A) (A) (A) (A) (A)
                 (A) (A) (A) (A) (A) (A) (A) (A) (A) (A) (A) (A)
                 (A) (A) (A) (A) (A) (A) (A) (A) (A) (A) (A) (A)
                 (A) (A) (A) (A) (A) (A) (A) (A) (A) (A) (A) (A)
                 (A) (A) (A) (A) (A) (A) (A) (A) (A) (A) (A) (A)
                 (A) (A) (A) (A) (A) (A) (A)
 Beta  Orbitals:
       Occupied  (A) (A) (A) (A) (A) (A) (A) (A) (A) (A) (A) (A)
                 (A) (A) (A) (A) (A) (A) (A) (A) (A) (A) (A) (A)
       Virtual   (A) (A) (A) (A) (A) (A) (A) (A) (A) (A) (A) (A)
                 (A) (A) (A) (A) (A) (A) (A) (A) (A) (A) (A) (A)
                 (A) (A) (A) (A) (A) (A) (A) (A) (A) (A) (A) (A)
                 (A) (A) (A) (A) (A) (A) (A) (A) (A) (A) (A) (A)
                 (A) (A) (A) (A) (A) (A) (A) (A) (A) (A) (A) (A)
                 (A) (A) (A) (A) (A) (A) (A) (A) (A) (A) (A) (A)
                 (A) (A) (A) (A) (A) (A) (A) (A) (A) (A) (A) (A)
                 (A) (A) (A) (A) (A) (A) (A) (A)
 The electronic state is 2-A.
 Alpha  occ. eigenvalues --  -10.19392 -10.18567 -10.17599 -10.17475 -10.17441
 Alpha  occ. eigenvalues --  -10.16996  -0.80832  -0.74408  -0.70665  -0.64789
 Alpha  occ. eigenvalues --   -0.58962  -0.54692  -0.45731  -0.44156  -0.42383
 Alpha  occ. eigenvalues --   -0.41374  -0.39533  -0.38603  -0.37334  -0.36213
 Alpha  occ. eigenvalues --   -0.34559  -0.32273  -0.31399  -0.30708  -0.20993
 Alpha virt. eigenvalues --    0.08803   0.11865   0.12050   0.13915   0.15122
 Alpha virt. eigenvalues --    0.15919   0.16854   0.17344   0.17927   0.18164
 Alpha virt. eigenvalues --    0.19165   0.21156   0.22512   0.24520   0.25113
 Alpha virt. eigenvalues --    0.25368   0.28001   0.29470   0.49683   0.51106
 Alpha virt. eigenvalues --    0.51739   0.53119   0.54230   0.57174   0.58989
 Alpha virt. eigenvalues --    0.60519   0.63475   0.64467   0.65936   0.69319
 Alpha virt. eigenvalues --    0.71290   0.77406   0.81033   0.81937   0.84917
 Alpha virt. eigenvalues --    0.87111   0.87891   0.89693   0.89860   0.90187
 Alpha virt. eigenvalues --    0.91996   0.92429   0.94429   0.95338   0.96740
 Alpha virt. eigenvalues --    0.98183   0.99386   0.99786   1.03184   1.04983
 Alpha virt. eigenvalues --    1.24233   1.31195   1.37175   1.40886   1.43726
 Alpha virt. eigenvalues --    1.57614   1.60765   1.63765   1.69902   1.74039
 Alpha virt. eigenvalues --    1.76176   1.87426   1.89588   1.93877   1.95243
 Alpha virt. eigenvalues --    1.96606   1.99406   2.00722   2.02205   2.08754
 Alpha virt. eigenvalues --    2.11987   2.16966   2.21126   2.28310   2.30291
 Alpha virt. eigenvalues --    2.31267   2.33543   2.35519   2.42514   2.49850
 Alpha virt. eigenvalues --    2.52341   2.58418   2.68281   2.76982   2.79327
 Alpha virt. eigenvalues --    4.09429   4.19354   4.26587   4.36979   4.41055
 Alpha virt. eigenvalues --    4.58378
  Beta  occ. eigenvalues --  -10.18593 -10.17965 -10.17631 -10.17448 -10.17342
  Beta  occ. eigenvalues --  -10.16996  -0.80178  -0.73686  -0.70307  -0.64413
  Beta  occ. eigenvalues --   -0.58071  -0.53885  -0.45558  -0.43553  -0.41663
  Beta  occ. eigenvalues --   -0.40838  -0.39313  -0.38165  -0.37148  -0.36013
  Beta  occ. eigenvalues --   -0.34188  -0.32035  -0.31111  -0.30243
  Beta virt. eigenvalues --   -0.04991   0.08915   0.12009   0.12222   0.14170
  Beta virt. eigenvalues --    0.15336   0.16066   0.17233   0.17404   0.18074
  Beta virt. eigenvalues --    0.18479   0.19350   0.21393   0.23002   0.24761
  Beta virt. eigenvalues --    0.25590   0.26217   0.28684   0.30184   0.49980
  Beta virt. eigenvalues --    0.51308   0.52131   0.53226   0.55940   0.58663
  Beta virt. eigenvalues --    0.59295   0.62916   0.64002   0.64937   0.66179
  Beta virt. eigenvalues --    0.70077   0.72259   0.78135   0.81432   0.82561
  Beta virt. eigenvalues --    0.85130   0.87330   0.88131   0.89879   0.90044
  Beta virt. eigenvalues --    0.90354   0.92181   0.92687   0.95497   0.95538
  Beta virt. eigenvalues --    0.96986   0.98396   0.99703   1.00007   1.03349
  Beta virt. eigenvalues --    1.05500   1.24991   1.31724   1.37861   1.41890
  Beta virt. eigenvalues --    1.44597   1.58567   1.60954   1.64473   1.70816
  Beta virt. eigenvalues --    1.74430   1.77098   1.88103   1.90402   1.95135
  Beta virt. eigenvalues --    1.95650   1.97463   1.99618   2.02020   2.03406
  Beta virt. eigenvalues --    2.09842   2.12907   2.18785   2.23062   2.28488
  Beta virt. eigenvalues --    2.30383   2.31608   2.34212   2.36070   2.43250
  Beta virt. eigenvalues --    2.50671   2.52734   2.59352   2.69049   2.77778
  Beta virt. eigenvalues --    2.80152   4.10442   4.19876   4.26720   4.38755
  Beta virt. eigenvalues --    4.41119   4.58802
          Condensed to atoms (all electrons):
               1          2          3          4          5          6
     1  C    5.082718   0.376664   0.376171   0.371660   0.363038  -0.040030
     2  H    0.376664   0.580464  -0.033241  -0.031240  -0.035886   0.005364
     3  H    0.376171  -0.033241   0.576490  -0.031301  -0.032584  -0.004640
     4  H    0.371660  -0.031240  -0.031301   0.577565  -0.026846  -0.002259
     5  C    0.363038  -0.035886  -0.032584  -0.026846   4.994053   0.369442
     6  H   -0.040030   0.005364  -0.004640  -0.002259   0.369442   0.618750
     7  H   -0.039207  -0.003837   0.005067  -0.003731   0.373305  -0.037724
     8  C   -0.039147  -0.004693  -0.004970   0.003967   0.388252  -0.038382
     9  H   -0.005055   0.005759  -0.000165  -0.000017  -0.046757   0.006508
    10  C    0.004039   0.000044   0.000018  -0.000114  -0.043418  -0.004608
    11  H   -0.000018   0.000008   0.000002   0.000004  -0.005104   0.004866
    12  C   -0.000145   0.000000   0.000001   0.000001   0.003848  -0.000019
    13  H    0.000003   0.000000   0.000000   0.000000   0.000020   0.000002
    14  H    0.000001   0.000000   0.000000   0.000000  -0.000112   0.000003
    15  H   -0.000001  -0.000001   0.000000   0.000000   0.000047   0.000007
    16  C   -0.003420  -0.000562   0.001827   0.000112  -0.050301  -0.008033
    17  H    0.002187   0.000399   0.003350  -0.000103  -0.005490  -0.000080
    18  H   -0.000323   0.000078   0.000269  -0.000022  -0.005292   0.005720
    19  H    0.000075  -0.000029  -0.000117   0.000001   0.004912  -0.000034
               7          8          9         10         11         12
     1  C   -0.039207  -0.039147  -0.005055   0.004039  -0.000018  -0.000145
     2  H   -0.003837  -0.004693   0.005759   0.000044   0.000008   0.000000
     3  H    0.005067  -0.004970  -0.000165   0.000018   0.000002   0.000001
     4  H   -0.003731   0.003967  -0.000017  -0.000114   0.000004   0.000001
     5  C    0.373305   0.388252  -0.046757  -0.043418  -0.005104   0.003848
     6  H   -0.037724  -0.038382   0.006508  -0.004608   0.004866  -0.000019
     7  H    0.605559  -0.037919  -0.003527   0.001134  -0.000296   0.000099
     8  C   -0.037919   4.892352   0.369405   0.392435  -0.052099  -0.045777
     9  H   -0.003527   0.369405   0.645899  -0.046693   0.006790  -0.006261
    10  C    0.001134   0.392435  -0.046693   5.232202   0.350899   0.359088
    11  H   -0.000296  -0.052099   0.006790   0.350899   0.635334  -0.054080
    12  C    0.000099  -0.045777  -0.006261   0.359088  -0.054080   5.118074
    13  H    0.000007  -0.003374  -0.000169  -0.032448  -0.002323   0.363493
    14  H   -0.000009   0.003894  -0.000012  -0.028036  -0.002960   0.369393
    15  H   -0.000004  -0.005954   0.005920  -0.035332   0.005486   0.372364
    16  C    0.005889   0.364942  -0.050105  -0.050907  -0.005476  -0.002039
    17  H   -0.000035  -0.027273  -0.003143   0.004959  -0.000125   0.000018
    18  H   -0.000022  -0.035383   0.006053  -0.004616   0.005917  -0.000297
    19  H   -0.000168  -0.029956  -0.003344  -0.006036  -0.000084   0.002170
              13         14         15         16         17         18
     1  C    0.000003   0.000001  -0.000001  -0.003420   0.002187  -0.000323
     2  H    0.000000   0.000000  -0.000001  -0.000562   0.000399   0.000078
     3  H    0.000000   0.000000   0.000000   0.001827   0.003350   0.000269
     4  H    0.000000   0.000000   0.000000   0.000112  -0.000103  -0.000022
     5  C    0.000020  -0.000112   0.000047  -0.050301  -0.005490  -0.005292
     6  H    0.000002   0.000003   0.000007  -0.008033  -0.000080   0.005720
     7  H    0.000007  -0.000009  -0.000004   0.005889  -0.000035  -0.000022
     8  C   -0.003374   0.003894  -0.005954   0.364942  -0.027273  -0.035383
     9  H   -0.000169  -0.000012   0.005920  -0.050105  -0.003143   0.006053
    10  C   -0.032448  -0.028036  -0.035332  -0.050907   0.004959  -0.004616
    11  H   -0.002323  -0.002960   0.005486  -0.005476  -0.000125   0.005917
    12  C    0.363493   0.369393   0.372364  -0.002039   0.000018  -0.000297
    13  H    0.578579  -0.032031  -0.033738   0.001409  -0.000117   0.000209
    14  H   -0.032031   0.570185  -0.030264   0.000103   0.000001  -0.000022
    15  H   -0.033738  -0.030264   0.574174  -0.000371  -0.000031   0.000084
    16  C    0.001409   0.000103  -0.000371   5.141270   0.367912   0.368858
    17  H   -0.000117   0.000001  -0.000031   0.367912   0.568927  -0.031037
    18  H    0.000209  -0.000022   0.000084   0.368858  -0.031037   0.581998
    19  H    0.003518  -0.000105   0.000368   0.371475  -0.030922  -0.031928
              19
     1  C    0.000075
     2  H   -0.000029
     3  H   -0.000117
     4  H    0.000001
     5  C    0.004912
     6  H   -0.000034
     7  H   -0.000168
     8  C   -0.029956
     9  H   -0.003344
    10  C   -0.006036
    11  H   -0.000084
    12  C    0.002170
    13  H    0.003518
    14  H   -0.000105
    15  H    0.000368
    16  C    0.371475
    17  H   -0.030922
    18  H   -0.031928
    19  H    0.574553
          Atomic-Atomic Spin Densities.
               1          2          3          4          5          6
     1  C    0.002462   0.000295  -0.000663  -0.000131  -0.003622   0.000164
     2  H    0.000295   0.000050  -0.000053  -0.000039  -0.000221  -0.000007
     3  H   -0.000663  -0.000053   0.000565   0.000117   0.000323   0.000005
     4  H   -0.000131  -0.000039   0.000117  -0.000051   0.000339  -0.000014
     5  C   -0.003622  -0.000221   0.000323   0.000339   0.020035  -0.000196
     6  H    0.000164  -0.000007   0.000005  -0.000014  -0.000196  -0.000990
     7  H    0.001630   0.000065  -0.000080  -0.000193  -0.005493   0.000211
     8  C   -0.000443  -0.000013   0.000027  -0.000007   0.008853   0.000446
     9  H   -0.000460  -0.000039   0.000046   0.000006   0.002272  -0.000023
    10  C    0.000338   0.000006   0.000010  -0.000011  -0.010719   0.000008
    11  H   -0.000074   0.000000   0.000003   0.000001   0.001157  -0.000073
    12  C   -0.000003   0.000000   0.000000   0.000000   0.000180   0.000007
    13  H    0.000004   0.000000   0.000000   0.000000  -0.000066   0.000000
    14  H    0.000000   0.000000   0.000000   0.000000   0.000008   0.000000
    15  H   -0.000002   0.000000   0.000000   0.000000   0.000046   0.000000
    16  C    0.002061   0.000037  -0.000398  -0.000032  -0.005243  -0.000066
    17  H   -0.000934  -0.000021   0.000413   0.000020   0.000767   0.000020
    18  H   -0.000044  -0.000001   0.000017   0.000001   0.000114  -0.000027
    19  H    0.000005   0.000000   0.000001   0.000000  -0.000036   0.000000
               7          8          9         10         11         12
     1  C    0.001630  -0.000443  -0.000460   0.000338  -0.000074  -0.000003
     2  H    0.000065  -0.000013  -0.000039   0.000006   0.000000   0.000000
     3  H   -0.000080   0.000027   0.000046   0.000010   0.000003   0.000000
     4  H   -0.000193  -0.000007   0.000006  -0.000011   0.000001   0.000000
     5  C   -0.005493   0.008853   0.002272  -0.010719   0.001157   0.000180
     6  H    0.000211   0.000446  -0.000023   0.000008  -0.000073   0.000007
     7  H    0.001518  -0.001663  -0.000548   0.005975  -0.000403  -0.000084
     8  C   -0.001663  -0.040497   0.004508  -0.024765   0.004750   0.001182
     9  H   -0.000548   0.004508   0.005643  -0.003841   0.000121   0.000925
    10  C    0.005975  -0.024765  -0.003841   1.131465  -0.013843  -0.026969
    11  H   -0.000403   0.004750   0.000121  -0.013843  -0.022696   0.006111
    12  C   -0.000084   0.001182   0.000925  -0.026969   0.006111  -0.048429
    13  H    0.000018  -0.000669  -0.000515  -0.022837  -0.003250   0.001091
    14  H   -0.000005   0.000014   0.000040  -0.005867   0.001115   0.007473
    15  H   -0.000018   0.000788   0.000370  -0.004661   0.000158   0.005937
    16  C    0.000769   0.001514  -0.005478  -0.024512  -0.002829  -0.001141
    17  H   -0.000086  -0.000192   0.000973   0.001782   0.000135   0.000013
    18  H   -0.000020   0.000514   0.000045   0.000977   0.000132   0.000037
    19  H    0.000002   0.001118  -0.000096  -0.000766  -0.000057  -0.000008
              13         14         15         16         17         18
     1  C    0.000004   0.000000  -0.000002   0.002061  -0.000934  -0.000044
     2  H    0.000000   0.000000   0.000000   0.000037  -0.000021  -0.000001
     3  H    0.000000   0.000000   0.000000  -0.000398   0.000413   0.000017
     4  H    0.000000   0.000000   0.000000  -0.000032   0.000020   0.000001
     5  C   -0.000066   0.000008   0.000046  -0.005243   0.000767   0.000114
     6  H    0.000000   0.000000   0.000000  -0.000066   0.000020  -0.000027
     7  H    0.000018  -0.000005  -0.000018   0.000769  -0.000086  -0.000020
     8  C   -0.000669   0.000014   0.000788   0.001514  -0.000192   0.000514
     9  H   -0.000515   0.000040   0.000370  -0.005478   0.000973   0.000045
    10  C   -0.022837  -0.005867  -0.004661  -0.024512   0.001782   0.000977
    11  H   -0.003250   0.001115   0.000158  -0.002829   0.000135   0.000132
    12  C    0.001091   0.007473   0.005937  -0.001141   0.000013   0.000037
    13  H    0.091959  -0.006958  -0.007535   0.003226  -0.000254  -0.000196
    14  H   -0.006958   0.009712   0.001848  -0.000089   0.000002   0.000004
    15  H   -0.007535   0.001848   0.009042  -0.000506   0.000028   0.000006
    16  C    0.003226  -0.000089  -0.000506   0.082611  -0.011159  -0.001885
    17  H   -0.000254   0.000002   0.000028  -0.011159   0.018704   0.000778
    18  H   -0.000196   0.000004   0.000006  -0.001885   0.000778  -0.001869
    19  H    0.000329  -0.000003  -0.000026   0.000294  -0.000399   0.000196
              19
     1  C    0.000005
     2  H    0.000000
     3  H    0.000001
     4  H    0.000000
     5  C   -0.000036
     6  H    0.000000
     7  H    0.000002
     8  C    0.001118
     9  H   -0.000096
    10  C   -0.000766
    11  H   -0.000057
    12  C   -0.000008
    13  H    0.000329
    14  H   -0.000003
    15  H   -0.000026
    16  C    0.000294
    17  H   -0.000399
    18  H    0.000196
    19  H   -0.002712
 Mulliken charges and spin densities:
               1          2
     1  C   -0.449211   0.000582
     2  H    0.140710   0.000059
     3  H    0.143825   0.000334
     4  H    0.142322   0.000005
     5  C   -0.245126   0.008498
     6  H    0.125147  -0.000535
     7  H    0.135419   0.001596
     8  C   -0.090319  -0.044533
     9  H    0.118914   0.003949
    10  C   -0.092609   1.001770
    11  H    0.113261  -0.029542
    12  C   -0.479932  -0.053677
    13  H    0.156959   0.054346
    14  H    0.149968   0.007295
    15  H    0.147245   0.005475
    16  C   -0.452585   0.037172
    17  H    0.150604   0.010589
    18  H    0.139756  -0.001222
    19  H    0.145651  -0.002158
 Sum of Mulliken charges =   0.00000   1.00000
 Mulliken charges and spin densities with hydrogens summed into heavy atoms:
               1          2
     1  C   -0.022353   0.000979
     5  C    0.015441   0.009559
     8  C    0.028596  -0.040584
    10  C    0.020651   0.972228
    12  C   -0.025760   0.013438
    16  C   -0.016575   0.044381
 Electronic spatial extent (au):  <R**2>=            839.5214
 Charge=              0.0000 electrons
 Dipole moment (field-independent basis, Debye):
    X=              0.0701    Y=              0.5600    Z=              0.0104  Tot=              0.5645
 Quadrupole moment (field-independent basis, Debye-Ang):
   XX=            -40.4650   YY=            -41.7211   ZZ=            -40.3057
   XY=              0.7253   XZ=              0.0125   YZ=              0.1378
 Traceless Quadrupole moment (field-independent basis, Debye-Ang):
   XX=              0.3656   YY=             -0.8905   ZZ=              0.5249
   XY=              0.7253   XZ=              0.0125   YZ=              0.1378
 Octapole moment (field-independent basis, Debye-Ang**2):
  XXX=              2.4144  YYY=              2.2295  ZZZ=             -0.2438  XYY=             -1.5525
  XXY=              0.3176  XXZ=              1.0914  XZZ=              0.1651  YZZ=              0.1531
  YYZ=             -0.5905  XYZ=             -0.0457
 Hexadecapole moment (field-independent basis, Debye-Ang**3):
 XXXX=           -828.2097 YYYY=           -233.1015 ZZZZ=           -102.8185 XXXY=              1.9558
 XXXZ=             -0.3451 YYYX=              3.4213 YYYZ=             -0.0540 ZZZX=             -0.1752
 ZZZY=              1.3300 XXYY=           -172.5952 XXZZ=           -156.6746 YYZZ=            -57.4831
 XXYZ=             -0.9588 YYXZ=             -0.1000 ZZXY=              0.1239
 N-N= 2.443247981167D+02 E-N=-1.034221998742D+03  KE= 2.339451864471D+02
                          Isotropic Fermi Contact Couplings
        Atom                 a.u.       MegaHertz       Gauss      10(-4) cm-1
     1  C(13)              0.00013       0.14952       0.05335       0.04987
     2  H(1)               0.00008       0.35635       0.12715       0.11887
     3  H(1)               0.00009       0.38944       0.13896       0.12990
     4  H(1)               0.00004       0.17831       0.06363       0.05948
     5  C(13)              0.01266      14.23246       5.07850       4.74744
     6  H(1)              -0.00024      -1.07380      -0.38316      -0.35818
     7  H(1)              -0.00019      -0.84077      -0.30001      -0.28045
     8  C(13)             -0.00717      -8.05578      -2.87450      -2.68712
     9  H(1)               0.00233      10.40112       3.71138       3.46944
    10  C(13)              0.29671     333.56046     119.02266     111.26379
    11  H(1)              -0.00384     -17.16915      -6.12638      -5.72701
    12  C(13)             -0.00867      -9.74334      -3.47666      -3.25003
    13  H(1)               0.02481     110.91945      39.57882      36.99875
    14  H(1)               0.00499      22.31372       7.96209       7.44305
    15  H(1)               0.00343      15.33418       5.47162       5.11493
    16  C(13)              0.03783      42.52655      15.17453      14.18533
    17  H(1)               0.00368      16.47051       5.87709       5.49397
    18  H(1)              -0.00047      -2.09824      -0.74871      -0.69990
    19  H(1)              -0.00068      -3.02434      -1.07916      -1.00881
 --------------------------------------------------------
       Center         ----  Spin Dipole Couplings  ----
                      3XX-RR        3YY-RR        3ZZ-RR
 --------------------------------------------------------
     1   Atom        0.004874     -0.002200     -0.002674
     2   Atom        0.002621     -0.001635     -0.000985
     3   Atom        0.002811     -0.000840     -0.001971
     4   Atom        0.002776     -0.001274     -0.001502
     5   Atom        0.021595     -0.011445     -0.010151
     6   Atom        0.007196     -0.005031     -0.002164
     7   Atom        0.013624     -0.004199     -0.009426
     8   Atom        0.003255      0.016751     -0.020006
     9   Atom       -0.001594     -0.003387      0.004982
    10   Atom       -0.466422      0.855438     -0.389015
    11   Atom       -0.057908     -0.012152      0.070060
    12   Atom        0.012776      0.004669     -0.017445
    13   Atom        0.002598      0.004832     -0.007430
    14   Atom        0.019867     -0.009058     -0.010809
    15   Atom       -0.000337     -0.006027      0.006364
    16   Atom       -0.028301      0.058140     -0.029839
    17   Atom        0.002075      0.002327     -0.004403
    18   Atom       -0.004717      0.004068      0.000650
    19   Atom       -0.002144      0.009463     -0.007319
 --------------------------------------------------------
                        XY            XZ            YZ
 --------------------------------------------------------
     1   Atom       -0.001239      0.000919     -0.000113
     2   Atom       -0.000776      0.002155     -0.000290
     3   Atom       -0.001509      0.000279     -0.000094
     4   Atom       -0.000058      0.000141     -0.000032
     5   Atom       -0.004659     -0.007650      0.001183
     6   Atom       -0.001772     -0.006577      0.000775
     7   Atom        0.005896      0.001429      0.000299
     8   Atom       -0.026860      0.007201     -0.006424
     9   Atom       -0.006921      0.012307     -0.008677
    10   Atom        0.147974      0.039064      0.343232
    11   Atom        0.004908      0.005024      0.009327
    12   Atom        0.026623     -0.011395     -0.007760
    13   Atom        0.009725     -0.003343      0.000397
    14   Atom        0.000941     -0.002126      0.000346
    15   Atom        0.005502     -0.013027     -0.006016
    16   Atom       -0.008565     -0.000962      0.008667
    17   Atom       -0.005272      0.002948     -0.001277
    18   Atom       -0.005195     -0.001633      0.007001
    19   Atom        0.000325     -0.000886     -0.003369
 --------------------------------------------------------


 ---------------------------------------------------------------------------------
              Anisotropic Spin Dipole Couplings in Principal Axis System
 ---------------------------------------------------------------------------------

       Atom             a.u.   MegaHertz   Gauss  10(-4) cm-1        Axes

              Baa    -0.0028    -0.374    -0.133    -0.125 -0.1330 -0.0908  0.9869
     1 C(13)  Bbb    -0.0024    -0.323    -0.115    -0.108  0.1531  0.9820  0.1109
              Bcc     0.0052     0.697     0.249     0.232  0.9792 -0.1658  0.1168
 
              Baa    -0.0020    -1.072    -0.383    -0.358 -0.4428 -0.2523  0.8604
     2 H(1)   Bbb    -0.0017    -0.931    -0.332    -0.310  0.0252  0.9557  0.2932
              Bcc     0.0038     2.003     0.715     0.668  0.8963 -0.1515  0.4168
 
              Baa    -0.0020    -1.060    -0.378    -0.354 -0.0555  0.0084  0.9984
     3 H(1)   Bbb    -0.0014    -0.738    -0.263    -0.246  0.3380  0.9411  0.0109
              Bcc     0.0034     1.798     0.642     0.600  0.9395 -0.3381  0.0550
 
              Baa    -0.0015    -0.806    -0.288    -0.269 -0.0309  0.1265  0.9915
     4 H(1)   Bbb    -0.0013    -0.678    -0.242    -0.226  0.0187  0.9919 -0.1260
              Bcc     0.0028     1.484     0.530     0.495  0.9993 -0.0146  0.0330
 
              Baa    -0.0121    -1.630    -0.582    -0.544  0.0263  0.9012 -0.4327
     5 C(13)  Bbb    -0.0118    -1.590    -0.567    -0.530  0.2574  0.4121  0.8740
              Bcc     0.0240     3.220     1.149     1.074  0.9660 -0.1344 -0.2211
 
              Baa    -0.0056    -2.989    -1.066    -0.997  0.4667  0.3399  0.8165
     6 H(1)   Bbb    -0.0052    -2.786    -0.994    -0.929 -0.0557  0.9327 -0.3564
              Bcc     0.0108     5.775     2.061     1.926  0.8827 -0.1208 -0.4542
 
              Baa    -0.0095    -5.077    -1.812    -1.693 -0.0659  0.0169  0.9977
     7 H(1)   Bbb    -0.0060    -3.184    -1.136    -1.062 -0.2856  0.9577 -0.0351
              Bcc     0.0155     8.261     2.948     2.756  0.9561  0.2873  0.0583
 
              Baa    -0.0222    -2.976    -1.062    -0.993 -0.3704 -0.1033  0.9231
     8 C(13)  Bbb    -0.0170    -2.287    -0.816    -0.763  0.6996  0.6227  0.3504
              Bcc     0.0392     5.263     1.878     1.756 -0.6110  0.7756 -0.1584
 
              Baa    -0.0111    -5.901    -2.106    -1.968  0.8098  0.0719 -0.5823
     9 H(1)   Bbb    -0.0087    -4.639    -1.655    -1.547  0.2005  0.8988  0.3898
              Bcc     0.0198    10.540     3.761     3.516  0.5514 -0.4324  0.7134
 
              Baa    -0.4830   -64.813   -23.127   -21.619  0.9810 -0.0613 -0.1839
    10 C(13)  Bbb    -0.4773   -64.043   -22.852   -21.362  0.1619 -0.2629  0.9511
              Bcc     0.9602   128.855    45.979    42.982  0.1067  0.9629  0.2480
 
              Baa    -0.0586   -31.242   -11.148   -10.421  0.9946 -0.0988 -0.0317
    11 H(1)   Bbb    -0.0128    -6.823    -2.434    -2.276  0.0945  0.9886 -0.1170
              Bcc     0.0713    38.065    13.583    12.697  0.0429  0.1134  0.9926
 
              Baa    -0.0215    -2.880    -1.028    -0.961  0.4333 -0.1791  0.8833
    12 C(13)  Bbb    -0.0175    -2.351    -0.839    -0.784 -0.5128  0.7569  0.4051
              Bcc     0.0390     5.231     1.867     1.745  0.7411  0.6285 -0.2361
 
              Baa    -0.0097    -5.172    -1.846    -1.725  0.4954 -0.3534  0.7935
    13 H(1)   Bbb    -0.0040    -2.129    -0.760    -0.710 -0.5501  0.5794  0.6014
              Bcc     0.0137     7.301     2.605     2.435  0.6723  0.7345 -0.0927
 
              Baa    -0.0110    -5.891    -2.102    -1.965  0.0734 -0.2048  0.9760
    14 H(1)   Bbb    -0.0090    -4.802    -1.714    -1.602 -0.0167  0.9783  0.2065
              Bcc     0.0200    10.694     3.816     3.567  0.9972  0.0314 -0.0684
 
              Baa    -0.0106    -5.676    -2.026    -1.893  0.8065 -0.2901  0.5152
    15 H(1)   Bbb    -0.0085    -4.511    -1.610    -1.505  0.0582  0.9061  0.4190
              Bcc     0.0191    10.188     3.635     3.398 -0.5884 -0.3079  0.7476
 
              Baa    -0.0307    -4.119    -1.470    -1.374  0.0803 -0.0891  0.9928
    16 C(13)  Bbb    -0.0291    -3.909    -1.395    -1.304  0.9920  0.1044 -0.0708
              Bcc     0.0598     8.028     2.865     2.678 -0.0973  0.9905  0.0968
 
              Baa    -0.0057    -3.015    -1.076    -1.006 -0.4395 -0.1487  0.8858
    17 H(1)   Bbb    -0.0025    -1.352    -0.482    -0.451  0.5663  0.7197  0.4018
              Bcc     0.0082     4.367     1.558     1.457  0.6973 -0.6782  0.2321
 
              Baa    -0.0076    -4.046    -1.444    -1.350  0.7949  0.5309 -0.2938
    18 H(1)   Bbb    -0.0036    -1.939    -0.692    -0.647  0.5226 -0.3530  0.7761
              Bcc     0.0112     5.985     2.136     1.996 -0.3083  0.7704  0.5580
 
              Baa    -0.0081    -4.311    -1.538    -1.438  0.1352  0.1844  0.9735
    19 H(1)   Bbb    -0.0021    -1.096    -0.391    -0.365  0.9900 -0.0646 -0.1252
              Bcc     0.0101     5.407     1.929     1.804  0.0397  0.9807 -0.1913
 

 ---------------------------------------------------------------------------------

 No NMR shielding tensors so no spin-rotation constants.
 Leave Link  601 at Sat Nov  7 02:06:02 2015, MaxMem=   805306368 cpu:         1.4
 (Enter /home/hetanjin/apps/g09D01/g09/l701.exe)
 Compute integral first derivatives.
 ... and contract with generalized density number  0.
 Leave Link  701 at Sat Nov  7 02:06:02 2015, MaxMem=   805306368 cpu:         0.8
 (Enter /home/hetanjin/apps/g09D01/g09/l702.exe)
 L702 exits ... SP integral derivatives will be done elsewhere.
 Leave Link  702 at Sat Nov  7 02:06:02 2015, MaxMem=   805306368 cpu:         0.1
 (Enter /home/hetanjin/apps/g09D01/g09/l703.exe)
 Compute integral first derivatives, UseDBF=F ICtDFT=           0.
 Integral derivatives from FoFJK, PRISM(SPDF).
 Calling FoFJK, ICntrl=      2127 FMM=F ISym2X=0 I1Cent= 0 IOpClX= 1 NMat=1 NMatS=1 NMatT=0.
 FoFJK:  IHMeth= 1 ICntrl=    2127 DoSepK=F KAlg= 0 I1Cent=   0 FoldK=F
 IRaf=         0 NMat=   1 IRICut=       1 DoRegI=T DoRafI=F ISym2E= 0.
 FoFCou: FMM=F IPFlag=           0 FMFlag=      100000 FMFlg1=         800
         NFxFlg=           0 DoJE=F BraDBF=F KetDBF=F FulRan=T
         wScrn=  0.000000 ICntrl=    2127 IOpCl=  1 I1Cent=           0 NGrid=           0
         NMat0=    1 NMatS0=      1 NMatT0=    0 NMatD0=    1 NMtDS0=    0 NMtDT0=    0
 Symmetry not used in FoFCou.
 Leave Link  703 at Sat Nov  7 02:06:12 2015, MaxMem=   805306368 cpu:        39.6
 (Enter /home/hetanjin/apps/g09D01/g09/l716.exe)
 Dipole        = 2.75636135D-02 2.20329381D-01 4.09041249D-03
 ***** Axes restored to original set *****
 -------------------------------------------------------------------
 Center     Atomic                   Forces (Hartrees/Bohr)
 Number     Number              X              Y              Z
 -------------------------------------------------------------------
      1        6           0.000023741    0.000289813   -0.000010101
      2        1          -0.000027173   -0.000027607   -0.000006169
      3        1          -0.000187842    0.000120148   -0.000026231
      4        1           0.000073109    0.000004943    0.000013259
      5        6          -0.001614834   -0.001663135    0.000275855
      6        1           0.000135492    0.000036264   -0.000025092
      7        1           0.000532398    0.000748020    0.000237187
      8        6           0.003296831   -0.019725495   -0.005096294
      9        1          -0.000429455    0.000917684   -0.000109810
     10        6           0.004796699    0.050576623    0.003962659
     11        1          -0.001277288   -0.015262089    0.000194845
     12        6          -0.008413462   -0.021842113   -0.003623211
     13        1          -0.001056485    0.002493337    0.002148229
     14        1           0.001036469    0.000662985    0.000199579
     15        1           0.000675730    0.001074859   -0.000329565
     16        6           0.003205708    0.002467630    0.002859732
     17        1          -0.000579899   -0.000943897   -0.000419429
     18        1          -0.000093418    0.000133263   -0.000205087
     19        1          -0.000096320   -0.000061233   -0.000040354
 -------------------------------------------------------------------
 Cartesian Forces:  Max     0.050576623 RMS     0.008236672
 Leave Link  716 at Sat Nov  7 02:06:12 2015, MaxMem=   805306368 cpu:         0.1
 (Enter /home/hetanjin/apps/g09D01/g09/l103.exe)

 GradGradGradGradGradGradGradGradGradGradGradGradGradGradGradGradGradGrad
 Berny optimization.
 FormGI is forming the generalized inverse of G from B-inverse, IUseBI=4.
 Internal  Forces:  Max     0.013720533 RMS     0.003180204
 Search for a local minimum.
 Step number   1 out of a maximum of  100
 All quantities printed in internal units (Hartrees-Bohrs-Radians)
 RMS Force = .31802D-02 SwitMx=.10000D-02 MixMth= 1
 Mixed Optimization -- RFO/linear search
 Second derivative matrix not updated -- first step.
 ITU=  0
     Eigenvalues ---    0.00230   0.00230   0.00279   0.00326   0.00326
     Eigenvalues ---    0.02102   0.03219   0.03659   0.04708   0.04711
     Eigenvalues ---    0.05346   0.05357   0.05439   0.05496   0.05687
     Eigenvalues ---    0.06829   0.06983   0.08726   0.11320   0.12495
     Eigenvalues ---    0.16000   0.16000   0.16000   0.16000   0.16000
     Eigenvalues ---    0.16000   0.16000   0.16000   0.16000   0.16976
     Eigenvalues ---    0.18127   0.21941   0.23352   0.28249   0.28249
     Eigenvalues ---    0.28802   0.29125   0.29125   0.33394   0.33637
     Eigenvalues ---    0.33637   0.33788   0.33845   0.33973   0.33973
     Eigenvalues ---    0.34116   0.34116   0.34193   0.34193   0.34238
     Eigenvalues ---    0.34238
 RFO step:  Lambda=-1.38003711D-02 EMin= 2.30000000D-03
 Linear search not attempted -- first point.
 Iteration  1 RMS(Cart)=  0.08261980 RMS(Int)=  0.00676939
 Iteration  2 RMS(Cart)=  0.00900278 RMS(Int)=  0.00425447
 Iteration  3 RMS(Cart)=  0.00002993 RMS(Int)=  0.00425439
 Iteration  4 RMS(Cart)=  0.00000020 RMS(Int)=  0.00425439
 ITry= 1 IFail=0 DXMaxC= 3.03D-01 DCOld= 1.00D+10 DXMaxT= 3.00D-01 DXLimC= 3.00D+00 Rises=F
 Variable       Old X    -DE/DX   Delta X   Delta X   Delta X     New X
                                 (Linear)    (Quad)   (Total)
    R1        2.07376   0.00001   0.00000   0.00002   0.00002   2.07378
    R2        2.07005   0.00014   0.00000   0.00040   0.00040   2.07045
    R3        2.07134  -0.00005   0.00000  -0.00015  -0.00015   2.07119
    R4        2.89742   0.00024   0.00000   0.00079   0.00079   2.89821
    R5        2.07947  -0.00003   0.00000  -0.00008  -0.00008   2.07939
    R6        2.07690  -0.00073   0.00000  -0.00207  -0.00207   2.07482
    R7        2.91596   0.00125   0.00000   0.00423   0.00423   2.92020
    R8        2.08366   0.00007   0.00000   0.00020   0.00020   2.08385
    R9        2.91596  -0.01105   0.00000  -0.03731  -0.03731   2.87865
   R10        2.90418   0.00212   0.00000   0.00702   0.00702   2.91121
   R11        2.07947  -0.00073   0.00000  -0.00207  -0.00207   2.07740
   R12        2.89742  -0.01190   0.00000  -0.03901  -0.03901   2.85841
   R13        2.07005   0.00272   0.00000   0.00765   0.00765   2.07771
   R14        2.07134   0.00048   0.00000   0.00136   0.00136   2.07271
   R15        2.07376   0.00028   0.00000   0.00080   0.00080   2.07456
   R16        2.06931   0.00016   0.00000   0.00045   0.00045   2.06975
   R17        2.07593  -0.00019   0.00000  -0.00054  -0.00054   2.07539
   R18        2.06930  -0.00009   0.00000  -0.00026  -0.00026   2.06904
    A1        1.87842  -0.00008   0.00000  -0.00009  -0.00009   1.87832
    A2        1.87726   0.00002   0.00000  -0.00029  -0.00029   1.87697
    A3        1.93932  -0.00001   0.00000  -0.00002  -0.00002   1.93931
    A4        1.87288  -0.00007   0.00000  -0.00043  -0.00043   1.87245
    A5        1.95782   0.00027   0.00000   0.00175   0.00175   1.95957
    A6        1.93461  -0.00013   0.00000  -0.00099  -0.00099   1.93362
    A7        1.90987   0.00000   0.00000   0.00069   0.00069   1.91056
    A8        1.89569   0.00040   0.00000   0.00374   0.00374   1.89943
    A9        2.00987   0.00010   0.00000   0.00047   0.00047   2.01034
   A10        1.84904   0.00000   0.00000  -0.00021  -0.00021   1.84883
   A11        1.90093  -0.00007   0.00000  -0.00108  -0.00109   1.89984
   A12        1.89164  -0.00045   0.00000  -0.00368  -0.00368   1.88796
   A13        1.87539  -0.00056   0.00000   0.00304   0.00301   1.87840
   A14        1.92053   0.00075   0.00000   0.00160   0.00154   1.92207
   A15        1.95271   0.00124   0.00000   0.00263   0.00258   1.95529
   A16        1.87539   0.00109   0.00000   0.01144   0.01143   1.88682
   A17        1.88339   0.00019   0.00000   0.00125   0.00128   1.88467
   A18        1.95271  -0.00265   0.00000  -0.01865  -0.01864   1.93407
   A19        1.90093   0.00060   0.00000   0.11447   0.09054   1.99147
   A20        2.00987   0.01372   0.00000   0.10244   0.08176   2.09163
   A21        1.90987   0.00082   0.00000   0.11708   0.09338   2.00325
   A22        1.95782  -0.00401   0.00000  -0.02712  -0.02708   1.93074
   A23        1.93461   0.00178   0.00000   0.01179   0.01167   1.94628
   A24        1.93932   0.00212   0.00000   0.01465   0.01455   1.95388
   A25        1.87288   0.00020   0.00000  -0.00352  -0.00352   1.86936
   A26        1.87842   0.00040   0.00000  -0.00061  -0.00056   1.87786
   A27        1.87726  -0.00046   0.00000   0.00510   0.00487   1.88213
   A28        1.95027  -0.00179   0.00000  -0.01160  -0.01161   1.93867
   A29        1.93183   0.00053   0.00000   0.00360   0.00360   1.93543
   A30        1.95027   0.00025   0.00000   0.00217   0.00216   1.95243
   A31        1.87919   0.00047   0.00000   0.00133   0.00133   1.88052
   A32        1.86960   0.00068   0.00000   0.00286   0.00285   1.87245
   A33        1.87920  -0.00007   0.00000   0.00204   0.00202   1.88122
    D1        3.12776  -0.00003   0.00000  -0.00011  -0.00011   3.12765
    D2       -1.14441   0.00019   0.00000   0.00206   0.00206  -1.14235
    D3        0.98010  -0.00001   0.00000   0.00044   0.00044   0.98054
    D4        1.02422  -0.00011   0.00000  -0.00118  -0.00119   1.02303
    D5        3.03522   0.00012   0.00000   0.00099   0.00099   3.03621
    D6       -1.12345  -0.00009   0.00000  -0.00063  -0.00063  -1.12409
    D7       -1.06899  -0.00010   0.00000  -0.00113  -0.00113  -1.07012
    D8        0.94202   0.00012   0.00000   0.00104   0.00104   0.94306
    D9        3.06653  -0.00008   0.00000  -0.00058  -0.00058   3.06595
   D10       -0.95817   0.00021   0.00000   0.00456   0.00455  -0.95362
   D11       -2.99494  -0.00118   0.00000  -0.01166  -0.01167  -3.00661
   D12        1.10606   0.00081   0.00000   0.00949   0.00950   1.11557
   D13       -3.11059   0.00019   0.00000   0.00417   0.00416  -3.10643
   D14        1.13582  -0.00120   0.00000  -0.01205  -0.01206   1.12376
   D15       -1.04636   0.00079   0.00000   0.00910   0.00911  -1.03725
   D16        1.16853   0.00046   0.00000   0.00694   0.00693   1.17546
   D17       -0.86824  -0.00092   0.00000  -0.00928  -0.00929  -0.87753
   D18       -3.05042   0.00106   0.00000   0.01187   0.01188  -3.03854
   D19       -1.13583   0.00547   0.00000   0.14853   0.15079  -0.98504
   D20        2.99493  -0.00595   0.00000  -0.16956  -0.17183   2.82310
   D21        3.11058   0.00511   0.00000   0.13757   0.13979  -3.03281
   D22        0.95816  -0.00630   0.00000  -0.18052  -0.18283   0.77533
   D23        1.04635   0.00572   0.00000   0.13958   0.14189   1.18823
   D24       -1.10608  -0.00570   0.00000  -0.17851  -0.18074  -1.28681
   D25       -1.01213  -0.00003   0.00000  -0.00343  -0.00341  -1.01555
   D26        1.08212  -0.00028   0.00000  -0.00703  -0.00702   1.07510
   D27       -3.10680   0.00016   0.00000  -0.00056  -0.00055  -3.10735
   D28        1.04733   0.00013   0.00000   0.00260   0.00259   1.04992
   D29        3.14159  -0.00012   0.00000  -0.00101  -0.00102   3.14057
   D30       -1.04734   0.00032   0.00000   0.00546   0.00545  -1.04189
   D31        3.10679   0.00004   0.00000   0.00657   0.00657   3.11337
   D32       -1.08213  -0.00020   0.00000   0.00297   0.00296  -1.07917
   D33        1.01213   0.00023   0.00000   0.00944   0.00943   1.02156
   D34        1.12344   0.00601   0.00000   0.16985   0.17229   1.29574
   D35       -3.06654   0.00478   0.00000   0.15523   0.15759  -2.90895
   D36       -0.98010   0.00678   0.00000   0.17904   0.18161  -0.79849
   D37       -1.02422  -0.00540   0.00000  -0.14838  -0.15086  -1.17508
   D38        1.06898  -0.00662   0.00000  -0.16301  -0.16556   0.90342
   D39       -3.12777  -0.00463   0.00000  -0.13919  -0.14154   3.01388
         Item               Value     Threshold  Converged?
 Maximum Force            0.013721     0.000015     NO 
 RMS     Force            0.003180     0.000010     NO 
 Maximum Displacement     0.303028     0.000060     NO 
 RMS     Displacement     0.080522     0.000040     NO 
 Predicted change in Energy=-1.041409D-02
 Lowest energy point so far.  Saving SCF results.
 GradGradGradGradGradGradGradGradGradGradGradGradGradGradGradGradGradGrad

 Leave Link  103 at Sat Nov  7 02:06:12 2015, MaxMem=   805306368 cpu:         0.4
 (Enter /home/hetanjin/apps/g09D01/g09/l202.exe)
                          Input orientation:                          
 ---------------------------------------------------------------------
 Center     Atomic      Atomic             Coordinates (Angstroms)
 Number     Number       Type             X           Y           Z
 ---------------------------------------------------------------------
      1          6           0       -2.574367   -0.207180   -0.306850
      2          1           0       -2.543985   -0.245760   -1.403147
      3          1           0       -2.832763    0.817647   -0.018091
      4          1           0       -3.394088   -0.855190    0.023927
      5          6           0       -1.241405   -0.663353    0.299164
      6          1           0       -1.296802   -0.600556    1.396340
      7          1           0       -1.090869   -1.725500    0.065334
      8          6           0        0.001792    0.117295   -0.183544
      9          1           0        0.017384    0.072150   -1.285237
     10          6           0        1.271223   -0.545781    0.335466
     11          1           0        1.307236   -0.652228    1.429021
     12          6           0        2.601380   -0.238065   -0.315659
     13          1           0        2.949207    0.765223   -0.030574
     14          1           0        3.376092   -0.948944   -0.003395
     15          1           0        2.538778   -0.268683   -1.411256
     16          6           0       -0.050079    1.600096    0.231046
     17          1           0       -0.947286    2.088427   -0.164126
     18          1           0       -0.068357    1.700609    1.324531
     19          1           0        0.814980    2.158236   -0.141698
 ---------------------------------------------------------------------
                    Distance matrix (angstroms):
                    1          2          3          4          5
     1  C    0.000000
     2  H    1.097396   0.000000
     3  H    1.095637   1.769917   0.000000
     4  H    1.096027   1.769356   1.765003   0.000000
     5  C    1.533667   2.183795   2.196914   2.178670   0.000000
     6  H    2.165126   3.085202   2.524102   2.519318   1.100367
     7  H    2.155129   2.541183   3.083626   2.462513   1.097950
     8  C    2.599439   2.846089   2.924478   3.538471   1.545301
     9  H    2.784320   2.583714   3.206986   3.769882   2.153100
    10  C    3.913538   4.203403   4.338968   4.685928   2.515639
    11  H    4.275296   4.797738   4.625393   4.911001   2.787879
    12  C    5.175846   5.259037   5.543734   6.036705   3.914827
    13  H    5.615315   5.751626   5.782221   6.547221   4.439683
    14  H    6.004187   6.123813   6.455303   6.770885   4.636204
    15  H    5.231419   5.082822   5.654598   6.132100   4.167863
    16  C    3.150811   3.506757   2.901315   4.153761   2.558730
    17  H    2.817370   3.087564   2.278428   3.832374   2.805964
    18  H    3.546991   4.166211   3.197530   4.391375   2.831207
    19  H    4.136440   4.318923   3.888249   5.179230   3.519153
                    6          7          8          9         10
     6  H    0.000000
     7  H    1.754846   0.000000
     8  C    2.167415   2.156790   0.000000
     9  H    3.061123   2.506753   1.102728   0.000000
    10  C    2.779066   2.654089   1.523317   2.140241   0.000000
    11  H    2.604756   2.960145   2.212852   3.091219   1.099313
    12  C    4.272958   3.998790   2.627088   2.777292   1.512604
    13  H    4.682951   4.747116   3.021665   3.263451   2.160636
    14  H    4.890458   4.534480   3.543334   3.737201   2.169756
    15  H    4.764915   4.180547   2.844742   2.547446   2.175895
[...]
 .04039934,0.00100345,-0.00083340,-0.00007405,-0.00603032,0.00253377,-0
 .00276811,-0.02163266,0.00939486,-0.01135412,0.45707245,0.02988907,-0.
 09333236,0.01361941,-0.00232252,0.00018836,-0.00058295,0.02895077,-0.0
 0810101,0.01510882,-0.01832511,0.00657137,-0.00993556,-0.02732925,0.55
 548109,-0.04011265,0.01417678,-0.10065456,-0.03135552,0.01048677,-0.01
 371219,0.00878925,-0.00171152,0.00379206,0.01015008,-0.00417038,0.0042
 7523,-0.00188860,0.03266751,0.56319214,0.00056375,-0.00229232,-0.03158
 121,-0.00541713,0.00207330,-0.00267070,0.00138324,-0.00001949,0.000858
 09,0.00105315,-0.00060066,0.00054416,-0.04905447,0.00144137,0.01467311
 ,0.05758694,-0.00001585,0.00041975,0.01095455,0.00193782,0.00033224,0.
 00137471,-0.00076229,0.00043137,0.00027806,-0.00023227,0.00011388,-0.0
 0051777,0.00149437,-0.05261264,-0.01995165,-0.00045897,0.05289028,0.00
 015260,-0.00097109,-0.01314544,-0.00266925,0.00087003,0.00048973,0.000
 13094,0.00048116,0.00067203,-0.00037819,-0.00031394,0.00044680,0.01432
 935,-0.01958239,-0.29557121,-0.01533005,0.01982804,0.32392775,-0.00736
 343,0.02991162,0.00662964,0.00117574,-0.00065574,-0.00003928,-0.005185
 86,0.00155067,-0.00329622,0.00100245,-0.00031783,0.00076809,-0.0531287
 7,0.03932169,0.00930473,-0.00071656,0.00184114,0.00048966,0.06493783,0
 .00214908,-0.00854629,-0.00190003,-0.00017271,0.00018154,0.00043489,0.
 00148209,0.00110419,0.00105932,0.00038490,0.00084635,-0.00008158,0.038
 54925,-0.28526349,-0.05393425,0.00025014,-0.00189453,-0.00124137,-0.04
 169682,0.31061453,-0.00323804,0.01478461,0.00317716,0.00080712,0.00022
 803,0.00056330,-0.00285816,0.00128762,-0.00034513,0.00069597,-0.000456
 26,0.00039367,0.00874935,-0.05414942,-0.06447955,0.00515669,-0.0327494
 9,-0.00714868,-0.00893115,0.05807530,0.06474920,-0.02691243,-0.0146653
 2,0.00839176,0.00217484,-0.00038224,0.00117905,0.00109091,-0.00038433,
 0.00044237,-0.00332814,0.00203871,-0.00173038,-0.13008962,-0.03690076,
 0.02233056,-0.00358337,-0.00237024,0.00182018,0.00213146,0.00136844,-0
 .00070069,0.47300798,0.00495729,0.00770352,-0.00453012,0.00012661,0.00
 021800,0.00019748,0.00059414,-0.00027628,-0.00054062,0.00359766,-0.000
 45066,0.00120665,-0.03960685,-0.10306694,0.01804315,0.00130621,0.00020
 545,-0.00058497,-0.02674427,-0.01706642,0.01212648,-0.00304699,0.41001
 092,-0.00978545,-0.00965840,0.00560429,-0.00152223,-0.00068336,0.00033
 471,0.00046946,0.00037563,0.00004654,-0.00421899,0.00112380,-0.0013915
 3,0.02352954,0.01786837,-0.09392914,0.02747132,0.01893062,-0.01298844,
 -0.00676467,-0.00481415,0.00206206,0.00248886,-0.01806318,0.57331907,0
 .00154996,0.00042332,0.00147292,-0.00024192,0.00000327,-0.00087801,-0.
 00013366,0.00001441,-0.00001813,0.00031961,-0.00006224,-0.00030028,-0.
 00302985,0.00078035,0.02729188,-0.00417443,-0.00301787,0.00213801,0.00
 084297,0.00025764,-0.00076861,-0.05065615,-0.00187624,0.00435183,0.057
 22703,0.00094383,0.00027145,-0.00017218,-0.00009318,0.00019850,-0.0003
 8305,-0.00007189,0.00004909,-0.00007500,0.00020930,-0.00011801,-0.0000
 1674,-0.00136702,0.00038024,0.01774990,-0.00292638,-0.00138888,0.00139
 885,0.00082602,0.00034907,-0.00001848,-0.00187066,-0.04500383,-0.01022
 025,-0.00096361,0.05743377,-0.00087745,-0.00028283,0.00048456,0.000946
 74,-0.00012605,0.00070620,0.00002601,0.00000512,0.00006986,-0.00001765
 ,0.00006183,0.00045580,0.00115918,-0.00002201,-0.01176919,0.00147610,0
 .00167606,0.00050331,-0.00011668,0.00051878,0.00042827,0.00635310,-0.0
 1135668,-0.28618359,-0.00560925,0.01084832,0.31526504,-0.00238538,-0.0
 0252243,0.00156640,-0.00008500,-0.00008487,-0.00004233,-0.00002956,0.0
 0017809,0.00010500,-0.00092362,0.00032607,-0.00047056,-0.03422909,0.00
 757106,-0.00778464,0.00164688,0.00084285,-0.00109000,0.00087990,0.0015
 6468,-0.00053726,-0.17187501,0.04752295,-0.03506831,-0.00105500,0.0022
 9021,-0.00199453,0.50268526,-0.00221514,-0.00196503,0.00189163,0.00027
 666,-0.00009956,-0.00008066,-0.00032868,0.00023986,0.00003907,-0.00107
 114,0.00039988,-0.00036503,-0.01023590,0.00701177,-0.00653131,-0.00073
 415,0.00009367,0.00049631,-0.00079720,0.00077972,-0.00026923,0.0463876
 2,-0.07478240,0.03403420,0.00300824,-0.00180549,0.00372414,-0.04895263
 ,0.20488882,0.00209234,0.00229719,-0.00167543,-0.00007870,0.00002194,0
 .00039973,-0.00027349,-0.00004544,-0.00003783,0.00104211,-0.00014589,0
 .00070182,0.00887761,-0.00691144,0.00561480,0.00137839,-0.00028021,0.0
 0005810,0.00028578,0.00051469,0.00047740,-0.03571083,0.03508995,-0.099
 48486,-0.02829377,0.01577354,-0.01367924,-0.03582089,-0.18803688,0.507
 01464,-0.00003811,-0.00014501,0.00013571,0.00010037,-0.00002673,0.0002
 2402,0.00011393,-0.00002850,0.00000511,-0.00006355,-0.00001774,0.00005
 576,0.00203468,0.00068364,-0.00157793,-0.00031972,0.00013061,0.0007295
 8,-0.00002759,-0.00036453,-0.00002692,0.00199813,0.00740109,-0.0231237
 8,-0.00390321,0.00240667,-0.00220325,-0.05459144,0.00634255,0.00291485
 ,0.05618347,0.00013412,-0.00016887,-0.00010723,-0.00011604,0.00001354,
 -0.00006572,0.00005007,-0.00003332,0.00000437,0.00001642,-0.00000527,-
 0.00001658,-0.00069779,0.00051797,-0.00043052,0.00040858,0.00018304,-0
 .00043426,0.00004255,-0.00008636,-0.00012834,-0.00082849,-0.00056708,0
 .01407942,0.00166407,-0.00041831,-0.00051390,0.00564700,-0.05623804,0.
 10450660,-0.00665776,0.05365460,-0.00015998,-0.00031952,0.00039766,0.0
 0023974,-0.00001024,0.00008246,0.00011877,-0.00003304,0.00002291,-0.00
 013038,0.00001500,-0.00002724,0.00140801,0.00056291,0.00032549,-0.0007
 0807,-0.00012239,0.00056674,-0.00031482,-0.00040748,-0.00020119,0.0023
 7557,0.00118848,-0.00699859,-0.00187869,0.00149928,-0.00043964,0.00449
 694,0.11244764,-0.28905000,-0.00494672,-0.11861139,0.30369717,-0.00033
 702,-0.00080089,0.00073519,0.00006366,-0.00000972,-0.00003002,0.000042
 75,0.00000115,0.00001168,-0.00029283,0.00009610,-0.00016263,-0.0021011
 6,0.00268527,-0.00151456,-0.00013334,-0.00006067,0.00030023,0.00000888
 ,-0.00021869,-0.00009217,-0.02085888,-0.00515950,0.00913869,0.00143947
 ,-0.00070160,0.00131770,-0.19589971,-0.01211301,0.05908413,0.00248843,
 0.00187574,-0.00257596,0.50304408,0.00037042,0.00105174,-0.00053530,-0
 .00004944,-0.00001489,0.00003647,-0.00002862,-0.00005376,-0.00003376,0
 .00033528,-0.00012582,0.00016953,0.00108224,-0.00231361,0.00144129,0.0
 0022002,-0.00003610,-0.00019676,-0.00010941,0.00020862,0.00011737,0.01
 382778,0.00803624,-0.00739223,-0.00048239,-0.00006994,0.00008741,-0.01
 044390,-0.06021544,0.02550451,-0.00803502,0.00151511,0.00269950,-0.036
 92517,0.50423200,-0.00094403,-0.00053757,0.00072002,0.00012655,-0.0000
 2714,-0.00001125,0.00006521,0.00003460,-0.00000733,-0.00041911,0.00003
 043,-0.00014192,-0.00197493,0.00155237,-0.00170447,-0.00005720,0.00009
 892,0.00044736,0.00001032,-0.00003938,-0.00010695,-0.00754679,-0.00366
 074,0.00718373,-0.00160493,-0.00012987,0.00057789,0.05891956,0.0252374
 3,-0.11037501,0.02606063,0.00607473,-0.00746768,0.02589700,-0.01837441
 ,0.54220419,-0.00008225,0.00002337,0.00004920,-0.00000374,0.00000040,-
 0.00000967,-0.00006961,0.00006021,-0.00000792,-0.00007671,0.00000691,-
 0.00000146,-0.00036148,0.00018915,-0.00006703,0.00005244,-0.00001200,0
 .00000387,0.00014430,0.00018535,0.00000927,0.00121053,0.00032849,0.001
 03040,-0.00018658,-0.00008881,-0.00005899,-0.01827182,-0.02425088,-0.0
 0113764,-0.00042705,0.00026981,0.00029856,-0.07846346,-0.08588868,-0.0
 2765239,0.08961816,-0.00005210,-0.00008682,0.00009908,0.00000339,0.000
 00474,-0.00000870,-0.00002610,0.00005121,-0.00000178,-0.00007806,0.000
 00322,-0.00001632,-0.00020737,0.00023802,-0.00019041,-0.00000296,-0.00
 000888,0.00002418,0.00006718,0.00009979,-0.00000387,0.00019456,-0.0010
 1620,0.00043625,-0.00002781,0.00004161,-0.00016589,-0.00888109,-0.0004
 6973,0.00554770,-0.00062991,-0.00002489,0.00013341,-0.07489515,-0.2292
 0322,-0.05658989,0.09279922,0.25367489,0.00005465,-0.00004040,-0.00003
 727,0.00000448,-0.00000475,0.00000693,0.00000897,-0.00000719,0.0000147
 7,0.00002561,0.00000638,-0.00000115,0.00007620,-0.00001015,0.00014693,
 -0.00002852,-0.00000198,0.00001451,-0.00003833,-0.00002641,-0.00002308
 ,-0.00055596,0.00006511,-0.00014861,0.00019548,-0.00015335,0.00014827,
 0.00679546,0.01410698,0.00396003,-0.00007274,-0.00112272,-0.00070789,-
 0.02172149,-0.04975056,-0.05965663,0.02424332,0.05909700,0.06292201,-0
 .00024133,-0.00044310,0.00029971,0.00002736,0.00001437,-0.00003115,0.0
 0002089,0.00003548,0.00000146,-0.00021503,0.00004182,-0.00008044,-0.00
 056959,0.00125446,-0.00069003,-0.00007214,-0.00001543,0.00011367,0.000
 03775,-0.00011246,-0.00003756,-0.00275119,-0.00133118,0.00459040,0.000
 33437,-0.00022196,0.00013005,-0.02289361,0.01810596,-0.01015246,0.0013
 7005,-0.00088017,-0.00002679,-0.15774530,0.12362846,-0.04580076,0.0091
 7212,-0.00868939,0.00366813,0.17555686,-0.00002513,-0.00003753,0.00000
 392,0.00000046,-0.00000401,0.00000270,-0.00001409,0.00000514,0.0000081
 5,-0.00000939,0.00001634,-0.00000536,-0.00027289,0.00010957,0.00002653
 ,0.00000209,-0.00000526,0.00000133,0.00001659,0.00001831,-0.00001581,-
 0.00151665,-0.00017766,0.00017424,0.00004710,-0.00006033,0.00004337,-0
 .00607990,0.00575111,-0.00260764,0.00042245,0.00045998,-0.00032395,0.1
 2315997,-0.17620666,0.05036247,0.01923276,-0.02264124,0.00878876,-0.13
 227037,0.19129131,0.00013272,0.00017597,-0.00015122,-0.00000759,0.0000
 0835,0.00000633,-0.00000176,-0.00001268,-0.00000137,0.00008413,-0.0000
 2241,0.00003575,0.00037205,-0.00028700,0.00066769,-0.00006731,-0.00006
 780,-0.00002752,-0.00003207,0.00000692,0.00000803,0.00115053,0.0010759
 4,-0.00147034,0.00019236,0.00002507,0.00053619,0.00996937,-0.01095002,
 0.00559629,-0.00064843,-0.00072064,0.00051755,-0.04479167,0.04974245,-
 0.07072705,0.00570899,-0.00704764,0.00231269,0.04902944,-0.05609309,0.
 06923075,0.00006726,0.00005192,-0.00008083,-0.00006120,0.00000985,-0.0
 0003853,-0.00001705,0.00000506,-0.00000916,0.00003171,-0.00000148,0.00
 000312,-0.00006561,-0.00022447,0.00007239,0.00007486,0.00003600,-0.000
 26105,0.00004159,0.00002949,0.00003330,0.00190403,-0.00012226,0.001581
 19,-0.00017382,0.00007750,-0.00109095,0.00266439,-0.00265343,0.0308649
 3,-0.00454266,-0.00036580,0.00233386,-0.05168873,0.00349361,-0.0240363
 6,-0.00124505,0.00040761,-0.01297306,-0.00194610,-0.00266089,-0.021051
 71,0.05505415,0.00000301,-0.00002780,-0.00001918,-0.00000745,0.0000142
 4,-0.00000435,0.00001107,-0.00000680,-0.00000557,-0.00000863,-0.000002
 82,0.00000571,0.00008939,0.00002551,0.00004987,0.00002646,-0.00003727,
 -0.00002414,-0.00004164,-0.00006328,0.00002741,0.00011872,-0.00024765,
 -0.00070820,-0.00002254,0.00019783,-0.00016809,-0.00154349,-0.00091709
 ,0.00797760,-0.00146888,0.00077186,0.00090663,0.00378544,-0.04715675,-
 0.00428778,-0.00379726,-0.00083454,-0.03075964,0.00079838,0.00120357,0
 .02407922,0.00185816,0.04723358,0.00004633,0.00003160,-0.00003557,0.00
 004080,-0.00000107,0.00003416,0.00001216,-0.00001094,0.00000795,0.0000
 3935,-0.00000429,0.00000608,0.00004614,-0.00003173,0.00053444,-0.00025
 355,-0.00007629,0.00012732,-0.00005438,-0.00001791,-0.00004634,-0.0014
 1642,0.00060637,0.00036968,0.00099947,-0.00042662,0.00090693,0.0020536
 0,0.00363730,-0.01485123,0.00235295,-0.00146111,-0.00054552,-0.0261363
 2,-0.00373038,-0.30081124,-0.00209372,-0.00094900,-0.00908626,-0.00079
 586,-0.00034791,-0.00662449,0.02500817,0.00296684,0.32986788,0.0008020
 3,-0.00078519,-0.00008762,-0.00010289,-0.00007823,-0.00033111,-0.00069
 078,-0.00038816,0.00016652,0.00017597,0.00018128,-0.00009558,0.0026307
 2,-0.02840021,-0.00635994,0.00094800,0.00066370,-0.00065607,-0.0049682
 2,-0.00399298,0.00168717,-0.07489985,0.01014791,0.00564247,0.00083871,
 0.00127497,0.00057180,-0.00625329,0.02738619,0.00371366,-0.00049221,-0
 .00086507,-0.00045377,0.00039098,-0.00102831,-0.00082892,-0.00124896,-
 0.00019160,0.00015897,-0.00022885,-0.00019848,0.00001906,-0.00012078,0
 .00030402,0.00027481,0.57675181,-0.00071715,0.00108644,0.00011716,-0.0
 0009417,-0.00004983,-0.00007664,0.00011776,-0.00086150,-0.00042395,0.0
 0063563,-0.00043593,0.00016356,-0.00465543,-0.02277393,-0.00401355,0.0
 0156987,0.00130660,-0.00078942,-0.00155807,-0.00071106,0.00041278,-0.0
 0506201,-0.14896764,-0.02727243,-0.00005908,-0.00641980,-0.00197435,0.
 01633238,-0.02006674,0.00302884,-0.00066927,0.00080916,-0.00015165,-0.
 00030783,0.00066961,-0.00004014,-0.00046003,-0.00031370,-0.00023265,-0
 .00042680,-0.00012748,0.00017316,0.00004404,0.00001121,-0.00008924,0.0
 1002945,0.45177473,0.00046735,-0.00032986,-0.00049495,0.00009987,0.000
 04362,0.00008909,-0.00028958,0.00025483,0.00052738,0.00005240,0.000332
 92,0.00016668,-0.00033612,0.01002114,0.00314718,0.00001696,0.00150666,
 0.00058204,0.00221865,0.00206327,-0.00036362,0.00015909,-0.01943526,-0
 .08320508,0.00251786,-0.03499813,-0.00999927,-0.00006079,0.01015797,0.
 00368952,-0.00066272,-0.00029948,-0.00054375,0.00008707,-0.00008002,-0
 .00053214,-0.00005476,-0.00016246,0.00023505,-0.00014217,0.00012829,0.
 00019763,-0.00026479,0.00003237,0.00018940,0.00014202,-0.03407347,0.56
 366517,-0.00096305,-0.00055885,0.00010643,0.00002989,0.00009633,0.0000
 2836,-0.00085933,-0.00154227,-0.00012778,0.00013692,-0.00027093,0.0000
 4375,-0.00029368,0.00009486,0.00032667,0.00000479,-0.00004336,0.000034
 66,0.00010438,0.00016728,-0.00007920,-0.00032414,-0.00033987,-0.000280
 89,0.00013910,0.00029337,0.00041721,0.00016837,0.00178435,0.00070774,-
 0.00005975,0.00006461,-0.00004264,0.00022178,-0.00017479,-0.00029204,0
 .00025277,-0.00012934,0.00002366,0.00002304,0.00008266,0.00002134,-0.0
 0003112,0.00003198,0.00004208,-0.21857156,0.08921358,-0.08724939,0.238
 18104,0.00002962,-0.00067099,-0.00018053,-0.00008993,-0.00005546,-0.00
 009529,-0.00149167,0.00003702,0.00027387,-0.00018324,0.00052913,-0.000
 02933,0.00061576,0.00107786,0.00042211,-0.00016034,-0.00012214,-0.0000
 1010,-0.00000599,0.00037265,-0.00020051,0.02624812,-0.01389662,0.01345
 262,-0.00041035,0.00163327,-0.00017994,-0.00054142,-0.00601573,-0.0019
 8888,0.00035801,0.00012814,0.00033081,-0.00040969,0.00018618,0.0004731
 0,0.00060314,0.00028880,-0.00011239,0.00028672,0.00008111,-0.00007000,
 0.00009460,-0.00005097,-0.00011677,0.08933881,-0.09453846,0.04634440,-
 0.09787374,0.10253589,-0.00060351,0.00040582,0.00050421,-0.00000035,-0
 .00015338,-0.00018384,0.00034727,-0.00041060,0.00008579,0.00007041,-0.
 00026630,-0.00013807,-0.00053394,0.00067788,-0.00006229,-0.00005578,0.
 00003104,0.00004443,0.00020325,0.00006770,-0.00004731,0.00872541,-0.00
 499340,0.00320852,0.00033566,0.00071082,0.00053545,-0.00062248,-0.0008
 6958,0.00095702,0.00033814,-0.00036407,0.00012035,0.00015651,0.0002111
 6,0.00008287,0.00000180,-0.00008009,-0.00009381,-0.00005564,-0.0000225
 0,-0.00000651,-0.00000468,-0.00000090,0.00000319,-0.08676649,0.0462132
 1,-0.09512049,0.09670319,-0.04944850,0.09778741,-0.00011172,-0.0000094
 1,0.00005155,0.00004688,0.00011541,0.00013012,-0.00003693,0.00006177,-
 0.00013832,-0.00000703,-0.00004273,0.00004630,0.00035907,-0.00016489,-
 0.00125372,0.00019726,-0.00006712,0.00012492,-0.00005931,0.00005313,0.
 00010153,-0.00106928,0.00019762,0.00200147,0.00074427,0.00039142,0.000
 00593,0.00013105,-0.00060119,0.00090079,0.00013195,0.00018238,-0.00006
 348,-0.00023421,0.00009468,-0.00000094,0.00000714,0.00007594,0.0000992
 4,-0.00001679,0.00005330,-0.00000585,0.00004727,-0.00008532,-0.0001168
 9,-0.05134282,0.00157381,0.01520186,0.00296253,-0.00335901,-0.02751491
 ,0.04903490,-0.00014104,-0.00003981,0.00009433,0.00018012,-0.00002684,
 0.00010938,-0.00007901,0.00002099,-0.00001423,-0.00007454,0.00004710,0
 .00000152,0.00092424,0.00205276,-0.00129387,-0.00037680,-0.00008672,0.
 00103860,0.00026626,0.00032986,0.00039515,0.00224503,-0.00453840,-0.03
 307468,0.00053644,-0.00665063,-0.00190743,-0.00146521,0.00207536,-0.00
 063183,0.00020326,-0.00040934,0.00030845,0.00018530,-0.00003065,0.0000
 1622,0.00001765,-0.00000928,0.00005745,0.00003856,0.00002880,-0.000000
 20,-0.00013679,-0.00003895,0.00012673,0.00147954,-0.05006535,-0.022770
 87,-0.00234531,0.00095312,0.01393155,-0.00194421,0.05496207,-0.0001967
 4,-0.00022262,0.00011547,0.00011224,0.00011713,0.00012249,-0.00007217,
 0.00001875,-0.00021967,-0.00006039,-0.00004944,0.00001105,0.00038041,0
 .00081148,0.00044756,-0.00061344,-0.00061081,0.00055240,-0.00007339,0.
 00000772,0.00037876,0.00057421,-0.00184121,-0.00856748,0.00028909,-0.0
 0192754,0.00100781,-0.00061663,0.00077069,0.00084208,0.00043000,-0.000
 44825,0.00020932,0.00016856,-0.00005833,0.00009506,0.00002318,-0.00000
 433,-0.00012640,0.00002774,-0.00003919,0.00000690,-0.00009333,0.000041
 04,0.00008475,0.01547089,-0.02231242,-0.30606318,0.00150693,-0.0008538
 0,-0.01224039,-0.01731551,0.02707500,0.33262980,-0.00011669,0.00021958
 ,0.00028653,0.00002228,-0.00005500,-0.00006157,0.00040486,-0.00027870,
 -0.00010005,0.00004914,-0.00024293,-0.00001941,0.00041176,0.00080552,-
 0.00033405,-0.00004014,0.00010955,0.00001694,0.00014247,0.00011672,0.0
 0002934,0.00283018,0.00204721,-0.00153132,0.00011915,-0.00040816,-0.00
 043508,0.00031666,0.00066180,-0.00039457,0.00004427,0.00005576,0.00002
 985,0.00005459,0.00011323,0.00007912,-0.00002075,0.00026298,0.00003595
 ,0.00013749,0.00003041,-0.00007360,0.00000686,-0.00005141,-0.00004871,
 -0.22361802,-0.10550669,0.06809717,-0.02112199,-0.01304939,0.00927613,
 -0.00078422,0.00048650,0.00005835,0.24116208,0.00081615,-0.00019429,0.
 00009655,-0.00006560,0.00002685,-0.00006405,-0.00021677,0.00037449,0.0
 0006058,-0.00014408,0.00018799,0.00000331,0.00256494,-0.00619052,-0.00
 283645,0.00027402,0.00021613,0.00000993,-0.00191673,-0.00127320,0.0005
 3665,-0.02540127,-0.01611635,0.01141175,0.00018729,0.00138040,-0.00026
 786,-0.00176036,0.00133505,0.00038566,0.00009508,-0.00010192,-0.000112
 48,-0.00018706,-0.00047264,-0.00019334,0.00078120,0.00020623,0.0001005
 2,0.00018664,0.00029493,-0.00001559,0.00005729,-0.00007389,-0.00010558
 ,-0.10487763,-0.11032635,0.04126409,0.01144942,0.00752720,-0.00563986,
 0.00347442,0.00142591,-0.00047387,0.11468306,0.12177398,-0.00002458,-0
 .00002105,0.00019020,0.00003318,0.00003124,0.00001041,0.00007845,-0.00
 004505,-0.00016882,0.00003477,-0.00008281,-0.00000502,0.00040136,-0.00
 137724,-0.00026094,-0.00020902,-0.00030028,0.00044878,-0.00024911,-0.0
 0028601,0.00052400,-0.00832962,-0.00459342,0.00223905,-0.00043289,0.00
 051542,0.00044536,0.00020208,0.00055933,-0.00015782,0.00001573,0.00005
 909,0.00004186,0.00012805,0.00014205,0.00023055,-0.00028502,-0.0001172
 5,0.00011989,-0.00004775,-0.00008429,-0.00010730,0.00000749,-0.0001088
 4,-0.00013113,0.06773211,0.04134122,-0.07616665,-0.01189010,-0.0080108
 6,0.00456347,0.02774591,0.01653873,-0.00928631,-0.07491102,-0.04415998
 ,0.07747044\\0.00000006,-0.00000034,-0.00000036,0.00000048,-0.00000019
 ,-0.00000043,-0.00000007,-0.00000033,-0.00000049,0.00000008,-0.0000004
 7,-0.00000083,-0.00000007,-0.00000015,-0.00000076,-0.00000029,-0.00000
 025,-0.00000052,0.00000013,-0.00000033,-0.00000040,0.00000109,-0.00000
 153,0.00000043,0.00000037,0.00000038,0.00000008,-0.00000050,-0.0000005
 6,-0.00000041,-0.00000011,0.00000032,-0.00000002,-0.00000127,0.,0.0000
 0132,0.00000058,0.00000089,0.00000040,0.00000033,0.00000055,0.00000050
 ,0.00000057,0.00000076,0.00000039,-0.00000071,0.00000180,0.00000052,-0
 .00000011,-0.00000029,0.00000004,-0.00000044,-0.00000021,0.00000012,-0
 .00000011,-0.00000004,0.00000042\\\@


 THERE IS AN OLD, OLD RECIPE IN MAINE FOR STEWING COOT. PLACE THE
 BIRD IN A KETTLE OF WATER WITH A RED BUILDING BRICK FREE OF MORTAR AND
 BLEMISHES. PARBOIL THE COOT AND BRICK TOGETHER FOR THREE HOURS.
 POUR OFF THE WATER, REFILL THE KETTLE, AND AGAIN PARBOIL FOR THREE HOURS.
 ONCE AGAIN POUR OFF THE WATER, FOR THE LAST TIME ADD FRESH WATER,
 AND LET THE COOT AND BRICK SIMMER TOGETHER OVERNIGHT. IN THE MORNING,
 THROW AWAY THE COOT AND EAT THE BRICK.
 Job cpu time:       0 days  0 hours 35 minutes 11.9 seconds.
 File lengths (MBytes):  RWF=     64 Int=      0 D2E=      0 Chk=      3 Scr=      1
 Normal termination of Gaussian 09 at Sat Nov  7 02:26:20 2015.
