 Entering Gaussian System, Link 0=/home/hetanjin/apps/g09D01/g09/g09
 Input=C6H14_3_r005_C13_2_opt_B3L.gjf
 Output=C6H14_3_r005_C13_2_opt_B3L.log
 Initial command:
 /home/hetanjin/apps/g09D01/g09/l1.exe "/state/partition1/Gau-10991.inp" -scrdir="/state/partition1/"
 Entering Link 1 = /home/hetanjin/apps/g09D01/g09/l1.exe PID=     10993.
  
 Copyright (c) 1988,1990,1992,1993,1995,1998,2003,2009,2013,
            Gaussian, Inc.  All Rights Reserved.
  
 This is part of the Gaussian(R) 09 program.  It is based on
 the Gaussian(R) 03 system (copyright 2003, Gaussian, Inc.),
 the Gaussian(R) 98 system (copyright 1998, Gaussian, Inc.),
 the Gaussian(R) 94 system (copyright 1995, Gaussian, Inc.),
 the Gaussian 92(TM) system (copyright 1992, Gaussian, Inc.),
 the Gaussian 90(TM) system (copyright 1990, Gaussian, Inc.),
 the Gaussian 88(TM) system (copyright 1988, Gaussian, Inc.),
 the Gaussian 86(TM) system (copyright 1986, Carnegie Mellon
 University), and the Gaussian 82(TM) system (copyright 1983,
 Carnegie Mellon University). Gaussian is a federally registered
 trademark of Gaussian, Inc.
  
 This software contains proprietary and confidential information,
 including trade secrets, belonging to Gaussian, Inc.
  
 This software is provided under written license and may be
 used, copied, transmitted, or stored only in accord with that
 written license.
  
 The following legend is applicable only to US Government
 contracts under FAR:
  
                    RESTRICTED RIGHTS LEGEND
  
 Use, reproduction and disclosure by the US Government is
 subject to restrictions as set forth in subparagraphs (a)
 and (c) of the Commercial Computer Software - Restricted
 Rights clause in FAR 52.227-19.
  
 Gaussian, Inc.
 340 Quinnipiac St., Bldg. 40, Wallingford CT 06492
  
  
 ---------------------------------------------------------------
 Warning -- This program may not be used in any manner that
 competes with the business of Gaussian, Inc. or will provide
 assistance to any competitor of Gaussian, Inc.  The licensee
 of this program is prohibited from giving any competitor of
 Gaussian, Inc. access to this program.  By using this program,
 the user acknowledges that Gaussian, Inc. is engaged in the
 business of creating and licensing software in the field of
 computational chemistry and represents and warrants to the
 licensee that it is not a competitor of Gaussian, Inc. and that
 it will not use this program in any manner prohibited above.
 ---------------------------------------------------------------
  

 Cite this work as:
 Gaussian 09, Revision D.01,
 M. J. Frisch, G. W. Trucks, H. B. Schlegel, G. E. Scuseria, 
 M. A. Robb, J. R. Cheeseman, G. Scalmani, V. Barone, B. Mennucci, 
 G. A. Petersson, H. Nakatsuji, M. Caricato, X. Li, H. P. Hratchian, 
 A. F. Izmaylov, J. Bloino, G. Zheng, J. L. Sonnenberg, M. Hada, 
 M. Ehara, K. Toyota, R. Fukuda, J. Hasegawa, M. Ishida, T. Nakajima, 
 Y. Honda, O. Kitao, H. Nakai, T. Vreven, J. A. Montgomery, Jr., 
 J. E. Peralta, F. Ogliaro, M. Bearpark, J. J. Heyd, E. Brothers, 
 K. N. Kudin, V. N. Staroverov, T. Keith, R. Kobayashi, J. Normand, 
 K. Raghavachari, A. Rendell, J. C. Burant, S. S. Iyengar, J. Tomasi, 
 M. Cossi, N. Rega, J. M. Millam, M. Klene, J. E. Knox, J. B. Cross, 
 V. Bakken, C. Adamo, J. Jaramillo, R. Gomperts, R. E. Stratmann, 
 O. Yazyev, A. J. Austin, R. Cammi, C. Pomelli, J. W. Ochterski, 
 R. L. Martin, K. Morokuma, V. G. Zakrzewski, G. A. Voth, 
 P. Salvador, J. J. Dannenberg, S. Dapprich, A. D. Daniels, 
 O. Farkas, J. B. Foresman, J. V. Ortiz, J. Cioslowski, 
 and D. J. Fox, Gaussian, Inc., Wallingford CT, 2013.
 
 ******************************************
 Gaussian 09:  ES64L-G09RevD.01 24-Apr-2013
                 7-Nov-2015 
 ******************************************
 %mem=6GB
 %nprocshared=4
 Will use up to    4 processors via shared memory.
 ----------------------------------------------
 #p B3LYP/6-31G(d) opt=tight int=ultrafine freq
 ----------------------------------------------
 1/7=10,14=-1,18=20,19=15,26=4,38=1/1,3;
 2/9=110,12=2,17=6,18=5,40=1/2;
 3/5=1,6=6,7=1,11=2,16=1,25=1,30=1,71=1,74=-5,75=-5/1,2,3;
 4//1;
 5/5=2,38=5/2;
 6/7=2,8=2,9=2,10=2,28=1/1;
 7//1,2,3,16;
 1/7=10,14=-1,18=20,19=15,26=4/3(2);
 2/9=110/2;
 99//99;
 2/9=110/2;
 3/5=1,6=6,7=1,11=2,16=1,25=1,30=1,71=1,74=-5,75=-5/1,2,3;
 4/5=5,16=3,69=1/1;
 5/5=2,38=5/2;
 7//1,2,3,16;
 1/7=10,14=-1,18=20,19=15,26=4/3(-5);
 2/9=110/2;
 6/7=2,8=2,9=2,10=2,19=2,28=1/1;
 99/9=1/99;
 Leave Link    1 at Sat Nov  7 02:05:02 2015, MaxMem=   805306368 cpu:         0.2
 (Enter /home/hetanjin/apps/g09D01/g09/l101.exe)
 ---------------------------------------------
 using B3LYP/6-31G(d) to do opt and freq calc.
 ---------------------------------------------
 Symbolic Z-matrix:
 Charge =  0 Multiplicity = 2
 C                    -2.58543  -0.17306  -0.29185 
 H                    -2.56946  -0.21059  -1.38848 
 H                    -2.79867   0.86056   0.00159 
 H                    -3.42636  -0.7886    0.04788 
 C                    -1.2643   -0.68112   0.2975 
 H                    -1.30509  -0.61825   1.39536 
 H                    -1.16192  -1.74928   0.0599 
 C                     0.        0.05117  -0.19883 
 H                     0.        0.00139  -1.30033 
 C                     1.2643   -0.68112   0.29751 
 H                     1.16193  -1.74928   0.05992 
 H                     1.30509  -0.61823   1.39536 
 C                     2.58543  -0.17306  -0.29185 
 H                     2.79867   0.86057   0.00157 
 H                     2.56946  -0.21061  -1.38848 
 C                    0.         1.53336   0.20729 
 H                    -0.88093   2.05894  -0.1759 
 H                    -0.00001   1.63604   1.30101 
 H                     0.88093   2.05894  -0.17589 
 
 NAtoms=     19 NQM=       19 NQMF=       0 NMMI=      0 NMMIF=      0
                NMic=       0 NMicF=      0.
                    Isotopes and Nuclear Properties:
 (Nuclear quadrupole moments (NQMom) in fm**2, nuclear magnetic moments (NMagM)
  in nuclear magnetons)

  Atom         1           2           3           4           5           6           7           8           9          10
 IAtWgt=          12           1           1           1          12           1           1          12           1          12
 AtmWgt=  12.0000000   1.0078250   1.0078250   1.0078250  12.0000000   1.0078250   1.0078250  12.0000000   1.0078250  12.0000000
 NucSpn=           0           1           1           1           0           1           1           0           1           0
 AtZEff=   0.0000000   0.0000000   0.0000000   0.0000000   0.0000000   0.0000000   0.0000000   0.0000000   0.0000000   0.0000000
 NQMom=    0.0000000   0.0000000   0.0000000   0.0000000   0.0000000   0.0000000   0.0000000   0.0000000   0.0000000   0.0000000
 NMagM=    0.0000000   2.7928460   2.7928460   2.7928460   0.0000000   2.7928460   2.7928460   0.0000000   2.7928460   0.0000000
 AtZNuc=   6.0000000   1.0000000   1.0000000   1.0000000   6.0000000   1.0000000   1.0000000   6.0000000   1.0000000   6.0000000

  Atom        11          12          13          14          15          16          17          18          19
 IAtWgt=           1           1          12           1           1          12           1           1           1
 AtmWgt=   1.0078250   1.0078250  12.0000000   1.0078250   1.0078250  12.0000000   1.0078250   1.0078250   1.0078250
 NucSpn=           1           1           0           1           1           0           1           1           1
 AtZEff=   0.0000000   0.0000000   0.0000000   0.0000000   0.0000000   0.0000000   0.0000000   0.0000000   0.0000000
 NQMom=    0.0000000   0.0000000   0.0000000   0.0000000   0.0000000   0.0000000   0.0000000   0.0000000   0.0000000
 NMagM=    2.7928460   2.7928460   0.0000000   2.7928460   2.7928460   0.0000000   2.7928460   2.7928460   2.7928460
 AtZNuc=   1.0000000   1.0000000   6.0000000   1.0000000   1.0000000   6.0000000   1.0000000   1.0000000   1.0000000
 Leave Link  101 at Sat Nov  7 02:05:02 2015, MaxMem=   805306368 cpu:         0.7
 (Enter /home/hetanjin/apps/g09D01/g09/l103.exe)

 GradGradGradGradGradGradGradGradGradGradGradGradGradGradGradGradGradGrad
 Berny optimization.
 Initialization pass.
                           ----------------------------
                           !    Initial Parameters    !
                           ! (Angstroms and Degrees)  !
 --------------------------                            --------------------------
 ! Name  Definition              Value          Derivative Info.                !
 --------------------------------------------------------------------------------
 ! R1    R(1,2)                  1.0974         estimate D2E/DX2                !
 ! R2    R(1,3)                  1.0954         estimate D2E/DX2                !
 ! R3    R(1,4)                  1.0961         estimate D2E/DX2                !
 ! R4    R(1,5)                  1.5332         estimate D2E/DX2                !
 ! R5    R(5,6)                  1.1004         estimate D2E/DX2                !
 ! R6    R(5,7)                  1.099          estimate D2E/DX2                !
 ! R7    R(5,8)                  1.5431         estimate D2E/DX2                !
 ! R8    R(8,9)                  1.1026         estimate D2E/DX2                !
 ! R9    R(8,10)                 1.5431         estimate D2E/DX2                !
 ! R10   R(8,16)                 1.5368         estimate D2E/DX2                !
 ! R11   R(10,11)                1.099          estimate D2E/DX2                !
 ! R12   R(10,12)                1.1004         estimate D2E/DX2                !
 ! R13   R(10,13)                1.5332         estimate D2E/DX2                !
 ! R14   R(13,14)                1.0954         estimate D2E/DX2                !
 ! R15   R(13,15)                1.0974         estimate D2E/DX2                !
 ! R16   R(16,17)                1.095          estimate D2E/DX2                !
 ! R17   R(16,18)                1.0985         estimate D2E/DX2                !
 ! R18   R(16,19)                1.095          estimate D2E/DX2                !
 ! A1    A(2,1,3)              107.6254         estimate D2E/DX2                !
 ! A2    A(2,1,4)              107.559          estimate D2E/DX2                !
 ! A3    A(2,1,5)              111.115          estimate D2E/DX2                !
 ! A4    A(3,1,4)              107.3082         estimate D2E/DX2                !
 ! A5    A(3,1,5)              112.1749         estimate D2E/DX2                !
 ! A6    A(4,1,5)              110.8451         estimate D2E/DX2                !
 ! A7    A(1,5,6)              109.4277         estimate D2E/DX2                !
 ! A8    A(1,5,7)              108.6152         estimate D2E/DX2                !
 ! A9    A(1,5,8)              115.1572         estimate D2E/DX2                !
 ! A10   A(6,5,7)              105.9422         estimate D2E/DX2                !
 ! A11   A(6,5,8)              108.915          estimate D2E/DX2                !
 ! A12   A(7,5,8)              108.3832         estimate D2E/DX2                !
 ! A13   A(5,8,9)              107.4517         estimate D2E/DX2                !
 ! A14   A(5,8,10)             110.0384         estimate D2E/DX2                !
 ! A15   A(5,8,16)             111.882          estimate D2E/DX2                !
 ! A16   A(9,8,10)             107.4518         estimate D2E/DX2                !
 ! A17   A(9,8,16)             107.9103         estimate D2E/DX2                !
 ! A18   A(10,8,16)            111.882          estimate D2E/DX2                !
 ! A19   A(8,10,11)            108.3833         estimate D2E/DX2                !
 ! A20   A(8,10,12)            108.915          estimate D2E/DX2                !
 ! A21   A(8,10,13)            115.1571         estimate D2E/DX2                !
 ! A22   A(11,10,12)           105.9423         estimate D2E/DX2                !
 ! A23   A(11,10,13)           108.6152         estimate D2E/DX2                !
 ! A24   A(12,10,13)           109.4277         estimate D2E/DX2                !
 ! A25   A(10,13,14)           112.1749         estimate D2E/DX2                !
 ! A26   A(10,13,15)           111.1149         estimate D2E/DX2                !
 ! A27   A(14,13,15)           107.6254         estimate D2E/DX2                !
 ! A28   A(8,16,17)            111.7423         estimate D2E/DX2                !
 ! A29   A(8,16,18)            110.6857         estimate D2E/DX2                !
 ! A30   A(8,16,19)            111.7423         estimate D2E/DX2                !
 ! A31   A(17,16,18)           107.6699         estimate D2E/DX2                !
 ! A32   A(17,16,19)           107.12           estimate D2E/DX2                !
 ! A33   A(18,16,19)           107.67           estimate D2E/DX2                !
 ! D1    D(2,1,5,6)            179.2076         estimate D2E/DX2                !
 ! D2    D(2,1,5,7)            -65.5701         estimate D2E/DX2                !
 ! D3    D(2,1,5,8)             56.1554         estimate D2E/DX2                !
 ! D4    D(3,1,5,6)             58.6833         estimate D2E/DX2                !
 ! D5    D(3,1,5,7)            173.9055         estimate D2E/DX2                !
 ! D6    D(3,1,5,8)            -64.369          estimate D2E/DX2                !
 ! D7    D(4,1,5,6)            -61.2484         estimate D2E/DX2                !
 ! D8    D(4,1,5,7)             53.9738         estimate D2E/DX2                !
 ! D9    D(4,1,5,8)            175.6993         estimate D2E/DX2                !
 ! D10   D(1,5,8,9)            -54.8991         estimate D2E/DX2                !
 ! D11   D(1,5,8,10)          -171.5975         estimate D2E/DX2                !
 ! D12   D(1,5,8,16)            63.3728         estimate D2E/DX2                !
 ! D13   D(6,5,8,9)           -178.2239         estimate D2E/DX2                !
 ! D14   D(6,5,8,10)            65.0777         estimate D2E/DX2                !
 ! D15   D(6,5,8,16)           -59.952          estimate D2E/DX2                !
 ! D16   D(7,5,8,9)             66.9516         estimate D2E/DX2                !
 ! D17   D(7,5,8,10)           -49.7467         estimate D2E/DX2                !
 ! D18   D(7,5,8,16)          -174.7765         estimate D2E/DX2                !
 ! D19   D(5,8,10,11)           49.746          estimate D2E/DX2                !
 ! D20   D(5,8,10,12)          -65.0785         estimate D2E/DX2                !
 ! D21   D(5,8,10,13)          171.5967         estimate D2E/DX2                !
 ! D22   D(9,8,10,11)          -66.9523         estimate D2E/DX2                !
 ! D23   D(9,8,10,12)          178.2232         estimate D2E/DX2                !
 ! D24   D(9,8,10,13)           54.8984         estimate D2E/DX2                !
 ! D25   D(16,8,10,11)         174.7757         estimate D2E/DX2                !
 ! D26   D(16,8,10,12)          59.9512         estimate D2E/DX2                !
 ! D27   D(16,8,10,13)         -63.3736         estimate D2E/DX2                !
 ! D28   D(5,8,16,17)          -57.9911         estimate D2E/DX2                !
 ! D29   D(5,8,16,18)           62.0011         estimate D2E/DX2                !
 ! D30   D(5,8,16,19)         -178.0067         estimate D2E/DX2                !
 ! D31   D(9,8,16,17)           60.0075         estimate D2E/DX2                !
 ! D32   D(9,8,16,18)          179.9997         estimate D2E/DX2                !
 ! D33   D(9,8,16,19)          -60.0081         estimate D2E/DX2                !
 ! D34   D(10,8,16,17)         178.0062         estimate D2E/DX2                !
 ! D35   D(10,8,16,18)         -62.0016         estimate D2E/DX2                !
 ! D36   D(10,8,16,19)          57.9905         estimate D2E/DX2                !
 ! D37   D(8,10,13,14)          64.3686         estimate D2E/DX2                !
 ! D38   D(8,10,13,15)         -56.1557         estimate D2E/DX2                !
 ! D39   D(11,10,13,14)       -173.9059         estimate D2E/DX2                !
 ! D40   D(11,10,13,15)         65.5698         estimate D2E/DX2                !
 ! D41   D(12,10,13,14)        -58.6837         estimate D2E/DX2                !
 ! D42   D(12,10,13,15)       -179.208          estimate D2E/DX2                !
 --------------------------------------------------------------------------------
 Trust Radius=3.00D-01 FncErr=1.00D-07 GrdErr=1.00D-06
 Number of steps in this run=    103 maximum allowed number of steps=    114.
 GradGradGradGradGradGradGradGradGradGradGradGradGradGradGradGradGradGrad

 Leave Link  103 at Sat Nov  7 02:05:02 2015, MaxMem=   805306368 cpu:         0.0
 (Enter /home/hetanjin/apps/g09D01/g09/l202.exe)
                          Input orientation:                          
 ---------------------------------------------------------------------
 Center     Atomic      Atomic             Coordinates (Angstroms)
 Number     Number       Type             X           Y           Z
 ---------------------------------------------------------------------
      1          6           0       -2.585432   -0.173063   -0.291849
      2          1           0       -2.569458   -0.210592   -1.388477
      3          1           0       -2.798673    0.860561    0.001587
      4          1           0       -3.426358   -0.788597    0.047878
      5          6           0       -1.264298   -0.681121    0.297502
      6          1           0       -1.305088   -0.618252    1.395357
      7          1           0       -1.161923   -1.749281    0.059899
      8          6           0        0.000001    0.051166   -0.198829
      9          1           0        0.000003    0.001388   -1.300329
     10          6           0        1.264300   -0.681115    0.297508
     11          1           0        1.161927   -1.749278    0.059916
     12          1           0        1.305092   -0.618234    1.395362
     13          6           0        2.585433   -0.173062   -0.291851
     14          1           0        2.798671    0.860567    0.001568
     15          1           0        2.569459   -0.210609   -1.388479
     16          6           0       -0.000004    1.533363    0.207287
     17          1           0       -0.880930    2.058937   -0.175897
     18          1           0       -0.000012    1.636037    1.301012
     19          1           0        0.880926    2.058939   -0.175885
 ---------------------------------------------------------------------
                    Distance matrix (angstroms):
                    1          2          3          4          5
     1  C    0.000000
     2  H    1.097386   0.000000
     3  H    1.095425   1.769798   0.000000
     4  H    1.096108   1.769600   1.765178   0.000000
     5  C    1.533249   2.183430   2.195144   2.179075   0.000000
     6  H    2.164287   3.084566   2.521959   2.518830   1.100410
     7  H    2.152805   2.538998   3.081173   2.459822   1.099046
     8  C    2.596805   2.843572   2.920251   3.536383   1.543062
     9  H    2.780636   2.579697   3.204021   3.765858   2.148800
    10  C    3.927581   4.214456   4.355696   4.698525   2.528598
    11  H    4.080550   4.288197   4.743523   4.687794   2.661574
    12  H    4.263923   4.788326   4.579337   4.922536   2.794820
    13  C    5.170865   5.270379   5.490271   6.052762   3.927581
    14  H    5.490269   5.647691   5.597344   6.439944   4.355697
    15  H    5.270380   5.138917   5.647701   6.192497   4.214452
    16  C    3.137748   3.491409   2.885745   4.142078   2.551572
    17  H    2.810800   3.077700   2.268335   3.825928   2.806955
    18  H    3.534748   4.152763   3.181567   4.380530   2.823946
    19  H    4.124429   4.304219   3.873894   5.168290   3.511981
                    6          7          8          9         10
     6  H    0.000000
     7  H    1.755896   0.000000
     8  C    2.166289   2.158383   0.000000
     9  H    3.058421   2.503025   1.102624   0.000000
    10  C    2.794813   2.661577   1.543061   2.148800   0.000000
    11  H    3.024696   2.323850   2.158384   2.503031   1.099046
    12  H    2.610180   3.024713   2.166288   3.058421   1.100410
    13  C    4.263921   4.080548   2.596804   2.780631   1.533250
    14  H    4.579344   4.743523   2.920247   3.204008   2.195144
    15  H    4.788322   4.288184   2.843573   2.579693   2.183430
    16  C    2.782841   3.485331   1.536827   2.149384   2.551572
    17  H    3.133064   3.825844   2.192649   2.504775   3.511981
    18  H    2.606519   3.788242   2.182049   3.072304   2.823951
    19  H    3.796684   4.327975   2.192649   2.504779   2.806951
                   11         12         13         14         15
    11  H    0.000000
    12  H    1.755897   0.000000
    13  C    2.152804   2.164287   0.000000
    14  H    3.081173   2.521962   1.095424   0.000000
    15  H    2.538995   3.084567   1.097387   1.769799   0.000000
    16  C    3.485331   2.782834   3.137755   2.885751   3.491425
    17  H    4.327976   3.796682   4.124432   3.873893   4.304228
    18  H    3.788242   2.606518   3.534767   3.181593   4.152788
    19  H    3.825844   3.133048   2.810804   2.268332   3.077723
                   16         17         18         19
    16  C    0.000000
    17  H    1.095029   0.000000
    18  H    1.098534   1.770910   0.000000
    19  H    1.095029   1.761856   1.770910   0.000000
 Stoichiometry    C6H13(2)
 Framework group  C1[X(C6H13)]
 Deg. of freedom    51
 Full point group                 C1      NOp   1
 Largest Abelian subgroup         C1      NOp   1
 Largest concise Abelian subgroup C1      NOp   1
                         Standard orientation:                         
 ---------------------------------------------------------------------
 Center     Atomic      Atomic             Coordinates (Angstroms)
 Number     Number       Type             X           Y           Z
 ---------------------------------------------------------------------
      1          6           0       -2.519173   -0.124912   -0.293805
      2          1           0       -2.502805   -0.164617   -1.390350
      3          1           0       -2.706140    0.914326   -0.002285
      4          1           0       -3.376065   -0.718077    0.045819
      5          6           0       -1.212269   -0.665802    0.298051
      6          1           0       -1.252796   -0.600125    1.395751
      7          1           0       -1.137089   -1.736624    0.062277
      8          6           0        0.071051    0.032943   -0.197817
      9          1           0        0.071144   -0.018605   -1.299236
     10          6           0        1.315491   -0.730786    0.301307
     11          1           0        1.185992   -1.796349    0.065281
     12          1           0        1.356520   -0.667195    1.399112
     13          6           0        2.649979   -0.257813   -0.287159
     14          1           0        2.889350    0.770468    0.004891
     15          1           0        2.634410   -0.296715   -1.383746
     16          6           0        0.108640    1.515307    0.205943
     17          1           0       -0.758008    2.062727   -0.179208
     18          1           0        0.109910    1.619720    1.299503
     19          1           0        1.003264    2.017445   -0.176931
 ---------------------------------------------------------------------
 Rotational constants (GHZ):      6.5719747      1.9158681      1.6419926
 Leave Link  202 at Sat Nov  7 02:05:02 2015, MaxMem=   805306368 cpu:         0.0
 (Enter /home/hetanjin/apps/g09D01/g09/l301.exe)
 Standard basis: 6-31G(d) (6D, 7F)
 Ernie: Thresh=  0.10000D-02 Tol=  0.10000D-05 Strict=F.
 There are   116 symmetry adapted cartesian basis functions of A   symmetry.
 There are   116 symmetry adapted basis functions of A   symmetry.
   116 basis functions,   220 primitive gaussians,   116 cartesian basis functions
    25 alpha electrons       24 beta electrons
       nuclear repulsion energy       246.0907581597 Hartrees.
 IExCor=  402 DFT=T Ex+Corr=B3LYP ExCW=0 ScaHFX=  0.200000
 ScaDFX=  0.800000  0.720000  1.000000  0.810000 ScalE2=  1.000000  1.000000
 IRadAn=      5 IRanWt=     -1 IRanGd=            0 ICorTp=0 IEmpDi=  4
 NAtoms=   19 NActive=   19 NUniq=   19 SFac= 1.00D+00 NAtFMM=   60 NAOKFM=F Big=F
 Integral buffers will be    131072 words long.
 Raffenetti 2 integral format.
 Two-electron integral symmetry is turned on.
 Leave Link  301 at Sat Nov  7 02:05:02 2015, MaxMem=   805306368 cpu:         0.2
 (Enter /home/hetanjin/apps/g09D01/g09/l302.exe)
 NPDir=0 NMtPBC=     1 NCelOv=     1 NCel=       1 NClECP=     1 NCelD=      1
         NCelK=      1 NCelE2=     1 NClLst=     1 CellRange=     0.0.
 One-electron integrals computed using PRISM.
 NBasis=   116 RedAO= T EigKep=  3.71D-03  NBF=   116
 NBsUse=   116 1.00D-06 EigRej= -1.00D+00 NBFU=   116
 Precomputing XC quadrature grid using
 IXCGrd= 4 IRadAn=           5 IRanWt=          -1 IRanGd=           0 AccXCQ= 0.00D+00.
 Generated NRdTot=       0 NPtTot=           0 NUsed=           0 NTot=          32
 NSgBfM=   116   116   116   116   116 MxSgAt=    19 MxSgA2=    19.
 Leave Link  302 at Sat Nov  7 02:05:03 2015, MaxMem=   805306368 cpu:         2.3
 (Enter /home/hetanjin/apps/g09D01/g09/l303.exe)
 DipDrv:  MaxL=1.
 Leave Link  303 at Sat Nov  7 02:05:03 2015, MaxMem=   805306368 cpu:         0.1
 (Enter /home/hetanjin/apps/g09D01/g09/l401.exe)
 ExpMin= 1.61D-01 ExpMax= 3.05D+03 ExpMxC= 4.57D+02 IAcc=3 IRadAn=         5 AccDes= 0.00D+00
 Harris functional with IExCor=  402 and IRadAn=       5 diagonalized for initial guess.
 HarFok:  IExCor=  402 AccDes= 0.00D+00 IRadAn=         5 IDoV= 1 UseB2=F ITyADJ=14
 ICtDFT=  3500011 ScaDFX=  1.000000  1.000000  1.000000  1.000000
 FoFCou: FMM=F IPFlag=           0 FMFlag=      100000 FMFlg1=           0
         NFxFlg=           0 DoJE=T BraDBF=F KetDBF=T FulRan=T
         wScrn=  0.000000 ICntrl=     500 IOpCl=  0 I1Cent=   200000004 NGrid=           0
         NMat0=    1 NMatS0=      1 NMatT0=    0 NMatD0=    1 NMtDS0=    0 NMtDT0=    0
 Petite list used in FoFCou.
 Harris En= -236.438368822418    
 JPrj=0 DoOrth=F DoCkMO=F.
 Initial guess <Sx>= 0.0000 <Sy>= 0.0000 <Sz>= 0.5000 <S**2>= 0.7500 S= 0.5000
 Leave Link  401 at Sat Nov  7 02:05:06 2015, MaxMem=   805306368 cpu:        10.8
 (Enter /home/hetanjin/apps/g09D01/g09/l502.exe)
 UHF open shell SCF:
 Using DIIS extrapolation, IDIIS=  1040.
 Integral symmetry usage will be decided dynamically.
 Keep R1 and R2 ints in memory in canonical form, NReq=47059932.
 IVT=       60514 IEndB=       60514 NGot=   805306368 MDV=   759189273
 LenX=   759189273 LenY=   759175376
 Requested convergence on RMS density matrix=1.00D-08 within 128 cycles.
 Requested convergence on MAX density matrix=1.00D-06.
 Requested convergence on             energy=1.00D-06.
 No special actions if energy rises.
 FoFCou: FMM=F IPFlag=           0 FMFlag=           0 FMFlg1=           0
         NFxFlg=           0 DoJE=F BraDBF=F KetDBF=F FulRan=T
         wScrn=  0.000000 ICntrl=     600 IOpCl=  0 I1Cent=           0 NGrid=           0
         NMat0=    1 NMatS0=   6786 NMatT0=    0 NMatD0=    1 NMtDS0=    0 NMtDT0=    0
 Symmetry not used in FoFCou.
 Integral accuracy reduced to 1.0D-05 until final iterations.

 Cycle   1  Pass 0  IDiag  1:
 E= -236.155360986102    
 DIIS: error= 4.45D-02 at cycle   1 NSaved=   1.
 NSaved= 1 IEnMin= 1 EnMin= -236.155360986102     IErMin= 1 ErrMin= 4.45D-02
 ErrMax= 4.45D-02  0.00D+00 EMaxC= 1.00D-01 BMatC= 8.66D-01 BMatP= 8.66D-01
 IDIUse=3 WtCom= 5.55D-01 WtEn= 4.45D-01
 Coeff-Com:  0.100D+01
 Coeff-En:   0.100D+01
 Coeff:      0.100D+01
 Gap=     0.282 Goal=   None    Shift=    0.000
 Gap=     0.242 Goal=   None    Shift=    0.000
 GapD=    0.242 DampG=1.000 DampE=0.500 DampFc=0.5000 IDamp=-1.
 Damping current iteration by 5.00D-01
 RMSDP=9.44D-03 MaxDP=1.37D-01              OVMax= 1.82D-01

 Cycle   2  Pass 0  IDiag  1:
 E= -236.264491474640     Delta-E=       -0.109130488538 Rises=F Damp=T
 DIIS: error= 8.70D-03 at cycle   2 NSaved=   2.
 NSaved= 2 IEnMin= 2 EnMin= -236.264491474640     IErMin= 2 ErrMin= 8.70D-03
 ErrMax= 8.70D-03  0.00D+00 EMaxC= 1.00D-01 BMatC= 3.96D-02 BMatP= 8.66D-01
 IDIUse=3 WtCom= 9.13D-01 WtEn= 8.70D-02
 Coeff-Com:  0.714D-01 0.929D+00
 Coeff-En:   0.116D+00 0.884D+00
 Coeff:      0.753D-01 0.925D+00
 Gap=     0.319 Goal=   None    Shift=    0.000
 Gap=     0.266 Goal=   None    Shift=    0.000
 RMSDP=1.54D-03 MaxDP=2.36D-02 DE=-1.09D-01 OVMax= 1.01D-01

 Cycle   3  Pass 0  IDiag  1:
 E= -236.398750949700     Delta-E=       -0.134259475060 Rises=F Damp=F
 DIIS: error= 3.21D-03 at cycle   3 NSaved=   3.
 NSaved= 3 IEnMin= 3 EnMin= -236.398750949700     IErMin= 3 ErrMin= 3.21D-03
 ErrMax= 3.21D-03  0.00D+00 EMaxC= 1.00D-01 BMatC= 7.35D-03 BMatP= 3.96D-02
 IDIUse=3 WtCom= 9.68D-01 WtEn= 3.21D-02
 Coeff-Com: -0.225D-02 0.243D+00 0.759D+00
 Coeff-En:   0.000D+00 0.000D+00 0.100D+01
 Coeff:     -0.218D-02 0.236D+00 0.767D+00
 Gap=     0.318 Goal=   None    Shift=    0.000
 Gap=     0.241 Goal=   None    Shift=    0.000
 RMSDP=6.65D-04 MaxDP=1.80D-02 DE=-1.34D-01 OVMax= 1.90D-02

 Cycle   4  Pass 0  IDiag  1:
 E= -236.399858156864     Delta-E=       -0.001107207164 Rises=F Damp=F
 DIIS: error= 2.11D-03 at cycle   4 NSaved=   4.
 NSaved= 4 IEnMin= 4 EnMin= -236.399858156864     IErMin= 4 ErrMin= 2.11D-03
 ErrMax= 2.11D-03  0.00D+00 EMaxC= 1.00D-01 BMatC= 3.21D-03 BMatP= 7.35D-03
 IDIUse=3 WtCom= 9.79D-01 WtEn= 2.11D-02
 Coeff-Com: -0.620D-02 0.402D-01 0.406D+00 0.560D+00
 Coeff-En:   0.000D+00 0.000D+00 0.294D+00 0.706D+00
 Coeff:     -0.607D-02 0.394D-01 0.404D+00 0.563D+00
 Gap=     0.311 Goal=   None    Shift=    0.000
 Gap=     0.250 Goal=   None    Shift=    0.000
 RMSDP=2.55D-04 MaxDP=5.26D-03 DE=-1.11D-03 OVMax= 9.51D-03

 Cycle   5  Pass 0  IDiag  1:
 E= -236.400670089266     Delta-E=       -0.000811932402 Rises=F Damp=F
 DIIS: error= 3.17D-04 at cycle   5 NSaved=   5.
 NSaved= 5 IEnMin= 5 EnMin= -236.400670089266     IErMin= 5 ErrMin= 3.17D-04
 ErrMax= 3.17D-04  0.00D+00 EMaxC= 1.00D-01 BMatC= 7.83D-05 BMatP= 3.21D-03
 IDIUse=3 WtCom= 9.97D-01 WtEn= 3.17D-03
 Coeff-Com: -0.147D-02-0.266D-02 0.845D-01 0.194D+00 0.725D+00
 Coeff-En:   0.000D+00 0.000D+00 0.000D+00 0.000D+00 0.100D+01
 Coeff:     -0.147D-02-0.265D-02 0.842D-01 0.194D+00 0.726D+00
 Gap=     0.311 Goal=   None    Shift=    0.000
 Gap=     0.249 Goal=   None    Shift=    0.000
 RMSDP=4.56D-05 MaxDP=8.98D-04 DE=-8.12D-04 OVMax= 1.07D-03

 Cycle   6  Pass 0  IDiag  1:
 E= -236.400690223452     Delta-E=       -0.000020134185 Rises=F Damp=F
 DIIS: error= 9.20D-05 at cycle   6 NSaved=   6.
 NSaved= 6 IEnMin= 6 EnMin= -236.400690223452     IErMin= 6 ErrMin= 9.20D-05
 ErrMax= 9.20D-05  0.00D+00 EMaxC= 1.00D-01 BMatC= 4.73D-06 BMatP= 7.83D-05
 IDIUse=1 WtCom= 1.00D+00 WtEn= 0.00D+00
 Coeff-Com: -0.113D-03-0.286D-02-0.843D-03 0.213D-01 0.190D+00 0.793D+00
 Coeff:     -0.113D-03-0.286D-02-0.843D-03 0.213D-01 0.190D+00 0.793D+00
 Gap=     0.312 Goal=   None    Shift=    0.000
 Gap=     0.249 Goal=   None    Shift=    0.000
 RMSDP=1.67D-05 MaxDP=5.19D-04 DE=-2.01D-05 OVMax= 5.12D-04

 Cycle   7  Pass 0  IDiag  1:
 E= -236.400691784228     Delta-E=       -0.000001560776 Rises=F Damp=F
 DIIS: error= 3.31D-05 at cycle   7 NSaved=   7.
 NSaved= 7 IEnMin= 7 EnMin= -236.400691784228     IErMin= 7 ErrMin= 3.31D-05
 ErrMax= 3.31D-05  0.00D+00 EMaxC= 1.00D-01 BMatC= 1.38D-06 BMatP= 4.73D-06
 IDIUse=1 WtCom= 1.00D+00 WtEn= 0.00D+00
 Coeff-Com:  0.239D-03-0.528D-03-0.188D-01-0.331D-01-0.832D-01 0.331D+00
 Coeff-Com:  0.805D+00
 Coeff:      0.239D-03-0.528D-03-0.188D-01-0.331D-01-0.832D-01 0.331D+00
 Coeff:      0.805D+00
 Gap=     0.312 Goal=   None    Shift=    0.000
 Gap=     0.249 Goal=   None    Shift=    0.000
 RMSDP=7.49D-06 MaxDP=2.34D-04 DE=-1.56D-06 OVMax= 2.42D-04

 Initial convergence to 1.0D-05 achieved.  Increase integral accuracy.
 Cycle   8  Pass 1  IDiag  1:
 E= -236.400672711550     Delta-E=        0.000019072677 Rises=F Damp=F
 DIIS: error= 8.69D-06 at cycle   1 NSaved=   1.
 NSaved= 1 IEnMin= 1 EnMin= -236.400672711550     IErMin= 1 ErrMin= 8.69D-06
 ErrMax= 8.69D-06  0.00D+00 EMaxC= 1.00D-01 BMatC= 1.01D-07 BMatP= 1.01D-07
 IDIUse=1 WtCom= 1.00D+00 WtEn= 0.00D+00
 Coeff-Com:  0.100D+01
 Coeff:      0.100D+01
 Gap=     0.312 Goal=   None    Shift=    0.000
 Gap=     0.249 Goal=   None    Shift=    0.000
 RMSDP=7.49D-06 MaxDP=2.34D-04 DE= 1.91D-05 OVMax= 6.17D-05

 Cycle   9  Pass 1  IDiag  1:
 E= -236.400672725710     Delta-E=       -0.000000014160 Rises=F Damp=F
 DIIS: error= 1.04D-05 at cycle   2 NSaved=   2.
 NSaved= 2 IEnMin= 2 EnMin= -236.400672725710     IErMin= 1 ErrMin= 8.69D-06
 ErrMax= 1.04D-05  0.00D+00 EMaxC= 1.00D-01 BMatC= 9.19D-08 BMatP= 1.01D-07
 IDIUse=1 WtCom= 1.00D+00 WtEn= 0.00D+00
 Coeff-Com:  0.487D+00 0.513D+00
 Coeff:      0.487D+00 0.513D+00
 Gap=     0.312 Goal=   None    Shift=    0.000
 Gap=     0.249 Goal=   None    Shift=    0.000
 RMSDP=1.44D-06 MaxDP=3.19D-05 DE=-1.42D-08 OVMax= 3.18D-05

 Cycle  10  Pass 1  IDiag  1:
 E= -236.400672749312     Delta-E=       -0.000000023601 Rises=F Damp=F
 DIIS: error= 1.97D-06 at cycle   3 NSaved=   3.
 NSaved= 3 IEnMin= 3 EnMin= -236.400672749312     IErMin= 3 ErrMin= 1.97D-06
 ErrMax= 1.97D-06  0.00D+00 EMaxC= 1.00D-01 BMatC= 4.24D-09 BMatP= 9.19D-08
 IDIUse=1 WtCom= 1.00D+00 WtEn= 0.00D+00
 Coeff-Com: -0.218D-01 0.103D+00 0.918D+00
 Coeff:     -0.218D-01 0.103D+00 0.918D+00
 Gap=     0.312 Goal=   None    Shift=    0.000
 Gap=     0.249 Goal=   None    Shift=    0.000
 RMSDP=5.04D-07 MaxDP=1.14D-05 DE=-2.36D-08 OVMax= 1.15D-05

 Cycle  11  Pass 1  IDiag  1:
 E= -236.400672751074     Delta-E=       -0.000000001762 Rises=F Damp=F
 DIIS: error= 9.51D-07 at cycle   4 NSaved=   4.
 NSaved= 4 IEnMin= 4 EnMin= -236.400672751074     IErMin= 4 ErrMin= 9.51D-07
 ErrMax= 9.51D-07  0.00D+00 EMaxC= 1.00D-01 BMatC= 9.49D-10 BMatP= 4.24D-09
 IDIUse=1 WtCom= 1.00D+00 WtEn= 0.00D+00
 Coeff-Com: -0.124D+00-0.893D-01 0.313D+00 0.900D+00
 Coeff:     -0.124D+00-0.893D-01 0.313D+00 0.900D+00
 Gap=     0.312 Goal=   None    Shift=    0.000
 Gap=     0.249 Goal=   None    Shift=    0.000
 RMSDP=2.62D-07 MaxDP=8.18D-06 DE=-1.76D-09 OVMax= 6.58D-06

 Cycle  12  Pass 1  IDiag  1:
 E= -236.400672751491     Delta-E=       -0.000000000417 Rises=F Damp=F
 DIIS: error= 2.69D-07 at cycle   5 NSaved=   5.
 NSaved= 5 IEnMin= 5 EnMin= -236.400672751491     IErMin= 5 ErrMin= 2.69D-07
 ErrMax= 2.69D-07  0.00D+00 EMaxC= 1.00D-01 BMatC= 6.84D-11 BMatP= 9.49D-10
 IDIUse=1 WtCom= 1.00D+00 WtEn= 0.00D+00
 Coeff-Com: -0.462D-01-0.402D-01 0.666D-01 0.344D+00 0.676D+00
 Coeff:     -0.462D-01-0.402D-01 0.666D-01 0.344D+00 0.676D+00
 Gap=     0.312 Goal=   None    Shift=    0.000
 Gap=     0.249 Goal=   None    Shift=    0.000
 RMSDP=4.74D-08 MaxDP=1.69D-06 DE=-4.17D-10 OVMax= 1.46D-06

 Cycle  13  Pass 1  IDiag  1:
 E= -236.400672751509     Delta-E=       -0.000000000018 Rises=F Damp=F
 DIIS: error= 1.01D-07 at cycle   6 NSaved=   6.
 NSaved= 6 IEnMin= 6 EnMin= -236.400672751509     IErMin= 6 ErrMin= 1.01D-07
 ErrMax= 1.01D-07  0.00D+00 EMaxC= 1.00D-01 BMatC= 7.26D-12 BMatP= 6.84D-11
 IDIUse=1 WtCom= 1.00D+00 WtEn= 0.00D+00
 Coeff-Com: -0.290D-02-0.486D-02-0.123D-01 0.264D-01 0.261D+00 0.733D+00
 Coeff:     -0.290D-02-0.486D-02-0.123D-01 0.264D-01 0.261D+00 0.733D+00
 Gap=     0.312 Goal=   None    Shift=    0.000
 Gap=     0.249 Goal=   None    Shift=    0.000
 RMSDP=1.71D-08 MaxDP=4.75D-07 DE=-1.76D-11 OVMax= 4.65D-07

 Cycle  14  Pass 1  IDiag  1:
 E= -236.400672751510     Delta-E=       -0.000000000002 Rises=F Damp=F
 DIIS: error= 2.91D-08 at cycle   7 NSaved=   7.
 NSaved= 7 IEnMin= 7 EnMin= -236.400672751510     IErMin= 7 ErrMin= 2.91D-08
 ErrMax= 2.91D-08  0.00D+00 EMaxC= 1.00D-01 BMatC= 5.40D-13 BMatP= 7.26D-12
 IDIUse=1 WtCom= 1.00D+00 WtEn= 0.00D+00
 Coeff-Com:  0.229D-02 0.115D-02-0.893D-02-0.152D-01 0.401D-01 0.255D+00
 Coeff-Com:  0.725D+00
 Coeff:      0.229D-02 0.115D-02-0.893D-02-0.152D-01 0.401D-01 0.255D+00
 Coeff:      0.725D+00
 Gap=     0.312 Goal=   None    Shift=    0.000
 Gap=     0.249 Goal=   None    Shift=    0.000
 RMSDP=5.00D-09 MaxDP=1.16D-07 DE=-1.53D-12 OVMax= 1.25D-07

 SCF Done:  E(UB3LYP) =  -236.400672752     A.U. after   14 cycles
            NFock= 14  Conv=0.50D-08     -V/T= 2.0104
 <Sx>= 0.0000 <Sy>= 0.0000 <Sz>= 0.5000 <S**2>= 0.7528 S= 0.5014
 <L.S>= 0.000000000000E+00
 KE= 2.339647694925D+02 PE=-1.037652823866D+03 EE= 3.211966234625D+02
 Annihilation of the first spin contaminant:
 S**2 before annihilation     0.7528,   after     0.7500
 Leave Link  502 at Sat Nov  7 02:06:06 2015, MaxMem=   805306368 cpu:       212.6
 (Enter /home/hetanjin/apps/g09D01/g09/l601.exe)
 Copying SCF densities to generalized density rwf, IOpCl= 1 IROHF=0.

 **********************************************************************

            Population analysis using the SCF density.

 **********************************************************************

 Orbital symmetries:
 Alpha Orbitals:
       Occupied  (A) (A) (A) (A) (A) (A) (A) (A) (A) (A) (A) (A)
                 (A) (A) (A) (A) (A) (A) (A) (A) (A) (A) (A) (A)
                 (A)
       Virtual   (A) (A) (A) (A) (A) (A) (A) (A) (A) (A) (A) (A)
                 (A) (A) (A) (A) (A) (A) (A) (A) (A) (A) (A) (A)
                 (A) (A) (A) (A) (A) (A) (A) (A) (A) (A) (A) (A)
                 (A) (A) (A) (A) (A) (A) (A) (A) (A) (A) (A) (A)
                 (A) (A) (A) (A) (A) (A) (A) (A) (A) (A) (A) (A)
                 (A) (A) (A) (A) (A) (A) (A) (A) (A) (A) (A) (A)
                 (A) (A) (A) (A) (A) (A) (A) (A) (A) (A) (A) (A)
                 (A) (A) (A) (A) (A) (A) (A)
 Beta  Orbitals:
       Occupied  (A) (A) (A) (A) (A) (A) (A) (A) (A) (A) (A) (A)
                 (A) (A) (A) (A) (A) (A) (A) (A) (A) (A) (A) (A)
       Virtual   (A) (A) (A) (A) (A) (A) (A) (A) (A) (A) (A) (A)
                 (A) (A) (A) (A) (A) (A) (A) (A) (A) (A) (A) (A)
                 (A) (A) (A) (A) (A) (A) (A) (A) (A) (A) (A) (A)
                 (A) (A) (A) (A) (A) (A) (A) (A) (A) (A) (A) (A)
                 (A) (A) (A) (A) (A) (A) (A) (A) (A) (A) (A) (A)
                 (A) (A) (A) (A) (A) (A) (A) (A) (A) (A) (A) (A)
                 (A) (A) (A) (A) (A) (A) (A) (A) (A) (A) (A) (A)
                 (A) (A) (A) (A) (A) (A) (A) (A)
 The electronic state is 2-A.
 Alpha  occ. eigenvalues --  -10.19426 -10.19043 -10.18076 -10.17964 -10.17366
 Alpha  occ. eigenvalues --  -10.17185  -0.81344  -0.74598  -0.70460  -0.64891
 Alpha  occ. eigenvalues --   -0.59158  -0.55475  -0.46707  -0.44875  -0.42958
 Alpha  occ. eigenvalues --   -0.41668  -0.39021  -0.38094  -0.36399  -0.35456
 Alpha  occ. eigenvalues --   -0.33930  -0.33017  -0.31887  -0.31305  -0.22645
 Alpha virt. eigenvalues --    0.08551   0.11838   0.12194   0.12542   0.14887
 Alpha virt. eigenvalues --    0.15653   0.16196   0.17115   0.17681   0.18160
 Alpha virt. eigenvalues --    0.19998   0.22231   0.22664   0.24321   0.24678
 Alpha virt. eigenvalues --    0.25019   0.28310   0.29098   0.49469   0.50914
 Alpha virt. eigenvalues --    0.51218   0.52530   0.53763   0.58074   0.58931
 Alpha virt. eigenvalues --    0.59532   0.62797   0.65020   0.67869   0.69356
 Alpha virt. eigenvalues --    0.69796   0.74174   0.79879   0.82393   0.84389
 Alpha virt. eigenvalues --    0.86239   0.88229   0.89674   0.90212   0.91183
 Alpha virt. eigenvalues --    0.92305   0.92927   0.94648   0.95899   0.96199
 Alpha virt. eigenvalues --    0.97105   0.98903   1.00061   1.03011   1.07542
 Alpha virt. eigenvalues --    1.22469   1.31414   1.40507   1.42424   1.48764
 Alpha virt. eigenvalues --    1.57035   1.59666   1.65813   1.73626   1.73742
 Alpha virt. eigenvalues --    1.78814   1.86570   1.88802   1.92365   1.95079
 Alpha virt. eigenvalues --    1.96173   1.99321   1.99579   2.01804   2.08270
 Alpha virt. eigenvalues --    2.09490   2.12224   2.23966   2.27716   2.28895
 Alpha virt. eigenvalues --    2.30719   2.33637   2.35106   2.41614   2.50813
 Alpha virt. eigenvalues --    2.52005   2.58999   2.67940   2.76452   2.78600
 Alpha virt. eigenvalues --    4.08205   4.18028   4.25749   4.38843   4.41367
 Alpha virt. eigenvalues --    4.58887
  Beta  occ. eigenvalues --  -10.18913 -10.18111 -10.17981 -10.17950 -10.17360
  Beta  occ. eigenvalues --  -10.17183  -0.81018  -0.73928  -0.69795  -0.64104
  Beta  occ. eigenvalues --   -0.57937  -0.55269  -0.46540  -0.44527  -0.42592
  Beta  occ. eigenvalues --   -0.41402  -0.38675  -0.37950  -0.36126  -0.35052
  Beta  occ. eigenvalues --   -0.33493  -0.32341  -0.31799  -0.31006
  Beta virt. eigenvalues --   -0.06070   0.08747   0.11938   0.12573   0.12660
  Beta virt. eigenvalues --    0.15041   0.15800   0.16432   0.17358   0.17773
  Beta virt. eigenvalues --    0.18458   0.20313   0.22565   0.23116   0.24609
  Beta virt. eigenvalues --    0.24842   0.25355   0.29062   0.29735   0.49801
  Beta virt. eigenvalues --    0.51029   0.51812   0.52629   0.54955   0.58923
  Beta virt. eigenvalues --    0.59396   0.62926   0.64190   0.65300   0.68307
  Beta virt. eigenvalues --    0.69837   0.70802   0.74378   0.80122   0.82557
  Beta virt. eigenvalues --    0.84464   0.86562   0.88356   0.89825   0.90597
  Beta virt. eigenvalues --    0.91255   0.92776   0.93133   0.94920   0.96043
  Beta virt. eigenvalues --    0.97003   0.97440   0.99088   1.00312   1.03222
  Beta virt. eigenvalues --    1.08218   1.23734   1.31562   1.41263   1.42795
  Beta virt. eigenvalues --    1.49293   1.57992   1.60105   1.66894   1.73927
  Beta virt. eigenvalues --    1.74604   1.80142   1.87724   1.89718   1.94154
  Beta virt. eigenvalues --    1.96341   1.97563   1.99819   2.00519   2.02299
  Beta virt. eigenvalues --    2.09666   2.11244   2.12865   2.25261   2.28037
  Beta virt. eigenvalues --    2.29058   2.31141   2.34481   2.35594   2.42642
  Beta virt. eigenvalues --    2.51012   2.52252   2.59670   2.68283   2.76853
  Beta virt. eigenvalues --    2.79153   4.09655   4.19361   4.26058   4.39556
  Beta virt. eigenvalues --    4.41442   4.59040
          Condensed to atoms (all electrons):
               1          2          3          4          5          6
     1  C    5.074023   0.376762   0.377405   0.371872   0.368352  -0.039536
     2  H    0.376762   0.578868  -0.032893  -0.031121  -0.035972   0.005316
     3  H    0.377405  -0.032893   0.571800  -0.031103  -0.032772  -0.004667
     4  H    0.371872  -0.031121  -0.031103   0.575479  -0.026972  -0.002213
     5  C    0.368352  -0.035972  -0.032772  -0.026972   4.993168   0.369908
     6  H   -0.039536   0.005316  -0.004667  -0.002213   0.369908   0.614579
     7  H   -0.038963  -0.003803   0.005095  -0.003779   0.372405  -0.038252
     8  C   -0.037941  -0.004664  -0.005105   0.003930   0.387439  -0.038569
     9  H   -0.004977   0.005707  -0.000201  -0.000013  -0.046673   0.006544
    10  C    0.003832   0.000056   0.000025  -0.000114  -0.041596  -0.004162
    11  H    0.000098   0.000000   0.000003  -0.000008  -0.005843  -0.000329
    12  H   -0.000030   0.000007   0.000002   0.000003  -0.004524   0.004775
    13  C   -0.000128  -0.000001   0.000001   0.000001   0.004075  -0.000019
    14  H    0.000003   0.000000   0.000000   0.000000  -0.000042   0.000003
    15  H    0.000002  -0.000001   0.000000   0.000000  -0.000011   0.000008
    16  C   -0.003778  -0.000554   0.002153   0.000110  -0.050220  -0.007953
    17  H    0.002217   0.000384   0.003168  -0.000092  -0.005403  -0.000067
    18  H   -0.000305   0.000075   0.000268  -0.000023  -0.005367   0.005612
    19  H    0.000067  -0.000028  -0.000117   0.000001   0.004976  -0.000027
               7          8          9         10         11         12
     1  C   -0.038963  -0.037941  -0.004977   0.003832   0.000098  -0.000030
     2  H   -0.003803  -0.004664   0.005707   0.000056   0.000000   0.000007
     3  H    0.005095  -0.005105  -0.000201   0.000025   0.000003   0.000002
     4  H   -0.003779   0.003930  -0.000013  -0.000114  -0.000008   0.000003
     5  C    0.372405   0.387439  -0.046673  -0.041596  -0.005843  -0.004524
     6  H   -0.038252  -0.038569   0.006544  -0.004162  -0.000329   0.004775
     7  H    0.611700  -0.038765  -0.003497  -0.005044   0.007294  -0.000345
     8  C   -0.038765   4.890018   0.372466   0.375159  -0.037203  -0.037214
     9  H   -0.003497   0.372466   0.646110  -0.047715  -0.003551   0.006594
    10  C   -0.005044   0.375159  -0.047715   5.026202   0.367688   0.365270
    11  H    0.007294  -0.037203  -0.003551   0.367688   0.606362  -0.038223
    12  H   -0.000345  -0.037214   0.006594   0.365270  -0.038223   0.610828
    13  C    0.000104  -0.041391  -0.004483   0.381477  -0.038041  -0.037532
    14  H    0.000003  -0.003221  -0.000300  -0.041819   0.005177  -0.005787
    15  H   -0.000003  -0.002559   0.005949  -0.045405  -0.005026   0.005506
    16  C    0.005758   0.375841  -0.050076  -0.049510   0.005793  -0.008167
    17  H    0.000000  -0.029074  -0.003190   0.004767  -0.000169  -0.000032
    18  H   -0.000013  -0.035742   0.005959  -0.005257  -0.000015   0.005609
    19  H   -0.000171  -0.029421  -0.003146  -0.005321   0.000008  -0.000037
              13         14         15         16         17         18
     1  C   -0.000128   0.000003   0.000002  -0.003778   0.002217  -0.000305
     2  H   -0.000001   0.000000  -0.000001  -0.000554   0.000384   0.000075
     3  H    0.000001   0.000000   0.000000   0.002153   0.003168   0.000268
     4  H    0.000001   0.000000   0.000000   0.000110  -0.000092  -0.000023
     5  C    0.004075  -0.000042  -0.000011  -0.050220  -0.005403  -0.005367
     6  H   -0.000019   0.000003   0.000008  -0.007953  -0.000067   0.005612
     7  H    0.000104   0.000003  -0.000003   0.005758   0.000000  -0.000013
     8  C   -0.041391  -0.003221  -0.002559   0.375841  -0.029074  -0.035742
     9  H   -0.004483  -0.000300   0.005949  -0.050076  -0.003190   0.005959
    10  C    0.381477  -0.041819  -0.045405  -0.049510   0.004767  -0.005257
    11  H   -0.038041   0.005177  -0.005026   0.005793  -0.000169  -0.000015
    12  H   -0.037532  -0.005787   0.005506  -0.008167  -0.000032   0.005609
    13  C    5.302489   0.363002   0.360717  -0.005945   0.000195  -0.000241
    14  H    0.363002   0.588863  -0.047058   0.002249  -0.000078   0.000260
    15  H    0.360717  -0.047058   0.596940  -0.000679  -0.000022   0.000073
    16  C   -0.005945   0.002249  -0.000679   5.123835   0.371173   0.371199
    17  H    0.000195  -0.000078  -0.000022   0.371173   0.571549  -0.031515
    18  H   -0.000241   0.000260   0.000073   0.371199  -0.031515   0.582192
    19  H    0.003982   0.002904   0.000386   0.369087  -0.030138  -0.031793
              19
     1  C    0.000067
     2  H   -0.000028
     3  H   -0.000117
     4  H    0.000001
     5  C    0.004976
     6  H   -0.000027
     7  H   -0.000171
     8  C   -0.029421
     9  H   -0.003146
    10  C   -0.005321
    11  H    0.000008
    12  H   -0.000037
    13  C    0.003982
    14  H    0.002904
    15  H    0.000386
    16  C    0.369087
    17  H   -0.030138
    18  H   -0.031793
    19  H    0.576106
          Atomic-Atomic Spin Densities.
               1          2          3          4          5          6
     1  C    0.005868   0.000263   0.000154  -0.001029  -0.002863  -0.000019
     2  H    0.000263  -0.000006   0.000025  -0.000149  -0.000128  -0.000002
     3  H    0.000154   0.000025  -0.000094  -0.000084  -0.000060   0.000005
     4  H   -0.001029  -0.000149  -0.000084   0.002639  -0.000040   0.000003
     5  C   -0.002863  -0.000128  -0.000060  -0.000040   0.015433   0.000038
     6  H   -0.000019  -0.000002   0.000005   0.000003   0.000038  -0.000423
     7  H   -0.000725  -0.000030  -0.000007   0.000183   0.000914  -0.000023
     8  C    0.001113   0.000000  -0.000021  -0.000075  -0.011420   0.000194
     9  H   -0.000216  -0.000033  -0.000003   0.000013   0.001026  -0.000024
    10  C   -0.000049   0.000001   0.000002   0.000005  -0.000977  -0.000062
    11  H   -0.000064  -0.000002   0.000000   0.000003   0.001046  -0.000011
    12  H   -0.000029   0.000000   0.000000   0.000001   0.000632  -0.000012
    13  C   -0.000058  -0.000002  -0.000001   0.000001   0.001480  -0.000003
    14  H   -0.000001   0.000000   0.000000   0.000000   0.000055   0.000000
    15  H   -0.000003   0.000000   0.000000   0.000000   0.000072   0.000000
    16  C   -0.000486  -0.000010  -0.000015   0.000027   0.002088   0.000022
    17  H    0.000053   0.000004   0.000009  -0.000002  -0.000240  -0.000003
    18  H   -0.000045  -0.000001  -0.000003   0.000002   0.000300  -0.000013
    19  H   -0.000042  -0.000002  -0.000002   0.000001   0.000289  -0.000001
               7          8          9         10         11         12
     1  C   -0.000725   0.001113  -0.000216  -0.000049  -0.000064  -0.000029
     2  H   -0.000030   0.000000  -0.000033   0.000001  -0.000002   0.000000
     3  H   -0.000007  -0.000021  -0.000003   0.000002   0.000000   0.000000
     4  H    0.000183  -0.000075   0.000013   0.000005   0.000003   0.000001
     5  C    0.000914  -0.011420   0.001026  -0.000977   0.001046   0.000632
     6  H   -0.000023   0.000194  -0.000024  -0.000062  -0.000011  -0.000012
     7  H    0.000422  -0.001175   0.000088  -0.000016   0.000330   0.000067
     8  C   -0.001175   0.093420  -0.002432   0.015737  -0.007096  -0.004937
     9  H    0.000088  -0.002432  -0.002658   0.000482   0.000183   0.000036
    10  C   -0.000016   0.015737   0.000482  -0.050279   0.005336   0.003920
    11  H    0.000330  -0.007096   0.000183   0.005336   0.010845   0.001196
    12  H    0.000067  -0.004937   0.000036   0.003920   0.001196   0.005354
    13  C    0.000081  -0.025417   0.001269  -0.029566  -0.004467  -0.002784
    14  H    0.000001  -0.001598   0.000091   0.000371   0.000100   0.000842
    15  H    0.000008  -0.001826   0.000093   0.000561   0.001079   0.000022
    16  C    0.000065  -0.002795   0.000357   0.000738   0.000110   0.000226
    17  H   -0.000003   0.000406  -0.000013  -0.000120  -0.000001  -0.000001
    18  H    0.000005  -0.000799  -0.000004   0.000003   0.000010   0.000089
    19  H    0.000006  -0.001834   0.000192  -0.000779   0.000049   0.000125
              13         14         15         16         17         18
     1  C   -0.000058  -0.000001  -0.000003  -0.000486   0.000053  -0.000045
     2  H   -0.000002   0.000000   0.000000  -0.000010   0.000004  -0.000001
     3  H   -0.000001   0.000000   0.000000  -0.000015   0.000009  -0.000003
     4  H    0.000001   0.000000   0.000000   0.000027  -0.000002   0.000002
     5  C    0.001480   0.000055   0.000072   0.002088  -0.000240   0.000300
     6  H   -0.000003   0.000000   0.000000   0.000022  -0.000003  -0.000013
     7  H    0.000081   0.000001   0.000008   0.000065  -0.000003   0.000005
     8  C   -0.025417  -0.001598  -0.001826  -0.002795   0.000406  -0.000799
     9  H    0.001269   0.000091   0.000093   0.000357  -0.000013  -0.000004
    10  C   -0.029566   0.000371   0.000561   0.000738  -0.000120   0.000003
    11  H   -0.004467   0.000100   0.001079   0.000110  -0.000001   0.000010
    12  H   -0.002784   0.000842   0.000022   0.000226  -0.000001   0.000089
    13  C    1.120843  -0.010833  -0.011001  -0.001965  -0.000055   0.000271
    14  H   -0.010833  -0.027446   0.005871  -0.000408  -0.000011   0.000044
    15  H   -0.011001   0.005871  -0.026188  -0.000081  -0.000001   0.000007
    16  C   -0.001965  -0.000408  -0.000081   0.006322   0.000845  -0.000257
    17  H   -0.000055  -0.000011  -0.000001   0.000845  -0.000890  -0.000051
    18  H    0.000271   0.000044   0.000007  -0.000257  -0.000051   0.000353
    19  H    0.004016   0.001199   0.000238  -0.002687  -0.000430   0.000453
              19
     1  C   -0.000042
     2  H   -0.000002
     3  H   -0.000002
     4  H    0.000001
     5  C    0.000289
     6  H   -0.000001
     7  H    0.000006
     8  C   -0.001834
     9  H    0.000192
    10  C   -0.000779
    11  H    0.000049
    12  H    0.000125
    13  C    0.004016
    14  H    0.001199
    15  H    0.000238
    16  C   -0.002687
    17  H   -0.000430
    18  H    0.000453
    19  H    0.001067
 Mulliken charges and spin densities:
               1          2
     1  C   -0.448975   0.001823
     2  H    0.141864  -0.000074
     3  H    0.146938  -0.000093
     4  H    0.144042   0.001499
     5  C   -0.244926   0.007645
     6  H    0.129049  -0.000334
     7  H    0.130275   0.000190
     8  C   -0.063987   0.049445
     9  H    0.118493  -0.001554
    10  C   -0.278533  -0.054693
    11  H    0.135984   0.008647
    12  H    0.133296   0.004747
    13  C   -0.288262   1.041809
    14  H    0.135840  -0.031723
    15  H    0.131183  -0.031148
    16  C   -0.450315   0.002095
    17  H    0.146327  -0.000505
    18  H    0.139024   0.000364
    19  H    0.142683   0.001859
 Sum of Mulliken charges =   0.00000   1.00000
 Mulliken charges and spin densities with hydrogens summed into heavy atoms:
               1          2
     1  C   -0.016131   0.003155
     5  C    0.014398   0.007502
     8  C    0.054506   0.047890
    10  C   -0.009254  -0.041299
    13  C   -0.021239   0.978938
    16  C   -0.022280   0.003813
 Electronic spatial extent (au):  <R**2>=            812.6923
 Charge=              0.0000 electrons
 Dipole moment (field-independent basis, Debye):
    X=             -0.7646    Y=              0.2598    Z=             -0.1328  Tot=              0.8184
 Quadrupole moment (field-independent basis, Debye-Ang):
   XX=            -44.2406   YY=            -40.8685   ZZ=            -40.2637
   XY=              1.3583   XZ=             -0.4055   YZ=              0.1637
 Traceless Quadrupole moment (field-independent basis, Debye-Ang):
   XX=             -2.4497   YY=              0.9225   ZZ=              1.5272
   XY=              1.3583   XZ=             -0.4055   YZ=              0.1637
 Octapole moment (field-independent basis, Debye-Ang**2):
  XXX=            -15.6793  YYY=             -0.4414  ZZZ=             -0.1549  XYY=             -1.6022
  XXY=              4.5089  XXZ=             -0.1446  XZZ=             -0.0914  YZZ=              0.0904
  YYZ=             -0.5224  XYZ=              0.0778
 Hexadecapole moment (field-independent basis, Debye-Ang**3):
 XXXX=           -843.5296 YYYY=           -240.1037 ZZZZ=           -102.5644 XXXY=             19.9583
 XXXZ=             -3.7969 YYYX=              1.7444 YYYZ=             -0.2314 ZZZX=             -0.1294
 ZZZY=              1.0693 XXYY=           -170.2770 XXZZ=           -148.7176 YYZZ=            -59.2991
 XXYZ=             -0.5638 YYXZ=             -0.1900 ZZXY=              0.3517
 N-N= 2.460907581597D+02 E-N=-1.037652828877D+03  KE= 2.339647694925D+02
                          Isotropic Fermi Contact Couplings
        Atom                 a.u.       MegaHertz       Gauss      10(-4) cm-1
     1  C(13)              0.00230       2.58128       0.92107       0.86102
     2  H(1)               0.00001       0.06425       0.02293       0.02143
     3  H(1)              -0.00001      -0.05388      -0.01923      -0.01797
     4  H(1)               0.00060       2.69864       0.96294       0.90017
     5  C(13)              0.00221       2.48077       0.88520       0.82750
     6  H(1)              -0.00010      -0.42720      -0.15243      -0.14250
     7  H(1)               0.00001       0.02905       0.01036       0.00969
     8  C(13)              0.04681      52.62154      18.77667      17.55266
     9  H(1)              -0.00067      -3.01538      -1.07596      -1.00582
    10  C(13)             -0.01287     -14.46297      -5.16075      -4.82433
    11  H(1)               0.00538      24.06151       8.58575       8.02606
    12  H(1)               0.00294      13.14844       4.69169       4.38585
    13  C(13)              0.30860     346.92114     123.79008     115.72043
    14  H(1)              -0.00452     -20.21713      -7.21398      -6.74371
    15  H(1)              -0.00482     -21.52831      -7.68184      -7.18107
    16  C(13)             -0.00027      -0.30798      -0.10989      -0.10273
    17  H(1)              -0.00008      -0.37931      -0.13535      -0.12653
    18  H(1)               0.00008       0.36818       0.13138       0.12281
    19  H(1)              -0.00005      -0.24297      -0.08670      -0.08105
 --------------------------------------------------------
       Center         ----  Spin Dipole Couplings  ----
                      3XX-RR        3YY-RR        3ZZ-RR
 --------------------------------------------------------
     1   Atom        0.005279     -0.002788     -0.002491
     2   Atom        0.001843     -0.001346     -0.000498
     3   Atom        0.001827     -0.000549     -0.001279
     4   Atom        0.001568     -0.000712     -0.000855
     5   Atom        0.010995     -0.004565     -0.006430
     6   Atom        0.002462     -0.002463      0.000000
     7   Atom        0.003017     -0.000091     -0.002926
     8   Atom        0.057235     -0.021879     -0.035356
     9   Atom        0.005982     -0.008659      0.002676
    10   Atom        0.040387     -0.019995     -0.020391
    11   Atom        0.007772      0.003086     -0.010858
    12   Atom        0.003665     -0.009909      0.006244
    13   Atom        0.284185      0.038135     -0.322320
    14   Atom       -0.021525      0.063180     -0.041654
    15   Atom       -0.032104     -0.039092      0.071196
    16   Atom        0.004832      0.000898     -0.005730
    17   Atom        0.001931      0.000659     -0.002590
    18   Atom        0.000935     -0.000068     -0.000867
    19   Atom        0.000946      0.005592     -0.006538
 --------------------------------------------------------
                        XY            XZ            YZ
 --------------------------------------------------------
     1   Atom       -0.000888      0.001483     -0.000193
     2   Atom       -0.000051      0.001058     -0.000087
     3   Atom       -0.000972     -0.000112      0.000037
     4   Atom        0.000327     -0.000140     -0.000189
     5   Atom        0.007632     -0.006100     -0.002624
     6   Atom        0.000655     -0.002389     -0.000547
     7   Atom        0.002485     -0.000492     -0.000218
     8   Atom       -0.041351      0.017649     -0.008425
     9   Atom       -0.001468      0.007486     -0.001802
    10   Atom       -0.003376     -0.009502     -0.001967
    11   Atom        0.014603     -0.002258     -0.002696
    12   Atom        0.001378     -0.014224     -0.003095
    13   Atom       -0.628271      0.344423     -0.281212
    14   Atom        0.010213      0.024587      0.025358
    15   Atom       -0.023682      0.006353      0.002315
    16   Atom       -0.002491     -0.003346     -0.000367
    17   Atom       -0.002831     -0.000027     -0.000052
    18   Atom       -0.002996     -0.002480      0.002709
    19   Atom       -0.007427     -0.001245      0.000796
 --------------------------------------------------------


 ---------------------------------------------------------------------------------
              Anisotropic Spin Dipole Couplings in Principal Axis System
 ---------------------------------------------------------------------------------

       Atom             a.u.   MegaHertz   Gauss  10(-4) cm-1        Axes

              Baa    -0.0029    -0.388    -0.138    -0.129  0.0634  0.9706  0.2320
     1 C(13)  Bbb    -0.0028    -0.370    -0.132    -0.123 -0.2002 -0.2154  0.9558
              Bcc     0.0057     0.758     0.271     0.253  0.9777 -0.1070  0.1807
 
              Baa    -0.0014    -0.723    -0.258    -0.241 -0.0293  0.9903  0.1361
     2 H(1)   Bbb    -0.0009    -0.478    -0.171    -0.160 -0.3591 -0.1375  0.9231
              Bcc     0.0023     1.202     0.429     0.401  0.9328 -0.0218  0.3597
 
              Baa    -0.0013    -0.684    -0.244    -0.228  0.0344 -0.0053  0.9994
     3 H(1)   Bbb    -0.0009    -0.478    -0.171    -0.159  0.3359  0.9419 -0.0066
              Bcc     0.0022     1.162     0.415     0.388  0.9413 -0.3360 -0.0342
 
              Baa    -0.0010    -0.527    -0.188    -0.176 -0.0314  0.5898  0.8069
     4 H(1)   Bbb    -0.0006    -0.339    -0.121    -0.113 -0.1550  0.7947 -0.5869
              Bcc     0.0016     0.867     0.309     0.289  0.9874  0.1435 -0.0665
 
              Baa    -0.0084    -1.128    -0.403    -0.376  0.1985  0.2524  0.9471
     5 C(13)  Bbb    -0.0077    -1.029    -0.367    -0.343 -0.4163  0.8965 -0.1517
              Bcc     0.0161     2.157     0.770     0.719  0.8873  0.3641 -0.2830
 
              Baa    -0.0026    -1.380    -0.492    -0.460 -0.0519  0.9857  0.1606
     6 H(1)   Bbb    -0.0014    -0.770    -0.275    -0.257  0.5321 -0.1088  0.8397
              Bcc     0.0040     2.150     0.767     0.717  0.8451  0.1290 -0.5188
 
              Baa    -0.0030    -1.583    -0.565    -0.528  0.0790  0.0071  0.9968
     7 H(1)   Bbb    -0.0015    -0.783    -0.279    -0.261 -0.4819  0.8756  0.0319
              Bcc     0.0044     2.365     0.844     0.789  0.8727  0.4829 -0.0726
 
              Baa    -0.0400    -5.372    -1.917    -1.792  0.2556  0.8199  0.5123
     8 C(13)  Bbb    -0.0382    -5.130    -1.830    -1.711 -0.3379 -0.4208  0.8419
              Bcc     0.0783    10.502     3.747     3.503  0.9058 -0.3883  0.1695
 
              Baa    -0.0089    -4.774    -1.703    -1.592  0.0301  0.9905  0.1341
     9 H(1)   Bbb    -0.0033    -1.759    -0.627    -0.587 -0.6338 -0.0848  0.7688
              Bcc     0.0122     6.532     2.331     2.179  0.7729 -0.1082  0.6252
 
              Baa    -0.0236    -3.165    -1.129    -1.056  0.1496  0.5793  0.8013
    10 C(13)  Bbb    -0.0184    -2.469    -0.881    -0.824 -0.0469  0.8136 -0.5795
              Bcc     0.0420     5.634     2.010     1.879  0.9876 -0.0491 -0.1489
 
              Baa    -0.0114    -6.086    -2.172    -2.030 -0.0983  0.2769  0.9559
    11 H(1)   Bbb    -0.0092    -4.906    -1.750    -1.636 -0.6482  0.7110 -0.2726
              Bcc     0.0206    10.992     3.922     3.666  0.7551  0.6464 -0.1096
 
              Baa    -0.0110    -5.845    -2.086    -1.950  0.3444  0.8322  0.4346
    12 H(1)   Bbb    -0.0086    -4.606    -1.643    -1.536  0.6602 -0.5437  0.5181
              Bcc     0.0196    10.451     3.729     3.486 -0.6675 -0.1085  0.7367
 
              Baa    -0.4800   -64.409   -22.983   -21.485  0.6782  0.5719 -0.4615
    13 C(13)  Bbb    -0.4760   -63.879   -22.794   -21.308  0.0890  0.5594  0.8241
              Bcc     0.9560   128.289    45.777    42.793  0.7295 -0.6000  0.3285
 
              Baa    -0.0602   -32.133   -11.466   -10.718 -0.5062 -0.1332  0.8521
    14 H(1)   Bbb    -0.0114    -6.104    -2.178    -2.036  0.8454 -0.2719  0.4597
              Bcc     0.0717    38.237    13.644    12.755  0.1705  0.9531  0.2503
 
              Baa    -0.0598   -31.908   -11.386   -10.643  0.6551  0.7542 -0.0451
    15 H(1)   Bbb    -0.0118    -6.291    -2.245    -2.098  0.7532 -0.6566 -0.0393
              Bcc     0.0716    38.198    13.630    12.742  0.0593  0.0082  0.9982
 
              Baa    -0.0069    -0.919    -0.328    -0.307  0.3003  0.1412  0.9433
    16 C(13)  Bbb     0.0001     0.018     0.006     0.006  0.3169  0.9180 -0.2383
              Bcc     0.0067     0.901     0.322     0.301  0.8996 -0.3706 -0.2310
 
              Baa    -0.0026    -1.384    -0.494    -0.462  0.0348  0.0461  0.9983
    17 H(1)   Bbb    -0.0016    -0.855    -0.305    -0.285  0.6239  0.7794 -0.0577
              Bcc     0.0042     2.239     0.799     0.747  0.7807 -0.6249  0.0017
 
              Baa    -0.0032    -1.713    -0.611    -0.571 -0.0580 -0.6830  0.7281
    18 H(1)   Bbb    -0.0023    -1.247    -0.445    -0.416  0.7624  0.4405  0.4740
              Bcc     0.0055     2.960     1.056     0.987  0.6445 -0.5826 -0.4952
 
              Baa    -0.0068    -3.612    -1.289    -1.205  0.2287  0.0749  0.9706
    19 H(1)   Bbb    -0.0044    -2.342    -0.836    -0.781  0.7724  0.5929 -0.2278
              Bcc     0.0112     5.954     2.124     1.986 -0.5926  0.8018  0.0777
 

 ---------------------------------------------------------------------------------

 No NMR shielding tensors so no spin-rotation constants.
 Leave Link  601 at Sat Nov  7 02:06:07 2015, MaxMem=   805306368 cpu:         1.4
 (Enter /home/hetanjin/apps/g09D01/g09/l701.exe)
 Compute integral first derivatives.
 ... and contract with generalized density number  0.
 Leave Link  701 at Sat Nov  7 02:06:07 2015, MaxMem=   805306368 cpu:         1.5
 (Enter /home/hetanjin/apps/g09D01/g09/l702.exe)
 L702 exits ... SP integral derivatives will be done elsewhere.
 Leave Link  702 at Sat Nov  7 02:06:07 2015, MaxMem=   805306368 cpu:         0.1
 (Enter /home/hetanjin/apps/g09D01/g09/l703.exe)
 Compute integral first derivatives, UseDBF=F ICtDFT=           0.
 Integral derivatives from FoFJK, PRISM(SPDF).
 Calling FoFJK, ICntrl=      2127 FMM=F ISym2X=0 I1Cent= 0 IOpClX= 1 NMat=1 NMatS=1 NMatT=0.
 FoFJK:  IHMeth= 1 ICntrl=    2127 DoSepK=F KAlg= 0 I1Cent=   0 FoldK=F
 IRaf=         0 NMat=   1 IRICut=       1 DoRegI=T DoRafI=F ISym2E= 0.
 FoFCou: FMM=F IPFlag=           0 FMFlag=      100000 FMFlg1=         800
         NFxFlg=           0 DoJE=F BraDBF=F KetDBF=F FulRan=T
         wScrn=  0.000000 ICntrl=    2127 IOpCl=  1 I1Cent=           0 NGrid=           0
         NMat0=    1 NMatS0=      1 NMatT0=    0 NMatD0=    1 NMtDS0=    0 NMtDT0=    0
 Symmetry not used in FoFCou.
 Leave Link  703 at Sat Nov  7 02:06:18 2015, MaxMem=   805306368 cpu:        41.6
 (Enter /home/hetanjin/apps/g09D01/g09/l716.exe)
 Dipole        =-3.00813016D-01 1.02220496D-01-5.22372471D-02
 ***** Axes restored to original set *****
 -------------------------------------------------------------------
 Center     Atomic                   Forces (Hartrees/Bohr)
 Number     Number              X              Y              Z
 -------------------------------------------------------------------
      1        6           0.000295599    0.000600154   -0.000489359
      2        1          -0.000044085   -0.000016962    0.000037337
      3        1          -0.000025639   -0.000063163    0.000003335
      4        1           0.000255880   -0.000095165    0.000100974
      5        6           0.000306353   -0.001590332    0.001063220
      6        1           0.000103585    0.000021396   -0.000143174
      7        1          -0.000016253    0.000114326    0.000033684
      8        6          -0.002759090    0.004468466   -0.004368398
      9        1          -0.000186594    0.000033789    0.000353266
     10        6           0.021234788   -0.009049057    0.005335586
     11        1          -0.001080719   -0.000260008   -0.000305015
     12        1          -0.000906349    0.000351243    0.000032180
     13        6          -0.040671241    0.020791158   -0.009846847
     14        1           0.012473105   -0.005462321    0.007195293
     15        1           0.010986383   -0.009868606    0.000790645
     16        6           0.000053977    0.000459310    0.000310775
     17        1          -0.000034298   -0.000279834    0.000029406
     18        1           0.000030534   -0.000025079   -0.000100653
     19        1          -0.000015937   -0.000129313   -0.000032256
 -------------------------------------------------------------------
 Cartesian Forces:  Max     0.040671241 RMS     0.007556400
 Leave Link  716 at Sat Nov  7 02:06:18 2015, MaxMem=   805306368 cpu:         0.1
 (Enter /home/hetanjin/apps/g09D01/g09/l103.exe)

 GradGradGradGradGradGradGradGradGradGradGradGradGradGradGradGradGradGrad
 Berny optimization.
 FormGI is forming the generalized inverse of G from B-inverse, IUseBI=4.
 Internal  Forces:  Max     0.014007829 RMS     0.003352391
 Search for a local minimum.
 Step number   1 out of a maximum of  103
 All quantities printed in internal units (Hartrees-Bohrs-Radians)
 RMS Force = .33524D-02 SwitMx=.10000D-02 MixMth= 1
 Mixed Optimization -- RFO/linear search
 Second derivative matrix not updated -- first step.
 ITU=  0
     Eigenvalues ---    0.00230   0.00230   0.00279   0.00326   0.00326
     Eigenvalues ---    0.03219   0.03352   0.03519   0.03666   0.04645
     Eigenvalues ---    0.04711   0.04866   0.05254   0.05346   0.05357
     Eigenvalues ---    0.05439   0.05496   0.08726   0.09661   0.12495
     Eigenvalues ---    0.13073   0.16000   0.16000   0.16000   0.16000
     Eigenvalues ---    0.16000   0.16000   0.16000   0.16000   0.16722
     Eigenvalues ---    0.17090   0.21941   0.21969   0.28249   0.28249
     Eigenvalues ---    0.28802   0.29125   0.29125   0.33394   0.33637
     Eigenvalues ---    0.33637   0.33788   0.33788   0.33845   0.33973
     Eigenvalues ---    0.33973   0.34116   0.34193   0.34193   0.34238
     Eigenvalues ---    0.34238
 RFO step:  Lambda=-1.41812858D-02 EMin= 2.30000000D-03
 Linear search not attempted -- first point.
 Iteration  1 RMS(Cart)=  0.05148868 RMS(Int)=  0.00907905
 Iteration  2 RMS(Cart)=  0.00708071 RMS(Int)=  0.00591229
 Iteration  3 RMS(Cart)=  0.00011611 RMS(Int)=  0.00591169
 Iteration  4 RMS(Cart)=  0.00000260 RMS(Int)=  0.00591169
 Iteration  5 RMS(Cart)=  0.00000008 RMS(Int)=  0.00591169
 ITry= 1 IFail=0 DXMaxC= 2.81D-01 DCOld= 1.00D+10 DXMaxT= 3.00D-01 DXLimC= 3.00D+00 Rises=F
 Variable       Old X    -DE/DX   Delta X   Delta X   Delta X     New X
                                 (Linear)    (Quad)   (Total)
    R1        2.07376  -0.00004   0.00000  -0.00011  -0.00011   2.07365
    R2        2.07005  -0.00005   0.00000  -0.00015  -0.00015   2.06990
    R3        2.07134  -0.00011   0.00000  -0.00031  -0.00031   2.07103
    R4        2.89742  -0.00014   0.00000  -0.00046  -0.00046   2.89696
    R5        2.07947  -0.00015   0.00000  -0.00042  -0.00042   2.07906
    R6        2.07690  -0.00012   0.00000  -0.00034  -0.00034   2.07656
    R7        2.91596  -0.00003   0.00000  -0.00011  -0.00011   2.91585
    R8        2.08366  -0.00035   0.00000  -0.00102  -0.00102   2.08264
    R9        2.91596   0.00436   0.00000   0.01468   0.01468   2.93065
   R10        2.90418   0.00008   0.00000   0.00026   0.00026   2.90445
   R11        2.07690   0.00042   0.00000   0.00119   0.00119   2.07809
   R12        2.07947   0.00002   0.00000   0.00005   0.00005   2.07952
   R13        2.89742  -0.01230   0.00000  -0.04029  -0.04029   2.85714
   R14        2.07005  -0.00080   0.00000  -0.00224  -0.00224   2.06781
   R15        2.07376  -0.00061   0.00000  -0.00173  -0.00173   2.07203
   R16        2.06931  -0.00012   0.00000  -0.00033  -0.00033   2.06898
   R17        2.07593  -0.00010   0.00000  -0.00029  -0.00029   2.07564
   R18        2.06930  -0.00006   0.00000  -0.00018  -0.00018   2.06912
    A1        1.87842  -0.00002   0.00000   0.00052   0.00052   1.87894
    A2        1.87726   0.00011   0.00000   0.00033   0.00033   1.87759
    A3        1.93932   0.00012   0.00000   0.00086   0.00086   1.94018
    A4        1.87288   0.00013   0.00000   0.00041   0.00041   1.87329
    A5        1.95782   0.00010   0.00000   0.00075   0.00075   1.95857
    A6        1.93461  -0.00043   0.00000  -0.00281  -0.00281   1.93180
    A7        1.90987   0.00036   0.00000   0.00164   0.00164   1.91151
    A8        1.89569   0.00026   0.00000   0.00100   0.00100   1.89670
    A9        2.00987  -0.00093   0.00000  -0.00428  -0.00428   2.00559
   A10        1.84904  -0.00013   0.00000   0.00053   0.00053   1.84957
   A11        1.90093   0.00021   0.00000   0.00036   0.00036   1.90129
   A12        1.89164   0.00030   0.00000   0.00111   0.00111   1.89275
   A13        1.87539   0.00018   0.00000   0.00068   0.00068   1.87607
   A14        1.92053  -0.00141   0.00000  -0.00956  -0.00956   1.91097
   A15        1.95271   0.00061   0.00000   0.00192   0.00192   1.95463
   A16        1.87539   0.00039   0.00000   0.00361   0.00360   1.87899
   A17        1.88339  -0.00031   0.00000   0.00161   0.00160   1.88499
   A18        1.95271   0.00055   0.00000   0.00207   0.00206   1.95477
   A19        1.89165   0.00020   0.00000  -0.00442  -0.00440   1.88724
   A20        1.90093   0.00055   0.00000  -0.00045  -0.00040   1.90053
   A21        2.00987  -0.00394   0.00000  -0.01839  -0.01840   1.99148
   A22        1.84904  -0.00023   0.00000   0.00469   0.00462   1.85366
   A23        1.89569   0.00183   0.00000   0.00923   0.00911   1.90481
   A24        1.90987   0.00185   0.00000   0.01103   0.01098   1.92085
   A25        1.95782   0.01401   0.00000   0.14846   0.11932   2.07715
   A26        1.93932   0.01312   0.00000   0.14457   0.11525   2.05457
   A27        1.87842  -0.00086   0.00000   0.12161   0.08545   1.96387
   A28        1.95027  -0.00031   0.00000  -0.00191  -0.00191   1.94836
   A29        1.93183   0.00005   0.00000   0.00032   0.00032   1.93215
   A30        1.95027  -0.00010   0.00000  -0.00045  -0.00045   1.94982
   A31        1.87919   0.00011   0.00000   0.00043   0.00043   1.87962
   A32        1.86960   0.00022   0.00000   0.00122   0.00122   1.87082
   A33        1.87920   0.00005   0.00000   0.00053   0.00053   1.87973
    D1        3.12776  -0.00004   0.00000  -0.00040  -0.00040   3.12736
    D2       -1.14441   0.00013   0.00000   0.00166   0.00166  -1.14275
    D3        0.98010   0.00008   0.00000   0.00093   0.00093   0.98103
    D4        1.02422  -0.00016   0.00000  -0.00219  -0.00219   1.02202
    D5        3.03522   0.00001   0.00000  -0.00013  -0.00013   3.03509
    D6       -1.12345  -0.00004   0.00000  -0.00086  -0.00086  -1.12431
    D7       -1.06899  -0.00010   0.00000  -0.00128  -0.00128  -1.07026
    D8        0.94202   0.00007   0.00000   0.00079   0.00079   0.94281
    D9        3.06653   0.00002   0.00000   0.00006   0.00006   3.06659
   D10       -0.95817  -0.00007   0.00000  -0.00102  -0.00101  -0.95918
   D11       -2.99494   0.00011   0.00000  -0.00058  -0.00058  -2.99552
   D12        1.10606   0.00001   0.00000   0.00247   0.00247   1.10853
   D13       -3.11059  -0.00004   0.00000  -0.00039  -0.00039  -3.11098
   D14        1.13582   0.00015   0.00000   0.00005   0.00004   1.13587
   D15       -1.04636   0.00004   0.00000   0.00310   0.00309  -1.04327
   D16        1.16853  -0.00014   0.00000  -0.00179  -0.00179   1.16673
   D17       -0.86824   0.00004   0.00000  -0.00136  -0.00136  -0.86960
   D18       -3.05042  -0.00006   0.00000   0.00169   0.00169  -3.04873
   D19        0.86823  -0.00009   0.00000   0.00037   0.00034   0.86857
   D20       -1.13583  -0.00021   0.00000  -0.00258  -0.00256  -1.13840
   D21        2.99493  -0.00026   0.00000  -0.00355  -0.00354   2.99138
   D22       -1.16854   0.00022   0.00000   0.00264   0.00262  -1.16592
   D23        3.11058   0.00010   0.00000  -0.00031  -0.00028   3.11030
   D24        0.95816   0.00006   0.00000  -0.00128  -0.00126   0.95689
   D25        3.05041   0.00005   0.00000  -0.00276  -0.00280   3.04762
   D26        1.04635  -0.00007   0.00000  -0.00571  -0.00570   1.04065
   D27       -1.10608  -0.00012   0.00000  -0.00669  -0.00668  -1.11275
   D28       -1.01213  -0.00041   0.00000  -0.00223  -0.00224  -1.01437
   D29        1.08212  -0.00045   0.00000  -0.00274  -0.00275   1.07937
   D30       -3.10680  -0.00041   0.00000  -0.00216  -0.00216  -3.10897
   D31        1.04733  -0.00003   0.00000   0.00072   0.00072   1.04805
   D32        3.14159  -0.00007   0.00000   0.00020   0.00021  -3.14139
   D33       -1.04734  -0.00003   0.00000   0.00079   0.00079  -1.04655
   D34        3.10679   0.00057   0.00000   0.00734   0.00734   3.11414
   D35       -1.08213   0.00053   0.00000   0.00683   0.00683  -1.07530
   D36        1.01213   0.00057   0.00000   0.00741   0.00741   1.01954
   D37        1.12344   0.00911   0.00000   0.18784   0.19408   1.31752
   D38       -0.98010  -0.00863   0.00000  -0.17146  -0.17771  -1.15781
   D39       -3.03523   0.00805   0.00000   0.17649   0.18266  -2.85257
   D40        1.14441  -0.00969   0.00000  -0.18281  -0.18912   0.95528
   D41       -1.02422   0.00977   0.00000   0.19307   0.19938  -0.82484
   D42       -3.12777  -0.00797   0.00000  -0.16623  -0.17240   2.98301
         Item               Value     Threshold  Converged?
 Maximum Force            0.014008     0.000015     NO 
 RMS     Force            0.003352     0.000010     NO 
 Maximum Displacement     0.280820     0.000060     NO 
 RMS     Displacement     0.048508     0.000040     NO 
 Predicted change in Energy=-1.027847D-02
 Lowest energy point so far.  Saving SCF results.
 GradGradGradGradGradGradGradGradGradGradGradGradGradGradGradGradGradGrad

 Leave Link  103 at Sat Nov  7 02:06:18 2015, MaxMem=   805306368 cpu:         0.1
 (Enter /home/hetanjin/apps/g09D01/g09/l202.exe)
                          Input orientation:                          
 ---------------------------------------------------------------------
 Center     Atomic      Atomic             Coordinates (Angstroms)
 Number     Number       Type             X           Y           Z
 ---------------------------------------------------------------------
      1          6           0       -2.597725   -0.180150   -0.283184
      2          1           0       -2.588622   -0.213411   -1.379972
      3          1           0       -2.818443    0.850135    0.016109
      4          1           0       -3.429946   -0.805226    0.060005
      5          6           0       -1.269757   -0.680410    0.296764
      6          1           0       -1.302900   -0.621936    1.394899
      7          1           0       -1.159134   -1.746382    0.053919
      8          6           0       -0.017698    0.067586   -0.206931
      9          1           0       -0.024989    0.021600   -1.308032
     10          6           0        1.256592   -0.666014    0.286113
     11          1           0        1.152791   -1.733368    0.042662
     12          1           0        1.300997   -0.604291    1.383920
     13          6           0        2.541599   -0.143199   -0.315015
     14          1           0        2.947275    0.807454    0.044213
     15          1           0        2.696398   -0.286054   -1.391064
     16          6           0       -0.026298    1.547815    0.206728
     17          1           0       -0.914786    2.066438   -0.167873
     18          1           0       -0.019248    1.645331    1.300749
     19          1           0        0.847532    2.081836   -0.180731
 ---------------------------------------------------------------------
                    Distance matrix (angstroms):
                    1          2          3          4          5
     1  C    0.000000
     2  H    1.097330   0.000000
     3  H    1.095344   1.770025   0.000000
     4  H    1.095942   1.769634   1.765243   0.000000
     5  C    1.533004   2.183790   2.195396   2.176706   0.000000
     6  H    2.165112   3.085431   2.522880   2.517908   1.100190
     7  H    2.153200   2.539583   3.081662   2.458130   1.098866
     8  C    2.593016   2.839830   2.916556   3.532208   1.543004
     9  H    2.776686   2.575387   3.200500   3.761502   2.148869
    10  C    3.926312   4.215016   4.356319   4.694053   2.526412
    11  H    4.072473   4.281627   4.737710   4.675813   2.653682
    12  H    4.261358   4.787591   4.577777   4.916802   2.792218
    13  C    5.139556   5.240060   5.461355   6.019823   3.897346
    14  H    5.641771   5.806601   5.765944   6.577988   4.478937
    15  H    5.409838   5.285531   5.803837   6.317217   4.328356
    16  C    3.136578   3.490708   2.884297   4.140429   2.553290
    17  H    2.809401   3.077112   2.266528   3.824187   2.808392
    18  H    3.534087   4.152454   3.180900   4.379216   2.825037
    19  H    4.122726   4.302731   3.872364   5.166226   3.512964
                    6          7          8          9         10
     6  H    0.000000
     7  H    1.755925   0.000000
[...]
 .07234637,0.06994102,-0.19074603,-0.11394125,0.06548588,0.00012943,0.0
 0069947,0.00039774,0.00591477,0.00383922,-0.00326126,0.20877742,-0.114
 54462,-0.13973286,0.05163969,0.00299176,0.00119549,-0.00085899,-0.0234
 2176,-0.01784976,0.01167846,0.12379097,0.14878055,0.06579709,0.0516402
 8,-0.07934314,0.02485343,0.02063817,-0.01014399,-0.00805791,-0.0056555
 9,0.00289971,-0.07048302,-0.05795730,0.08155435,-0.16388173,0.02960194
 ,-0.03807817,-0.00006999,-0.00041862,-0.00050872,-0.00510652,0.0024009
 4,-0.00215378,-0.02182908,0.01001463,-0.01084845,0.45922088,0.03215865
 ,-0.09417604,0.01397935,-0.00245332,0.00029762,-0.00062713,0.02917822,
 -0.00872426,0.01419545,-0.01777569,0.00676891,-0.00911983,-0.02130479,
 0.55593741,-0.03747921,0.01411805,-0.09827869,-0.03151426,0.01124146,-
 0.01277053,0.00888448,-0.00196161,0.00349083,0.01101140,-0.00479260,0.
 00437697,0.00048869,0.03210652,0.56352985,-0.00046362,-0.00244118,-0.0
 3171933,-0.00548651,0.00223122,-0.00246282,0.00139153,-0.00002692,0.00
 082254,0.00103858,-0.00064612,0.00051615,-0.04862986,0.00061308,0.0070
 2241,0.05704669,0.00036256,0.00056023,0.01169196,0.00211479,0.00024730
 ,0.00138485,-0.00078661,0.00046688,0.00026494,-0.00026799,0.00012910,-
 0.00052006,0.00062871,-0.05318647,-0.02109027,0.00001002,0.05315341,-0
 .00031010,-0.00094473,-0.01230212,-0.00247265,0.00086973,0.00062906,0.
 00013064,0.00046927,0.00064285,-0.00039675,-0.00028811,0.00044933,0.00
 642213,-0.02076516,-0.29544781,-0.00702788,0.02123454,0.32407251,-0.00
 652212,0.03051577,0.00675996,0.00117632,-0.00067902,-0.00005458,-0.005
 30441,0.00177276,-0.00314115,0.00106411,-0.00031921,0.00073749,-0.0506
 2289,0.02950725,0.00716427,-0.00052178,0.00085587,0.00029746,0.0629203
 3,0.00211049,-0.00962435,-0.00210561,-0.00018398,0.00020061,0.00045841
 ,0.00171227,0.00100177,0.00113906,0.00033475,0.00086425,-0.00011837,0.
 02887997,-0.28423392,-0.05340341,0.00012671,-0.00217751,-0.00133809,-0
 .03207042,0.31076580,-0.00257641,0.01379914,0.00295227,0.00079567,0.00
 023076,0.00054688,-0.00262241,0.00127836,-0.00014614,0.00066295,-0.000
 46238,0.00034511,0.00663503,-0.05347612,-0.06419019,0.00408839,-0.0329
 0912,-0.00703166,-0.00687016,0.05754878,0.06416061,-0.02737168,-0.0136
 2555,0.00860724,0.00207476,-0.00047253,0.00117542,0.00122522,-0.000476
 49,0.00041160,-0.00329672,0.00186931,-0.00153837,-0.13425443,-0.038373
 15,0.02774053,-0.00235388,-0.00132323,0.00139269,0.00121482,0.00130963
 ,-0.00040984,0.45643433,0.00572259,0.00804915,-0.00599874,-0.00001310,
 0.00025937,0.00018766,0.00093710,-0.00046240,-0.00054497,0.00391855,-0
 .00075358,0.00120782,-0.03452275,-0.10418724,0.01849576,0.00188411,0.0
 0045508,-0.00080504,-0.02601800,-0.01854346,0.01330595,0.00541438,0.47
 558262,-0.00879694,-0.00877404,0.00544708,-0.00171412,-0.00058890,0.00
 030836,0.00051317,0.00034784,-0.00002611,-0.00407050,0.00106990,-0.001
 20281,0.02794862,0.01785929,-0.09493389,0.02769055,0.01806165,-0.01426
 987,-0.00691813,-0.00484988,0.00224513,-0.00270926,0.00937902,0.583007
 98,0.00170136,0.00044239,0.00138313,-0.00027020,0.00001364,-0.00089218
 ,-0.00012249,0.00001303,-0.00001278,0.00034125,-0.00008936,-0.00030991
 ,-0.00261712,0.00097946,0.02804680,-0.00416720,-0.00287912,0.00231879,
 0.00081842,0.00022032,-0.00075132,-0.04831902,-0.00036572,-0.00019453,
 0.05739860,0.00092501,0.00021947,-0.00026442,-0.00006613,0.00018630,-0
 .00034685,-0.00008516,0.00005174,-0.00006631,0.00020240,-0.00012229,-0
 .00000045,-0.00153779,0.00052931,0.01764004,-0.00290927,-0.00115796,0.
 00152261,0.00073469,0.00051448,-0.00005062,-0.00024314,-0.05023436,-0.
 01743802,0.00004503,0.05882601,-0.00098077,-0.00024173,0.00052618,0.00
 098177,-0.00017042,0.00071323,-0.00000044,0.00000884,0.00008481,-0.000
 01418,0.00009133,0.00046108,0.00103369,-0.00034953,-0.01388378,0.00184
 411,0.00179362,0.00034036,-0.00001585,0.00053453,0.00046566,-0.0002554
 7,-0.01795151,-0.28915316,0.00041127,0.01858754,0.31744392,-0.00214882
 ,-0.00273496,0.00239690,0.00000179,-0.00009496,-0.00008208,-0.00013332
 ,0.00017893,0.00008343,-0.00102865,0.00054447,-0.00051930,-0.03196527,
 0.00882301,-0.00929635,0.00161405,0.00067466,-0.00084727,0.00069594,0.
 00173183,-0.00048598,-0.12972633,0.02952311,-0.02233976,-0.00365609,0.
 00166770,-0.00168577,0.45044539,-0.00283599,-0.00239569,0.00150458,0.0
 0020741,-0.00003375,-0.00003199,-0.00006518,0.00006106,0.00010940,-0.0
 0136887,0.00037133,-0.00022068,-0.01047072,0.00668560,-0.00575993,-0.0
 0002422,0.00004109,-0.00006016,-0.00214295,0.00028463,-0.00024414,0.03
 570508,-0.08899078,0.01359340,-0.00130365,0.00047997,-0.00048571,0.023
 16885,0.48244408,0.00179049,0.00168271,-0.00178989,0.00004155,0.000040
 92,0.00049167,-0.00009373,-0.00012924,0.00005330,0.00095316,-0.0001267
 6,0.00068651,0.01041042,-0.00632767,0.00525471,0.00112874,-0.00010192,
 0.00002108,-0.00027404,-0.00029628,0.00013634,-0.02634650,0.01503132,-
 0.09462469,-0.02961061,0.01539081,-0.01303986,-0.00867939,0.01450920,0
 .56152843,0.00027565,-0.00004083,-0.00015120,0.00002406,0.00001699,0.0
 0003398,0.00016243,-0.00005655,0.00002845,0.00006499,-0.00005254,0.000
 03539,0.00058329,0.00219751,0.00041262,-0.00004251,-0.00012748,0.00006
 507,-0.00062656,-0.00069281,-0.00018357,-0.00136092,0.02779612,0.00523
 359,0.00094738,-0.00074763,0.00002561,-0.04014272,-0.02102858,-0.00510
 548,0.05517991,0.00017618,0.00055144,0.00030758,-0.00000320,-0.0000549
 7,-0.00001290,-0.00034765,0.00017313,-0.00004055,0.00005161,0.00002370
 ,0.00001479,-0.00214462,0.00008067,-0.00042664,0.00005266,0.00001719,0
 .00007249,0.00064819,0.00128894,-0.00005955,0.00077692,-0.01768994,-0.
 00428727,-0.00029928,0.00051822,0.00049826,-0.00667591,-0.26428166,-0.
 04722014,0.01698855,0.29604559,0.00015160,0.00015905,-0.00014203,-0.00
 004953,0.00002794,-0.00004828,-0.00000673,0.00000112,-0.00002974,0.000
 06076,-0.00003719,0.00000617,0.00046565,-0.00008762,0.00020168,0.00001
 067,-0.00017566,-0.00005266,0.00016768,-0.00011996,0.00027887,-0.00166
 299,0.01228246,0.00199076,0.00073041,0.00003151,0.00041213,-0.00163359
 ,-0.03942198,-0.05511128,0.00257199,0.04660812,0.05645079,-0.00017502,
 0.00003646,0.00013967,0.00012770,-0.00003781,0.00025548,0.00001540,0.0
 0000882,0.00000991,-0.00005457,0.00000434,0.00008354,0.00165110,0.0001
 4559,-0.00127874,-0.00040642,0.00002781,0.00075093,-0.00009031,-0.0000
 3653,0.00000889,-0.00242291,-0.00314494,-0.02838768,-0.00477395,0.0025
 8726,-0.00180009,-0.05121180,0.00054037,-0.01317663,0.00033697,0.00007
 817,-0.00232551,0.05722548,-0.00006027,-0.00005370,0.00009890,-0.00002
 678,-0.00003433,-0.00003731,0.00002811,-0.00001987,0.00000430,-0.00001
 104,-0.00000896,-0.00006818,-0.00062296,-0.00005861,-0.00022544,-0.000
 11148,0.00032667,-0.00014535,0.00008115,0.00002863,-0.00016928,0.00088
 413,0.00066528,0.01510580,0.00263963,-0.00076458,0.00157171,0.00055773
 ,-0.04941608,-0.02616154,-0.00199483,-0.00431263,-0.03319384,0.0019859
 8,0.05314056,-0.00019938,0.00002139,0.00047899,0.00026800,-0.00003699,
 0.00008595,-0.00002082,0.00002165,-0.00000899,-0.00011552,0.00001781,-
 0.00000764,0.00075044,0.00005399,-0.00004018,-0.00066587,-0.00023461,0
 .00071588,-0.00005676,0.00007815,0.00001231,-0.00148906,-0.00087555,-0
 .01248754,-0.00220581,0.00117951,0.00046145,-0.01288639,-0.02541624,-0
 .29376186,-0.00069569,-0.00207793,-0.00724134,0.01391979,0.02605365,0.
 32264801,-0.00049364,-0.00083493,0.00086261,0.00005176,-0.00001669,-0.
 00004567,-0.00004646,-0.00000327,0.00000368,-0.00041215,0.00009285,-0.
 00016339,-0.00345167,0.00290367,-0.00182897,-0.00008763,0.00005418,0.0
 0023458,0.00027372,-0.00001285,-0.00016155,-0.03191185,-0.00970655,0.0
 0802106,0.00172084,-0.00077485,0.00130488,-0.18222705,-0.05125201,0.04
 990881,-0.00917967,-0.01162934,0.00320748,0.00131864,-0.00079648,0.000
 30679,0.55187811,0.00061095,0.00078559,-0.00023718,-0.00001575,-0.0000
 2069,0.00004143,-0.00019272,0.00005105,-0.00002678,0.00029570,-0.00003
 209,0.00010532,0.00115188,-0.00132283,0.00110360,-0.00012843,-0.000142
 69,0.00008130,0.00031371,0.00055274,0.00012169,0.00446248,0.00523943,-
 0.00695751,0.00028182,0.00016338,0.00035467,-0.05296996,-0.06787007,0.
 03383887,-0.02646586,-0.01056511,0.01367643,0.00021834,-0.00059455,0.0
 0083802,0.09513735,0.11324435,-0.00089216,-0.00055456,0.00097592,0.000
 12889,-0.00004912,-0.00002500,-0.00004569,0.00010040,0.00000441,-0.000
 44429,0.00011465,-0.00016103,-0.00272379,0.00201155,-0.00173539,-0.000
 10430,0.00003142,0.00051996,0.00007744,0.00031647,-0.00017294,-0.00671
 822,-0.00805890,0.00744669,-0.00139068,-0.00047769,0.00061032,0.046165
 87,0.03219346,-0.11408063,-0.00083192,0.00371592,0.00311116,0.02954386
 ,0.01544441,-0.01374855,0.06583161,-0.12026625,0.57569332,-0.00025332,
 -0.00035056,0.00035744,0.00001908,0.00000451,-0.00003499,-0.00003153,0
 .00005615,-0.00000514,-0.00022202,0.00004752,-0.00006747,-0.00086472,0
 .00116899,-0.00079246,-0.00003451,-0.00000653,0.00010499,0.00010223,0.
 00005050,-0.00004863,-0.00211353,-0.00354556,0.00265649,0.00024433,-0.
 00006265,-0.00008690,-0.01264009,0.00335769,-0.01283830,-0.00097524,-0
 .00032185,0.00003590,0.00113048,0.00048972,0.00015167,-0.27190930,-0.0
 1494225,-0.13113575,0.28349376,-0.00011676,-0.00017138,0.00017364,0.00
 001080,0.00000266,-0.00001494,0.00001309,0.00001188,-0.00000402,-0.000
 07078,0.00003142,-0.00003171,-0.00036719,0.00046593,-0.00044075,0.0000
 2543,0.00001246,0.00003135,-0.00003300,-0.00002020,-0.00001520,0.00086
 421,-0.00170227,0.00179622,-0.00002954,-0.00008437,-0.00017210,-0.0102
 0306,0.00480525,-0.00758724,0.00076948,-0.00118472,0.00045170,0.000683
 56,0.00004257,0.00054313,-0.01103636,-0.01297756,0.01112047,0.01431645
 ,0.00780076,0.00017420,0.00012785,-0.00017392,-0.00000049,0.00000979,0
 .00001394,0.00002359,-0.00002037,0.00000264,0.00010933,-0.00002198,0.0
 0002908,0.00074745,-0.00032376,0.00064548,-0.00009783,-0.00005530,-0.0
 0000265,-0.00005695,-0.00006130,0.00000758,0.00188028,0.00167106,-0.00
 118609,0.00026458,0.00003810,0.00043275,0.01255176,-0.00017830,0.00867
 378,0.00064044,0.00048838,0.00001855,-0.00053496,-0.00070636,0.0013049
 9,-0.13020717,0.00814306,-0.12920043,0.13873043,-0.00831130,0.12858839
 ,0.00002156,0.00002905,-0.00006473,-0.00005501,0.00000619,-0.00003754,
 -0.00002626,0.00001729,-0.00000715,0.00000840,0.00000037,-0.00000030,-
 0.00009474,-0.00010446,-0.00016224,0.00010353,0.00003979,-0.00025243,0
 .00005920,0.00005806,0.00003842,0.00237781,-0.00006155,0.00176223,-0.0
 0021313,-0.00004564,-0.00090818,0.00323571,-0.00265240,0.02342619,-0.0
 0003313,-0.00056922,0.00012436,-0.00394563,-0.00239244,0.00252754,-0.0
 5543629,-0.01088961,0.00271844,0.00413455,0.00505664,-0.02421232,0.049
 96412,0.00002079,0.00001230,-0.00002539,-0.00002175,0.00001194,-0.0000
 1525,0.00001397,-0.00001191,-0.00001058,-0.00001127,-0.00001497,0.0000
 0831,0.00002548,-0.00010833,-0.00004119,0.00007941,0.00000845,-0.00007
 402,-0.00003217,-0.00006174,0.00002754,-0.00010149,0.00029617,-0.00054
 814,-0.00031668,0.00016712,-0.00036071,0.00206699,0.00087613,0.0126189
 7,0.00044274,0.00007112,-0.00108336,-0.00188859,0.00006969,-0.00036216
 ,-0.01140789,-0.02624313,0.06389557,-0.00022235,0.00282920,-0.00062038
 ,0.01122508,0.02229036,0.00004386,0.00006186,-0.00003459,0.00002402,0.
 00000103,0.00001860,0.00002455,-0.00002291,-0.00000136,0.00004019,-0.0
 0001546,0.00000758,0.00010158,-0.00015647,0.00039606,-0.00020560,-0.00
 004774,0.00004741,-0.00005175,-0.00005816,-0.00002130,-0.00123422,0.00
 052647,0.00034189,0.00084378,-0.00022669,0.00051918,-0.00196914,-0.000
 34443,-0.00799643,0.00017001,0.00023308,-0.00025805,0.00197059,0.00166
 461,0.00007193,0.00185706,0.06945134,-0.32938459,0.00302379,0.00248557
 ,-0.00917511,-0.00480035,-0.07321355,0.34539091,0.00060640,-0.00089539
 ,0.00014433,-0.00007141,-0.00009206,-0.00031366,-0.00074266,-0.0003628
 5,0.00019753,0.00008357,0.00019392,-0.00009076,0.00133292,-0.02824591,
 -0.00703416,0.00086551,0.00067058,-0.00063825,-0.00479086,-0.00385390,
 0.00178977,-0.08106565,0.00177487,0.00106766,-0.00004038,0.00030128,0.
 00006003,-0.00249066,0.02946586,0.00671487,-0.00511051,0.00363734,-0.0
 0150953,0.00115221,-0.00058441,0.00071468,0.00031384,0.00215825,-0.000
 38591,-0.00011047,0.00007611,0.00001653,-0.00019933,0.00003661,0.00041
 407,0.58573116,-0.00067443,0.00100373,0.00028034,-0.00009974,-0.000030
 84,-0.00009735,0.00009027,-0.00072862,-0.00041336,0.00066131,-0.000409
 56,0.00010730,-0.00560495,-0.02145429,-0.00265948,0.00145672,0.0012377
 2,-0.00089756,-0.00156112,-0.00002432,0.00029255,0.00301432,-0.1755552
 4,-0.02603252,0.00038715,-0.00531508,-0.00134294,0.00717247,-0.0199664
 1,-0.00177101,0.00144936,-0.00000141,0.00032423,-0.00152698,0.00103989
 ,-0.00079522,-0.00015262,-0.00078773,-0.00057652,-0.00039034,0.0000607
 7,0.00006018,0.00006877,0.00020372,0.00015808,-0.00067726,0.47811972,0
 .00043520,-0.00024479,-0.00046512,0.00011205,-0.00000160,0.00010937,-0
 .00030910,0.00029624,0.00054844,0.00002409,0.00035156,0.00017449,-0.00
 103540,0.01092886,0.00319443,0.00006609,0.00153012,0.00057913,0.002317
 93,0.00251023,-0.00049254,0.00070546,-0.02794765,-0.08874981,0.0012202
 5,-0.03466092,-0.00845735,-0.00045363,0.01077771,0.00307054,-0.0025104
 9,0.00244956,-0.00036227,-0.00010688,0.00139984,0.00063556,0.00065105,
 0.00046911,0.00011396,-0.00008024,-0.00016394,0.00009361,-0.00010575,-
 0.00012904,0.00005011,0.00117066,-0.03030155,0.56300874,-0.00098717,-0
 .00053923,0.00017494,0.00003235,0.00009369,0.00001294,-0.00088611,-0.0
 0147433,-0.00006792,0.00014527,-0.00023799,0.00001746,-0.00022855,0.00
 020756,0.00035769,-0.00000018,-0.00005659,0.00002409,0.00012849,0.0001
 4559,-0.00009115,0.00039596,-0.00038093,0.00072522,0.00021322,0.000328
 57,0.00040063,0.00082661,0.00041196,0.00069959,-0.00018360,-0.00011388
 ,-0.00016508,0.00001830,-0.00018657,-0.00000047,0.00007632,0.00058948,
 -0.00002510,0.00000419,-0.00005374,0.00000938,0.00002076,-0.00010171,-
 0.00005630,-0.21620263,0.09553552,-0.08475270,0.23516074,-0.00000906,-
 0.00057602,-0.00022835,-0.00009362,-0.00005178,-0.00010275,-0.00131440
 ,0.00010097,0.00031011,-0.00013700,0.00050950,-0.00004247,0.00099084,0
 .00090077,0.00045522,-0.00012459,-0.00010524,-0.00001342,-0.00000796,0
 .00019262,-0.00019452,0.02672004,-0.01275915,0.01439167,-0.00021208,0.
 00147486,-0.00031922,-0.00145267,-0.00586077,-0.00264183,0.00185738,-0
 .00126785,0.00046052,-0.00028759,0.00011398,0.00004402,-0.00080833,0.0
 0008520,0.00041659,0.00015632,0.00004181,-0.00005848,0.00011900,-0.000
 04609,-0.00014480,0.09458482,-0.10293836,0.04780272,-0.10449318,0.1113
 8686,-0.00054383,0.00043355,0.00050953,-0.00000622,-0.00014344,-0.0001
 8099,0.00040095,-0.00037224,0.00005799,0.00007132,-0.00027287,-0.00014
 362,-0.00048101,0.00056085,-0.00006882,-0.00006390,0.00003154,0.000034
 54,0.00019126,0.00003166,-0.00003485,0.00867723,-0.00405201,0.00298620
 ,0.00041787,0.00059579,0.00060315,-0.00021424,-0.00175836,-0.00011128,
 0.00034509,-0.00027941,0.00055533,0.00021294,-0.00025122,0.00043623,-0
 .00006805,-0.00012134,0.00003694,0.00003797,-0.00000107,-0.00001792,-0
 .00002434,0.00003081,0.00003999,-0.08446887,0.04850815,-0.09278844,0.0
 9354832,-0.05162360,0.09561130,-0.00008948,-0.00002298,0.00003817,0.00
 006120,0.00011545,0.00013418,-0.00005388,0.00007555,-0.00013615,-0.000
 01191,-0.00002858,0.00005234,0.00035103,-0.00011372,-0.00125449,0.0001
 6810,-0.00007837,0.00015875,-0.00006250,0.00007305,0.00011583,-0.00109
 795,-0.00013852,0.00056525,0.00072089,0.00003711,-0.00000204,0.0003184
 2,-0.00005337,0.00129497,0.00001049,-0.00003647,-0.00019974,0.00008326
 ,0.00018790,-0.00029821,-0.00015867,-0.00018680,-0.00000144,-0.0000505
 9,0.00006990,-0.00003281,0.00010114,-0.00001506,-0.00015672,-0.0507007
 4,0.00155354,0.01104761,0.00229411,-0.00362254,-0.02731881,0.04816757,
 -0.00012753,-0.00001361,0.00009636,0.00018231,-0.00003325,0.00010386,-
 0.00007665,0.00001596,-0.00000744,-0.00006634,0.00004803,0.00000673,0.
 00081558,0.00186351,-0.00137108,-0.00034052,-0.00008583,0.00102325,0.0
 0028721,0.00035374,0.00038481,0.00135545,-0.00442660,-0.03448400,0.000
 27309,-0.00669255,-0.00169992,-0.00108896,0.00141875,-0.00117738,-0.00
 022881,0.00030457,0.00034907,0.00038850,-0.00001886,0.00089911,0.00012
 532,0.00008914,0.00017332,0.00005285,0.00001057,-0.00000470,-0.0001270
 2,-0.00005388,0.00003606,0.00149003,-0.05126766,-0.02503428,-0.0022022
 7,0.00123941,0.01506462,-0.00150651,0.05595423,-0.00019018,-0.00021098
 ,0.00010894,0.00012381,0.00011685,0.00012146,-0.00008196,0.00002063,-0
 .00022102,-0.00006309,-0.00004468,0.00001728,0.00048257,0.00083638,0.0
 0045887,-0.00063869,-0.00059942,0.00059833,-0.00005487,-0.00002247,0.0
 0040276,0.00014946,-0.00165301,-0.00959508,0.00015350,-0.00201361,0.00
 107949,-0.00042485,0.00060422,0.00045975,0.00005925,-0.00003828,0.0003
 3730,0.00063524,-0.00047884,0.00052769,0.00016747,-0.00006945,-0.00002
 627,0.00008797,-0.00003798,0.00002874,-0.00012488,0.00000580,0.0001077
 7,0.01088519,-0.02510498,-0.30183348,0.00115493,-0.00088493,-0.0121949
 1,-0.01219389,0.03021497,0.32958943,-0.00004883,0.00019593,0.00027866,
 0.00001667,-0.00004513,-0.00005509,0.00034931,-0.00024665,-0.00011174,
 0.00003335,-0.00020996,-0.00001400,0.00047735,0.00048805,-0.00048802,-
 0.00003388,0.00008697,0.00004520,0.00008786,0.00009732,0.00006606,0.00
 157195,0.00092678,-0.00105293,0.00007329,-0.00035679,-0.00031230,0.000
 23290,0.00034072,-0.00024412,0.00006971,-0.00026820,0.00002622,0.00002
 107,-0.00006711,-0.00000493,-0.00031886,0.00057141,0.00023314,0.000076
 72,0.00002476,-0.00000543,-0.00002326,0.00020790,-0.00003944,-0.228560
 30,-0.10070199,0.07160380,-0.02082808,-0.01186539,0.00928633,-0.000050
 49,0.00079427,-0.00012699,0.24685354,0.00078325,-0.00020754,0.00006955
 ,-0.00006364,0.00002461,-0.00006000,-0.00021612,0.00035810,0.00006974,
 -0.00014374,0.00020179,0.00000590,0.00248441,-0.00607775,-0.00298827,0
 .00027339,0.00020012,0.00002708,-0.00185276,-0.00136273,0.00059134,-0.
 02776038,-0.01524208,0.01235551,0.00019986,0.00124033,-0.00034670,-0.0
 0088927,0.00134732,0.00042822,-0.00008221,0.00028373,-0.00025255,0.000
 21725,-0.00014509,0.00004828,0.00011877,0.00034555,0.00044879,0.000141
 37,0.00002522,-0.00017620,0.00022210,-0.00029615,-0.00038789,-0.099677
 88,-0.10318602,0.03996781,0.01252807,0.00755928,-0.00638138,0.00369042
 ,0.00129434,-0.00064021,0.11002712,0.11363696,-0.00002990,-0.00002282,
 0.00019169,0.00003590,0.00003870,0.00001278,0.00005802,-0.00004708,-0.
 00017603,0.00003177,-0.00008507,-0.00000542,0.00034303,-0.00129896,-0.
 00019959,-0.00020340,-0.00029052,0.00045633,-0.00021925,-0.00024376,0.
 00053610,-0.00837598,-0.00420014,0.00245498,-0.00042256,0.00055968,0.0
 0038044,0.00031975,0.00062995,0.00013979,-0.00014313,0.00005449,-0.000
 11708,0.00007965,0.00009414,-0.00008289,0.00011771,-0.00054633,0.00002
 217,-0.00009676,0.00017817,-0.00008343,0.00010304,-0.00010322,-0.00012
 003,0.07126580,0.04026165,-0.07842937,-0.01196648,-0.00762649,0.004669
 63,0.02818721,0.01542664,-0.00996707,-0.07908441,-0.04277902,0.0803169
 8\\0.00000033,-0.00000051,0.00000010,-0.00000008,0.00000028,0.00000004
 ,-0.00000023,-0.00000084,0.00000071,0.00000009,-0.00000084,-0.00000030
 ,-0.00000082,-0.00000062,-0.00000020,0.00000046,-0.00000108,-0.0000004
 5,0.00000053,-0.00000031,-0.00000109,0.00000121,0.00000007,0.00000016,
 -0.00000033,0.00000088,-0.00000006,0.00000045,0.00000157,-0.00000148,0
 .00000037,0.00000006,-0.00000105,0.00000059,-0.00000073,-0.00000013,-0
 .00000091,0.00000023,-0.00000050,-0.00000026,0.00000069,-0.00000034,0.
 00000012,0.00000160,0.00000015,-0.00000062,0.00000001,0.00000081,-0.00
 000029,-0.00000008,0.00000141,-0.00000022,-0.00000087,0.00000100,-0.00
 000038,0.00000049,0.00000123\\\@


 CONFIDENCE IS WHAT YOU FEEL BEFORE YOU FULLY
 COMPREHEND THE SITUATION.
 Job cpu time:       0 days  0 hours 34 minutes 59.9 seconds.
 File lengths (MBytes):  RWF=     64 Int=      0 D2E=      0 Chk=      3 Scr=      1
 Normal termination of Gaussian 09 at Sat Nov  7 02:33:10 2015.
