 Entering Gaussian System, Link 0=g09
 Input=C6H14_3_r004_C8_2_opt_B3L.gjf
 Output=C6H14_3_r004_C8_2_opt_B3L.log
 Initial command:
 /HOME/tsinghua_xqyou_1/softwares/gaussian/g09D01/g09/l1.exe "/WORK/tsinghua_xqyou_1/scratch/Gau-3551.inp" -scrdir="/WORK/tsinghua_xqyou_1/scratch/"
 Entering Link 1 = /HOME/tsinghua_xqyou_1/softwares/gaussian/g09D01/g09/l1.exe PID=      3552.
  
 Copyright (c) 1988,1990,1992,1993,1995,1998,2003,2009,2013,
            Gaussian, Inc.  All Rights Reserved.
  
 This is part of the Gaussian(R) 09 program.  It is based on
 the Gaussian(R) 03 system (copyright 2003, Gaussian, Inc.),
 the Gaussian(R) 98 system (copyright 1998, Gaussian, Inc.),
 the Gaussian(R) 94 system (copyright 1995, Gaussian, Inc.),
 the Gaussian 92(TM) system (copyright 1992, Gaussian, Inc.),
 the Gaussian 90(TM) system (copyright 1990, Gaussian, Inc.),
 the Gaussian 88(TM) system (copyright 1988, Gaussian, Inc.),
 the Gaussian 86(TM) system (copyright 1986, Carnegie Mellon
 University), and the Gaussian 82(TM) system (copyright 1983,
 Carnegie Mellon University). Gaussian is a federally registered
 trademark of Gaussian, Inc.
  
 This software contains proprietary and confidential information,
 including trade secrets, belonging to Gaussian, Inc.
  
 This software is provided under written license and may be
 used, copied, transmitted, or stored only in accord with that
 written license.
  
 The following legend is applicable only to US Government
 contracts under FAR:
  
                    RESTRICTED RIGHTS LEGEND
  
 Use, reproduction and disclosure by the US Government is
 subject to restrictions as set forth in subparagraphs (a)
 and (c) of the Commercial Computer Software - Restricted
 Rights clause in FAR 52.227-19.
  
 Gaussian, Inc.
 340 Quinnipiac St., Bldg. 40, Wallingford CT 06492
  
  
 ---------------------------------------------------------------
 Warning -- This program may not be used in any manner that
 competes with the business of Gaussian, Inc. or will provide
 assistance to any competitor of Gaussian, Inc.  The licensee
 of this program is prohibited from giving any competitor of
 Gaussian, Inc. access to this program.  By using this program,
 the user acknowledges that Gaussian, Inc. is engaged in the
 business of creating and licensing software in the field of
 computational chemistry and represents and warrants to the
 licensee that it is not a competitor of Gaussian, Inc. and that
 it will not use this program in any manner prohibited above.
 ---------------------------------------------------------------
  

 Cite this work as:
 Gaussian 09, Revision D.01,
 M. J. Frisch, G. W. Trucks, H. B. Schlegel, G. E. Scuseria, 
 M. A. Robb, J. R. Cheeseman, G. Scalmani, V. Barone, B. Mennucci, 
 G. A. Petersson, H. Nakatsuji, M. Caricato, X. Li, H. P. Hratchian, 
 A. F. Izmaylov, J. Bloino, G. Zheng, J. L. Sonnenberg, M. Hada, 
 M. Ehara, K. Toyota, R. Fukuda, J. Hasegawa, M. Ishida, T. Nakajima, 
 Y. Honda, O. Kitao, H. Nakai, T. Vreven, J. A. Montgomery, Jr., 
 J. E. Peralta, F. Ogliaro, M. Bearpark, J. J. Heyd, E. Brothers, 
 K. N. Kudin, V. N. Staroverov, T. Keith, R. Kobayashi, J. Normand, 
 K. Raghavachari, A. Rendell, J. C. Burant, S. S. Iyengar, J. Tomasi, 
 M. Cossi, N. Rega, J. M. Millam, M. Klene, J. E. Knox, J. B. Cross, 
 V. Bakken, C. Adamo, J. Jaramillo, R. Gomperts, R. E. Stratmann, 
 O. Yazyev, A. J. Austin, R. Cammi, C. Pomelli, J. W. Ochterski, 
 R. L. Martin, K. Morokuma, V. G. Zakrzewski, G. A. Voth, 
 P. Salvador, J. J. Dannenberg, S. Dapprich, A. D. Daniels, 
 O. Farkas, J. B. Foresman, J. V. Ortiz, J. Cioslowski, 
 and D. J. Fox, Gaussian, Inc., Wallingford CT, 2013.
 
 ******************************************
 Gaussian 09:  ES64L-G09RevD.01 24-Apr-2013
                11-Apr-2016 
 ******************************************
 %mem=15GB
 %nprocshared=6
 Will use up to    6 processors via shared memory.
 --------------------------------------------------------
 #p B3LYP/6-31G(d) opt=(tight,calcall) int=ultrafine freq
 --------------------------------------------------------
 1/7=10,10=4,14=-1,18=20,19=15,26=4,38=1/1,3;
 2/9=110,12=2,17=6,18=5,40=1/2;
 3/5=1,6=6,7=1,11=2,16=1,25=1,30=1,71=2,74=-5,75=-5,140=1/1,2,3;
 4//1;
 5/5=2,38=5/2;
 8/6=4,10=90,11=11/1;
 11/6=1,8=1,9=11,15=111,16=1/1,2,10;
 10/6=1/2;
 6/7=2,8=2,9=2,10=2,18=1,28=1/1;
 7/10=1,25=1/1,2,3,16;
 1/7=10,10=4,14=-1,18=20,19=15,26=4/3(3);
 2/9=110/2;
 7/8=1,9=1,25=1,44=-1/16;
 99//99;
 2/9=110/2;
 3/5=1,6=6,7=1,11=2,16=1,25=1,30=1,71=2,74=-5,75=-5,140=1/1,2,3;
 4/5=5,16=3,69=1/1;
 5/5=2,38=5/2;
 8/6=4,10=90,11=11/1;
 11/6=1,8=1,9=11,15=111,16=1/1,2,10;
 10/6=1/2;
 7/10=1,25=1/1,2,3,16;
 1/7=10,10=4,14=-1,18=20,19=15,26=4/3(-8);
 2/9=110/2;
 6/7=2,8=2,9=2,10=2,18=1,19=2,28=1/1;
 7/8=1,9=1,25=1,44=-1/16;
 99//99;
 Leave Link    1 at Mon Apr 11 11:00:46 2016, MaxMem=  2013265920 cpu:         0.4
 (Enter /HOME/tsinghua_xqyou_1/softwares/gaussian/g09D01/g09/l101.exe)
 ---------------------------------------------
 using B3LYP/6-31G(d) to do opt and freq calc.
 ---------------------------------------------
 Symbolic Z-matrix:
 Charge =  0 Multiplicity = 2
 C                    -2.58543  -0.17306  -0.29185 
 H                    -2.56946  -0.21059  -1.38848 
 H                    -2.79867   0.86056   0.00159 
 H                    -3.42636  -0.7886    0.04788 
 C                    -1.2643   -0.68112   0.2975 
 H                    -1.30509  -0.61825   1.39536 
 H                    -1.16192  -1.74928   0.0599 
 C                     0.        0.05117  -0.19883 
 C                     1.2643   -0.68112   0.29751 
 H                     1.16193  -1.74928   0.05992 
 H                     1.30509  -0.61823   1.39536 
 C                     2.58543  -0.17306  -0.29185 
 H                     2.79867   0.86057   0.00157 
 H                     3.42636  -0.78859   0.04789 
 H                     2.56946  -0.21061  -1.38848 
 C                    0.         1.53336   0.20729 
 H                    -0.88093   2.05894  -0.1759 
 H                    -0.00001   1.63604   1.30101 
 H                     0.88093   2.05894  -0.17589 
 
 NAtoms=     19 NQM=       19 NQMF=       0 NMMI=      0 NMMIF=      0
                NMic=       0 NMicF=      0.
                    Isotopes and Nuclear Properties:
 (Nuclear quadrupole moments (NQMom) in fm**2, nuclear magnetic moments (NMagM)
  in nuclear magnetons)

  Atom         1           2           3           4           5           6           7           8           9          10
 IAtWgt=          12           1           1           1          12           1           1          12          12           1
 AtmWgt=  12.0000000   1.0078250   1.0078250   1.0078250  12.0000000   1.0078250   1.0078250  12.0000000  12.0000000   1.0078250
 NucSpn=           0           1           1           1           0           1           1           0           0           1
 AtZEff=   0.0000000   0.0000000   0.0000000   0.0000000   0.0000000   0.0000000   0.0000000   0.0000000   0.0000000   0.0000000
 NQMom=    0.0000000   0.0000000   0.0000000   0.0000000   0.0000000   0.0000000   0.0000000   0.0000000   0.0000000   0.0000000
 NMagM=    0.0000000   2.7928460   2.7928460   2.7928460   0.0000000   2.7928460   2.7928460   0.0000000   0.0000000   2.7928460
 AtZNuc=   6.0000000   1.0000000   1.0000000   1.0000000   6.0000000   1.0000000   1.0000000   6.0000000   6.0000000   1.0000000

  Atom        11          12          13          14          15          16          17          18          19
 IAtWgt=           1          12           1           1           1          12           1           1           1
 AtmWgt=   1.0078250  12.0000000   1.0078250   1.0078250   1.0078250  12.0000000   1.0078250   1.0078250   1.0078250
 NucSpn=           1           0           1           1           1           0           1           1           1
 AtZEff=   0.0000000   0.0000000   0.0000000   0.0000000   0.0000000   0.0000000   0.0000000   0.0000000   0.0000000
 NQMom=    0.0000000   0.0000000   0.0000000   0.0000000   0.0000000   0.0000000   0.0000000   0.0000000   0.0000000
 NMagM=    2.7928460   0.0000000   2.7928460   2.7928460   2.7928460   0.0000000   2.7928460   2.7928460   2.7928460
 AtZNuc=   1.0000000   6.0000000   1.0000000   1.0000000   1.0000000   6.0000000   1.0000000   1.0000000   1.0000000
 Leave Link  101 at Mon Apr 11 11:00:46 2016, MaxMem=  2013265920 cpu:         2.2
 (Enter /HOME/tsinghua_xqyou_1/softwares/gaussian/g09D01/g09/l103.exe)

 GradGradGradGradGradGradGradGradGradGradGradGradGradGradGradGradGradGrad
 Berny optimization.
 Initialization pass.
                           ----------------------------
                           !    Initial Parameters    !
                           ! (Angstroms and Degrees)  !
 --------------------------                            --------------------------
 ! Name  Definition              Value          Derivative Info.                !
 --------------------------------------------------------------------------------
 ! R1    R(1,2)                  1.0974         calculate D2E/DX2 analytically  !
 ! R2    R(1,3)                  1.0954         calculate D2E/DX2 analytically  !
 ! R3    R(1,4)                  1.0961         calculate D2E/DX2 analytically  !
 ! R4    R(1,5)                  1.5332         calculate D2E/DX2 analytically  !
 ! R5    R(5,6)                  1.1004         calculate D2E/DX2 analytically  !
 ! R6    R(5,7)                  1.099          calculate D2E/DX2 analytically  !
 ! R7    R(5,8)                  1.5431         calculate D2E/DX2 analytically  !
 ! R8    R(8,9)                  1.5431         calculate D2E/DX2 analytically  !
 ! R9    R(8,16)                 1.5368         calculate D2E/DX2 analytically  !
 ! R10   R(9,10)                 1.099          calculate D2E/DX2 analytically  !
 ! R11   R(9,11)                 1.1004         calculate D2E/DX2 analytically  !
 ! R12   R(9,12)                 1.5332         calculate D2E/DX2 analytically  !
 ! R13   R(12,13)                1.0954         calculate D2E/DX2 analytically  !
 ! R14   R(12,14)                1.0961         calculate D2E/DX2 analytically  !
 ! R15   R(12,15)                1.0974         calculate D2E/DX2 analytically  !
 ! R16   R(16,17)                1.095          calculate D2E/DX2 analytically  !
 ! R17   R(16,18)                1.0985         calculate D2E/DX2 analytically  !
 ! R18   R(16,19)                1.095          calculate D2E/DX2 analytically  !
 ! A1    A(2,1,3)              107.6254         calculate D2E/DX2 analytically  !
 ! A2    A(2,1,4)              107.559          calculate D2E/DX2 analytically  !
 ! A3    A(2,1,5)              111.115          calculate D2E/DX2 analytically  !
 ! A4    A(3,1,4)              107.3082         calculate D2E/DX2 analytically  !
 ! A5    A(3,1,5)              112.1749         calculate D2E/DX2 analytically  !
 ! A6    A(4,1,5)              110.8451         calculate D2E/DX2 analytically  !
 ! A7    A(1,5,6)              109.4277         calculate D2E/DX2 analytically  !
 ! A8    A(1,5,7)              108.6152         calculate D2E/DX2 analytically  !
 ! A9    A(1,5,8)              115.1572         calculate D2E/DX2 analytically  !
 ! A10   A(6,5,7)              105.9422         calculate D2E/DX2 analytically  !
 ! A11   A(6,5,8)              108.915          calculate D2E/DX2 analytically  !
 ! A12   A(7,5,8)              108.3832         calculate D2E/DX2 analytically  !
 ! A13   A(5,8,9)              110.0384         calculate D2E/DX2 analytically  !
 ! A14   A(5,8,16)             111.882          calculate D2E/DX2 analytically  !
 ! A15   A(9,8,16)             111.882          calculate D2E/DX2 analytically  !
 ! A16   A(8,9,10)             108.3833         calculate D2E/DX2 analytically  !
 ! A17   A(8,9,11)             108.915          calculate D2E/DX2 analytically  !
 ! A18   A(8,9,12)             115.1571         calculate D2E/DX2 analytically  !
 ! A19   A(10,9,11)            105.9423         calculate D2E/DX2 analytically  !
 ! A20   A(10,9,12)            108.6152         calculate D2E/DX2 analytically  !
 ! A21   A(11,9,12)            109.4277         calculate D2E/DX2 analytically  !
 ! A22   A(9,12,13)            112.1749         calculate D2E/DX2 analytically  !
 ! A23   A(9,12,14)            110.8451         calculate D2E/DX2 analytically  !
 ! A24   A(9,12,15)            111.1149         calculate D2E/DX2 analytically  !
 ! A25   A(13,12,14)           107.3082         calculate D2E/DX2 analytically  !
 ! A26   A(13,12,15)           107.6254         calculate D2E/DX2 analytically  !
 ! A27   A(14,12,15)           107.559          calculate D2E/DX2 analytically  !
 ! A28   A(8,16,17)            111.7423         calculate D2E/DX2 analytically  !
 ! A29   A(8,16,18)            110.6857         calculate D2E/DX2 analytically  !
 ! A30   A(8,16,19)            111.7423         calculate D2E/DX2 analytically  !
 ! A31   A(17,16,18)           107.6699         calculate D2E/DX2 analytically  !
 ! A32   A(17,16,19)           107.12           calculate D2E/DX2 analytically  !
 ! A33   A(18,16,19)           107.67           calculate D2E/DX2 analytically  !
 ! D1    D(2,1,5,6)            179.2076         calculate D2E/DX2 analytically  !
 ! D2    D(2,1,5,7)            -65.5701         calculate D2E/DX2 analytically  !
 ! D3    D(2,1,5,8)             56.1554         calculate D2E/DX2 analytically  !
 ! D4    D(3,1,5,6)             58.6833         calculate D2E/DX2 analytically  !
 ! D5    D(3,1,5,7)            173.9055         calculate D2E/DX2 analytically  !
 ! D6    D(3,1,5,8)            -64.369          calculate D2E/DX2 analytically  !
 ! D7    D(4,1,5,6)            -61.2484         calculate D2E/DX2 analytically  !
 ! D8    D(4,1,5,7)             53.9738         calculate D2E/DX2 analytically  !
 ! D9    D(4,1,5,8)            175.6993         calculate D2E/DX2 analytically  !
 ! D10   D(1,5,8,9)           -171.5975         calculate D2E/DX2 analytically  !
 ! D11   D(1,5,8,16)            63.3728         calculate D2E/DX2 analytically  !
 ! D12   D(6,5,8,9)             65.0777         calculate D2E/DX2 analytically  !
 ! D13   D(6,5,8,16)           -59.952          calculate D2E/DX2 analytically  !
 ! D14   D(7,5,8,9)            -49.7467         calculate D2E/DX2 analytically  !
 ! D15   D(7,5,8,16)          -174.7765         calculate D2E/DX2 analytically  !
 ! D16   D(5,8,9,10)            49.746          calculate D2E/DX2 analytically  !
 ! D17   D(5,8,9,11)           -65.0785         calculate D2E/DX2 analytically  !
 ! D18   D(5,8,9,12)           171.5967         calculate D2E/DX2 analytically  !
 ! D19   D(16,8,9,10)          174.7757         calculate D2E/DX2 analytically  !
 ! D20   D(16,8,9,11)           59.9512         calculate D2E/DX2 analytically  !
 ! D21   D(16,8,9,12)          -63.3736         calculate D2E/DX2 analytically  !
 ! D22   D(5,8,16,17)          -57.9911         calculate D2E/DX2 analytically  !
 ! D23   D(5,8,16,18)           62.0011         calculate D2E/DX2 analytically  !
 ! D24   D(5,8,16,19)         -178.0067         calculate D2E/DX2 analytically  !
 ! D25   D(9,8,16,17)          178.0062         calculate D2E/DX2 analytically  !
 ! D26   D(9,8,16,18)          -62.0016         calculate D2E/DX2 analytically  !
 ! D27   D(9,8,16,19)           57.9905         calculate D2E/DX2 analytically  !
 ! D28   D(8,9,12,13)           64.3686         calculate D2E/DX2 analytically  !
 ! D29   D(8,9,12,14)         -175.6996         calculate D2E/DX2 analytically  !
 ! D30   D(8,9,12,15)          -56.1557         calculate D2E/DX2 analytically  !
 ! D31   D(10,9,12,13)        -173.9059         calculate D2E/DX2 analytically  !
 ! D32   D(10,9,12,14)         -53.9741         calculate D2E/DX2 analytically  !
 ! D33   D(10,9,12,15)          65.5698         calculate D2E/DX2 analytically  !
 ! D34   D(11,9,12,13)         -58.6837         calculate D2E/DX2 analytically  !
 ! D35   D(11,9,12,14)          61.2481         calculate D2E/DX2 analytically  !
 ! D36   D(11,9,12,15)        -179.208          calculate D2E/DX2 analytically  !
 --------------------------------------------------------------------------------
 Trust Radius=3.00D-01 FncErr=1.00D-07 GrdErr=1.00D-06
 Number of steps in this run=     97 maximum allowed number of steps=    114.
 GradGradGradGradGradGradGradGradGradGradGradGradGradGradGradGradGradGrad

 Leave Link  103 at Mon Apr 11 11:00:46 2016, MaxMem=  2013265920 cpu:         0.1
 (Enter /HOME/tsinghua_xqyou_1/softwares/gaussian/g09D01/g09/l202.exe)
                          Input orientation:                          
 ---------------------------------------------------------------------
 Center     Atomic      Atomic             Coordinates (Angstroms)
 Number     Number       Type             X           Y           Z
 ---------------------------------------------------------------------
      1          6           0       -2.585432   -0.173063   -0.291849
      2          1           0       -2.569458   -0.210592   -1.388477
      3          1           0       -2.798673    0.860561    0.001587
      4          1           0       -3.426358   -0.788597    0.047878
      5          6           0       -1.264298   -0.681121    0.297502
      6          1           0       -1.305088   -0.618252    1.395357
      7          1           0       -1.161923   -1.749281    0.059899
      8          6           0        0.000001    0.051166   -0.198829
      9          6           0        1.264300   -0.681115    0.297508
     10          1           0        1.161927   -1.749278    0.059916
     11          1           0        1.305092   -0.618234    1.395362
     12          6           0        2.585433   -0.173062   -0.291851
     13          1           0        2.798671    0.860567    0.001568
     14          1           0        3.426361   -0.788588    0.047886
     15          1           0        2.569459   -0.210609   -1.388479
     16          6           0       -0.000004    1.533363    0.207287
     17          1           0       -0.880930    2.058937   -0.175897
     18          1           0       -0.000012    1.636037    1.301012
     19          1           0        0.880926    2.058939   -0.175885
 ---------------------------------------------------------------------
                    Distance matrix (angstroms):
                    1          2          3          4          5
     1  C    0.000000
     2  H    1.097386   0.000000
     3  H    1.095425   1.769798   0.000000
     4  H    1.096108   1.769600   1.765178   0.000000
     5  C    1.533249   2.183430   2.195144   2.179075   0.000000
     6  H    2.164287   3.084566   2.521959   2.518830   1.100410
     7  H    2.152805   2.538998   3.081173   2.459822   1.099046
     8  C    2.596805   2.843572   2.920251   3.536383   1.543062
     9  C    3.927581   4.214456   4.355696   4.698525   2.528598
    10  H    4.080550   4.288197   4.743523   4.687794   2.661574
    11  H    4.263923   4.788326   4.579337   4.922536   2.794820
    12  C    5.170865   5.270379   5.490271   6.052762   3.927581
    13  H    5.490269   5.647691   5.597344   6.439944   4.355697
    14  H    6.052763   6.192501   6.439944   6.852719   4.698525
    15  H    5.270380   5.138917   5.647701   6.192497   4.214452
    16  C    3.137748   3.491409   2.885745   4.142078   2.551572
    17  H    2.810800   3.077700   2.268335   3.825928   2.806955
    18  H    3.534748   4.152763   3.181567   4.380530   2.823946
    19  H    4.124429   4.304219   3.873894   5.168290   3.511981
                    6          7          8          9         10
     6  H    0.000000
     7  H    1.755896   0.000000
     8  C    2.166289   2.158383   0.000000
     9  C    2.794813   2.661577   1.543061   0.000000
    10  H    3.024696   2.323850   2.158384   1.099046   0.000000
    11  H    2.610180   3.024713   2.166288   1.100410   1.755897
    12  C    4.263921   4.080548   2.596804   1.533250   2.152804
    13  H    4.579344   4.743523   2.920247   2.195144   3.081173
    14  H    4.922530   4.687795   3.536382   2.179075   2.459823
    15  H    4.788322   4.288184   2.843573   2.183430   2.538995
    16  C    2.782841   3.485331   1.536827   2.551572   3.485331
    17  H    3.133064   3.825844   2.192649   3.511981   4.327976
    18  H    2.606519   3.788242   2.182049   2.823951   3.788242
    19  H    3.796684   4.327975   2.192649   2.806951   3.825844
                   11         12         13         14         15
    11  H    0.000000
    12  C    2.164287   0.000000
    13  H    2.521962   1.095424   0.000000
    14  H    2.518828   1.096108   1.765178   0.000000
    15  H    3.084567   1.097387   1.769799   1.769600   0.000000
    16  C    2.782834   3.137755   2.885751   4.142082   3.491425
    17  H    3.796682   4.124432   3.873893   5.168291   4.304228
    18  H    2.606518   3.534767   3.181593   4.380544   4.152788
    19  H    3.133048   2.810804   2.268332   3.825928   3.077723
                   16         17         18         19
    16  C    0.000000
    17  H    1.095029   0.000000
    18  H    1.098534   1.770910   0.000000
    19  H    1.095029   1.761856   1.770910   0.000000
 Stoichiometry    C6H13(2)
 Framework group  C1[X(C6H13)]
 Deg. of freedom    51
 Full point group                 C1      NOp   1
 Largest Abelian subgroup         C1      NOp   1
 Largest concise Abelian subgroup C1      NOp   1
                         Standard orientation:                         
 ---------------------------------------------------------------------
 Center     Atomic      Atomic             Coordinates (Angstroms)
 Number     Number       Type             X           Y           Z
 ---------------------------------------------------------------------
      1          6           0       -2.585432   -0.173035   -0.318386
      2          1           0       -2.569458   -0.210564   -1.415014
      3          1           0       -2.798673    0.860589   -0.024950
      4          1           0       -3.426358   -0.788569    0.021341
      5          6           0       -1.264298   -0.681093    0.270965
      6          1           0       -1.305088   -0.618224    1.368820
      7          1           0       -1.161923   -1.749253    0.033362
      8          6           0        0.000001    0.051194   -0.225366
      9          6           0        1.264300   -0.681087    0.270971
     10          1           0        1.161927   -1.749250    0.033379
     11          1           0        1.305092   -0.618206    1.368825
     12          6           0        2.585433   -0.173034   -0.318388
     13          1           0        2.798671    0.860595   -0.024969
     14          1           0        3.426361   -0.788560    0.021349
     15          1           0        2.569459   -0.210581   -1.415016
     16          6           0       -0.000004    1.533391    0.180750
     17          1           0       -0.880930    2.058965   -0.202434
     18          1           0       -0.000012    1.636065    1.274475
     19          1           0        0.880926    2.058967   -0.202422
 ---------------------------------------------------------------------
 Rotational constants (GHZ):      6.6643101      1.8444997      1.5774554
 Leave Link  202 at Mon Apr 11 11:00:46 2016, MaxMem=  2013265920 cpu:         0.1
 (Enter /HOME/tsinghua_xqyou_1/softwares/gaussian/g09D01/g09/l301.exe)
 Standard basis: 6-31G(d) (6D, 7F)
 Ernie: Thresh=  0.10000D-02 Tol=  0.10000D-05 Strict=F.
 There are   116 symmetry adapted cartesian basis functions of A   symmetry.
 There are   116 symmetry adapted basis functions of A   symmetry.
   116 basis functions,   220 primitive gaussians,   116 cartesian basis functions
    25 alpha electrons       24 beta electrons
       nuclear repulsion energy       243.3195638397 Hartrees.
 IExCor=  402 DFT=T Ex+Corr=B3LYP ExCW=0 ScaHFX=  0.200000
 ScaDFX=  0.800000  0.720000  1.000000  0.810000 ScalE2=  1.000000  1.000000
 IRadAn=      5 IRanWt=     -1 IRanGd=            0 ICorTp=0 IEmpDi=  4
 NAtoms=   19 NActive=   19 NUniq=   19 SFac= 1.00D+00 NAtFMM=   60 NAOKFM=F Big=F
 Integral buffers will be    131072 words long.
 Raffenetti 2 integral format.
 Two-electron integral symmetry is turned on.
 Leave Link  301 at Mon Apr 11 11:00:55 2016, MaxMem=  2013265920 cpu:        24.2
 (Enter /HOME/tsinghua_xqyou_1/softwares/gaussian/g09D01/g09/l302.exe)
 NPDir=0 NMtPBC=     1 NCelOv=     1 NCel=       1 NClECP=     1 NCelD=      1
         NCelK=      1 NCelE2=     1 NClLst=     1 CellRange=     0.0.
 One-electron integrals computed using PRISM.
 NBasis=   116 RedAO= T EigKep=  3.89D-03  NBF=   116
 NBsUse=   116 1.00D-06 EigRej= -1.00D+00 NBFU=   116
 Precomputing XC quadrature grid using
 IXCGrd= 4 IRadAn=           5 IRanWt=          -1 IRanGd=           0 AccXCQ= 0.00D+00.
 Generated NRdTot=       0 NPtTot=           0 NUsed=           0 NTot=          32
 NSgBfM=   116   116   116   116   116 MxSgAt=    19 MxSgA2=    19.
 Leave Link  302 at Mon Apr 11 11:01:03 2016, MaxMem=  2013265920 cpu:        16.6
 (Enter /HOME/tsinghua_xqyou_1/softwares/gaussian/g09D01/g09/l303.exe)
 DipDrv:  MaxL=1.
 Leave Link  303 at Mon Apr 11 11:01:06 2016, MaxMem=  2013265920 cpu:         2.3
 (Enter /HOME/tsinghua_xqyou_1/softwares/gaussian/g09D01/g09/l401.exe)
 ExpMin= 1.61D-01 ExpMax= 3.05D+03 ExpMxC= 4.57D+02 IAcc=3 IRadAn=         5 AccDes= 0.00D+00
 Harris functional with IExCor=  402 and IRadAn=       5 diagonalized for initial guess.
 HarFok:  IExCor=  402 AccDes= 0.00D+00 IRadAn=         5 IDoV= 1 UseB2=F ITyADJ=14
 ICtDFT=  3500011 ScaDFX=  1.000000  1.000000  1.000000  1.000000
 FoFCou: FMM=F IPFlag=           0 FMFlag=      100000 FMFlg1=           0
         NFxFlg=           0 DoJE=T BraDBF=F KetDBF=T FulRan=T
         wScrn=  0.000000 ICntrl=     500 IOpCl=  0 I1Cent=   200000004 NGrid=           0
         NMat0=    1 NMatS0=      1 NMatT0=    0 NMatD0=    1 NMtDS0=    0 NMtDT0=    0
 Petite list used in FoFCou.
 Harris En= -236.462207887785    
 JPrj=0 DoOrth=F DoCkMO=F.
 Initial guess <Sx>= 0.0000 <Sy>= 0.0000 <Sz>= 0.5000 <S**2>= 0.7500 S= 0.5000
 Leave Link  401 at Mon Apr 11 11:01:13 2016, MaxMem=  2013265920 cpu:        19.6
 (Enter /HOME/tsinghua_xqyou_1/softwares/gaussian/g09D01/g09/l502.exe)
 UHF open shell SCF:
 Using DIIS extrapolation, IDIIS=  1040.
 Integral symmetry usage will be decided dynamically.
 Keep R1 and R2 ints in memory in canonical form, NReq=47059932.
 IVT=       60514 IEndB=       60514 NGot=  2013265920 MDV=  1967148825
 LenX=  1967148825 LenY=  1967134928
 Requested convergence on RMS density matrix=1.00D-08 within 128 cycles.
 Requested convergence on MAX density matrix=1.00D-06.
 Requested convergence on             energy=1.00D-06.
 No special actions if energy rises.
 FoFCou: FMM=F IPFlag=           0 FMFlag=           0 FMFlg1=           0
         NFxFlg=           0 DoJE=F BraDBF=F KetDBF=F FulRan=T
         wScrn=  0.000000 ICntrl=     600 IOpCl=  0 I1Cent=           0 NGrid=           0
         NMat0=    1 NMatS0=   6786 NMatT0=    0 NMatD0=    1 NMtDS0=    0 NMtDT0=    0
 Symmetry not used in FoFCou.
 Integral accuracy reduced to 1.0D-05 until final iterations.

 Cycle   1  Pass 0  IDiag  1:
 E= -236.147014734251    
 DIIS: error= 4.95D-02 at cycle   1 NSaved=   1.
 NSaved= 1 IEnMin= 1 EnMin= -236.147014734251     IErMin= 1 ErrMin= 4.95D-02
 ErrMax= 4.95D-02  0.00D+00 EMaxC= 1.00D-01 BMatC= 9.50D-01 BMatP= 9.50D-01
 IDIUse=3 WtCom= 5.05D-01 WtEn= 4.95D-01
 Coeff-Com:  0.100D+01
 Coeff-En:   0.100D+01
 Coeff:      0.100D+01
 Gap=     0.255 Goal=   None    Shift=    0.000
 Gap=     0.218 Goal=   None    Shift=    0.000
 GapD=    0.218 DampG=1.000 DampE=0.500 DampFc=0.5000 IDamp=-1.
 Damping current iteration by 5.00D-01
 RMSDP=9.37D-03 MaxDP=1.49D-01              OVMax= 1.76D-01

 Cycle   2  Pass 0  IDiag  1:
 E= -236.266907520032     Delta-E=       -0.119892785782 Rises=F Damp=T
 DIIS: error= 8.75D-03 at cycle   2 NSaved=   2.
 NSaved= 2 IEnMin= 2 EnMin= -236.266907520032     IErMin= 2 ErrMin= 8.75D-03
 ErrMax= 8.75D-03  0.00D+00 EMaxC= 1.00D-01 BMatC= 3.65D-02 BMatP= 9.50D-01
 IDIUse=3 WtCom= 9.12D-01 WtEn= 8.75D-02
 Coeff-Com:  0.666D-01 0.933D+00
 Coeff-En:   0.105D+00 0.895D+00
 Coeff:      0.700D-01 0.930D+00
 Gap=     0.288 Goal=   None    Shift=    0.000
 Gap=     0.255 Goal=   None    Shift=    0.000
 RMSDP=1.44D-03 MaxDP=2.03D-02 DE=-1.20D-01 OVMax= 9.71D-02

 Cycle   3  Pass 0  IDiag  1:
 E= -236.410842355779     Delta-E=       -0.143934835747 Rises=F Damp=F
 DIIS: error= 1.92D-03 at cycle   3 NSaved=   3.
 NSaved= 3 IEnMin= 3 EnMin= -236.410842355779     IErMin= 3 ErrMin= 1.92D-03
 ErrMax= 1.92D-03  0.00D+00 EMaxC= 1.00D-01 BMatC= 1.94D-03 BMatP= 3.65D-02
 IDIUse=3 WtCom= 9.81D-01 WtEn= 1.92D-02
 Coeff-Com: -0.454D-02 0.122D+00 0.883D+00
 Coeff-En:   0.000D+00 0.000D+00 0.100D+01
 Coeff:     -0.445D-02 0.119D+00 0.885D+00
 Gap=     0.286 Goal=   None    Shift=    0.000
 Gap=     0.253 Goal=   None    Shift=    0.000
 RMSDP=3.23D-04 MaxDP=6.71D-03 DE=-1.44D-01 OVMax= 7.22D-03

 Cycle   4  Pass 0  IDiag  1:
 E= -236.411304419487     Delta-E=       -0.000462063708 Rises=F Damp=F
 DIIS: error= 6.84D-04 at cycle   4 NSaved=   4.
 NSaved= 4 IEnMin= 4 EnMin= -236.411304419487     IErMin= 4 ErrMin= 6.84D-04
 ErrMax= 6.84D-04  0.00D+00 EMaxC= 1.00D-01 BMatC= 2.83D-04 BMatP= 1.94D-03
 IDIUse=3 WtCom= 9.93D-01 WtEn= 6.84D-03
 Coeff-Com: -0.227D-02 0.310D-02 0.266D+00 0.733D+00
 Coeff-En:   0.000D+00 0.000D+00 0.000D+00 0.100D+01
 Coeff:     -0.225D-02 0.307D-02 0.264D+00 0.735D+00
 Gap=     0.289 Goal=   None    Shift=    0.000
 Gap=     0.252 Goal=   None    Shift=    0.000
 RMSDP=1.21D-04 MaxDP=2.74D-03 DE=-4.62D-04 OVMax= 3.13D-03

 Cycle   5  Pass 0  IDiag  1:
 E= -236.411372502787     Delta-E=       -0.000068083300 Rises=F Damp=F
 DIIS: error= 3.35D-04 at cycle   5 NSaved=   5.
 NSaved= 5 IEnMin= 5 EnMin= -236.411372502787     IErMin= 5 ErrMin= 3.35D-04
 ErrMax= 3.35D-04  0.00D+00 EMaxC= 1.00D-01 BMatC= 4.26D-05 BMatP= 2.83D-04
 IDIUse=3 WtCom= 9.97D-01 WtEn= 3.35D-03
 Coeff-Com: -0.756D-03-0.439D-02 0.840D-01 0.337D+00 0.584D+00
 Coeff-En:   0.000D+00 0.000D+00 0.000D+00 0.000D+00 0.100D+01
 Coeff:     -0.754D-03-0.438D-02 0.837D-01 0.336D+00 0.585D+00
 Gap=     0.288 Goal=   None    Shift=    0.000
 Gap=     0.253 Goal=   None    Shift=    0.000
 RMSDP=3.54D-05 MaxDP=9.45D-04 DE=-6.81D-05 OVMax= 9.39D-04

 Cycle   6  Pass 0  IDiag  1:
 E= -236.411383846155     Delta-E=       -0.000011343368 Rises=F Damp=F
 DIIS: error= 7.83D-05 at cycle   6 NSaved=   6.
 NSaved= 6 IEnMin= 6 EnMin= -236.411383846155     IErMin= 6 ErrMin= 7.83D-05
 ErrMax= 7.83D-05  0.00D+00 EMaxC= 1.00D-01 BMatC= 3.27D-06 BMatP= 4.26D-05
 IDIUse=1 WtCom= 1.00D+00 WtEn= 0.00D+00
 Coeff-Com:  0.193D-03-0.145D-02-0.317D-01-0.668D-01 0.136D+00 0.964D+00
 Coeff:      0.193D-03-0.145D-02-0.317D-01-0.668D-01 0.136D+00 0.964D+00
 Gap=     0.288 Goal=   None    Shift=    0.000
 Gap=     0.253 Goal=   None    Shift=    0.000
 RMSDP=1.69D-05 MaxDP=5.27D-04 DE=-1.13D-05 OVMax= 5.58D-04

 Cycle   7  Pass 0  IDiag  1:
 E= -236.411385252323     Delta-E=       -0.000001406168 Rises=F Damp=F
 DIIS: error= 2.66D-05 at cycle   7 NSaved=   7.
 NSaved= 7 IEnMin= 7 EnMin= -236.411385252323     IErMin= 7 ErrMin= 2.66D-05
 ErrMax= 2.66D-05  0.00D+00 EMaxC= 1.00D-01 BMatC= 2.68D-07 BMatP= 3.27D-06
 IDIUse=1 WtCom= 1.00D+00 WtEn= 0.00D+00
 Coeff-Com:  0.858D-04 0.226D-03-0.158D-01-0.514D-01-0.374D-01 0.234D+00
 Coeff-Com:  0.870D+00
 Coeff:      0.858D-04 0.226D-03-0.158D-01-0.514D-01-0.374D-01 0.234D+00
 Coeff:      0.870D+00
 Gap=     0.288 Goal=   None    Shift=    0.000
 Gap=     0.253 Goal=   None    Shift=    0.000
 RMSDP=4.63D-06 MaxDP=1.16D-04 DE=-1.41D-06 OVMax= 1.65D-04

 Initial convergence to 1.0D-05 achieved.  Increase integral accuracy.
 Cycle   8  Pass 1  IDiag  1:
 E= -236.411368978355     Delta-E=        0.000016273968 Rises=F Damp=F
 DIIS: error= 5.48D-06 at cycle   1 NSaved=   1.
 NSaved= 1 IEnMin= 1 EnMin= -236.411368978355     IErMin= 1 ErrMin= 5.48D-06
 ErrMax= 5.48D-06  0.00D+00 EMaxC= 1.00D-01 BMatC= 1.73D-08 BMatP= 1.73D-08
 IDIUse=1 WtCom= 1.00D+00 WtEn= 0.00D+00
 Coeff-Com:  0.100D+01
 Coeff:      0.100D+01
 Gap=     0.288 Goal=   None    Shift=    0.000
 Gap=     0.253 Goal=   None    Shift=    0.000
 RMSDP=4.63D-06 MaxDP=1.16D-04 DE= 1.63D-05 OVMax= 4.13D-05

 Cycle   9  Pass 1  IDiag  1:
 E= -236.411368984827     Delta-E=       -0.000000006472 Rises=F Damp=F
 DIIS: error= 3.96D-06 at cycle   2 NSaved=   2.
 NSaved= 2 IEnMin= 2 EnMin= -236.411368984827     IErMin= 2 ErrMin= 3.96D-06
 ErrMax= 3.96D-06  0.00D+00 EMaxC= 1.00D-01 BMatC= 8.71D-09 BMatP= 1.73D-08
 IDIUse=1 WtCom= 1.00D+00 WtEn= 0.00D+00
 Coeff-Com:  0.378D+00 0.622D+00
 Coeff:      0.378D+00 0.622D+00
 Gap=     0.288 Goal=   None    Shift=    0.000
 Gap=     0.253 Goal=   None    Shift=    0.000
 RMSDP=5.61D-07 MaxDP=1.12D-05 DE=-6.47D-09 OVMax= 1.80D-05

 Cycle  10  Pass 1  IDiag  1:
 E= -236.411368987165     Delta-E=       -0.000000002338 Rises=F Damp=F
 DIIS: error= 1.78D-06 at cycle   3 NSaved=   3.
 NSaved= 3 IEnMin= 3 EnMin= -236.411368987165     IErMin= 3 ErrMin= 1.78D-06
 ErrMax= 1.78D-06  0.00D+00 EMaxC= 1.00D-01 BMatC= 1.30D-09 BMatP= 8.71D-09
 IDIUse=1 WtCom= 1.00D+00 WtEn= 0.00D+00
 Coeff-Com: -0.118D+00 0.168D+00 0.949D+00
 Coeff:     -0.118D+00 0.168D+00 0.949D+00
 Gap=     0.288 Goal=   None    Shift=    0.000
 Gap=     0.253 Goal=   None    Shift=    0.000
 RMSDP=2.59D-07 MaxDP=7.51D-06 DE=-2.34D-09 OVMax= 1.00D-05

 Cycle  11  Pass 1  IDiag  1:
 E= -236.411368987718     Delta-E=       -0.000000000553 Rises=F Damp=F
 DIIS: error= 6.29D-07 at cycle   4 NSaved=   4.
 NSaved= 4 IEnMin= 4 EnMin= -236.411368987718     IErMin= 4 ErrMin= 6.29D-07
 ErrMax= 6.29D-07  0.00D+00 EMaxC= 1.00D-01 BMatC= 2.20D-10 BMatP= 1.30D-09
 IDIUse=1 WtCom= 1.00D+00 WtEn= 0.00D+00
 Coeff-Com: -0.103D+00-0.388D-01 0.349D+00 0.794D+00
 Coeff:     -0.103D+00-0.388D-01 0.349D+00 0.794D+00
 Gap=     0.288 Goal=   None    Shift=    0.000
 Gap=     0.253 Goal=   None    Shift=    0.000
 RMSDP=1.09D-07 MaxDP=2.74D-06 DE=-5.53D-10 OVMax= 3.81D-06

 Cycle  12  Pass 1  IDiag  1:
 E= -236.411368987808     Delta-E=       -0.000000000090 Rises=F Damp=F
 DIIS: error= 1.22D-07 at cycle   5 NSaved=   5.
 NSaved= 5 IEnMin= 5 EnMin= -236.411368987808     IErMin= 5 ErrMin= 1.22D-07
 ErrMax= 1.22D-07  0.00D+00 EMaxC= 1.00D-01 BMatC= 9.10D-12 BMatP= 2.20D-10
 IDIUse=1 WtCom= 1.00D+00 WtEn= 0.00D+00
 Coeff-Com: -0.283D-02-0.227D-01-0.490D-01 0.107D+00 0.967D+00
 Coeff:     -0.283D-02-0.227D-01-0.490D-01 0.107D+00 0.967D+00
 Gap=     0.288 Goal=   None    Shift=    0.000
 Gap=     0.253 Goal=   None    Shift=    0.000
 RMSDP=3.07D-08 MaxDP=7.31D-07 DE=-8.99D-11 OVMax= 8.06D-07

 Cycle  13  Pass 1  IDiag  1:
 E= -236.411368987808     Delta-E=        0.000000000000 Rises=F Damp=F
 DIIS: error= 5.58D-08 at cycle   6 NSaved=   6.
 NSaved= 6 IEnMin= 6 EnMin= -236.411368987808     IErMin= 6 ErrMin= 5.58D-08
 ErrMax= 5.58D-08  0.00D+00 EMaxC= 1.00D-01 BMatC= 1.43D-12 BMatP= 9.10D-12
 IDIUse=1 WtCom= 1.00D+00 WtEn= 0.00D+00
 Coeff-Com:  0.443D-02-0.625D-02-0.390D-01-0.223D-02 0.368D+00 0.675D+00
 Coeff:      0.443D-02-0.625D-02-0.390D-01-0.223D-02 0.368D+00 0.675D+00
 Gap=     0.288 Goal=   None    Shift=    0.000
 Gap=     0.253 Goal=   None    Shift=    0.000
 RMSDP=7.53D-09 MaxDP=1.74D-07 DE=-5.68D-14 OVMax= 2.09D-07

 SCF Done:  E(UB3LYP) =  -236.411368988     A.U. after   13 cycles
            NFock= 13  Conv=0.75D-08     -V/T= 2.0106
 <Sx>= 0.0000 <Sy>= 0.0000 <Sz>= 0.5000 <S**2>= 0.7531 S= 0.5015
 <L.S>= 0.000000000000E+00
 KE= 2.339337016551D+02 PE=-1.032244027286D+03 EE= 3.185793928034D+02
 Annihilation of the first spin contaminant:
 S**2 before annihilation     0.7531,   after     0.7500
 Leave Link  502 at Mon Apr 11 11:01:56 2016, MaxMem=  2013265920 cpu:       182.6
 (Enter /HOME/tsinghua_xqyou_1/softwares/gaussian/g09D01/g09/l801.exe)
 DoSCS=F DFT=T ScalE2(SS,OS)=  1.000000  1.000000
 Range of M.O.s used for correlation:     1   116
 NBasis=   116 NAE=    25 NBE=    24 NFC=     0 NFV=     0
 NROrb=    116 NOA=    25 NOB=    24 NVA=    91 NVB=    92
 Leave Link  801 at Mon Apr 11 11:01:56 2016, MaxMem=  2013265920 cpu:         0.3
 (Enter /HOME/tsinghua_xqyou_1/softwares/gaussian/g09D01/g09/l1101.exe)
 Using compressed storage, NAtomX=    19.
 Will process     20 centers per pass.
 Leave Link 1101 at Mon Apr 11 11:01:56 2016, MaxMem=  2013265920 cpu:         1.3
 (Enter /HOME/tsinghua_xqyou_1/softwares/gaussian/g09D01/g09/l1102.exe)
 Symmetrizing basis deriv contribution to polar:
 IMax=3 JMax=2 DiffMx= 0.00D+00
 Leave Link 1102 at Mon Apr 11 11:01:59 2016, MaxMem=  2013265920 cpu:         1.8
 (Enter /HOME/tsinghua_xqyou_1/softwares/gaussian/g09D01/g09/l1110.exe)
 Forming Gx(P) for the SCF density, NAtomX=    19.
 Integral derivatives from FoFJK, PRISM(SPDF).
 Do as many integral derivatives as possible in FoFJK.
 G2DrvN: MDV=    2013265664.
 G2DrvN: will do    20 centers at a time, making    1 passes.
 Calling FoFCou, ICntrl=  3107 FMM=F I1Cent=   0 AccDes= 0.00D+00.
 FoFJK:  IHMeth= 1 ICntrl=    3107 DoSepK=F KAlg= 0 I1Cent=   0 FoldK=F
 IRaf=         0 NMat=   1 IRICut=       1 DoRegI=T DoRafI=F ISym2E= 0.
 FoFCou: FMM=F IPFlag=           0 FMFlag=      100000 FMFlg1=           0
         NFxFlg=           0 DoJE=F BraDBF=F KetDBF=F FulRan=T
         wScrn=  0.000000 ICntrl=    3107 IOpCl=  1 I1Cent=           0 NGrid=           0
         NMat0=    1 NMatS0=      1 NMatT0=    0 NMatD0=    1 NMtDS0=    0 NMtDT0=    0
 Symmetry not used in FoFCou.
 End of G2Drv F.D. properties file   721 does not exist.
 End of G2Drv F.D. properties file   722 does not exist.
 End of G2Drv F.D. properties file   788 does not exist.
 Leave Link 1110 at Mon Apr 11 11:03:14 2016, MaxMem=  2013265920 cpu:       402.2
 (Enter /HOME/tsinghua_xqyou_1/softwares/gaussian/g09D01/g09/l1002.exe)
 Minotr:  UHF open shell wavefunction.
          IDoAtm=1111111111111111111
          Direct CPHF calculation.
          Differentiating once with respect to electric field.
                with respect to dipole field.
          Differentiating once with respect to nuclear coordinates.
          Requested convergence is 1.0D-08 RMS, and 1.0D-07 maximum.
          Secondary convergence is 1.0D-12 RMS, and 1.0D-12 maximum.
          NewPWx=T KeepS1=F KeepF1=F KeepIn=T MapXYZ=F SortEE=F KeepMc=T.
          MDV=    2013265494 using IRadAn=       1.
 Generate precomputed XC quadrature information.
 Keep R1 and R2 ints in memory in canonical form, NReq=47003668.
 FoFCou: FMM=F IPFlag=           0 FMFlag=           0 FMFlg1=           0
         NFxFlg=           0 DoJE=F BraDBF=F KetDBF=F FulRan=T
         wScrn=  0.000000 ICntrl=     600 IOpCl=  0 I1Cent=           0 NGrid=           0
         NMat0=    1 NMatS0=   6786 NMatT0=    0 NMatD0=    1 NMtDS0=    0 NMtDT0=    0
 Symmetry not used in FoFCou.
          Solving linear equations simultaneously, MaxMat=       0.
          There are    60 degrees of freedom in the 1st order CPHF.  IDoFFX=6 NUNeed=     3.
     57 vectors produced by pass  0 Test12= 7.47D-15 1.67D-09 XBig12= 7.98D+01 2.21D+00.
 AX will form    57 AO Fock derivatives at one time.
     57 vectors produced by pass  1 Test12= 7.47D-15 1.67D-09 XBig12= 4.98D+00 4.37D-01.
     57 vectors produced by pass  2 Test12= 7.47D-15 1.67D-09 XBig12= 8.67D-02 5.66D-02.
     57 vectors produced by pass  3 Test12= 7.47D-15 1.67D-09 XBig12= 2.68D-04 3.68D-03.
     57 vectors produced by pass  4 Test12= 7.47D-15 1.67D-09 XBig12= 8.06D-07 1.19D-04.
     55 vectors produced by pass  5 Test12= 7.47D-15 1.67D-09 XBig12= 1.93D-09 5.53D-06.
     10 vectors produced by pass  6 Test12= 7.47D-15 1.67D-09 XBig12= 2.48D-12 2.06D-07.
      3 vectors produced by pass  7 Test12= 7.47D-15 1.67D-09 XBig12= 5.44D-15 8.44D-09.
 InvSVY:  IOpt=1 It=  1 EMax= 1.95D-14
 Solved reduced A of dimension   353 with    60 vectors.
 FullF1:  Do perturbations    1 to     3.
 Isotropic polarizability for W=    0.000000       64.17 Bohr**3.
 End of Minotr F.D. properties file   721 does not exist.
 End of Minotr F.D. properties file   722 does not exist.
 End of Minotr F.D. properties file   788 does not exist.
 Leave Link 1002 at Mon Apr 11 11:04:23 2016, MaxMem=  2013265920 cpu:       407.2
 (Enter /HOME/tsinghua_xqyou_1/softwares/gaussian/g09D01/g09/l601.exe)
 Copying SCF densities to generalized density rwf, IOpCl= 1 IROHF=0.

 **********************************************************************

            Population analysis using the SCF density.

 **********************************************************************

 Orbital symmetries:
 Alpha Orbitals:
       Occupied  (A) (A) (A) (A) (A) (A) (A) (A) (A) (A) (A) (A)
                 (A) (A) (A) (A) (A) (A) (A) (A) (A) (A) (A) (A)
                 (A)
       Virtual   (A) (A) (A) (A) (A) (A) (A) (A) (A) (A) (A) (A)
                 (A) (A) (A) (A) (A) (A) (A) (A) (A) (A) (A) (A)
                 (A) (A) (A) (A) (A) (A) (A) (A) (A) (A) (A) (A)
                 (A) (A) (A) (A) (A) (A) (A) (A) (A) (A) (A) (A)
                 (A) (A) (A) (A) (A) (A) (A) (A) (A) (A) (A) (A)
                 (A) (A) (A) (A) (A) (A) (A) (A) (A) (A) (A) (A)
                 (A) (A) (A) (A) (A) (A) (A) (A) (A) (A) (A) (A)
                 (A) (A) (A) (A) (A) (A) (A)
 Beta  Orbitals:
       Occupied  (A) (A) (A) (A) (A) (A) (A) (A) (A) (A) (A) (A)
                 (A) (A) (A) (A) (A) (A) (A) (A) (A) (A) (A) (A)
       Virtual   (A) (A) (A) (A) (A) (A) (A) (A) (A) (A) (A) (A)
                 (A) (A) (A) (A) (A) (A) (A) (A) (A) (A) (A) (A)
                 (A) (A) (A) (A) (A) (A) (A) (A) (A) (A) (A) (A)
                 (A) (A) (A) (A) (A) (A) (A) (A) (A) (A) (A) (A)
                 (A) (A) (A) (A) (A) (A) (A) (A) (A) (A) (A) (A)
                 (A) (A) (A) (A) (A) (A) (A) (A) (A) (A) (A) (A)
                 (A) (A) (A) (A) (A) (A) (A) (A) (A) (A) (A) (A)
                 (A) (A) (A) (A) (A) (A) (A) (A)
 The electronic state is 2-A.
 Alpha  occ. eigenvalues --  -10.19746 -10.17914 -10.17913 -10.17261 -10.17009
 Alpha  occ. eigenvalues --  -10.17009  -0.80571  -0.74547  -0.70534  -0.64907
 Alpha  occ. eigenvalues --   -0.59566  -0.52528  -0.45745  -0.45127  -0.42757
 Alpha  occ. eigenvalues --   -0.41027  -0.39099  -0.38674  -0.37182  -0.35522
 Alpha  occ. eigenvalues --   -0.34824  -0.33370  -0.31308  -0.30642  -0.20016
 Alpha virt. eigenvalues --    0.08830   0.12037   0.12710   0.13317   0.15120
 Alpha virt. eigenvalues --    0.16412   0.16973   0.17509   0.18047   0.18182
 Alpha virt. eigenvalues --    0.20221   0.20859   0.23120   0.23754   0.24547
 Alpha virt. eigenvalues --    0.25699   0.28277   0.29211   0.49384   0.51054
 Alpha virt. eigenvalues --    0.51406   0.53628   0.54228   0.56986   0.58972
 Alpha virt. eigenvalues --    0.60664   0.62789   0.65469   0.68292   0.68750
 Alpha virt. eigenvalues --    0.74435   0.76050   0.78899   0.83478   0.84713
 Alpha virt. eigenvalues --    0.85954   0.88226   0.90200   0.90876   0.91132
 Alpha virt. eigenvalues --    0.92100   0.93003   0.95040   0.95420   0.97100
 Alpha virt. eigenvalues --    0.97288   0.99663   1.01191   1.01977   1.04598
 Alpha virt. eigenvalues --    1.19891   1.31503   1.34319   1.40874   1.42971
 Alpha virt. eigenvalues --    1.53628   1.57689   1.63940   1.73121   1.74886
 Alpha virt. eigenvalues --    1.74958   1.87117   1.90027   1.91993   1.95287
 Alpha virt. eigenvalues --    1.95790   1.98475   1.99941   2.01493   2.09702
 Alpha virt. eigenvalues --    2.10917   2.19167   2.27561   2.28667   2.30888
 Alpha virt. eigenvalues --    2.31765   2.34384   2.34688   2.41175   2.48012
 Alpha virt. eigenvalues --    2.51250   2.59357   2.68205   2.77073   2.79244
 Alpha virt. eigenvalues --    4.09871   4.21342   4.25277   4.37472   4.42135
 Alpha virt. eigenvalues --    4.53904
  Beta  occ. eigenvalues --  -10.18346 -10.17945 -10.17944 -10.17288 -10.16989
  Beta  occ. eigenvalues --  -10.16989  -0.79418  -0.74442  -0.70152  -0.64488
  Beta  occ. eigenvalues --   -0.59422  -0.50748  -0.44944  -0.44894  -0.42522
  Beta  occ. eigenvalues --   -0.40307  -0.38816  -0.38442  -0.37130  -0.35055
  Beta  occ. eigenvalues --   -0.34670  -0.33201  -0.30866  -0.30087
  Beta virt. eigenvalues --   -0.04787   0.09065   0.12142   0.12784   0.13563
  Beta virt. eigenvalues --    0.15163   0.16862   0.17272   0.17594   0.18169
  Beta virt. eigenvalues --    0.18920   0.20517   0.21044   0.23131   0.24659
  Beta virt. eigenvalues --    0.24971   0.27005   0.28288   0.30502   0.49489
  Beta virt. eigenvalues --    0.51101   0.52099   0.53944   0.54978   0.58163
  Beta virt. eigenvalues --    0.59041   0.63176   0.64376   0.65748   0.68723
  Beta virt. eigenvalues --    0.68922   0.75262   0.77970   0.79127   0.83680
  Beta virt. eigenvalues --    0.84833   0.86567   0.88449   0.90216   0.90982
  Beta virt. eigenvalues --    0.91400   0.92531   0.93189   0.95328   0.95866
  Beta virt. eigenvalues --    0.97389   0.97508   0.99736   1.01447   1.02295
  Beta virt. eigenvalues --    1.04844   1.21229   1.32136   1.34511   1.42133
  Beta virt. eigenvalues --    1.44190   1.53786   1.57743   1.64416   1.73927
  Beta virt. eigenvalues --    1.75330   1.75828   1.88018   1.91490   1.94074
  Beta virt. eigenvalues --    1.95831   1.96190   1.98944   2.01236   2.01802
  Beta virt. eigenvalues --    2.10363   2.12276   2.19861   2.27675   2.28708
  Beta virt. eigenvalues --    2.31119   2.31784   2.34450   2.35091   2.42531
  Beta virt. eigenvalues --    2.50370   2.52737   2.59557   2.69661   2.77785
  Beta virt. eigenvalues --    2.80440   4.10580   4.21379   4.25698   4.38433
  Beta virt. eigenvalues --    4.42185   4.55441
          Condensed to atoms (all electrons):
               1          2          3          4          5          6
     1  C    5.077270   0.377866   0.377697   0.368442   0.363343  -0.040812
     2  H    0.377866   0.572656  -0.032432  -0.031003  -0.036015   0.005496
     3  H    0.377697  -0.032432   0.574775  -0.031778  -0.033115  -0.004682
     4  H    0.368442  -0.031003  -0.031778   0.583904  -0.027390  -0.001673
     5  C    0.363343  -0.036015  -0.033115  -0.027390   5.034556   0.357201
     6  H   -0.040812   0.005496  -0.004682  -0.001673   0.357201   0.626264
     7  H   -0.038021  -0.003889   0.005063  -0.003889   0.370126  -0.039639
     8  C   -0.039903   0.000118  -0.005331   0.003895   0.375993  -0.038554
     9  C    0.003891   0.000086   0.000053  -0.000139  -0.051136  -0.003056
    10  H    0.000095  -0.000002   0.000003  -0.000009  -0.006263  -0.000332
    11  H   -0.000052   0.000010   0.000000   0.000008  -0.003056   0.004964
    12  C   -0.000129  -0.000001   0.000001   0.000001   0.003891  -0.000052
    13  H    0.000001   0.000000   0.000000   0.000000   0.000053   0.000000
    14  H    0.000001   0.000000   0.000000   0.000000  -0.000139   0.000008
    15  H   -0.000001   0.000000   0.000000   0.000000   0.000086   0.000010
    16  C   -0.004394  -0.000456   0.002105   0.000107  -0.064496  -0.006434
    17  H    0.002222   0.000413   0.003289  -0.000129  -0.005993  -0.000057
    18  H   -0.000273   0.000096   0.000197  -0.000007  -0.004229   0.006151
    19  H    0.000068  -0.000031  -0.000112   0.000001   0.005066  -0.000084
               7          8          9         10         11         12
     1  C   -0.038021  -0.039903   0.003891   0.000095  -0.000052  -0.000129
     2  H   -0.003889   0.000118   0.000086  -0.000002   0.000010  -0.000001
     3  H    0.005063  -0.005331   0.000053   0.000003   0.000000   0.000001
     4  H   -0.003889   0.003895  -0.000139  -0.000009   0.000008   0.000001
     5  C    0.370126   0.375993  -0.051136  -0.006263  -0.003056   0.003891
     6  H   -0.039639  -0.038554  -0.003056  -0.000332   0.004964  -0.000052
     7  H    0.609785  -0.038933  -0.006263   0.007275  -0.000332   0.000095
     8  C   -0.038933   5.119043   0.375993  -0.038933  -0.038554  -0.039903
     9  C   -0.006263   0.375993   5.034556   0.370126   0.357201   0.363343
    10  H    0.007275  -0.038933   0.370126   0.609785  -0.039639  -0.038021
    11  H   -0.000332  -0.038554   0.357201  -0.039639   0.626264  -0.040812
    12  C    0.000095  -0.039903   0.363343  -0.038021  -0.040812   5.077271
    13  H    0.000003  -0.005331  -0.033115   0.005063  -0.004682   0.377697
    14  H   -0.000009   0.003895  -0.027390  -0.003889  -0.001673   0.368442
    15  H   -0.000002   0.000118  -0.036015  -0.003889   0.005496   0.377866
    16  C    0.005944   0.368375  -0.064495   0.005944  -0.006434  -0.004394
    17  H   -0.000003  -0.029666   0.005066  -0.000168  -0.000084   0.000068
    18  H   -0.000075  -0.036556  -0.004229  -0.000075   0.006151  -0.000273
    19  H   -0.000168  -0.029666  -0.005993  -0.000003  -0.000057   0.002222
              13         14         15         16         17         18
     1  C    0.000001   0.000001  -0.000001  -0.004394   0.002222  -0.000273
     2  H    0.000000   0.000000   0.000000  -0.000456   0.000413   0.000096
     3  H    0.000000   0.000000   0.000000   0.002105   0.003289   0.000197
     4  H    0.000000   0.000000   0.000000   0.000107  -0.000129  -0.000007
     5  C    0.000053  -0.000139   0.000086  -0.064496  -0.005993  -0.004229
     6  H    0.000000   0.000008   0.000010  -0.006434  -0.000057   0.006151
     7  H    0.000003  -0.000009  -0.000002   0.005944  -0.000003  -0.000075
     8  C   -0.005331   0.003895   0.000118   0.368375  -0.029666  -0.036556
     9  C   -0.033115  -0.027390  -0.036015  -0.064495   0.005066  -0.004229
    10  H    0.005063  -0.003889  -0.003889   0.005944  -0.000168  -0.000075
    11  H   -0.004682  -0.001673   0.005496  -0.006434  -0.000084   0.006151
    12  C    0.377697   0.368442   0.377866  -0.004394   0.000068  -0.000273
    13  H    0.574775  -0.031778  -0.032432   0.002105  -0.000112   0.000197
    14  H   -0.031778   0.583904  -0.031003   0.000107   0.000001  -0.000007
    15  H   -0.032432  -0.031003   0.572656  -0.000456  -0.000031   0.000096
    16  C    0.002105   0.000107  -0.000456   5.159963   0.368367   0.357330
    17  H   -0.000112   0.000001  -0.000031   0.368367   0.568936  -0.032946
    18  H    0.000197  -0.000007   0.000096   0.357330  -0.032946   0.595745
    19  H    0.003289  -0.000129   0.000413   0.368367  -0.029543  -0.032946
              19
     1  C    0.000068
     2  H   -0.000031
     3  H   -0.000112
     4  H    0.000001
     5  C    0.005066
     6  H   -0.000084
     7  H   -0.000168
     8  C   -0.029666
     9  C   -0.005993
    10  H   -0.000003
    11  H   -0.000057
    12  C    0.002222
    13  H    0.003289
    14  H   -0.000129
    15  H    0.000413
    16  C    0.368367
    17  H   -0.029543
    18  H   -0.032946
    19  H    0.568936
          Atomic-Atomic Spin Densities.
               1          2          3          4          5          6
     1  C    0.018419  -0.006414  -0.000066  -0.002033   0.009894  -0.007430
     2  H   -0.006414   0.003968   0.000004   0.001153  -0.001345   0.001024
     3  H   -0.000066   0.000004  -0.000877   0.000184   0.000533  -0.000235
     4  H   -0.002033   0.001153   0.000184  -0.000839  -0.000043   0.001242
     5  C    0.009894  -0.001345   0.000533  -0.000043  -0.039251  -0.011692
     6  H   -0.007430   0.001024  -0.000235   0.001242  -0.011692   0.092791
     7  H    0.002204  -0.000531  -0.000011  -0.000175   0.006371  -0.005970
     8  C   -0.009573   0.004870  -0.000078   0.000293  -0.022399  -0.021695
     9  C    0.000279  -0.000092   0.000002  -0.000008   0.006023  -0.004013
    10  H    0.000050  -0.000014   0.000000  -0.000002   0.001502  -0.000690
    11  H   -0.000115   0.000019  -0.000001   0.000006  -0.004013   0.006994
    12  C    0.000007  -0.000003   0.000000   0.000000   0.000279  -0.000115
    13  H    0.000000   0.000000   0.000000   0.000000   0.000002  -0.000001
    14  H    0.000000   0.000000   0.000000   0.000000  -0.000008   0.000006
    15  H   -0.000003   0.000002   0.000000   0.000000  -0.000092   0.000019
    16  C    0.000985  -0.000312   0.000051  -0.000048   0.007300  -0.003585
    17  H    0.000202  -0.000239  -0.000005  -0.000014   0.001368  -0.000635
    18  H   -0.000279   0.000102  -0.000035   0.000026  -0.004208   0.007219
    19  H    0.000023  -0.000015   0.000003  -0.000001   0.000167  -0.000151
               7          8          9         10         11         12
     1  C    0.002204  -0.009573   0.000279   0.000050  -0.000115   0.000007
     2  H   -0.000531   0.004870  -0.000092  -0.000014   0.000019  -0.000003
     3  H   -0.000011  -0.000078   0.000002   0.000000  -0.000001   0.000000
     4  H   -0.000175   0.000293  -0.000008  -0.000002   0.000006   0.000000
     5  C    0.006371  -0.022399   0.006023   0.001502  -0.004013   0.000279
     6  H   -0.005970  -0.021695  -0.004013  -0.000690   0.006994  -0.000115
     7  H    0.004682  -0.004615   0.001502   0.000320  -0.000690   0.000050
     8  C   -0.004615   1.118811  -0.022399  -0.004615  -0.021695  -0.009573
     9  C    0.001502  -0.022399  -0.039251   0.006371  -0.011692   0.009894
    10  H    0.000320  -0.004615   0.006371   0.004682  -0.005969   0.002204
    11  H   -0.000690  -0.021695  -0.011692  -0.005969   0.092791  -0.007430
    12  C    0.000050  -0.009573   0.009894   0.002204  -0.007430   0.018419
    13  H    0.000000  -0.000078   0.000533  -0.000011  -0.000235  -0.000066
    14  H   -0.000002   0.000293  -0.000043  -0.000175   0.001242  -0.002033
    15  H   -0.000014   0.004870  -0.001345  -0.000531   0.001024  -0.006414
    16  C    0.000110  -0.023549   0.007300   0.000110  -0.003585   0.000985
    17  H    0.000029  -0.004902   0.000167   0.000009  -0.000151   0.000023
    18  H   -0.000142  -0.021836  -0.004208  -0.000142   0.007219  -0.000279
    19  H    0.000009  -0.004901   0.001368   0.000029  -0.000635   0.000201
              13         14         15         16         17         18
     1  C    0.000000   0.000000  -0.000003   0.000985   0.000202  -0.000279
     2  H    0.000000   0.000000   0.000002  -0.000312  -0.000239   0.000102
     3  H    0.000000   0.000000   0.000000   0.000051  -0.000005  -0.000035
     4  H    0.000000   0.000000   0.000000  -0.000048  -0.000014   0.000026
     5  C    0.000002  -0.000008  -0.000092   0.007300   0.001368  -0.004208
     6  H   -0.000001   0.000006   0.000019  -0.003585  -0.000635   0.007219
     7  H    0.000000  -0.000002  -0.000014   0.000110   0.000029  -0.000142
     8  C   -0.000078   0.000293   0.004870  -0.023549  -0.004902  -0.021836
     9  C    0.000533  -0.000043  -0.001345   0.007300   0.000167  -0.004208
    10  H   -0.000011  -0.000175  -0.000531   0.000110   0.000009  -0.000142
    11  H   -0.000235   0.001242   0.001024  -0.003585  -0.000151   0.007219
    12  C   -0.000066  -0.002033  -0.006414   0.000985   0.000023  -0.000279
    13  H   -0.000877   0.000184   0.000004   0.000051   0.000003  -0.000035
    14  H    0.000184  -0.000839   0.001153  -0.000048  -0.000001   0.000026
    15  H    0.000004   0.001153   0.003968  -0.000312  -0.000015   0.000102
    16  C    0.000051  -0.000048  -0.000312  -0.041080   0.007483  -0.011387
    17  H    0.000003  -0.000001  -0.000015   0.007483   0.006576  -0.006607
    18  H   -0.000035   0.000026   0.000102  -0.011387  -0.006607   0.098377
    19  H   -0.000005  -0.000014  -0.000239   0.007483   0.001329  -0.006607
              19
     1  C    0.000023
     2  H   -0.000015
     3  H    0.000003
     4  H   -0.000001
     5  C    0.000167
     6  H   -0.000151
     7  H    0.000009
     8  C   -0.004901
     9  C    0.001368
    10  H    0.000029
    11  H   -0.000635
    12  C    0.000201
    13  H   -0.000005
    14  H   -0.000014
    15  H   -0.000239
    16  C    0.007483
    17  H    0.001329
    18  H   -0.006607
    19  H    0.006575
 Mulliken charges and spin densities:
               1          2
     1  C   -0.447314   0.006149
     2  H    0.147090   0.002179
     3  H    0.144266  -0.000532
     4  H    0.139659  -0.000259
     5  C   -0.278483  -0.049612
     6  H    0.135281   0.053081
     7  H    0.132935   0.003129
     8  C    0.093899   0.957232
     9  C   -0.278483  -0.049612
    10  H    0.132934   0.003129
    11  H    0.135281   0.053081
    12  C   -0.447314   0.006149
    13  H    0.144266  -0.000532
    14  H    0.139659  -0.000259
    15  H    0.147090   0.002179
    16  C   -0.487156  -0.052049
    17  H    0.150368   0.004621
    18  H    0.145653   0.057306
    19  H    0.150368   0.004620
 Sum of Mulliken charges =   0.00000   1.00000
 Mulliken charges and spin densities with hydrogens summed into heavy atoms:
               1          2
     1  C   -0.016299   0.007537
     5  C   -0.010267   0.006598
     8  C    0.093899   0.957232
     9  C   -0.010267   0.006597
    12  C   -0.016299   0.007538
    16  C   -0.040767   0.014498
 APT charges:
               1
     1  C    0.087663
     2  H   -0.023793
     3  H   -0.024618
     4  H   -0.042811
     5  C    0.110483
     6  H   -0.062453
     7  H   -0.054469
     8  C    0.050461
     9  C    0.110483
    10  H   -0.054469
    11  H   -0.062453
    12  C    0.087663
    13  H   -0.024618
    14  H   -0.042812
    15  H   -0.023793
    16  C    0.029910
    17  H   -0.015291
    18  H   -0.029789
    19  H   -0.015292
 Sum of APT charges =   0.00000
 APT charges with hydrogens summed into heavy atoms:
               1
     1  C   -0.003560
     5  C   -0.006440
     8  C    0.050461
     9  C   -0.006440
    12  C   -0.003560
    16  C   -0.030461
 Electronic spatial extent (au):  <R**2>=            849.2137
 Charge=              0.0000 electrons
 Dipole moment (field-independent basis, Debye):
    X=              0.0000    Y=             -0.0058    Z=              0.4842  Tot=              0.4842
 Quadrupole moment (field-independent basis, Debye-Ang):
   XX=            -40.9726   YY=            -40.3524   ZZ=            -40.8583
   XY=              0.0000   XZ=              0.0000   YZ=              0.1442
 Traceless Quadrupole moment (field-independent basis, Debye-Ang):
   XX=             -0.2448   YY=              0.3754   ZZ=             -0.1306
   XY=              0.0000   XZ=              0.0000   YZ=              0.1442
 Octapole moment (field-independent basis, Debye-Ang**2):
  XXX=              0.0000  YYY=             -0.6756  ZZZ=              0.9570  XYY=              0.0000
  XXY=             -0.4804  XXZ=              0.9534  XZZ=              0.0000  YZZ=              0.0452
  YYZ=             -0.3200  XYZ=              0.0000
 Hexadecapole moment (field-independent basis, Debye-Ang**3):
 XXXX=           -844.7576 YYYY=           -242.4978 ZZZZ=            -95.5098 XXXY=              0.0001
 XXXZ=              0.0001 YYYX=              0.0000 YYYZ=             -0.1406 ZZZX=              0.0000
 ZZZY=              1.1693 XXYY=           -174.9606 XXZZ=           -156.1559 YYZZ=            -58.2558
 XXYZ=             -0.9391 YYXZ=              0.0000 ZZXY=             -0.0001
 N-N= 2.433195638397D+02 E-N=-1.032244023635D+03  KE= 2.339337016551D+02
  Exact polarizability:  74.803   0.000  62.893   0.000  -0.103  54.826
 Approx polarizability:  86.284   0.000  85.610   0.000   0.336  80.650
                          Isotropic Fermi Contact Couplings
        Atom                 a.u.       MegaHertz       Gauss      10(-4) cm-1
     1  C(13)              0.01037      11.66165       4.16117       3.88991
     2  H(1)              -0.00027      -1.21740      -0.43440      -0.40608
     3  H(1)              -0.00021      -0.94610      -0.33759      -0.31558
     4  H(1)              -0.00043      -1.92536      -0.68702      -0.64223
     5  C(13)             -0.00371      -4.16751      -1.48707      -1.39013
     6  H(1)               0.01919      85.79104      30.61237      28.61681
     7  H(1)               0.00224      10.00602       3.57040       3.33765
     8  C(13)              0.28703     322.67833     115.13965     107.63391
     9  C(13)             -0.00371      -4.16754      -1.48708      -1.39014
    10  H(1)               0.00224      10.00543       3.57019       3.33745
    11  H(1)               0.01919      85.79091      30.61233      28.61677
    12  C(13)              0.01037      11.66212       4.16133       3.89007
    13  H(1)              -0.00021      -0.94611      -0.33760      -0.31559
    14  H(1)              -0.00043      -1.92531      -0.68700      -0.64221
    15  H(1)              -0.00027      -1.21742      -0.43441      -0.40609
    16  C(13)             -0.00106      -1.18976      -0.42453      -0.39686
    17  H(1)               0.00329      14.68929       5.24150       4.89982
    18  H(1)               0.02109      94.28819      33.64437      31.45116
    19  H(1)               0.00329      14.68878       5.24132       4.89965
 --------------------------------------------------------
       Center         ----  Spin Dipole Couplings  ----
                      3XX-RR        3YY-RR        3ZZ-RR
 --------------------------------------------------------
     1   Atom        0.018453     -0.008658     -0.009795
     2   Atom        0.010215     -0.006784     -0.003431
     3   Atom        0.007531     -0.003374     -0.004157
     4   Atom        0.005540     -0.002923     -0.002617
     5   Atom        0.014340     -0.009649     -0.004690
     6   Atom        0.001690     -0.006019      0.004329
     7   Atom       -0.002351      0.009236     -0.006885
     8   Atom       -0.475412     -0.474476      0.949888
     9   Atom        0.014340     -0.009649     -0.004690
    10   Atom       -0.002351      0.009236     -0.006885
    11   Atom        0.001690     -0.006019      0.004329
    12   Atom        0.018453     -0.008658     -0.009795
    13   Atom        0.007531     -0.003374     -0.004157
    14   Atom        0.005540     -0.002923     -0.002617
    15   Atom        0.010215     -0.006784     -0.003431
    16   Atom       -0.018074      0.025170     -0.007096
    17   Atom       -0.005871      0.013790     -0.007918
    18   Atom       -0.008825      0.005404      0.003421
    19   Atom       -0.005871      0.013790     -0.007918
 --------------------------------------------------------
                        XY            XZ            YZ
 --------------------------------------------------------
     1   Atom       -0.002618     -0.001451     -0.000188
     2   Atom        0.001647      0.005404      0.000153
     3   Atom       -0.004055     -0.001728      0.000523
     4   Atom        0.002179     -0.000835     -0.000218
     5   Atom        0.015643     -0.019808     -0.011256
     6   Atom        0.005831     -0.008272     -0.004017
     7   Atom        0.013254     -0.003238     -0.004953
     8   Atom        0.000000     -0.000004      0.058528
     9   Atom       -0.015643      0.019808     -0.011256
    10   Atom       -0.013254      0.003238     -0.004954
    11   Atom       -0.005831      0.008272     -0.004016
    12   Atom        0.002618      0.001451     -0.000188
    13   Atom        0.004055      0.001728      0.000523
    14   Atom       -0.002179      0.000835     -0.000218
    15   Atom       -0.001647     -0.005404      0.000153
    16   Atom        0.000000      0.000000      0.022230
    17   Atom       -0.010933     -0.001320      0.002783
    18   Atom        0.000000      0.000000      0.008992
    19   Atom        0.010933      0.001320      0.002783
 --------------------------------------------------------


 ---------------------------------------------------------------------------------
              Anisotropic Spin Dipole Couplings in Principal Axis System
 ---------------------------------------------------------------------------------

       Atom             a.u.   MegaHertz   Gauss  10(-4) cm-1        Axes

              Baa    -0.0100    -1.337    -0.477    -0.446  0.0753  0.2881  0.9546
     1 C(13)  Bbb    -0.0088    -1.182    -0.422    -0.394  0.0759  0.9529 -0.2936
              Bcc     0.0188     2.519     0.899     0.840  0.9943 -0.0945 -0.0499
 
              Baa    -0.0070    -3.741    -1.335    -1.248 -0.1515  0.9706  0.1871
     2 H(1)   Bbb    -0.0052    -2.785    -0.994    -0.929 -0.3004 -0.2256  0.9268
              Bcc     0.0122     6.526     2.329     2.177  0.9417  0.0842  0.3257
 
              Baa    -0.0047    -2.520    -0.899    -0.841  0.3290  0.9335  0.1427
     3 H(1)   Bbb    -0.0044    -2.345    -0.837    -0.782  0.0814 -0.1786  0.9805
              Bcc     0.0091     4.865     1.736     1.623  0.9408 -0.3110 -0.1347
 
              Baa    -0.0035    -1.842    -0.657    -0.614 -0.2337  0.9721  0.0203
     4 H(1)   Bbb    -0.0027    -1.441    -0.514    -0.481  0.1000  0.0033  0.9950
              Bcc     0.0062     3.283     1.171     1.095  0.9672  0.2345 -0.0980
 
              Baa    -0.0187    -2.510    -0.896    -0.837  0.0397  0.7509  0.6592
     5 C(13)  Bbb    -0.0164    -2.197    -0.784    -0.733  0.6336 -0.5291  0.5645
              Bcc     0.0351     4.707     1.680     1.570  0.7727  0.3953 -0.4967
 
              Baa    -0.0092    -4.895    -1.747    -1.633 -0.5021  0.8633 -0.0508
     6 H(1)   Bbb    -0.0046    -2.453    -0.875    -0.818  0.5855  0.3825  0.7147
              Bcc     0.0138     7.348     2.622     2.451 -0.6365 -0.3291  0.6976
 
              Baa    -0.0110    -5.881    -2.098    -1.962  0.8367 -0.5476 -0.0008
     7 H(1)   Bbb    -0.0082    -4.389    -1.566    -1.464  0.1216  0.1844  0.9753
              Bcc     0.0192    10.270     3.664     3.426  0.5340  0.8162 -0.2209
 
              Baa    -0.4769   -63.992   -22.834   -21.346  0.0000  0.9992 -0.0410
     8 C(13)  Bbb    -0.4754   -63.796   -22.764   -21.280  1.0000  0.0000  0.0000
              Bcc     0.9523   127.788    45.598    42.626  0.0000  0.0410  0.9992
 
              Baa    -0.0187    -2.510    -0.896    -0.837 -0.0397  0.7509  0.6592
     9 C(13)  Bbb    -0.0164    -2.197    -0.784    -0.733  0.6336  0.5290 -0.5645
              Bcc     0.0351     4.707     1.680     1.570  0.7727 -0.3953  0.4967
 
              Baa    -0.0110    -5.881    -2.098    -1.962  0.8367  0.5476  0.0008
    10 H(1)   Bbb    -0.0082    -4.389    -1.566    -1.464 -0.1216  0.1844  0.9753
              Bcc     0.0192    10.270     3.664     3.426 -0.5340  0.8162 -0.2209
 
              Baa    -0.0092    -4.895    -1.747    -1.633  0.5021  0.8633 -0.0508
    11 H(1)   Bbb    -0.0046    -2.453    -0.875    -0.818 -0.5855  0.3826  0.7147
              Bcc     0.0138     7.348     2.622     2.451  0.6365 -0.3291  0.6976
 
              Baa    -0.0100    -1.337    -0.477    -0.446 -0.0753  0.2881  0.9546
    12 C(13)  Bbb    -0.0088    -1.182    -0.422    -0.394 -0.0759  0.9529 -0.2936
              Bcc     0.0188     2.519     0.899     0.840  0.9943  0.0945  0.0499
 
              Baa    -0.0047    -2.520    -0.899    -0.841 -0.3290  0.9335  0.1428
    13 H(1)   Bbb    -0.0044    -2.345    -0.837    -0.782 -0.0813 -0.1786  0.9805
              Bcc     0.0091     4.865     1.736     1.623  0.9408  0.3110  0.1347
 
              Baa    -0.0035    -1.842    -0.657    -0.614  0.2337  0.9721  0.0203
    14 H(1)   Bbb    -0.0027    -1.441    -0.514    -0.481 -0.1000  0.0033  0.9950
              Bcc     0.0062     3.283     1.171     1.095  0.9672 -0.2345  0.0980
 
              Baa    -0.0070    -3.741    -1.335    -1.248  0.1515  0.9706  0.1871
    15 H(1)   Bbb    -0.0052    -2.785    -0.994    -0.929  0.3004 -0.2255  0.9268
              Bcc     0.0122     6.526     2.329     2.177  0.9417 -0.0842 -0.3257
 
              Baa    -0.0184    -2.473    -0.882    -0.825 -0.0002 -0.4542  0.8909
    16 C(13)  Bbb    -0.0181    -2.425    -0.865    -0.809  1.0000 -0.0001  0.0002
              Bcc     0.0365     4.899     1.748     1.634  0.0000  0.8909  0.4542
 
              Baa    -0.0107    -5.733    -2.046    -1.912  0.9143  0.4041  0.0292
    17 H(1)   Bbb    -0.0083    -4.412    -1.574    -1.472  0.0194 -0.1157  0.9931
              Bcc     0.0190    10.145     3.620     3.384 -0.4047  0.9074  0.1136
 
              Baa    -0.0088    -4.709    -1.680    -1.571  1.0000  0.0000  0.0000
    18 H(1)   Bbb    -0.0046    -2.473    -0.882    -0.825  0.0000 -0.6672  0.7448
              Bcc     0.0135     7.181     2.562     2.395  0.0000  0.7448  0.6672
 
              Baa    -0.0107    -5.733    -2.046    -1.912  0.9143 -0.4041 -0.0292
    19 H(1)   Bbb    -0.0083    -4.412    -1.574    -1.472 -0.0194 -0.1157  0.9931
              Bcc     0.0190    10.145     3.620     3.384  0.4047  0.9074  0.1136
 

 ---------------------------------------------------------------------------------

 No NMR shielding tensors so no spin-rotation constants.
 Leave Link  601 at Mon Apr 11 11:04:32 2016, MaxMem=  2013265920 cpu:        20.5
 (Enter /HOME/tsinghua_xqyou_1/softwares/gaussian/g09D01/g09/l701.exe)
 Compute integral second derivatives.
 ... and contract with generalized density number  0.
 Leave Link  701 at Mon Apr 11 11:04:59 2016, MaxMem=  2013265920 cpu:        54.6
 (Enter /HOME/tsinghua_xqyou_1/softwares/gaussian/g09D01/g09/l702.exe)
 L702 exits ... SP integral derivatives will be done elsewhere.
 Leave Link  702 at Mon Apr 11 11:05:04 2016, MaxMem=  2013265920 cpu:         1.6
 (Enter /HOME/tsinghua_xqyou_1/softwares/gaussian/g09D01/g09/l703.exe)
 Compute integral second derivatives, UseDBF=F ICtDFT=           0.
 Integral derivatives from FoFJK, PRISM(SPDF).
 Calling FoFJK, ICntrl=    100127 FMM=F ISym2X=0 I1Cent= 0 IOpClX= 1 NMat=1 NMatS=1 NMatT=0.
 FoFJK:  IHMeth= 1 ICntrl=  100127 DoSepK=F KAlg= 0 I1Cent=   0 FoldK=F
 IRaf=         0 NMat=   1 IRICut=       1 DoRegI=T DoRafI=F ISym2E= 0.
 FoFCou: FMM=F IPFlag=           0 FMFlag=      100000 FMFlg1=         800
         NFxFlg=           0 DoJE=F BraDBF=F KetDBF=F FulRan=T
         wScrn=  0.000000 ICntrl=  100127 IOpCl=  1 I1Cent=           0 NGrid=           0
         NMat0=    1 NMatS0=      1 NMatT0=    0 NMatD0=    1 NMtDS0=    0 NMtDT0=    0
 Symmetry not used in FoFCou.
 Leave Link  703 at Mon Apr 11 11:06:14 2016, MaxMem=  2013265920 cpu:       336.6
 (Enter /HOME/tsinghua_xqyou_1/softwares/gaussian/g09D01/g09/l716.exe)
 Dipole        =-8.09437112D-07-2.28508034D-03 1.90482523D-01
 Polarizability= 7.48028410D+01-8.55070456D-06 6.28930581D+01
                 3.48091840D-06-1.03057352D-01 5.48261129D+01
 ***** Axes restored to original set *****
 -------------------------------------------------------------------
 Center     Atomic                   Forces (Hartrees/Bohr)
 Number     Number              X              Y              Z
 -------------------------------------------------------------------
      1        6          -0.002054402   -0.000052544   -0.000610312
      2        1           0.000375211   -0.000038261    0.000855688
      3        1           0.000080209    0.000007033    0.000046980
      4        1          -0.000134749    0.000103129    0.000276918
      5        6           0.004632542    0.000705909   -0.021363348
      6        1           0.001490961    0.001265052    0.002037564
      7        1          -0.000482336   -0.000346871    0.000848376
      8        6          -0.000000583    0.002390025    0.053397482
      9        6          -0.004631902    0.000705640   -0.021363522
     10        1           0.000482232   -0.000346611    0.000848456
     11        1          -0.001490946    0.001265053    0.002037683
     12        6           0.002054306   -0.000052925   -0.000610672
     13        1          -0.000080205    0.000007297    0.000047066
     14        1           0.000134673    0.000103159    0.000276877
     15        1          -0.000375202   -0.000038213    0.000856094
     16        6           0.000000181   -0.005759902   -0.021652398
     17        1          -0.000244964    0.000835932    0.000838404
     18        1           0.000000014   -0.001588888    0.002394201
     19        1           0.000244960    0.000835987    0.000838462
 -------------------------------------------------------------------
 Cartesian Forces:  Max     0.053397482 RMS     0.008742070
 FormGI is forming the generalized inverse of G from B-inverse, IUseBI=4.
 Leave Link  716 at Mon Apr 11 11:06:20 2016, MaxMem=  2013265920 cpu:        17.0
 (Enter /HOME/tsinghua_xqyou_1/softwares/gaussian/g09D01/g09/l103.exe)

 GradGradGradGradGradGradGradGradGradGradGradGradGradGradGradGradGradGrad
 Berny optimization.
 Red2BG is reusing G-inverse.
 Internal  Forces:  Max     0.010120591 RMS     0.002979190
 Search for a local minimum.
 Step number   1 out of a maximum of   97
 All quantities printed in internal units (Hartrees-Bohrs-Radians)
 RMS Force = .29792D-02 SwitMx=.10000D-02 MixMth= 1
 Mixed Optimization -- RFO/linear search
 Second derivative matrix not updated -- analytic derivatives used.
 ITU=  0
     Eigenvalues ---    0.00052   0.00187   0.00212   0.00351   0.00360
     Eigenvalues ---    0.03229   0.03906   0.04035   0.04415   0.04523
     Eigenvalues ---    0.04728   0.04772   0.04797   0.04815   0.05960
     Eigenvalues ---    0.06075   0.07937   0.08325   0.10745   0.11311
     Eigenvalues ---    0.11974   0.12346   0.12533   0.12736   0.13711
     Eigenvalues ---    0.14261   0.15008   0.16089   0.16133   0.16567
     Eigenvalues ---    0.16586   0.20399   0.20867   0.26287   0.26943
     Eigenvalues ---    0.28119   0.30020   0.30706   0.32092   0.32322
     Eigenvalues ---    0.33011   0.33286   0.33468   0.33492   0.33511
     Eigenvalues ---    0.33674   0.33908   0.34237   0.34625   0.34696
     Eigenvalues ---    0.34860
 RFO step:  Lambda=-1.14683941D-02 EMin= 5.15855129D-04
 Linear search not attempted -- first point.
 Iteration  1 RMS(Cart)=  0.05716391 RMS(Int)=  0.00341652
 Iteration  2 RMS(Cart)=  0.00601585 RMS(Int)=  0.00208485
 Iteration  3 RMS(Cart)=  0.00000197 RMS(Int)=  0.00208485
 Iteration  4 RMS(Cart)=  0.00000001 RMS(Int)=  0.00208485
 ITry= 1 IFail=0 DXMaxC= 2.72D-01 DCOld= 1.00D+10 DXMaxT= 3.00D-01 DXLimC= 3.00D+00 Rises=F
 Variable       Old X    -DE/DX   Delta X   Delta X   Delta X     New X
                                 (Linear)    (Quad)   (Total)
    R1        2.07376  -0.00085   0.00000  -0.00237  -0.00237   2.07139
    R2        2.07005   0.00000   0.00000  -0.00024  -0.00024   2.06981
    R3        2.07134   0.00013   0.00000  -0.00048  -0.00048   2.07086
    R4        2.89742   0.00128   0.00000   0.00556   0.00556   2.90298
    R5        2.07947   0.00205   0.00000   0.01288   0.01288   2.09235
    R6        2.07690   0.00011   0.00000  -0.00016  -0.00016   2.07673
    R7        2.91596  -0.00974   0.00000  -0.06091  -0.06091   2.85505
    R8        2.91596  -0.00974   0.00000  -0.06091  -0.06091   2.85505
    R9        2.90418  -0.01012   0.00000  -0.06112  -0.06112   2.84306
   R10        2.07690   0.00011   0.00000  -0.00016  -0.00016   2.07673
   R11        2.07947   0.00205   0.00000   0.01288   0.01288   2.09235
   R12        2.89742   0.00128   0.00000   0.00556   0.00556   2.90298
   R13        2.07005   0.00000   0.00000  -0.00024  -0.00024   2.06981
   R14        2.07134   0.00013   0.00000  -0.00048  -0.00048   2.07086
   R15        2.07376  -0.00085   0.00000  -0.00237  -0.00237   2.07139
   R16        2.06931   0.00030   0.00000   0.00037   0.00037   2.06968
   R17        2.07593   0.00224   0.00000   0.01372   0.01372   2.08965
   R18        2.06930   0.00030   0.00000   0.00037   0.00037   2.06968
    A1        1.87842   0.00024   0.00000   0.00204   0.00203   1.88045
    A2        1.87726   0.00030   0.00000   0.00513   0.00513   1.88239
    A3        1.93932  -0.00051   0.00000  -0.00294  -0.00295   1.93638
    A4        1.87288  -0.00004   0.00000   0.00062   0.00061   1.87349
    A5        1.95782  -0.00009   0.00000  -0.00139  -0.00139   1.95643
    A6        1.93461   0.00013   0.00000  -0.00293  -0.00293   1.93168
    A7        1.90987   0.00024   0.00000  -0.01089  -0.01087   1.89901
    A8        1.89569  -0.00083   0.00000   0.00166   0.00149   1.89718
    A9        2.00987   0.00251   0.00000   0.01314   0.01307   2.02294
   A10        1.84904   0.00028   0.00000  -0.00838  -0.00837   1.84067
   A11        1.90093  -0.00263   0.00000  -0.00676  -0.00669   1.89423
   A12        1.89164   0.00027   0.00000   0.00971   0.00960   1.90124
   A13        1.92053   0.00296   0.00000   0.07364   0.06254   1.98308
   A14        1.95271   0.00338   0.00000   0.07566   0.06472   2.01743
   A15        1.95271   0.00338   0.00000   0.07566   0.06472   2.01743
   A16        1.89165   0.00027   0.00000   0.00971   0.00960   1.90124
   A17        1.90093  -0.00263   0.00000  -0.00676  -0.00669   1.89423
   A18        2.00987   0.00251   0.00000   0.01314   0.01307   2.02294
   A19        1.84904   0.00028   0.00000  -0.00838  -0.00837   1.84067
   A20        1.89569  -0.00083   0.00000   0.00166   0.00149   1.89718
   A21        1.90987   0.00024   0.00000  -0.01089  -0.01087   1.89901
   A22        1.95782  -0.00009   0.00000  -0.00139  -0.00139   1.95643
   A23        1.93461   0.00013   0.00000  -0.00293  -0.00293   1.93168
   A24        1.93932  -0.00051   0.00000  -0.00294  -0.00295   1.93637
   A25        1.87288  -0.00004   0.00000   0.00062   0.00061   1.87349
   A26        1.87842   0.00024   0.00000   0.00204   0.00203   1.88045
   A27        1.87726   0.00030   0.00000   0.00513   0.00513   1.88239
   A28        1.95027   0.00184   0.00000   0.01251   0.01240   1.96267
   A29        1.93183  -0.00353   0.00000  -0.00617  -0.00615   1.92568
   A30        1.95027   0.00184   0.00000   0.01251   0.01240   1.96267
   A31        1.87919   0.00020   0.00000  -0.01215  -0.01213   1.86707
   A32        1.86960  -0.00057   0.00000   0.00406   0.00385   1.87345
   A33        1.87920   0.00020   0.00000  -0.01215  -0.01213   1.86707
    D1        3.12776  -0.00052   0.00000   0.00208   0.00206   3.12982
    D2       -1.14441  -0.00051   0.00000  -0.01284  -0.01284  -1.15726
    D3        0.98010   0.00094   0.00000   0.01007   0.01009   0.99019
    D4        1.02422  -0.00041   0.00000   0.00249   0.00247   1.02669
    D5        3.03522  -0.00041   0.00000  -0.01243  -0.01243   3.02279
    D6       -1.12345   0.00104   0.00000   0.01048   0.01050  -1.11295
    D7       -1.06899  -0.00039   0.00000   0.00466   0.00464  -1.06435
    D8        0.94202  -0.00038   0.00000  -0.01026  -0.01026   0.93176
    D9        3.06653   0.00107   0.00000   0.01265   0.01267   3.07921
   D10       -2.99494   0.00432   0.00000   0.09685   0.09769  -2.89725
   D11        1.10606  -0.00473   0.00000  -0.11146  -0.11241   0.99365
   D12        1.13582   0.00426   0.00000   0.10708   0.10797   1.24379
   D13       -1.04636  -0.00479   0.00000  -0.10122  -0.10213  -1.14849
   D14       -0.86824   0.00517   0.00000   0.11535   0.11631  -0.75193
   D15       -3.05042  -0.00388   0.00000  -0.09295  -0.09379   3.13897
   D16        0.86823  -0.00517   0.00000  -0.11535  -0.11631   0.75192
   D17       -1.13583  -0.00426   0.00000  -0.10708  -0.10797  -1.24381
   D18        2.99493  -0.00432   0.00000  -0.09685  -0.09769   2.89723
   D19        3.05041   0.00388   0.00000   0.09295   0.09379  -3.13898
   D20        1.04635   0.00479   0.00000   0.10122   0.10213   1.14848
   D21       -1.10608   0.00473   0.00000   0.11146   0.11241  -0.99367
   D22       -1.01213   0.00541   0.00000   0.11685   0.11792  -0.89422
   D23        1.08212   0.00450   0.00000   0.10561   0.10659   1.18871
   D24       -3.10680   0.00359   0.00000   0.09437   0.09525  -3.01155
   D25        3.10679  -0.00359   0.00000  -0.09437  -0.09525   3.01154
   D26       -1.08213  -0.00450   0.00000  -0.10561  -0.10659  -1.18872
[...]
 5692032,-0.24447904,-0.11319960,-0.00470838,-0.01569743,-0.00959114,-0
 .00085375,0.00721152,0.00346935,0.00059600,0.26414200,-0.11278356,-0.1
 1557955,-0.00420968,0.01049655,0.00581595,0.00119329,-0.02891621,-0.01
 514460,-0.00070361,0.12477879,0.12065649,-0.00489974,-0.00422834,-0.04
 843672,0.02114298,0.01409903,0.00144283,0.00385401,0.00143411,-0.00076
 471,0.00781289,0.00324323,0.05140202,-0.08691772,0.00489557,-0.0255309
 7,0.00931968,-0.00385624,0.01588370,-0.00382119,0.00109036,-0.00639094
 ,-0.01166228,0.00651292,-0.02701115,0.48807684,0.01083867,-0.08149063,
 0.01886545,-0.00582121,0.00166242,-0.00930012,0.01479854,-0.00336518,0
 .02997626,-0.00683902,0.00288279,-0.01590392,-0.03042015,0.57829099,-0
 .03932409,0.01010702,-0.14601782,-0.01294513,0.00482850,-0.02251456,-0
 .00215622,0.00107799,-0.00457120,0.00015782,0.00117685,-0.00254253,-0.
 06068605,0.01832924,0.44013517,0.00940652,-0.00383072,-0.01264941,-0.0
 0055290,0.00059436,-0.00352625,0.00044455,-0.00019884,0.00077322,0.000
 91909,-0.00024321,0.00090115,-0.14191315,0.04488557,0.11695139,0.16265
 637,-0.00232842,0.00225960,0.00546306,0.00031999,0.00095956,0.00127211
 ,-0.00076508,0.00050193,-0.00019497,0.00001911,-0.00005893,-0.00041789
 ,0.04208881,-0.07406274,-0.04886842,-0.04736787,0.07240716,0.01763930,
 -0.00935395,-0.02729990,-0.00385671,0.00151830,-0.00499140,0.00046912,
 0.00048224,0.00135668,-0.00002281,-0.00053637,0.00133484,0.11258099,-0
 .05026316,-0.17082820,-0.12014360,0.05614855,0.19250934,-0.00273121,0.
 01539514,-0.00244726,0.00055555,-0.00070157,0.00023635,-0.00063483,0.0
 0004451,-0.00332601,0.00012400,0.00004105,0.00071384,-0.05715487,0.040
 40415,-0.00009752,-0.00323754,0.02011445,-0.00308961,0.06322753,0.0015
 8015,-0.00473939,0.00116874,-0.00032790,0.00045993,0.00034748,0.000334
 55,0.00155865,0.00083659,0.00048641,0.00046508,0.00022177,0.03937133,-
 0.29232462,0.02602085,0.00151584,-0.00810864,0.00025298,-0.04216723,0.
 31928442,-0.00727000,0.03131625,-0.00581690,0.00102466,-0.00009208,0.0
 0133395,-0.00324696,0.00084059,-0.00546318,0.00032339,-0.00057293,0.00
 128562,0.00011772,0.02585654,-0.05118833,0.00276095,-0.02364641,0.0032
 6448,0.00763886,-0.02846015,0.05592895,-0.02137179,-0.00635414,-0.0127
 5848,0.00162536,0.00014950,0.00160991,0.00072864,-0.00057902,0.0014434
 7,-0.00034860,-0.00013460,-0.00165764,-0.17620002,-0.05528851,-0.00494
 896,-0.02557817,-0.01052671,-0.00185096,0.00332255,0.00165124,0.000022
 42,0.52628640,-0.00112769,0.00425121,-0.00758892,-0.00020494,-0.000173
 82,0.00059345,0.00125864,0.00017686,0.00051897,0.00100888,0.00040716,0
 .00226018,-0.05093977,-0.11876043,-0.01099736,0.00738017,0.00530784,0.
 00087060,-0.02932000,-0.01809262,-0.00430911,0.00323376,0.50474916,-0.
 02327294,-0.01305726,-0.00073169,0.00036027,-0.00025876,0.00183974,0.0
 0065640,-0.00019011,0.00119789,-0.00373576,0.00054327,-0.00396847,-0.0
 0524639,-0.01312701,-0.04961572,0.01463446,0.00990725,0.00490019,0.001
 02554,-0.00090241,-0.00032661,-0.01689573,0.06739452,0.14321840,0.0002
 1963,0.00027608,0.00057411,0.00008810,-0.00001911,-0.00033408,-0.00016
 418,-0.00003027,-0.00011505,0.00028795,-0.00002301,-0.00003023,-0.0224
 6303,0.00878177,0.00798724,-0.00242390,-0.00086569,-0.00128066,0.00120
 962,0.00198469,-0.00010304,-0.17974930,0.04677024,0.01611598,0.4943159
 5,-0.00104954,-0.00119200,0.00077196,0.00021572,0.00018897,-0.00028429
 ,0.00008875,0.00006692,0.00001134,-0.00041941,0.00000747,-0.00067803,-
 0.01014604,0.00912058,0.00371520,-0.00388065,-0.00167720,0.00033452,-0
 .00208610,0.00003987,0.00029283,0.05093795,-0.11355546,-0.01678583,0.0
 2738092,0.58123608,0.00075738,0.00010951,-0.00112379,-0.00017709,-0.00
 013760,-0.00052723,0.00005445,-0.00005167,0.00012553,0.00019607,-0.000
 34803,-0.00009516,-0.00567175,0.00261832,0.00879669,0.00038210,-0.0004
 9535,-0.00081528,0.00019332,-0.00049077,-0.00032572,0.01570181,-0.0143
 3764,-0.05127160,0.05532693,0.01900960,0.43095113,-0.00006686,-0.00025
 304,-0.00000988,-0.00000738,-0.00001063,-0.00004651,0.00008232,-0.0000
 7027,0.00013060,-0.00005111,-0.00000586,-0.00003202,0.00118559,0.00216
 171,-0.00029200,0.00022574,-0.00003279,-0.00004849,-0.00039968,-0.0008
 8844,0.00008106,0.00178056,0.02990344,-0.00120531,-0.05389376,-0.02607
 865,-0.00096467,0.05859969,0.00013126,0.00032216,0.00017481,0.00002159
 ,-0.00009179,0.00008114,-0.00017538,0.00008394,-0.00016320,0.00007198,
 0.00002022,0.00005697,-0.00195880,0.00004765,-0.00034726,-0.00016388,0
 .00057033,-0.00005626,0.00080273,0.00138442,0.00003650,-0.00070437,-0.
 01664083,-0.00086773,-0.02503568,-0.29566584,0.02854880,0.02651104,0.3
 2279149,-0.00012207,0.00004400,0.00006431,-0.00000411,0.00004745,-0.00
 007233,0.00002580,-0.00002731,-0.00005102,-0.00000695,-0.00000215,0.00
 000035,-0.00002772,0.00012677,-0.00030948,-0.00001060,-0.00011436,-0.0
 0001016,-0.00003649,0.00010037,0.00020611,0.00003232,-0.00665214,-0.00
 023638,-0.00117334,0.02845575,-0.05110812,-0.00644040,-0.03153967,0.05
 704960,-0.00062765,-0.00047293,0.00023069,0.00004182,-0.00002731,-0.00
 012595,-0.00001352,0.00006621,-0.00001678,-0.00024370,-0.00005878,-0.0
 0041530,-0.00258128,0.00384932,-0.00022430,-0.00087085,-0.00026244,-0.
 00017212,0.00022052,0.00014109,-0.00000212,-0.02651538,-0.00888516,-0.
 01261679,-0.15514238,-0.05261709,-0.11543860,-0.00199355,-0.00117711,-
 0.00113117,0.17623198,0.00004820,0.00026540,-0.00000676,0.00000813,-0.
 00005635,0.00008323,-0.00003302,0.00004356,-0.00003326,0.00006156,0.00
 003035,0.00008017,0.00077494,-0.00143804,-0.00057585,0.00019880,0.0004
 2099,0.00001577,0.00000575,0.00057910,-0.00011567,0.00964575,0.0054081
 6,0.00841348,-0.04972779,-0.07888398,-0.05117994,-0.02161528,-0.009242
 75,-0.02209442,0.05671035,0.07770874,-0.00002245,-0.00010828,-0.000106
 65,0.00002626,0.00005392,0.00011788,-0.00001871,0.00002323,-0.00001615
 ,-0.00005053,0.00004823,0.00004405,0.00140013,0.00009711,-0.00089707,0
 .00024433,0.00004464,0.00005951,0.00003302,-0.00006625,-0.00001371,0.0
 0427124,0.00166897,0.00573711,-0.11100850,-0.05212530,-0.15277773,0.00
 353252,0.00052966,0.00315459,0.11829346,0.05812981,0.17363214,-0.00068
 293,-0.00029263,0.00039039,-0.00037123,0.00000229,-0.00013159,0.000063
 84,-0.00002672,-0.00002362,-0.00005358,0.00003986,-0.00027638,0.000060
 26,0.00117282,-0.00085807,-0.00065951,-0.00009588,0.00007190,-0.000061
 72,-0.00013687,0.00012992,-0.01864260,-0.00069348,0.02532857,-0.081495
 69,-0.00938241,0.03366850,-0.00126238,-0.00131632,0.00530339,0.0084709
 2,0.00310967,-0.01997630,0.55356666,0.00023890,0.00067106,0.00019401,-
 0.00005839,-0.00021299,-0.00023846,-0.00002140,-0.00006753,-0.00004836
 ,0.00024370,-0.00007036,0.00001428,-0.00020130,-0.00114738,0.00008701,
 0.00041612,0.00028443,-0.00014105,0.00023614,0.00032780,0.00003109,0.0
 0410631,0.00452736,-0.01222826,-0.00412114,-0.08224006,0.01233121,-0.0
 1269966,-0.00553097,0.03274937,0.00337715,0.00258281,-0.01059952,-0.00
 788860,0.57101307,-0.00024451,0.00019883,0.00128481,-0.00004522,-0.000
 26154,-0.00065868,0.00000443,-0.00001255,-0.00014182,0.00009656,-0.000
 06333,-0.00047179,-0.00070610,0.00065127,-0.00100904,-0.00018712,-0.00
 001175,-0.00009381,0.00001044,0.00018594,0.00005353,0.01453882,-0.0069
 0698,-0.00373708,0.01943547,0.02081763,-0.15069056,0.00204953,0.001399
 47,-0.00649414,0.00951573,0.00581256,-0.02668752,0.04741429,0.01841434
 ,0.47031081,0.00006153,0.00002413,-0.00001993,0.00006255,-0.00008266,0
 .00007353,-0.00012030,0.00006909,0.00001249,-0.00000203,0.00003966,-0.
 00000176,-0.00015389,-0.00009877,-0.00002943,-0.00000888,0.00002759,0.
 00001687,0.00005753,0.00016066,-0.00003329,0.00059828,-0.00119101,-0.0
 0059597,-0.00247267,-0.01234233,0.00195716,-0.00013038,-0.00035911,0.0
 0277840,0.00030278,0.00073796,-0.00041121,-0.05467645,-0.03331198,0.00
 364818,0.05390960,0.00003220,-0.00006486,-0.00001550,0.00001626,-0.000
 04417,0.00006918,-0.00007777,0.00006852,0.00001528,-0.00002833,0.00002
 912,-0.00002725,0.00001456,0.00006327,-0.00005557,-0.00006687,0.000041
 71,0.00002940,0.00006681,0.00009602,-0.00003426,0.00058654,0.00014417,
 -0.00026828,-0.00096574,-0.00411093,0.00126559,-0.00006982,0.00153771,
 0.00099933,0.00022754,0.00055125,0.00044278,-0.03365072,-0.30287005,0.
 03592621,0.03699049,0.32807494,0.00000990,-0.00004930,-0.00014218,0.00
 004687,-0.00004164,0.00006164,0.00000313,0.00000923,0.00008473,-0.0000
 0454,0.00000608,0.00002497,0.00013640,0.00002518,0.00011889,0.00001802
 ,-0.00003477,-0.00001894,-0.00013083,-0.00018318,-0.00003831,-0.001421
 80,0.00054261,0.00136090,0.00468768,0.03133343,-0.00517400,0.00285699,
 0.00102227,-0.00594669,-0.00067930,-0.00029160,0.00144916,0.00379189,0
 .03595959,-0.05351508,-0.00680798,-0.04080903,0.05816871,-0.00002753,-
 0.00023937,-0.00012788,-0.00000860,0.00010152,0.00013366,-0.00000062,0
 .00002455,0.00000620,-0.00014156,0.00002316,-0.00000963,0.00025350,0.0
 0037748,-0.00020640,-0.00020498,-0.00006717,0.00006784,-0.00004441,-0.
 00007057,0.00001073,0.00008756,-0.00085026,0.00338382,-0.00941563,0.00
 493356,0.00031638,0.00007879,-0.00048666,-0.00019720,0.00084261,-0.000
 00629,0.00008915,-0.25358898,0.10543486,0.02094315,0.00546170,-0.00229
 272,-0.00104752,0.27384009,-0.00004304,-0.00008482,-0.00006575,0.00001
 725,0.00001461,0.00009612,-0.00004059,0.00002842,0.00000953,-0.0000318
 6,0.00003904,0.00000751,0.00000791,0.00002861,-0.00035956,0.00004954,0
 .00002980,0.00004701,0.00000231,0.00001679,-0.00000202,0.00015834,0.00
 036691,0.00071377,-0.00708367,0.00283481,0.00172080,-0.00010461,0.0004
 3658,-0.00058050,0.00024773,-0.00004701,-0.00055300,0.10502120,-0.1044
 4007,-0.01217682,0.02982968,-0.01379186,-0.00307020,-0.11627335,0.1083
 5172,0.00024021,0.00004658,-0.00048338,-0.00000505,0.00014410,0.000235
 68,0.00000526,-0.00002916,0.00002426,0.00003896,0.00000658,0.00023322,
 0.00003721,-0.00070785,-0.00008186,0.00043027,0.00010687,0.00000587,0.
 00003261,0.00006426,-0.00000292,0.00121869,0.00240750,-0.00436441,0.02
 834647,-0.01495496,-0.00474121,-0.00062849,0.00022596,0.00135935,-0.00
 084017,-0.00046138,0.00139937,0.02113605,-0.01221848,-0.05046627,-0.00
 447525,0.00144768,-0.00036765,-0.02534064,0.01193879,0.05400873,-0.000
 35956,0.00003182,0.00003478,-0.00039225,-0.00000122,0.00000572,0.00004
 933,-0.00000589,-0.00004370,-0.00001207,-0.00001099,0.00001732,0.00013
 634,-0.00024046,0.00013185,0.00004835,0.00000386,-0.00002348,-0.000003
 98,-0.00001063,-0.00000371,0.00146310,0.00033528,-0.00031744,0.0083982
 7,0.00539096,0.01022394,0.00040788,0.00035358,-0.00094604,0.00003850,-
 0.00027224,0.00337657,-0.15090292,-0.05623461,-0.11556521,-0.00274720,
 -0.00069043,-0.00171833,-0.01714439,-0.01149881,-0.02034097,0.16103768
 ,-0.00003066,-0.00021153,-0.00025818,-0.00002256,0.00032411,0.00016228
 ,0.00008403,-0.00004048,-0.00005056,-0.00009093,0.00000899,0.00015228,
 0.00000490,0.00017791,-0.00013062,0.00003656,-0.00005483,0.00005013,0.
 00001875,-0.00009186,0.00004631,-0.00008279,-0.00016586,-0.00026704,0.
 00460504,0.00216491,0.00508406,0.00068981,0.00051290,-0.00019753,-0.00
 052566,0.00091549,0.00174771,-0.05607787,-0.08229655,-0.06460917,-0.02
 105536,-0.01019978,-0.02388019,0.00950025,0.00574279,0.01228443,0.0628
 4795,0.08338572,0.00011998,-0.00023561,-0.00067181,0.00006946,0.000163
 06,0.00066168,-0.00007616,0.00006622,0.00007116,-0.00011860,0.00009080
 ,0.00024478,0.00029563,-0.00025014,-0.00056443,0.00012696,0.00008986,0
 .00010984,0.00003685,0.00008454,-0.00007564,-0.00160815,0.00048983,0.0
 0199405,-0.01784424,-0.01060477,-0.02209561,-0.00018188,0.00030971,0.0
 0142863,0.00305962,0.00146414,-0.00553875,-0.11534907,-0.06485605,-0.1
 7826115,0.00380148,0.00120777,0.00408199,0.00224379,0.00214057,0.00296
 295,0.12517461,0.06995503,0.19572473,0.00017398,-0.00004085,0.00078573
 ,0.00003562,-0.00005203,-0.00016860,0.00015333,0.00008092,-0.00024091,
 0.00002329,0.00001111,-0.00005516,0.00279209,-0.02791129,-0.00099697,0
 .00035753,-0.00078646,-0.00016816,-0.00477764,-0.00333328,-0.00064846,
 -0.08785243,0.00197218,0.00182713,0.00128460,0.02807235,0.00107448,-0.
 00487025,0.00311319,0.00113410,0.00043449,0.00084655,0.00017457,0.0000
 3795,0.00006974,-0.00073072,0.00020564,-0.00005059,0.00022711,0.000042
 77,0.00000632,0.00005878,0.00004249,0.00004736,0.00016795,0.57455800,0
 .00042380,0.00047095,-0.00007443,-0.00009329,-0.00012790,-0.00014772,0
 .00012715,-0.00013607,0.00008764,0.00056195,0.00001002,0.00032219,-0.0
 0278648,-0.01635107,-0.00167591,0.00199238,0.00117308,-0.00032915,-0.0
 0130576,0.00003723,-0.00101193,0.00215302,-0.20822341,-0.02319235,0.00
 354385,-0.01476039,-0.00187486,0.00096963,0.00025980,-0.00105650,-0.00
 204976,0.00111156,-0.00016048,-0.00044801,0.00045165,-0.00007878,-0.00
 010304,-0.00014535,0.00010873,-0.00053276,-0.00001805,0.00036841,0.000
 08999,-0.00012070,-0.00014638,0.00317545,0.47169900,0.00121430,0.00062
 832,0.00067357,-0.00000936,-0.00016301,-0.00005717,-0.00031828,0.00016
 574,0.00009091,0.00017171,0.00020052,0.00029754,0.00018426,-0.00821255
 ,0.00191522,-0.00005642,0.00127321,0.00032695,-0.00054907,0.00054088,0
 .00070211,0.00194411,-0.02777774,-0.05663050,0.00027815,-0.01042525,0.
 00183184,0.00095982,0.00032437,0.00057206,-0.00001313,0.00120984,0.000
 31156,-0.00119356,0.00056233,0.00082896,0.00030057,0.00018679,0.000047
 82,-0.00016047,0.00019227,0.00030612,0.00000960,-0.00016642,-0.0000712
 4,-0.00328313,0.01383369,0.50066382,0.00011629,-0.00038141,0.00001811,
 -0.00005683,0.00005325,-0.00000607,-0.00031349,-0.00001723,-0.00021265
 ,0.00003113,0.00023722,-0.00004447,-0.00011902,-0.00003079,-0.00048720
 ,0.00035171,0.00004438,-0.00001200,0.00005592,-0.00007630,-0.00023620,
 0.00002667,0.00075939,-0.00012837,0.00004598,0.00003966,0.00044425,0.0
 0004957,0.00010889,0.00026086,0.00033518,-0.00003713,-0.00002976,0.000
 09992,0.00044520,-0.00006066,-0.00032964,-0.00004557,0.00026102,0.0000
 1950,-0.00025576,0.00006504,-0.00005217,-0.00005880,0.00001118,-0.0456
 9540,0.00514993,-0.00983476,0.04590394,-0.00037251,-0.00073012,0.00016
 950,0.00003178,-0.00009184,-0.00010055,-0.00060958,0.00030855,-0.00027
 879,-0.00023657,0.00030410,-0.00038439,0.00150960,0.00050576,-0.000165
 79,-0.00024237,-0.00009150,0.00009265,-0.00025163,-0.00045340,-0.00041
 223,0.00152165,-0.02475677,0.02249376,-0.00154262,0.00042976,-0.000021
 23,0.00024409,-0.00043598,-0.00041915,0.00027085,-0.00008049,0.0000718
 9,0.00042637,-0.00068868,0.00013587,0.00055324,0.00033751,-0.00031272,
 0.00019140,0.00030247,-0.00039854,-0.00003759,-0.00009647,-0.00009736,
 0.00568272,-0.10012153,0.10832239,-0.00628079,0.11513801,-0.00038177,0
 .00028526,-0.00031737,0.00001080,-0.00009756,-0.00005373,0.00010084,-0
 .00037601,0.00010379,0.00022428,-0.00005873,0.00002573,-0.00068966,0.0
 0042225,-0.00059492,0.00004602,-0.00018646,-0.00013319,0.00010844,0.00
 009800,0.00010208,0.00036354,0.00320584,0.01131826,0.00061959,0.000453
 05,-0.00068369,-0.00010965,0.00008511,0.00009106,-0.00007405,-0.000186
 30,-0.00012772,0.00033282,0.00027080,-0.00034249,-0.00004832,-0.000378
 73,0.00009100,-0.00022089,-0.00005061,0.00003903,-0.00000585,-0.000093
 56,-0.00005376,-0.00949084,0.09484094,-0.22411079,0.01087918,-0.113856
 62,0.24710279,0.00013027,-0.00002284,0.00006688,-0.00001583,-0.0000272
 4,-0.00003061,-0.00001399,-0.00000257,0.00009809,0.00001467,-0.0000088
 5,0.00003911,0.00044796,-0.00077805,-0.00108737,0.00071192,0.00042285,
 0.00005792,0.00018776,-0.00003724,-0.00030473,-0.00060585,0.00312992,-
 0.00115197,0.00082396,0.00016875,0.00088010,0.00003706,0.00022875,0.00
 028170,0.00037503,-0.00004803,0.00021058,-0.00001463,-0.00002536,-0.00
 003695,0.00000119,-0.00000549,-0.00011431,-0.00006384,-0.00002432,0.00
 006109,0.00000421,0.00007130,0.00004259,-0.21315526,0.05150638,0.10931
 744,0.00113327,-0.00102292,-0.00072532,0.22923225,-0.00033531,-0.00000
 818,0.00006306,0.00006900,0.00003141,0.00017638,-0.00002724,0.00000224
 ,-0.00013738,-0.00008244,-0.00000690,-0.00008183,0.00164712,0.00141241
 ,-0.00054936,-0.00118429,-0.00010138,0.00065044,0.00009968,0.00046704,
 0.00041684,0.02874202,-0.01167263,-0.01534481,-0.00219924,-0.00536933,
 -0.00139021,0.00142832,-0.00082332,-0.00027817,-0.00008577,0.00019109,
 0.00020649,-0.00010796,-0.00030320,0.00054639,0.00009664,0.00027913,-0
 .00019002,0.00015576,0.00019146,-0.00018065,0.00000649,0.00001538,-0.0
 0005409,0.05307034,-0.06466289,-0.03999876,-0.01350614,0.00474533,0.00
 835637,-0.06036174,0.07361258,-0.00007584,-0.00044046,-0.00001430,-0.0
 0000572,0.00017471,0.00007058,-0.00007048,0.00010075,-0.00031559,-0.00
 009546,0.00007281,-0.00005089,0.00039586,0.00056140,0.00007633,-0.0004
 1588,-0.00034416,0.00013719,-0.00018795,0.00012575,0.00018471,0.002447
 69,-0.00074159,-0.00037876,-0.00102470,0.00018476,-0.00029989,0.000170
 77,0.00004704,0.00015515,0.00026401,0.00002706,0.00014681,0.00015342,0
 .00015313,0.00010623,-0.00020729,-0.00010451,0.00002467,0.00002960,-0.
 00008439,-0.00001195,-0.00001309,-0.00000128,-0.00001532,0.10980892,-0
 .03948242,-0.12210930,0.02477164,-0.00675134,-0.01723090,-0.12277905,0
 .04085922,0.12933658,-0.00003334,0.00005111,0.00001994,0.00000597,-0.0
 0007158,-0.00004131,0.00003312,-0.00001557,0.00012324,-0.00006225,0.00
 000474,-0.00004781,0.00071417,0.00015822,-0.00088856,0.00032813,0.0000
 5747,-0.00023532,0.00008492,-0.00017751,-0.00026121,0.00094504,-0.0025
 3956,0.00183450,0.00054649,0.00077361,0.00107524,0.00022815,0.00003431
 ,0.00027953,0.00069451,-0.00040787,-0.00013436,0.00011307,-0.00000567,
 -0.00008010,-0.00001937,0.00000965,-0.00011440,0.00001403,0.00001572,-
 0.00004005,-0.00001161,0.00003870,0.00002799,-0.22379081,-0.06237445,-
 0.09896177,-0.00160253,0.00016490,-0.00093916,-0.01923015,-0.00742524,
 -0.01316644,0.24104247,0.00016484,-0.00029428,0.00053703,-0.00001125,0
 .00001128,-0.00005552,-0.00012432,0.00027322,-0.00017519,-0.00018244,0
 .00018357,-0.00017006,0.00239076,-0.00525232,-0.00161698,0.00010934,0.
 00019879,0.00018736,-0.00139917,-0.00090582,-0.00018015,-0.02921591,-0
 .01329700,-0.01297620,-0.00172861,0.00136580,-0.00036060,-0.00007897,0
 .00046427,0.00043885,0.00127178,-0.00005988,0.00054840,0.00034525,0.00
 000964,0.00003240,0.00001511,0.00000364,-0.00014447,0.00007661,-0.0000
 0221,-0.00009014,-0.00005706,0.00002987,0.00018286,-0.06397372,-0.0705
 4596,-0.04069660,0.01385200,0.00547528,0.00726696,0.00683673,0.0019997
 5,0.00564353,0.07170902,0.08034237,-0.00015034,0.00014231,0.00011602,0
 .00001147,0.00000501,-0.00001298,0.00021193,-0.00009338,-0.00000136,-0
 .00002091,-0.00008682,-0.00000566,0.00092885,0.00023497,-0.00030715,-0
 .00027959,0.00000898,0.00018600,-0.00016455,0.00005460,0.00018978,-0.0
 0245228,-0.00064100,-0.00030529,-0.00045776,0.00047837,0.00002442,0.00
 017802,0.00013229,0.00014709,0.00038627,-0.00029088,0.00011311,0.00008
 748,-0.00043697,-0.00001492,0.00004175,0.00010311,-0.00031162,0.000086
 32,0.00007646,-0.00005495,0.00000341,0.00017233,0.00006790,-0.09947581
 ,-0.04033068,-0.10558948,-0.02565913,-0.00808734,-0.01522518,0.0151748
 1,0.00693011,0.01018865,0.11155007,0.04162853,0.11079563\\-0.00000014,
 0.00000120,-0.00000051,-0.00000010,0.00000223,-0.00000094,0.,0.0000013
 9,0.00000093,-0.00000007,0.00000128,-0.00000116,0.00000001,-0.00000071
 ,-0.00000082,0.00000007,-0.00000160,-0.00000039,-0.00000004,-0.0000007
 9,-0.00000228,0.00000008,-0.00000098,0.00000074,-0.00000007,-0.0000007
 1,-0.00000087,-0.00000007,-0.00000082,-0.00000225,-0.00000003,-0.00000
 159,-0.00000041,0.00000002,0.00000121,-0.00000049,0.,0.00000139,0.0000
 0095,-0.00000009,0.00000126,-0.00000116,-0.00000009,0.00000225,-0.0000
 0094,0.00000015,-0.00000121,0.00000209,0.00000010,0.00000025,0.0000027
 4,0.00000010,-0.00000202,0.00000237,0.00000016,-0.00000203,0.00000239\
 \\@


 HONESTY IN A LAWYER IS LIKE A HEN'S HIND LEGS.
  -- MAGNUS OLESON, LAKE WOBEGON PATRIARCH, C.1875
 Job cpu time:       0 days  0 hours 18 minutes 46.8 seconds.
 File lengths (MBytes):  RWF=     64 Int=      0 D2E=      0 Chk=      3 Scr=      1
 Normal termination of Gaussian 09 at Mon Apr 11 11:53:08 2016.
