 Entering Gaussian System, Link 0=/home/hetanjin/apps/g09D01/g09/g09
 Input=C6H14_3_r010_C13_2_opt_B3L.gjf
 Output=C6H14_3_r010_C13_2_opt_B3L.log
 Initial command:
 /home/hetanjin/apps/g09D01/g09/l1.exe "/state/partition1/Gau-17756.inp" -scrdir="/state/partition1/"
 Entering Link 1 = /home/hetanjin/apps/g09D01/g09/l1.exe PID=     17757.
  
 Copyright (c) 1988,1990,1992,1993,1995,1998,2003,2009,2013,
            Gaussian, Inc.  All Rights Reserved.
  
 This is part of the Gaussian(R) 09 program.  It is based on
 the Gaussian(R) 03 system (copyright 2003, Gaussian, Inc.),
 the Gaussian(R) 98 system (copyright 1998, Gaussian, Inc.),
 the Gaussian(R) 94 system (copyright 1995, Gaussian, Inc.),
 the Gaussian 92(TM) system (copyright 1992, Gaussian, Inc.),
 the Gaussian 90(TM) system (copyright 1990, Gaussian, Inc.),
 the Gaussian 88(TM) system (copyright 1988, Gaussian, Inc.),
 the Gaussian 86(TM) system (copyright 1986, Carnegie Mellon
 University), and the Gaussian 82(TM) system (copyright 1983,
 Carnegie Mellon University). Gaussian is a federally registered
 trademark of Gaussian, Inc.
  
 This software contains proprietary and confidential information,
 including trade secrets, belonging to Gaussian, Inc.
  
 This software is provided under written license and may be
 used, copied, transmitted, or stored only in accord with that
 written license.
  
 The following legend is applicable only to US Government
 contracts under FAR:
  
                    RESTRICTED RIGHTS LEGEND
  
 Use, reproduction and disclosure by the US Government is
 subject to restrictions as set forth in subparagraphs (a)
 and (c) of the Commercial Computer Software - Restricted
 Rights clause in FAR 52.227-19.
  
 Gaussian, Inc.
 340 Quinnipiac St., Bldg. 40, Wallingford CT 06492
  
  
 ---------------------------------------------------------------
 Warning -- This program may not be used in any manner that
 competes with the business of Gaussian, Inc. or will provide
 assistance to any competitor of Gaussian, Inc.  The licensee
 of this program is prohibited from giving any competitor of
 Gaussian, Inc. access to this program.  By using this program,
 the user acknowledges that Gaussian, Inc. is engaged in the
 business of creating and licensing software in the field of
 computational chemistry and represents and warrants to the
 licensee that it is not a competitor of Gaussian, Inc. and that
 it will not use this program in any manner prohibited above.
 ---------------------------------------------------------------
  

 Cite this work as:
 Gaussian 09, Revision D.01,
 M. J. Frisch, G. W. Trucks, H. B. Schlegel, G. E. Scuseria, 
 M. A. Robb, J. R. Cheeseman, G. Scalmani, V. Barone, B. Mennucci, 
 G. A. Petersson, H. Nakatsuji, M. Caricato, X. Li, H. P. Hratchian, 
 A. F. Izmaylov, J. Bloino, G. Zheng, J. L. Sonnenberg, M. Hada, 
 M. Ehara, K. Toyota, R. Fukuda, J. Hasegawa, M. Ishida, T. Nakajima, 
 Y. Honda, O. Kitao, H. Nakai, T. Vreven, J. A. Montgomery, Jr., 
 J. E. Peralta, F. Ogliaro, M. Bearpark, J. J. Heyd, E. Brothers, 
 K. N. Kudin, V. N. Staroverov, T. Keith, R. Kobayashi, J. Normand, 
 K. Raghavachari, A. Rendell, J. C. Burant, S. S. Iyengar, J. Tomasi, 
 M. Cossi, N. Rega, J. M. Millam, M. Klene, J. E. Knox, J. B. Cross, 
 V. Bakken, C. Adamo, J. Jaramillo, R. Gomperts, R. E. Stratmann, 
 O. Yazyev, A. J. Austin, R. Cammi, C. Pomelli, J. W. Ochterski, 
 R. L. Martin, K. Morokuma, V. G. Zakrzewski, G. A. Voth, 
 P. Salvador, J. J. Dannenberg, S. Dapprich, A. D. Daniels, 
 O. Farkas, J. B. Foresman, J. V. Ortiz, J. Cioslowski, 
 and D. J. Fox, Gaussian, Inc., Wallingford CT, 2013.
 
 ******************************************
 Gaussian 09:  ES64L-G09RevD.01 24-Apr-2013
                 7-Nov-2015 
 ******************************************
 %mem=6GB
 %nprocshared=4
 Will use up to    4 processors via shared memory.
 ----------------------------------------------
 #p B3LYP/6-31G(d) opt=tight int=ultrafine freq
 ----------------------------------------------
 1/7=10,14=-1,18=20,19=15,26=4,38=1/1,3;
 2/9=110,12=2,17=6,18=5,40=1/2;
 3/5=1,6=6,7=1,11=2,16=1,25=1,30=1,71=1,74=-5,75=-5/1,2,3;
 4//1;
 5/5=2,38=5/2;
 6/7=2,8=2,9=2,10=2,28=1/1;
 7//1,2,3,16;
 1/7=10,14=-1,18=20,19=15,26=4/3(2);
 2/9=110/2;
 99//99;
 2/9=110/2;
 3/5=1,6=6,7=1,11=2,16=1,25=1,30=1,71=1,74=-5,75=-5/1,2,3;
 4/5=5,16=3,69=1/1;
 5/5=2,38=5/2;
 7//1,2,3,16;
 1/7=10,14=-1,18=20,19=15,26=4/3(-5);
 2/9=110/2;
 6/7=2,8=2,9=2,10=2,19=2,28=1/1;
 99/9=1/99;
 Leave Link    1 at Sat Nov  7 02:05:32 2015, MaxMem=   805306368 cpu:         0.2
 (Enter /home/hetanjin/apps/g09D01/g09/l101.exe)
 ---------------------------------------------
 using B3LYP/6-31G(d) to do opt and freq calc.
 ---------------------------------------------
 Symbolic Z-matrix:
 Charge =  0 Multiplicity = 2
 C                    -2.58543  -0.17306  -0.29185 
 H                    -2.56946  -0.21059  -1.38848 
 H                    -2.79867   0.86056   0.00159 
 H                    -3.42636  -0.7886    0.04788 
 C                    -1.2643   -0.68112   0.2975 
 H                    -1.30509  -0.61825   1.39536 
 H                    -1.16192  -1.74928   0.0599 
 C                     0.        0.05117  -0.19883 
 H                     0.        0.00139  -1.30033 
 C                     1.2643   -0.68112   0.29751 
 H                     1.16193  -1.74928   0.05992 
 H                     1.30509  -0.61823   1.39536 
 C                     2.58543  -0.17306  -0.29185 
 H                     2.79867   0.86057   0.00157 
 H                     3.42636  -0.78859   0.04789 
 C                    0.         1.53336   0.20729 
 H                    -0.88093   2.05894  -0.1759 
 H                    -0.00001   1.63604   1.30101 
 H                     0.88093   2.05894  -0.17589 
 
 NAtoms=     19 NQM=       19 NQMF=       0 NMMI=      0 NMMIF=      0
                NMic=       0 NMicF=      0.
                    Isotopes and Nuclear Properties:
 (Nuclear quadrupole moments (NQMom) in fm**2, nuclear magnetic moments (NMagM)
  in nuclear magnetons)

  Atom         1           2           3           4           5           6           7           8           9          10
 IAtWgt=          12           1           1           1          12           1           1          12           1          12
 AtmWgt=  12.0000000   1.0078250   1.0078250   1.0078250  12.0000000   1.0078250   1.0078250  12.0000000   1.0078250  12.0000000
 NucSpn=           0           1           1           1           0           1           1           0           1           0
 AtZEff=   0.0000000   0.0000000   0.0000000   0.0000000   0.0000000   0.0000000   0.0000000   0.0000000   0.0000000   0.0000000
 NQMom=    0.0000000   0.0000000   0.0000000   0.0000000   0.0000000   0.0000000   0.0000000   0.0000000   0.0000000   0.0000000
 NMagM=    0.0000000   2.7928460   2.7928460   2.7928460   0.0000000   2.7928460   2.7928460   0.0000000   2.7928460   0.0000000
 AtZNuc=   6.0000000   1.0000000   1.0000000   1.0000000   6.0000000   1.0000000   1.0000000   6.0000000   1.0000000   6.0000000

  Atom        11          12          13          14          15          16          17          18          19
 IAtWgt=           1           1          12           1           1          12           1           1           1
 AtmWgt=   1.0078250   1.0078250  12.0000000   1.0078250   1.0078250  12.0000000   1.0078250   1.0078250   1.0078250
 NucSpn=           1           1           0           1           1           0           1           1           1
 AtZEff=   0.0000000   0.0000000   0.0000000   0.0000000   0.0000000   0.0000000   0.0000000   0.0000000   0.0000000
 NQMom=    0.0000000   0.0000000   0.0000000   0.0000000   0.0000000   0.0000000   0.0000000   0.0000000   0.0000000
 NMagM=    2.7928460   2.7928460   0.0000000   2.7928460   2.7928460   0.0000000   2.7928460   2.7928460   2.7928460
 AtZNuc=   1.0000000   1.0000000   6.0000000   1.0000000   1.0000000   6.0000000   1.0000000   1.0000000   1.0000000
 Leave Link  101 at Sat Nov  7 02:05:32 2015, MaxMem=   805306368 cpu:         0.8
 (Enter /home/hetanjin/apps/g09D01/g09/l103.exe)

 GradGradGradGradGradGradGradGradGradGradGradGradGradGradGradGradGradGrad
 Berny optimization.
 Initialization pass.
                           ----------------------------
                           !    Initial Parameters    !
                           ! (Angstroms and Degrees)  !
 --------------------------                            --------------------------
 ! Name  Definition              Value          Derivative Info.                !
 --------------------------------------------------------------------------------
 ! R1    R(1,2)                  1.0974         estimate D2E/DX2                !
 ! R2    R(1,3)                  1.0954         estimate D2E/DX2                !
 ! R3    R(1,4)                  1.0961         estimate D2E/DX2                !
 ! R4    R(1,5)                  1.5332         estimate D2E/DX2                !
 ! R5    R(5,6)                  1.1004         estimate D2E/DX2                !
 ! R6    R(5,7)                  1.099          estimate D2E/DX2                !
 ! R7    R(5,8)                  1.5431         estimate D2E/DX2                !
 ! R8    R(8,9)                  1.1026         estimate D2E/DX2                !
 ! R9    R(8,10)                 1.5431         estimate D2E/DX2                !
 ! R10   R(8,16)                 1.5368         estimate D2E/DX2                !
 ! R11   R(10,11)                1.099          estimate D2E/DX2                !
 ! R12   R(10,12)                1.1004         estimate D2E/DX2                !
 ! R13   R(10,13)                1.5332         estimate D2E/DX2                !
 ! R14   R(13,14)                1.0954         estimate D2E/DX2                !
 ! R15   R(13,15)                1.0961         estimate D2E/DX2                !
 ! R16   R(16,17)                1.095          estimate D2E/DX2                !
 ! R17   R(16,18)                1.0985         estimate D2E/DX2                !
 ! R18   R(16,19)                1.095          estimate D2E/DX2                !
 ! A1    A(2,1,3)              107.6254         estimate D2E/DX2                !
 ! A2    A(2,1,4)              107.559          estimate D2E/DX2                !
 ! A3    A(2,1,5)              111.115          estimate D2E/DX2                !
 ! A4    A(3,1,4)              107.3082         estimate D2E/DX2                !
 ! A5    A(3,1,5)              112.1749         estimate D2E/DX2                !
 ! A6    A(4,1,5)              110.8451         estimate D2E/DX2                !
 ! A7    A(1,5,6)              109.4277         estimate D2E/DX2                !
 ! A8    A(1,5,7)              108.6152         estimate D2E/DX2                !
 ! A9    A(1,5,8)              115.1572         estimate D2E/DX2                !
 ! A10   A(6,5,7)              105.9422         estimate D2E/DX2                !
 ! A11   A(6,5,8)              108.915          estimate D2E/DX2                !
 ! A12   A(7,5,8)              108.3832         estimate D2E/DX2                !
 ! A13   A(5,8,9)              107.4517         estimate D2E/DX2                !
 ! A14   A(5,8,10)             110.0384         estimate D2E/DX2                !
 ! A15   A(5,8,16)             111.882          estimate D2E/DX2                !
 ! A16   A(9,8,10)             107.4518         estimate D2E/DX2                !
 ! A17   A(9,8,16)             107.9103         estimate D2E/DX2                !
 ! A18   A(10,8,16)            111.882          estimate D2E/DX2                !
 ! A19   A(8,10,11)            108.3833         estimate D2E/DX2                !
 ! A20   A(8,10,12)            108.915          estimate D2E/DX2                !
 ! A21   A(8,10,13)            115.1571         estimate D2E/DX2                !
 ! A22   A(11,10,12)           105.9423         estimate D2E/DX2                !
 ! A23   A(11,10,13)           108.6152         estimate D2E/DX2                !
 ! A24   A(12,10,13)           109.4277         estimate D2E/DX2                !
 ! A25   A(10,13,14)           112.1749         estimate D2E/DX2                !
 ! A26   A(10,13,15)           110.8451         estimate D2E/DX2                !
 ! A27   A(14,13,15)           107.3082         estimate D2E/DX2                !
 ! A28   A(8,16,17)            111.7423         estimate D2E/DX2                !
 ! A29   A(8,16,18)            110.6857         estimate D2E/DX2                !
 ! A30   A(8,16,19)            111.7423         estimate D2E/DX2                !
 ! A31   A(17,16,18)           107.6699         estimate D2E/DX2                !
 ! A32   A(17,16,19)           107.12           estimate D2E/DX2                !
 ! A33   A(18,16,19)           107.67           estimate D2E/DX2                !
 ! D1    D(2,1,5,6)            179.2076         estimate D2E/DX2                !
 ! D2    D(2,1,5,7)            -65.5701         estimate D2E/DX2                !
 ! D3    D(2,1,5,8)             56.1554         estimate D2E/DX2                !
 ! D4    D(3,1,5,6)             58.6833         estimate D2E/DX2                !
 ! D5    D(3,1,5,7)            173.9055         estimate D2E/DX2                !
 ! D6    D(3,1,5,8)            -64.369          estimate D2E/DX2                !
 ! D7    D(4,1,5,6)            -61.2484         estimate D2E/DX2                !
 ! D8    D(4,1,5,7)             53.9738         estimate D2E/DX2                !
 ! D9    D(4,1,5,8)            175.6993         estimate D2E/DX2                !
 ! D10   D(1,5,8,9)            -54.8991         estimate D2E/DX2                !
 ! D11   D(1,5,8,10)          -171.5975         estimate D2E/DX2                !
 ! D12   D(1,5,8,16)            63.3728         estimate D2E/DX2                !
 ! D13   D(6,5,8,9)           -178.2239         estimate D2E/DX2                !
 ! D14   D(6,5,8,10)            65.0777         estimate D2E/DX2                !
 ! D15   D(6,5,8,16)           -59.952          estimate D2E/DX2                !
 ! D16   D(7,5,8,9)             66.9516         estimate D2E/DX2                !
 ! D17   D(7,5,8,10)           -49.7467         estimate D2E/DX2                !
 ! D18   D(7,5,8,16)          -174.7765         estimate D2E/DX2                !
 ! D19   D(5,8,10,11)           49.746          estimate D2E/DX2                !
 ! D20   D(5,8,10,12)          -65.0785         estimate D2E/DX2                !
 ! D21   D(5,8,10,13)          171.5967         estimate D2E/DX2                !
 ! D22   D(9,8,10,11)          -66.9523         estimate D2E/DX2                !
 ! D23   D(9,8,10,12)          178.2232         estimate D2E/DX2                !
 ! D24   D(9,8,10,13)           54.8984         estimate D2E/DX2                !
 ! D25   D(16,8,10,11)         174.7757         estimate D2E/DX2                !
 ! D26   D(16,8,10,12)          59.9512         estimate D2E/DX2                !
 ! D27   D(16,8,10,13)         -63.3736         estimate D2E/DX2                !
 ! D28   D(5,8,16,17)          -57.9911         estimate D2E/DX2                !
 ! D29   D(5,8,16,18)           62.0011         estimate D2E/DX2                !
 ! D30   D(5,8,16,19)         -178.0067         estimate D2E/DX2                !
 ! D31   D(9,8,16,17)           60.0075         estimate D2E/DX2                !
 ! D32   D(9,8,16,18)          179.9997         estimate D2E/DX2                !
 ! D33   D(9,8,16,19)          -60.0081         estimate D2E/DX2                !
 ! D34   D(10,8,16,17)         178.0062         estimate D2E/DX2                !
 ! D35   D(10,8,16,18)         -62.0016         estimate D2E/DX2                !
 ! D36   D(10,8,16,19)          57.9905         estimate D2E/DX2                !
 ! D37   D(8,10,13,14)          64.3686         estimate D2E/DX2                !
 ! D38   D(8,10,13,15)        -175.6996         estimate D2E/DX2                !
 ! D39   D(11,10,13,14)       -173.9059         estimate D2E/DX2                !
 ! D40   D(11,10,13,15)        -53.9741         estimate D2E/DX2                !
 ! D41   D(12,10,13,14)        -58.6837         estimate D2E/DX2                !
 ! D42   D(12,10,13,15)         61.2481         estimate D2E/DX2                !
 --------------------------------------------------------------------------------
 Trust Radius=3.00D-01 FncErr=1.00D-07 GrdErr=1.00D-06
 Number of steps in this run=    103 maximum allowed number of steps=    114.
 GradGradGradGradGradGradGradGradGradGradGradGradGradGradGradGradGradGrad

 Leave Link  103 at Sat Nov  7 02:05:32 2015, MaxMem=   805306368 cpu:         0.0
 (Enter /home/hetanjin/apps/g09D01/g09/l202.exe)
                          Input orientation:                          
 ---------------------------------------------------------------------
 Center     Atomic      Atomic             Coordinates (Angstroms)
 Number     Number       Type             X           Y           Z
 ---------------------------------------------------------------------
      1          6           0       -2.585432   -0.173063   -0.291849
      2          1           0       -2.569458   -0.210592   -1.388477
      3          1           0       -2.798673    0.860561    0.001587
      4          1           0       -3.426358   -0.788597    0.047878
      5          6           0       -1.264298   -0.681121    0.297502
      6          1           0       -1.305088   -0.618252    1.395357
      7          1           0       -1.161923   -1.749281    0.059899
      8          6           0        0.000001    0.051166   -0.198829
      9          1           0        0.000003    0.001388   -1.300329
     10          6           0        1.264300   -0.681115    0.297508
     11          1           0        1.161927   -1.749278    0.059916
     12          1           0        1.305092   -0.618234    1.395362
     13          6           0        2.585433   -0.173062   -0.291851
     14          1           0        2.798671    0.860567    0.001568
     15          1           0        3.426361   -0.788588    0.047886
     16          6           0       -0.000004    1.533363    0.207287
     17          1           0       -0.880930    2.058937   -0.175897
     18          1           0       -0.000012    1.636037    1.301012
     19          1           0        0.880926    2.058939   -0.175885
 ---------------------------------------------------------------------
                    Distance matrix (angstroms):
                    1          2          3          4          5
     1  C    0.000000
     2  H    1.097386   0.000000
     3  H    1.095425   1.769798   0.000000
     4  H    1.096108   1.769600   1.765178   0.000000
     5  C    1.533249   2.183430   2.195144   2.179075   0.000000
     6  H    2.164287   3.084566   2.521959   2.518830   1.100410
     7  H    2.152805   2.538998   3.081173   2.459822   1.099046
     8  C    2.596805   2.843572   2.920251   3.536383   1.543062
     9  H    2.780636   2.579697   3.204021   3.765858   2.148800
    10  C    3.927581   4.214456   4.355696   4.698525   2.528598
    11  H    4.080550   4.288197   4.743523   4.687794   2.661574
    12  H    4.263923   4.788326   4.579337   4.922536   2.794820
    13  C    5.170865   5.270379   5.490271   6.052762   3.927581
    14  H    5.490269   5.647691   5.597344   6.439944   4.355697
    15  H    6.052763   6.192501   6.439944   6.852719   4.698525
    16  C    3.137748   3.491409   2.885745   4.142078   2.551572
    17  H    2.810800   3.077700   2.268335   3.825928   2.806955
    18  H    3.534748   4.152763   3.181567   4.380530   2.823946
    19  H    4.124429   4.304219   3.873894   5.168290   3.511981
                    6          7          8          9         10
     6  H    0.000000
     7  H    1.755896   0.000000
     8  C    2.166289   2.158383   0.000000
     9  H    3.058421   2.503025   1.102624   0.000000
    10  C    2.794813   2.661577   1.543061   2.148800   0.000000
    11  H    3.024696   2.323850   2.158384   2.503031   1.099046
    12  H    2.610180   3.024713   2.166288   3.058421   1.100410
    13  C    4.263921   4.080548   2.596804   2.780631   1.533250
    14  H    4.579344   4.743523   2.920247   3.204008   2.195144
    15  H    4.922530   4.687795   3.536382   3.765856   2.179075
    16  C    2.782841   3.485331   1.536827   2.149384   2.551572
    17  H    3.133064   3.825844   2.192649   2.504775   3.511981
    18  H    2.606519   3.788242   2.182049   3.072304   2.823951
    19  H    3.796684   4.327975   2.192649   2.504779   2.806951
                   11         12         13         14         15
    11  H    0.000000
    12  H    1.755897   0.000000
    13  C    2.152804   2.164287   0.000000
    14  H    3.081173   2.521962   1.095424   0.000000
    15  H    2.459823   2.518828   1.096108   1.765178   0.000000
    16  C    3.485331   2.782834   3.137755   2.885751   4.142082
    17  H    4.327976   3.796682   4.124432   3.873893   5.168291
    18  H    3.788242   2.606518   3.534767   3.181593   4.380544
    19  H    3.825844   3.133048   2.810804   2.268332   3.825928
                   16         17         18         19
    16  C    0.000000
    17  H    1.095029   0.000000
    18  H    1.098534   1.770910   0.000000
    19  H    1.095029   1.761856   1.770910   0.000000
 Stoichiometry    C6H13(2)
 Framework group  C1[X(C6H13)]
 Deg. of freedom    51
 Full point group                 C1      NOp   1
 Largest Abelian subgroup         C1      NOp   1
 Largest concise Abelian subgroup C1      NOp   1
                         Standard orientation:                         
 ---------------------------------------------------------------------
 Center     Atomic      Atomic             Coordinates (Angstroms)
 Number     Number       Type             X           Y           Z
 ---------------------------------------------------------------------
      1          6           0       -2.541247   -0.162261   -0.256457
      2          1           0       -2.553765   -0.187962   -1.353471
      3          1           0       -2.741813    0.869086    0.053467
      4          1           0       -3.376108   -0.777582    0.098280
      5          6           0       -1.207829   -0.682735    0.293047
      6          1           0       -1.219963   -0.631595    1.392201
      7          1           0       -1.116817   -1.748713    0.041431
      8          6           0        0.046786    0.049089   -0.227930
      9          1           0        0.018116    0.011265   -1.329532
     10          6           0        1.319897   -0.694324    0.227661
     11          1           0        1.206232   -1.759365   -0.018649
     12          1           0        1.389316   -0.643546    1.324704
     13          6           0        2.627834   -0.185969   -0.390182
     14          1           0        2.853599    0.843427   -0.091304
     15          1           0        3.474247   -0.808994   -0.078929
     16          6           0        0.064472    1.526777    0.193928
     17          1           0       -0.823484    2.060511   -0.160686
     18          1           0        0.093192    1.617577    1.288326
     19          1           0        0.937765    2.052434   -0.206237
 ---------------------------------------------------------------------
 Rotational constants (GHZ):      6.6943788      1.8926791      1.6112357
 Leave Link  202 at Sat Nov  7 02:05:32 2015, MaxMem=   805306368 cpu:         0.0
 (Enter /home/hetanjin/apps/g09D01/g09/l301.exe)
 Standard basis: 6-31G(d) (6D, 7F)
 Ernie: Thresh=  0.10000D-02 Tol=  0.10000D-05 Strict=F.
 There are   116 symmetry adapted cartesian basis functions of A   symmetry.
 There are   116 symmetry adapted basis functions of A   symmetry.
   116 basis functions,   220 primitive gaussians,   116 cartesian basis functions
    25 alpha electrons       24 beta electrons
       nuclear repulsion energy       245.4497470862 Hartrees.
 IExCor=  402 DFT=T Ex+Corr=B3LYP ExCW=0 ScaHFX=  0.200000
 ScaDFX=  0.800000  0.720000  1.000000  0.810000 ScalE2=  1.000000  1.000000
 IRadAn=      5 IRanWt=     -1 IRanGd=            0 ICorTp=0 IEmpDi=  4
 NAtoms=   19 NActive=   19 NUniq=   19 SFac= 1.00D+00 NAtFMM=   60 NAOKFM=F Big=F
 Integral buffers will be    131072 words long.
 Raffenetti 2 integral format.
 Two-electron integral symmetry is turned on.
 Leave Link  301 at Sat Nov  7 02:05:33 2015, MaxMem=   805306368 cpu:         0.2
 (Enter /home/hetanjin/apps/g09D01/g09/l302.exe)
 NPDir=0 NMtPBC=     1 NCelOv=     1 NCel=       1 NClECP=     1 NCelD=      1
         NCelK=      1 NCelE2=     1 NClLst=     1 CellRange=     0.0.
 One-electron integrals computed using PRISM.
 NBasis=   116 RedAO= T EigKep=  3.75D-03  NBF=   116
 NBsUse=   116 1.00D-06 EigRej= -1.00D+00 NBFU=   116
 Precomputing XC quadrature grid using
 IXCGrd= 4 IRadAn=           5 IRanWt=          -1 IRanGd=           0 AccXCQ= 0.00D+00.
 Generated NRdTot=       0 NPtTot=           0 NUsed=           0 NTot=          32
 NSgBfM=   116   116   116   116   116 MxSgAt=    19 MxSgA2=    19.
 Leave Link  302 at Sat Nov  7 02:05:33 2015, MaxMem=   805306368 cpu:         1.5
 (Enter /home/hetanjin/apps/g09D01/g09/l303.exe)
 DipDrv:  MaxL=1.
 Leave Link  303 at Sat Nov  7 02:05:33 2015, MaxMem=   805306368 cpu:         0.2
 (Enter /home/hetanjin/apps/g09D01/g09/l401.exe)
 ExpMin= 1.61D-01 ExpMax= 3.05D+03 ExpMxC= 4.57D+02 IAcc=3 IRadAn=         5 AccDes= 0.00D+00
 Harris functional with IExCor=  402 and IRadAn=       5 diagonalized for initial guess.
 HarFok:  IExCor=  402 AccDes= 0.00D+00 IRadAn=         5 IDoV= 1 UseB2=F ITyADJ=14
 ICtDFT=  3500011 ScaDFX=  1.000000  1.000000  1.000000  1.000000
 FoFCou: FMM=F IPFlag=           0 FMFlag=      100000 FMFlg1=           0
         NFxFlg=           0 DoJE=T BraDBF=F KetDBF=T FulRan=T
         wScrn=  0.000000 ICntrl=     500 IOpCl=  0 I1Cent=   200000004 NGrid=           0
         NMat0=    1 NMatS0=      1 NMatT0=    0 NMatD0=    1 NMtDS0=    0 NMtDT0=    0
 Petite list used in FoFCou.
 Harris En= -236.438974583994    
 JPrj=0 DoOrth=F DoCkMO=F.
 Initial guess <Sx>= 0.0000 <Sy>= 0.0000 <Sz>= 0.5000 <S**2>= 0.7500 S= 0.5000
 Leave Link  401 at Sat Nov  7 02:05:35 2015, MaxMem=   805306368 cpu:         8.5
 (Enter /home/hetanjin/apps/g09D01/g09/l502.exe)
 UHF open shell SCF:
 Using DIIS extrapolation, IDIIS=  1040.
 Integral symmetry usage will be decided dynamically.
 Keep R1 and R2 ints in memory in canonical form, NReq=47059932.
 IVT=       60514 IEndB=       60514 NGot=   805306368 MDV=   759189273
 LenX=   759189273 LenY=   759175376
 Requested convergence on RMS density matrix=1.00D-08 within 128 cycles.
 Requested convergence on MAX density matrix=1.00D-06.
 Requested convergence on             energy=1.00D-06.
 No special actions if energy rises.
 FoFCou: FMM=F IPFlag=           0 FMFlag=           0 FMFlg1=           0
         NFxFlg=           0 DoJE=F BraDBF=F KetDBF=F FulRan=T
         wScrn=  0.000000 ICntrl=     600 IOpCl=  0 I1Cent=           0 NGrid=           0
         NMat0=    1 NMatS0=   6786 NMatT0=    0 NMatD0=    1 NMtDS0=    0 NMtDT0=    0
 Symmetry not used in FoFCou.
 Integral accuracy reduced to 1.0D-05 until final iterations.

 Cycle   1  Pass 0  IDiag  1:
 E= -236.152285475642    
 DIIS: error= 4.07D-02 at cycle   1 NSaved=   1.
 NSaved= 1 IEnMin= 1 EnMin= -236.152285475642     IErMin= 1 ErrMin= 4.07D-02
 ErrMax= 4.07D-02  0.00D+00 EMaxC= 1.00D-01 BMatC= 8.74D-01 BMatP= 8.74D-01
 IDIUse=3 WtCom= 5.93D-01 WtEn= 4.07D-01
 Coeff-Com:  0.100D+01
 Coeff-En:   0.100D+01
 Coeff:      0.100D+01
 Gap=     0.285 Goal=   None    Shift=    0.000
 Gap=     0.231 Goal=   None    Shift=    0.000
 GapD=    0.231 DampG=1.000 DampE=0.500 DampFc=0.5000 IDamp=-1.
 Damping current iteration by 5.00D-01
 RMSDP=9.52D-03 MaxDP=1.40D-01              OVMax= 1.83D-01

 Cycle   2  Pass 0  IDiag  1:
 E= -236.263139531493     Delta-E=       -0.110854055851 Rises=F Damp=T
 DIIS: error= 7.11D-03 at cycle   2 NSaved=   2.
 NSaved= 2 IEnMin= 2 EnMin= -236.263139531493     IErMin= 2 ErrMin= 7.11D-03
 ErrMax= 7.11D-03  0.00D+00 EMaxC= 1.00D-01 BMatC= 3.89D-02 BMatP= 8.74D-01
 IDIUse=3 WtCom= 9.29D-01 WtEn= 7.11D-02
 Coeff-Com:  0.698D-01 0.930D+00
 Coeff-En:   0.113D+00 0.887D+00
 Coeff:      0.729D-01 0.927D+00
 Gap=     0.314 Goal=   None    Shift=    0.000
 Gap=     0.258 Goal=   None    Shift=    0.000
 RMSDP=1.58D-03 MaxDP=2.38D-02 DE=-1.11D-01 OVMax= 9.86D-02

 Cycle   3  Pass 0  IDiag  1:
 E= -236.398895809882     Delta-E=       -0.135756278389 Rises=F Damp=F
 DIIS: error= 2.77D-03 at cycle   3 NSaved=   3.
 NSaved= 3 IEnMin= 3 EnMin= -236.398895809882     IErMin= 3 ErrMin= 2.77D-03
 ErrMax= 2.77D-03  0.00D+00 EMaxC= 1.00D-01 BMatC= 5.23D-03 BMatP= 3.89D-02
 IDIUse=3 WtCom= 9.72D-01 WtEn= 2.77D-02
 Coeff-Com: -0.482D-02 0.207D+00 0.797D+00
 Coeff-En:   0.000D+00 0.000D+00 0.100D+01
 Coeff:     -0.469D-02 0.202D+00 0.803D+00
 Gap=     0.318 Goal=   None    Shift=    0.000
 Gap=     0.239 Goal=   None    Shift=    0.000
 RMSDP=5.62D-04 MaxDP=1.22D-02 DE=-1.36D-01 OVMax= 1.18D-02

 Cycle   4  Pass 0  IDiag  1:
 E= -236.399749737051     Delta-E=       -0.000853927170 Rises=F Damp=F
 DIIS: error= 1.75D-03 at cycle   4 NSaved=   4.
 NSaved= 4 IEnMin= 4 EnMin= -236.399749737051     IErMin= 4 ErrMin= 1.75D-03
 ErrMax= 1.75D-03  0.00D+00 EMaxC= 1.00D-01 BMatC= 2.09D-03 BMatP= 5.23D-03
 IDIUse=3 WtCom= 9.83D-01 WtEn= 1.75D-02
 Coeff-Com: -0.546D-02 0.366D-01 0.399D+00 0.569D+00
 Coeff-En:   0.000D+00 0.000D+00 0.249D+00 0.751D+00
 Coeff:     -0.536D-02 0.359D-01 0.397D+00 0.573D+00
 Gap=     0.313 Goal=   None    Shift=    0.000
 Gap=     0.246 Goal=   None    Shift=    0.000
 RMSDP=2.19D-04 MaxDP=4.33D-03 DE=-8.54D-04 OVMax= 5.59D-03

 Cycle   5  Pass 0  IDiag  1:
 E= -236.400261632512     Delta-E=       -0.000511895461 Rises=F Damp=F
 DIIS: error= 3.14D-04 at cycle   5 NSaved=   5.
 NSaved= 5 IEnMin= 5 EnMin= -236.400261632512     IErMin= 5 ErrMin= 3.14D-04
 ErrMax= 3.14D-04  0.00D+00 EMaxC= 1.00D-01 BMatC= 8.30D-05 BMatP= 2.09D-03
 IDIUse=3 WtCom= 9.97D-01 WtEn= 3.14D-03
 Coeff-Com: -0.123D-02-0.314D-02 0.893D-01 0.222D+00 0.694D+00
 Coeff-En:   0.000D+00 0.000D+00 0.000D+00 0.000D+00 0.100D+01
 Coeff:     -0.123D-02-0.313D-02 0.890D-01 0.221D+00 0.694D+00
 Gap=     0.314 Goal=   None    Shift=    0.000
 Gap=     0.246 Goal=   None    Shift=    0.000
 RMSDP=4.44D-05 MaxDP=9.01D-04 DE=-5.12D-04 OVMax= 9.41D-04

 Cycle   6  Pass 0  IDiag  1:
 E= -236.400283062521     Delta-E=       -0.000021430009 Rises=F Damp=F
 DIIS: error= 6.61D-05 at cycle   6 NSaved=   6.
 NSaved= 6 IEnMin= 6 EnMin= -236.400283062521     IErMin= 6 ErrMin= 6.61D-05
 ErrMax= 6.61D-05  0.00D+00 EMaxC= 1.00D-01 BMatC= 2.59D-06 BMatP= 8.30D-05
 IDIUse=1 WtCom= 1.00D+00 WtEn= 0.00D+00
 Coeff-Com:  0.117D-03-0.225D-02-0.962D-02-0.324D-02 0.800D-01 0.935D+00
 Coeff:      0.117D-03-0.225D-02-0.962D-02-0.324D-02 0.800D-01 0.935D+00
 Gap=     0.314 Goal=   None    Shift=    0.000
 Gap=     0.246 Goal=   None    Shift=    0.000
 RMSDP=1.42D-05 MaxDP=4.59D-04 DE=-2.14D-05 OVMax= 3.98D-04

 Cycle   7  Pass 0  IDiag  1:
 E= -236.400284095416     Delta-E=       -0.000001032895 Rises=F Damp=F
 DIIS: error= 4.96D-05 at cycle   7 NSaved=   7.
 NSaved= 7 IEnMin= 7 EnMin= -236.400284095416     IErMin= 7 ErrMin= 4.96D-05
 ErrMax= 4.96D-05  0.00D+00 EMaxC= 1.00D-01 BMatC= 1.10D-06 BMatP= 2.59D-06
 IDIUse=1 WtCom= 1.00D+00 WtEn= 0.00D+00
 Coeff-Com:  0.254D-03-0.392D-03-0.199D-01-0.409D-01-0.901D-01 0.426D+00
 Coeff-Com:  0.725D+00
 Coeff:      0.254D-03-0.392D-03-0.199D-01-0.409D-01-0.901D-01 0.426D+00
 Coeff:      0.725D+00
 Gap=     0.314 Goal=   None    Shift=    0.000
 Gap=     0.246 Goal=   None    Shift=    0.000
 RMSDP=6.31D-06 MaxDP=2.31D-04 DE=-1.03D-06 OVMax= 1.81D-04

 Initial convergence to 1.0D-05 achieved.  Increase integral accuracy.
 Cycle   8  Pass 1  IDiag  1:
 E= -236.400263811048     Delta-E=        0.000020284369 Rises=F Damp=F
 DIIS: error= 1.07D-05 at cycle   1 NSaved=   1.
 NSaved= 1 IEnMin= 1 EnMin= -236.400263811048     IErMin= 1 ErrMin= 1.07D-05
 ErrMax= 1.07D-05  0.00D+00 EMaxC= 1.00D-01 BMatC= 8.44D-08 BMatP= 8.44D-08
 IDIUse=1 WtCom= 1.00D+00 WtEn= 0.00D+00
 Coeff-Com:  0.100D+01
 Coeff:      0.100D+01
 Gap=     0.314 Goal=   None    Shift=    0.000
 Gap=     0.246 Goal=   None    Shift=    0.000
 RMSDP=6.31D-06 MaxDP=2.31D-04 DE= 2.03D-05 OVMax= 6.13D-05

 Cycle   9  Pass 1  IDiag  1:
 E= -236.400263820922     Delta-E=       -0.000000009874 Rises=F Damp=F
 DIIS: error= 1.05D-05 at cycle   2 NSaved=   2.
 NSaved= 2 IEnMin= 2 EnMin= -236.400263820922     IErMin= 2 ErrMin= 1.05D-05
 ErrMax= 1.05D-05  0.00D+00 EMaxC= 1.00D-01 BMatC= 8.22D-08 BMatP= 8.44D-08
 IDIUse=1 WtCom= 1.00D+00 WtEn= 0.00D+00
 Coeff-Com:  0.496D+00 0.504D+00
 Coeff:      0.496D+00 0.504D+00
 Gap=     0.314 Goal=   None    Shift=    0.000
 Gap=     0.246 Goal=   None    Shift=    0.000
 RMSDP=1.29D-06 MaxDP=2.62D-05 DE=-9.87D-09 OVMax= 2.75D-05

 Cycle  10  Pass 1  IDiag  1:
 E= -236.400263841919     Delta-E=       -0.000000020998 Rises=F Damp=F
 DIIS: error= 2.14D-06 at cycle   3 NSaved=   3.
 NSaved= 3 IEnMin= 3 EnMin= -236.400263841919     IErMin= 3 ErrMin= 2.14D-06
 ErrMax= 2.14D-06  0.00D+00 EMaxC= 1.00D-01 BMatC= 2.87D-09 BMatP= 8.22D-08
 IDIUse=1 WtCom= 1.00D+00 WtEn= 0.00D+00
 Coeff-Com: -0.548D-01 0.624D-01 0.992D+00
 Coeff:     -0.548D-01 0.624D-01 0.992D+00
 Gap=     0.314 Goal=   None    Shift=    0.000
 Gap=     0.246 Goal=   None    Shift=    0.000
 RMSDP=4.60D-07 MaxDP=1.21D-05 DE=-2.10D-08 OVMax= 1.06D-05

 Cycle  11  Pass 1  IDiag  1:
 E= -236.400263843234     Delta-E=       -0.000000001315 Rises=F Damp=F
 DIIS: error= 8.74D-07 at cycle   4 NSaved=   4.
 NSaved= 4 IEnMin= 4 EnMin= -236.400263843234     IErMin= 4 ErrMin= 8.74D-07
 ErrMax= 8.74D-07  0.00D+00 EMaxC= 1.00D-01 BMatC= 7.01D-10 BMatP= 2.87D-09
 IDIUse=1 WtCom= 1.00D+00 WtEn= 0.00D+00
 Coeff-Com: -0.119D+00-0.807D-01 0.357D+00 0.843D+00
 Coeff:     -0.119D+00-0.807D-01 0.357D+00 0.843D+00
 Gap=     0.314 Goal=   None    Shift=    0.000
 Gap=     0.246 Goal=   None    Shift=    0.000
 RMSDP=2.18D-07 MaxDP=6.56D-06 DE=-1.31D-09 OVMax= 5.45D-06

 Cycle  12  Pass 1  IDiag  1:
 E= -236.400263843518     Delta-E=       -0.000000000283 Rises=F Damp=F
 DIIS: error= 3.43D-07 at cycle   5 NSaved=   5.
 NSaved= 5 IEnMin= 5 EnMin= -236.400263843518     IErMin= 5 ErrMin= 3.43D-07
 ErrMax= 3.43D-07  0.00D+00 EMaxC= 1.00D-01 BMatC= 8.39D-11 BMatP= 7.01D-10
 IDIUse=1 WtCom= 1.00D+00 WtEn= 0.00D+00
 Coeff-Com: -0.481D-01-0.406D-01 0.779D-01 0.366D+00 0.644D+00
 Coeff:     -0.481D-01-0.406D-01 0.779D-01 0.366D+00 0.644D+00
 Gap=     0.314 Goal=   None    Shift=    0.000
 Gap=     0.246 Goal=   None    Shift=    0.000
 RMSDP=4.75D-08 MaxDP=1.88D-06 DE=-2.83D-10 OVMax= 1.44D-06

 Cycle  13  Pass 1  IDiag  1:
 E= -236.400263843539     Delta-E=       -0.000000000021 Rises=F Damp=F
 DIIS: error= 7.37D-08 at cycle   6 NSaved=   6.
 NSaved= 6 IEnMin= 6 EnMin= -236.400263843539     IErMin= 6 ErrMin= 7.37D-08
 ErrMax= 7.37D-08  0.00D+00 EMaxC= 1.00D-01 BMatC= 5.08D-12 BMatP= 8.39D-11
 IDIUse=1 WtCom= 1.00D+00 WtEn= 0.00D+00
 Coeff-Com:  0.373D-03-0.224D-02-0.223D-01 0.803D-02 0.202D+00 0.814D+00
 Coeff:      0.373D-03-0.224D-02-0.223D-01 0.803D-02 0.202D+00 0.814D+00
 Gap=     0.314 Goal=   None    Shift=    0.000
 Gap=     0.246 Goal=   None    Shift=    0.000
 RMSDP=1.55D-08 MaxDP=4.42D-07 DE=-2.11D-11 OVMax= 3.86D-07

 Cycle  14  Pass 1  IDiag  1:
 E= -236.400263843541     Delta-E=       -0.000000000003 Rises=F Damp=F
 DIIS: error= 2.02D-08 at cycle   7 NSaved=   7.
 NSaved= 7 IEnMin= 7 EnMin= -236.400263843541     IErMin= 7 ErrMin= 2.02D-08
 ErrMax= 2.02D-08  0.00D+00 EMaxC= 1.00D-01 BMatC= 3.00D-13 BMatP= 5.08D-12
 IDIUse=1 WtCom= 1.00D+00 WtEn= 0.00D+00
 Coeff-Com:  0.226D-02 0.114D-02-0.102D-01-0.137D-01 0.313D-01 0.249D+00
 Coeff-Com:  0.741D+00
 Coeff:      0.226D-02 0.114D-02-0.102D-01-0.137D-01 0.313D-01 0.249D+00
 Coeff:      0.741D+00
 Gap=     0.314 Goal=   None    Shift=    0.000
 Gap=     0.246 Goal=   None    Shift=    0.000
 RMSDP=3.89D-09 MaxDP=7.81D-08 DE=-2.73D-12 OVMax= 9.04D-08

 SCF Done:  E(UB3LYP) =  -236.400263844     A.U. after   14 cycles
            NFock= 14  Conv=0.39D-08     -V/T= 2.0104
 <Sx>= 0.0000 <Sy>= 0.0000 <Sz>= 0.5000 <S**2>= 0.7527 S= 0.5013
 <L.S>= 0.000000000000E+00
 KE= 2.339637234008D+02 PE=-1.036452354028D+03 EE= 3.206386196979D+02
 Annihilation of the first spin contaminant:
 S**2 before annihilation     0.7527,   after     0.7500
 Leave Link  502 at Sat Nov  7 02:06:18 2015, MaxMem=   805306368 cpu:       161.9
 (Enter /home/hetanjin/apps/g09D01/g09/l601.exe)
 Copying SCF densities to generalized density rwf, IOpCl= 1 IROHF=0.

 **********************************************************************

            Population analysis using the SCF density.

 **********************************************************************

 Orbital symmetries:
 Alpha Orbitals:
       Occupied  (A) (A) (A) (A) (A) (A) (A) (A) (A) (A) (A) (A)
                 (A) (A) (A) (A) (A) (A) (A) (A) (A) (A) (A) (A)
                 (A)
       Virtual   (A) (A) (A) (A) (A) (A) (A) (A) (A) (A) (A) (A)
                 (A) (A) (A) (A) (A) (A) (A) (A) (A) (A) (A) (A)
                 (A) (A) (A) (A) (A) (A) (A) (A) (A) (A) (A) (A)
                 (A) (A) (A) (A) (A) (A) (A) (A) (A) (A) (A) (A)
                 (A) (A) (A) (A) (A) (A) (A) (A) (A) (A) (A) (A)
                 (A) (A) (A) (A) (A) (A) (A) (A) (A) (A) (A) (A)
                 (A) (A) (A) (A) (A) (A) (A) (A) (A) (A) (A) (A)
                 (A) (A) (A) (A) (A) (A) (A)
 Beta  Orbitals:
       Occupied  (A) (A) (A) (A) (A) (A) (A) (A) (A) (A) (A) (A)
                 (A) (A) (A) (A) (A) (A) (A) (A) (A) (A) (A) (A)
       Virtual   (A) (A) (A) (A) (A) (A) (A) (A) (A) (A) (A) (A)
                 (A) (A) (A) (A) (A) (A) (A) (A) (A) (A) (A) (A)
                 (A) (A) (A) (A) (A) (A) (A) (A) (A) (A) (A) (A)
                 (A) (A) (A) (A) (A) (A) (A) (A) (A) (A) (A) (A)
                 (A) (A) (A) (A) (A) (A) (A) (A) (A) (A) (A) (A)
                 (A) (A) (A) (A) (A) (A) (A) (A) (A) (A) (A) (A)
                 (A) (A) (A) (A) (A) (A) (A) (A) (A) (A) (A) (A)
                 (A) (A) (A) (A) (A) (A) (A) (A)
 The electronic state is 2-A.
 Alpha  occ. eigenvalues --  -10.19496 -10.18349 -10.18245 -10.17637 -10.17095
 Alpha  occ. eigenvalues --  -10.16900  -0.80972  -0.74508  -0.70405  -0.64734
 Alpha  occ. eigenvalues --   -0.59096  -0.54965  -0.46428  -0.45259  -0.42337
 Alpha  occ. eigenvalues --   -0.40644  -0.39301  -0.38715  -0.37202  -0.35400
 Alpha  occ. eigenvalues --   -0.34134  -0.31871  -0.31232  -0.30806  -0.22867
 Alpha virt. eigenvalues --    0.08571   0.11793   0.12528   0.13062   0.15144
 Alpha virt. eigenvalues --    0.15240   0.16374   0.17346   0.17974   0.18282
 Alpha virt. eigenvalues --    0.19841   0.22102   0.22988   0.24361   0.24777
 Alpha virt. eigenvalues --    0.25096   0.28281   0.28796   0.49442   0.50964
 Alpha virt. eigenvalues --    0.51164   0.52766   0.53809   0.57613   0.59251
 Alpha virt. eigenvalues --    0.61509   0.63999   0.65150   0.66540   0.68850
 Alpha virt. eigenvalues --    0.74024   0.76722   0.80603   0.84291   0.84597
 Alpha virt. eigenvalues --    0.85497   0.88171   0.89716   0.90445   0.91294
 Alpha virt. eigenvalues --    0.92560   0.93225   0.94967   0.95609   0.96694
 Alpha virt. eigenvalues --    0.97598   0.98993   1.00072   1.03123   1.06590
 Alpha virt. eigenvalues --    1.15265   1.31165   1.40707   1.42582   1.50917
 Alpha virt. eigenvalues --    1.57049   1.58933   1.67306   1.73817   1.74340
 Alpha virt. eigenvalues --    1.78621   1.86858   1.87880   1.90203   1.94815
 Alpha virt. eigenvalues --    1.97295   1.98498   2.01057   2.02044   2.06112
 Alpha virt. eigenvalues --    2.11149   2.16910   2.22062   2.27515   2.29362
 Alpha virt. eigenvalues --    2.31220   2.33275   2.35466   2.42394   2.50814
 Alpha virt. eigenvalues --    2.52058   2.59223   2.68182   2.77042   2.79326
 Alpha virt. eigenvalues --    4.08731   4.16655   4.25520   4.37997   4.41760
 Alpha virt. eigenvalues --    4.59705
  Beta  occ. eigenvalues --  -10.18325 -10.18273 -10.18053 -10.17637 -10.17096
  Beta  occ. eigenvalues --  -10.16902  -0.80745  -0.73790  -0.69786  -0.64034
  Beta  occ. eigenvalues --   -0.58011  -0.54551  -0.46240  -0.45038  -0.42022
  Beta  occ. eigenvalues --   -0.40138  -0.38848  -0.38173  -0.36981  -0.35203
  Beta  occ. eigenvalues --   -0.33825  -0.31743  -0.31103  -0.30515
  Beta virt. eigenvalues --   -0.05933   0.08737   0.12042   0.12700   0.13263
  Beta virt. eigenvalues --    0.15291   0.15531   0.16495   0.17580   0.18191
  Beta virt. eigenvalues --    0.18688   0.20243   0.22508   0.23159   0.24616
  Beta virt. eigenvalues --    0.24885   0.25184   0.28854   0.29309   0.49790
  Beta virt. eigenvalues --    0.51131   0.51409   0.52859   0.55345   0.59403
  Beta virt. eigenvalues --    0.61129   0.63338   0.64643   0.65362   0.67254
  Beta virt. eigenvalues --    0.69299   0.74183   0.77199   0.80832   0.84480
  Beta virt. eigenvalues --    0.84990   0.85941   0.88374   0.89901   0.90791
  Beta virt. eigenvalues --    0.91435   0.92882   0.93926   0.95065   0.95910
  Beta virt. eigenvalues --    0.97192   0.97963   0.99437   1.00373   1.03279
  Beta virt. eigenvalues --    1.06975   1.16672   1.31246   1.41342   1.42984
  Beta virt. eigenvalues --    1.51325   1.58061   1.59180   1.68107   1.74262
  Beta virt. eigenvalues --    1.74718   1.80730   1.88325   1.90110   1.91239
  Beta virt. eigenvalues --    1.95414   1.97959   1.98855   2.01630   2.02700
  Beta virt. eigenvalues --    2.07735   2.11502   2.18758   2.24076   2.27883
  Beta virt. eigenvalues --    2.29465   2.31561   2.34281   2.35911   2.42978
  Beta virt. eigenvalues --    2.50946   2.52198   2.59948   2.68514   2.77385
  Beta virt. eigenvalues --    2.79584   4.10389   4.17966   4.25659   4.38527
  Beta virt. eigenvalues --    4.41841   4.59800
          Condensed to atoms (all electrons):
               1          2          3          4          5          6
     1  C    5.072678   0.377009   0.377406   0.371453   0.369748  -0.039417
     2  H    0.377009   0.578874  -0.032914  -0.031300  -0.035996   0.005358
     3  H    0.377406  -0.032914   0.573086  -0.031315  -0.032743  -0.004693
     4  H    0.371453  -0.031300  -0.031315   0.578551  -0.027090  -0.002243
     5  C    0.369748  -0.035996  -0.032743  -0.027090   4.996662   0.368004
     6  H   -0.039417   0.005358  -0.004693  -0.002243   0.368004   0.620608
     7  H   -0.039049  -0.003821   0.005125  -0.003781   0.372205  -0.038897
     8  C   -0.038490  -0.004558  -0.005169   0.003922   0.387554  -0.038059
     9  H   -0.004736   0.005666  -0.000196  -0.000015  -0.047960   0.006538
    10  C    0.004001   0.000065   0.000030  -0.000124  -0.042262  -0.004369
    11  H    0.000064   0.000001   0.000003  -0.000007  -0.005159  -0.000329
    12  H   -0.000026   0.000007   0.000003   0.000003  -0.004267   0.004910
    13  C   -0.000121  -0.000002   0.000002   0.000001   0.004001  -0.000041
    14  H    0.000001   0.000000   0.000000   0.000000   0.000038   0.000002
    15  H    0.000001   0.000000   0.000000   0.000000  -0.000142   0.000003
    16  C   -0.004014  -0.000567   0.002165   0.000119  -0.049964  -0.008043
    17  H    0.002210   0.000398   0.003200  -0.000099  -0.005493  -0.000071
    18  H   -0.000299   0.000076   0.000270  -0.000023  -0.005467   0.005715
    19  H    0.000065  -0.000029  -0.000114   0.000001   0.004982  -0.000038
               7          8          9         10         11         12
     1  C   -0.039049  -0.038490  -0.004736   0.004001   0.000064  -0.000026
     2  H   -0.003821  -0.004558   0.005666   0.000065   0.000001   0.000007
     3  H    0.005125  -0.005169  -0.000196   0.000030   0.000003   0.000003
     4  H   -0.003781   0.003922  -0.000015  -0.000124  -0.000007   0.000003
     5  C    0.372205   0.387554  -0.047960  -0.042262  -0.005159  -0.004267
     6  H   -0.038897  -0.038059   0.006538  -0.004369  -0.000329   0.004910
     7  H    0.614873  -0.038327  -0.003514  -0.005470   0.007192  -0.000330
     8  C   -0.038327   4.867758   0.376137   0.381408  -0.038627  -0.037634
     9  H   -0.003514   0.376137   0.638659  -0.047638  -0.003432   0.006599
    10  C   -0.005470   0.381408  -0.047638   5.035069   0.369886   0.357556
    11  H    0.007192  -0.038627  -0.003432   0.369886   0.605072  -0.037982
    12  H   -0.000330  -0.037634   0.006599   0.357556  -0.037982   0.613493
    13  C    0.000081  -0.038546  -0.000469   0.365734  -0.038777  -0.038961
    14  H    0.000003  -0.006543  -0.000118  -0.042819   0.005216  -0.002364
    15  H   -0.000007   0.004047   0.000044  -0.035940  -0.005024   0.000140
    16  C    0.005773   0.377423  -0.048265  -0.049909   0.005661  -0.007936
    17  H   -0.000003  -0.028734  -0.003223   0.004904  -0.000169  -0.000041
    18  H   -0.000017  -0.036268   0.005969  -0.005378  -0.000015   0.005771
    19  H   -0.000174  -0.029186  -0.003264  -0.005045  -0.000016  -0.000048
              13         14         15         16         17         18
     1  C   -0.000121   0.000001   0.000001  -0.004014   0.002210  -0.000299
     2  H   -0.000002   0.000000   0.000000  -0.000567   0.000398   0.000076
     3  H    0.000002   0.000000   0.000000   0.002165   0.003200   0.000270
     4  H    0.000001   0.000000   0.000000   0.000119  -0.000099  -0.000023
     5  C    0.004001   0.000038  -0.000142  -0.049964  -0.005493  -0.005467
     6  H   -0.000041   0.000002   0.000003  -0.008043  -0.000071   0.005715
     7  H    0.000081   0.000003  -0.000007   0.005773  -0.000003  -0.000017
     8  C   -0.038546  -0.006543   0.004047   0.377423  -0.028734  -0.036268
     9  H   -0.000469  -0.000118   0.000044  -0.048265  -0.003223   0.005969
    10  C    0.365734  -0.042819  -0.035940  -0.049909   0.004904  -0.005378
    11  H   -0.038777   0.005216  -0.005024   0.005661  -0.000169  -0.000015
    12  H   -0.038961  -0.002364   0.000140  -0.007936  -0.000041   0.005771
    13  C    5.327696   0.360360   0.352934  -0.004427   0.000055  -0.000379
    14  H    0.360360   0.588542  -0.045184   0.002326  -0.000116   0.000253
    15  H    0.352934  -0.045184   0.596956   0.000121   0.000000  -0.000022
    16  C   -0.004427   0.002326   0.000121   5.122082   0.371708   0.370396
    17  H    0.000055  -0.000116   0.000000   0.371708   0.571580  -0.031840
    18  H   -0.000379   0.000253  -0.000022   0.370396  -0.031840   0.588617
    19  H    0.002794   0.003124  -0.000125   0.370692  -0.030210  -0.032184
              19
     1  C    0.000065
     2  H   -0.000029
     3  H   -0.000114
     4  H    0.000001
     5  C    0.004982
     6  H   -0.000038
     7  H   -0.000174
     8  C   -0.029186
     9  H   -0.003264
    10  C   -0.005045
    11  H   -0.000016
    12  H   -0.000048
    13  C    0.002794
    14  H    0.003124
    15  H   -0.000125
    16  C    0.370692
    17  H   -0.030210
    18  H   -0.032184
    19  H    0.572293
          Atomic-Atomic Spin Densities.
               1          2          3          4          5          6
     1  C   -0.000879  -0.000020   0.000027   0.000145   0.000418  -0.000075
     2  H   -0.000020   0.000300  -0.000020  -0.000058  -0.000078  -0.000004
     3  H    0.000027  -0.000020   0.000031   0.000009  -0.000015   0.000005
     4  H    0.000145  -0.000058   0.000009   0.000076  -0.000114   0.000009
     5  C    0.000418  -0.000078  -0.000015  -0.000114   0.001016   0.000109
     6  H   -0.000075  -0.000004   0.000005   0.000009   0.000109  -0.000180
     7  H    0.000019  -0.000005   0.000000   0.000005   0.000161   0.000030
     8  C    0.000096   0.000137  -0.000019  -0.000031  -0.003405   0.000102
     9  H   -0.000078  -0.000139   0.000013   0.000013   0.001935  -0.000005
    10  C   -0.000055   0.000002   0.000001   0.000003   0.000150  -0.000013
    11  H   -0.000004   0.000003   0.000000  -0.000001  -0.000562  -0.000014
    12  H   -0.000003  -0.000003   0.000001   0.000002   0.001374   0.000102
    13  C   -0.000002  -0.000002   0.000000   0.000000   0.000215  -0.000004
    14  H    0.000000   0.000000   0.000000   0.000000  -0.000044  -0.000001
    15  H    0.000000   0.000000   0.000000   0.000000  -0.000009   0.000000
    16  C   -0.000001  -0.000001  -0.000001   0.000000  -0.000175   0.000001
    17  H   -0.000003   0.000014  -0.000016  -0.000003  -0.000085  -0.000004
    18  H   -0.000002  -0.000002   0.000003   0.000001   0.000071  -0.000004
    19  H    0.000003  -0.000002   0.000002   0.000000   0.000034   0.000001
               7          8          9         10         11         12
     1  C    0.000019   0.000096  -0.000078  -0.000055  -0.000004  -0.000003
     2  H   -0.000005   0.000137  -0.000139   0.000002   0.000003  -0.000003
     3  H    0.000000  -0.000019   0.000013   0.000001   0.000000   0.000001
     4  H    0.000005  -0.000031   0.000013   0.000003  -0.000001   0.000002
     5  C    0.000161  -0.003405   0.001935   0.000150  -0.000562   0.001374
     6  H    0.000030   0.000102  -0.000005  -0.000013  -0.000014   0.000102
     7  H    0.000002  -0.000198   0.000052   0.000017  -0.000042   0.000017
     8  C   -0.000198   0.019778  -0.006778   0.008231   0.003300  -0.006906
     9  H    0.000052  -0.006778   0.004189  -0.001655  -0.000712   0.000934
    10  C    0.000017   0.008231  -0.001655  -0.038395   0.004246   0.009571
    11  H   -0.000042   0.003300  -0.000712   0.004246   0.008043  -0.006291
    12  H    0.000017  -0.006906   0.000934   0.009571  -0.006291   0.080703
    13  C    0.000004  -0.008013   0.005201  -0.037453  -0.004087  -0.023381
    14  H   -0.000001   0.000998  -0.000289   0.003114   0.000135  -0.002641
    15  H    0.000000   0.000136  -0.000094   0.002726   0.001148  -0.002556
    16  C   -0.000009   0.000865  -0.000408   0.000587   0.000085  -0.001643
    17  H    0.000000   0.000037  -0.000257  -0.000005   0.000004  -0.000051
    18  H    0.000001  -0.000036   0.000075  -0.000025  -0.000015   0.000535
    19  H    0.000000  -0.000223   0.000403  -0.000291  -0.000025   0.000370
              13         14         15         16         17         18
     1  C   -0.000002   0.000000   0.000000  -0.000001  -0.000003  -0.000002
     2  H   -0.000002   0.000000   0.000000  -0.000001   0.000014  -0.000002
     3  H    0.000000   0.000000   0.000000  -0.000001  -0.000016   0.000003
     4  H    0.000000   0.000000   0.000000   0.000000  -0.000003   0.000001
     5  C    0.000215  -0.000044  -0.000009  -0.000175  -0.000085   0.000071
     6  H   -0.000004  -0.000001   0.000000   0.000001  -0.000004  -0.000004
     7  H    0.000004  -0.000001   0.000000  -0.000009   0.000000   0.000001
     8  C   -0.008013   0.000998   0.000136   0.000865   0.000037  -0.000036
     9  H    0.005201  -0.000289  -0.000094  -0.000408  -0.000257   0.000075
    10  C   -0.037453   0.003114   0.002726   0.000587  -0.000005  -0.000025
    11  H   -0.004087   0.000135   0.001148   0.000085   0.000004  -0.000015
    12  H   -0.023381  -0.002641  -0.002556  -0.001643  -0.000051   0.000535
    13  C    1.136084  -0.013825  -0.012288   0.000071  -0.000031  -0.000121
    14  H   -0.013825  -0.022247   0.006323   0.000782   0.000008  -0.000089
    15  H   -0.012288   0.006323  -0.027104   0.000041   0.000001  -0.000005
    16  C    0.000071   0.000782   0.000041   0.000207   0.000524  -0.000679
    17  H   -0.000031   0.000008   0.000001   0.000524   0.000518  -0.000201
    18  H   -0.000121  -0.000089  -0.000005  -0.000679  -0.000201   0.000419
    19  H    0.000519  -0.000779  -0.000014  -0.000878  -0.000297   0.000274
              19
     1  C    0.000003
     2  H   -0.000002
     3  H    0.000002
     4  H    0.000000
     5  C    0.000034
     6  H    0.000001
     7  H    0.000000
     8  C   -0.000223
     9  H    0.000403
    10  C   -0.000291
    11  H   -0.000025
    12  H    0.000370
    13  C    0.000519
    14  H   -0.000779
    15  H   -0.000014
    16  C   -0.000878
    17  H   -0.000297
    18  H    0.000274
    19  H    0.001080
 Mulliken charges and spin densities:
               1          2
     1  C   -0.448485  -0.000416
     2  H    0.141734   0.000123
     3  H    0.145855   0.000020
     4  H    0.141945   0.000058
     5  C   -0.246652   0.000996
     6  H    0.125060   0.000056
     7  H    0.128139   0.000054
     8  C   -0.058107   0.008074
     9  H    0.123218   0.002402
    10  C   -0.279699  -0.049247
    11  H    0.136442   0.005211
    12  H    0.141108   0.050134
    13  C   -0.291938   1.042885
    14  H    0.137277  -0.028556
    15  H    0.132197  -0.031695
    16  C   -0.455342  -0.000631
    17  H    0.145944   0.000152
    18  H    0.134825   0.000201
    19  H    0.146480   0.000178
 Sum of Mulliken charges =   0.00000   1.00000
 Mulliken charges and spin densities with hydrogens summed into heavy atoms:
               1          2
     1  C   -0.018951  -0.000214
     5  C    0.006547   0.001107
     8  C    0.065111   0.010475
    10  C   -0.002149   0.006098
    13  C   -0.022464   0.982635
    16  C   -0.028094  -0.000100
 Electronic spatial extent (au):  <R**2>=            825.0188
 Charge=              0.0000 electrons
 Dipole moment (field-independent basis, Debye):
    X=             -0.1685    Y=             -0.0735    Z=              0.5806  Tot=              0.6090
 Quadrupole moment (field-independent basis, Debye-Ang):
   XX=            -41.4588   YY=            -40.5707   ZZ=            -41.3483
   XY=              0.0373   XZ=              1.6754   YZ=             -0.0625
 Traceless Quadrupole moment (field-independent basis, Debye-Ang):
   XX=             -0.3328   YY=              0.5552   ZZ=             -0.2224
   XY=              0.0373   XZ=              1.6754   YZ=             -0.0625
 Octapole moment (field-independent basis, Debye-Ang**2):
  XXX=             -1.1126  YYY=             -1.0581  ZZZ=              1.9403  XYY=             -0.0271
  XXY=             -0.2305  XXZ=              5.4172  XZZ=             -2.8518  YZZ=              0.1442
  YYZ=             -0.3788  XYZ=             -0.3840
 Hexadecapole moment (field-independent basis, Debye-Ang**3):
 XXXX=           -811.6541 YYYY=           -243.1725 ZZZZ=            -96.3480 XXXY=              0.9775
 XXXZ=             12.5336 YYYX=             -0.2899 YYYZ=             -0.4300 ZZZX=              6.1495
 ZZZY=              0.3574 XXYY=           -169.7197 XXZZ=           -158.7623 YYZZ=            -58.3935
 XXYZ=             -1.7333 YYXZ=              0.4053 ZZXY=              0.5634
 N-N= 2.454497470862D+02 E-N=-1.036452359096D+03  KE= 2.339637234008D+02
                          Isotropic Fermi Contact Couplings
        Atom                 a.u.       MegaHertz       Gauss      10(-4) cm-1
     1  C(13)             -0.00029      -0.32203      -0.11491      -0.10742
     2  H(1)               0.00007       0.33432       0.11929       0.11152
     3  H(1)               0.00001       0.04022       0.01435       0.01342
     4  H(1)               0.00003       0.13466       0.04805       0.04492
     5  C(13)             -0.00125      -1.40639      -0.50184      -0.46912
     6  H(1)               0.00025       1.11273       0.39705       0.37117
     7  H(1)               0.00007       0.32172       0.11480       0.10731
     8  C(13)              0.01042      11.71708       4.18095       3.90840
     9  H(1)              -0.00030      -1.34915      -0.48141      -0.45003
    10  C(13)             -0.01072     -12.05389      -4.30113      -4.02075
    11  H(1)               0.00368      16.44834       5.86917       5.48657
    12  H(1)               0.02611     116.72052      41.64878      38.93378
    13  C(13)              0.30972     348.18300     124.24035     116.14135
    14  H(1)              -0.00345     -15.40174      -5.49572      -5.13747
    15  H(1)              -0.00486     -21.73004      -7.75382      -7.24836
    16  C(13)             -0.00056      -0.62808      -0.22411      -0.20950
    17  H(1)               0.00008       0.37988       0.13555       0.12671
    18  H(1)               0.00004       0.17635       0.06293       0.05882
    19  H(1)               0.00008       0.34035       0.12145       0.11353
 --------------------------------------------------------
       Center         ----  Spin Dipole Couplings  ----
                      3XX-RR        3YY-RR        3ZZ-RR
 --------------------------------------------------------
     1   Atom        0.001911     -0.001033     -0.000878
     2   Atom        0.001993     -0.001065     -0.000929
     3   Atom        0.001634     -0.000811     -0.000824
     4   Atom        0.001317     -0.000680     -0.000636
     5   Atom        0.003548     -0.003276     -0.000272
     6   Atom        0.003061     -0.002279     -0.000782
     7   Atom        0.003085     -0.001222     -0.001863
     8   Atom        0.020480     -0.008925     -0.011555
     9   Atom        0.012171     -0.007674     -0.004498
    10   Atom        0.002215     -0.022259      0.020044
    11   Atom        0.000835      0.006101     -0.006937
    12   Atom        0.000212     -0.009568      0.009356
    13   Atom       -0.471592     -0.474916      0.946507
    14   Atom       -0.054642      0.059104     -0.004462
    15   Atom        0.017711     -0.014678     -0.003033
    16   Atom        0.003125     -0.000430     -0.002695
    17   Atom        0.001909     -0.000120     -0.001789
    18   Atom        0.001024     -0.000063     -0.000962
    19   Atom       -0.000381      0.004965     -0.004583
 --------------------------------------------------------
                        XY            XZ            YZ
 --------------------------------------------------------
     1   Atom        0.000078     -0.000393      0.000043
     2   Atom       -0.000021      0.000461     -0.000015
     3   Atom       -0.000546     -0.000264      0.000027
     4   Atom        0.000176     -0.000176     -0.000009
     5   Atom        0.000400     -0.002098     -0.000131
     6   Atom        0.000429     -0.001750     -0.000187
     7   Atom        0.002301     -0.000649     -0.000286
     8   Atom       -0.009346     -0.004459      0.000654
     9   Atom       -0.001673      0.004555     -0.000975
    10   Atom        0.007854     -0.027685     -0.008539
    11   Atom        0.014404     -0.005075     -0.005723
    12   Atom        0.004147     -0.007069     -0.002641
    13   Atom        0.002602      0.110009      0.059346
    14   Atom        0.024182      0.009063      0.023320
    15   Atom       -0.058827      0.024134     -0.012514
    16   Atom       -0.005651     -0.002245      0.001337
    17   Atom       -0.002726     -0.000515      0.000305
    18   Atom       -0.003367     -0.002745      0.001985
    19   Atom       -0.007779     -0.001517      0.002081
 --------------------------------------------------------


 ---------------------------------------------------------------------------------
              Anisotropic Spin Dipole Couplings in Principal Axis System
 ---------------------------------------------------------------------------------

       Atom             a.u.   MegaHertz   Gauss  10(-4) cm-1        Axes

              Baa    -0.0011    -0.142    -0.051    -0.047 -0.0751  0.9195 -0.3858
     1 C(13)  Bbb    -0.0009    -0.122    -0.044    -0.041  0.1163  0.3924  0.9124
              Bcc     0.0020     0.264     0.094     0.088  0.9904  0.0237 -0.1365
 
              Baa    -0.0011    -0.569    -0.203    -0.190 -0.0195  0.9845  0.1746
     2 H(1)   Bbb    -0.0010    -0.532    -0.190    -0.178 -0.1512 -0.1755  0.9728
              Bcc     0.0021     1.102     0.393     0.367  0.9883 -0.0074  0.1523
 
              Baa    -0.0009    -0.500    -0.178    -0.167  0.2280  0.9233  0.3092
     3 H(1)   Bbb    -0.0008    -0.449    -0.160    -0.150  0.0295 -0.3239  0.9456
              Bcc     0.0018     0.949     0.338     0.316  0.9732 -0.2065 -0.1011
 
              Baa    -0.0007    -0.372    -0.133    -0.124 -0.0990  0.9844 -0.1455
     4 H(1)   Bbb    -0.0007    -0.347    -0.124    -0.116  0.0744  0.1532  0.9854
              Bcc     0.0013     0.719     0.257     0.240  0.9923  0.0867 -0.0884
 
              Baa    -0.0033    -0.443    -0.158    -0.148 -0.0571  0.9984  0.0037
     5 C(13)  Bbb    -0.0012    -0.161    -0.057    -0.054  0.4028  0.0196  0.9151
              Bcc     0.0045     0.604     0.215     0.201  0.9135  0.0538 -0.4032
 
              Baa    -0.0023    -1.235    -0.441    -0.412 -0.0638  0.9968  0.0484
     6 H(1)   Bbb    -0.0015    -0.779    -0.278    -0.260  0.3628 -0.0220  0.9316
              Bcc     0.0038     2.014     0.719     0.672  0.9297  0.0770 -0.3602
 
              Baa    -0.0022    -1.185    -0.423    -0.395 -0.3964  0.9180  0.0153
     7 H(1)   Bbb    -0.0019    -1.038    -0.371    -0.346  0.1132  0.0324  0.9930
              Bcc     0.0042     2.223     0.793     0.741  0.9111  0.3953 -0.1168
 
              Baa    -0.0125    -1.683    -0.600    -0.561  0.2560  0.5138  0.8188
     8 C(13)  Bbb    -0.0112    -1.506    -0.537    -0.502  0.1608  0.8126 -0.5602
              Bcc     0.0238     3.189     1.138     1.064  0.9532 -0.2750 -0.1254
 
              Baa    -0.0080    -4.247    -1.515    -1.416  0.0268  0.9708  0.2382
     9 H(1)   Bbb    -0.0055    -2.956    -1.055    -0.986 -0.2625 -0.2231  0.9388
              Bcc     0.0135     7.202     2.570     2.402  0.9646 -0.0877  0.2489
 
              Baa    -0.0246    -3.297    -1.177    -1.100 -0.2569  0.9661  0.0255
    10 C(13)  Bbb    -0.0177    -2.375    -0.848    -0.792  0.7709  0.1890  0.6082
              Bcc     0.0423     5.673     2.024     1.892 -0.5828 -0.1759  0.7934
 
              Baa    -0.0112    -5.975    -2.132    -1.993  0.7808 -0.6163  0.1022
    11 H(1)   Bbb    -0.0091    -4.835    -1.725    -1.613  0.0914  0.2745  0.9572
              Bcc     0.0203    10.810     3.857     3.606  0.6180  0.7381 -0.2707
 
              Baa    -0.0111    -5.917    -2.111    -1.974 -0.3430  0.9393  0.0028
    12 H(1)   Bbb    -0.0029    -1.552    -0.554    -0.518  0.8006  0.2908  0.5240
              Bcc     0.0140     7.469     2.665     2.492 -0.4914 -0.1819  0.8517
 
              Baa    -0.4811   -64.561   -23.037   -21.535  0.8807  0.4656 -0.0872
    13 C(13)  Bbb    -0.4763   -63.920   -22.808   -21.322 -0.4675  0.8840 -0.0007
              Bcc     0.9575   128.481    45.845    42.857  0.0768  0.0414  0.9962
 
              Baa    -0.0599   -31.972   -11.408   -10.665  0.9796 -0.1827 -0.0832
    14 H(1)   Bbb    -0.0121    -6.444    -2.299    -2.149  0.0213 -0.3178  0.9479
              Bcc     0.0720    38.415    13.707    12.814  0.1997  0.9304  0.3074
 
              Baa    -0.0599   -31.974   -11.409   -10.665  0.6193  0.7799 -0.0911
    15 H(1)   Bbb    -0.0122    -6.494    -2.317    -2.166 -0.2112  0.2772  0.9373
              Bcc     0.0721    38.469    13.727    12.832  0.7563 -0.5612  0.3364
 
              Baa    -0.0046    -0.620    -0.221    -0.207  0.6133  0.7688  0.1811
    16 C(13)  Bbb    -0.0033    -0.441    -0.157    -0.147  0.0799 -0.2884  0.9542
              Bcc     0.0079     1.061     0.379     0.354  0.7858 -0.5707 -0.2383
 
              Baa    -0.0020    -1.080    -0.386    -0.360  0.5739  0.7826  0.2411
    17 H(1)   Bbb    -0.0018    -0.983    -0.351    -0.328 -0.0545 -0.2573  0.9648
              Bcc     0.0039     2.063     0.736     0.688  0.8171 -0.5668 -0.1050
 
              Baa    -0.0031    -1.643    -0.586    -0.548  0.7259  0.4983  0.4740
    18 H(1)   Bbb    -0.0025    -1.358    -0.485    -0.453 -0.0406 -0.6569  0.7529
              Bcc     0.0056     3.001     1.071     1.001  0.6866 -0.5658 -0.4566
 
              Baa    -0.0059    -3.166    -1.130    -1.056  0.8161  0.5772  0.0277
    19 H(1)   Bbb    -0.0050    -2.673    -0.954    -0.892  0.0722 -0.1494  0.9861
              Bcc     0.0109     5.839     2.084     1.948 -0.5733  0.8028  0.1636
 

 ---------------------------------------------------------------------------------

 No NMR shielding tensors so no spin-rotation constants.
 Leave Link  601 at Sat Nov  7 02:06:18 2015, MaxMem=   805306368 cpu:         0.9
 (Enter /home/hetanjin/apps/g09D01/g09/l701.exe)
 Compute integral first derivatives.
 ... and contract with generalized density number  0.
 Leave Link  701 at Sat Nov  7 02:06:19 2015, MaxMem=   805306368 cpu:         1.1
 (Enter /home/hetanjin/apps/g09D01/g09/l702.exe)
 L702 exits ... SP integral derivatives will be done elsewhere.
 Leave Link  702 at Sat Nov  7 02:06:19 2015, MaxMem=   805306368 cpu:         0.1
 (Enter /home/hetanjin/apps/g09D01/g09/l703.exe)
 Compute integral first derivatives, UseDBF=F ICtDFT=           0.
 Integral derivatives from FoFJK, PRISM(SPDF).
 Calling FoFJK, ICntrl=      2127 FMM=F ISym2X=0 I1Cent= 0 IOpClX= 1 NMat=1 NMatS=1 NMatT=0.
 FoFJK:  IHMeth= 1 ICntrl=    2127 DoSepK=F KAlg= 0 I1Cent=   0 FoldK=F
 IRaf=         0 NMat=   1 IRICut=       1 DoRegI=T DoRafI=F ISym2E= 0.
 FoFCou: FMM=F IPFlag=           0 FMFlag=      100000 FMFlg1=         800
         NFxFlg=           0 DoJE=F BraDBF=F KetDBF=F FulRan=T
         wScrn=  0.000000 ICntrl=    2127 IOpCl=  1 I1Cent=           0 NGrid=           0
         NMat0=    1 NMatS0=      1 NMatT0=    0 NMatD0=    1 NMtDS0=    0 NMtDT0=    0
 Symmetry not used in FoFCou.
 Leave Link  703 at Sat Nov  7 02:06:28 2015, MaxMem=   805306368 cpu:        33.0
 (Enter /home/hetanjin/apps/g09D01/g09/l716.exe)
 Dipole        =-6.62768466D-02-2.89089298D-02 2.28413586D-01
 ***** Axes restored to original set *****
 -------------------------------------------------------------------
 Center     Atomic                   Forces (Hartrees/Bohr)
 Number     Number              X              Y              Z
 -------------------------------------------------------------------
      1        6           0.000041134    0.000047593   -0.000040320
      2        1           0.000043555   -0.000013143    0.000052073
      3        1           0.000009267   -0.000018786    0.000007957
      4        1           0.000053900   -0.000005922    0.000011552
      5        6           0.000063858   -0.000081806    0.000104705
      6        1          -0.000066904   -0.000034618    0.000204243
      7        1          -0.000031105   -0.000018124   -0.000017830
      8        6          -0.002530831    0.001177221   -0.000846466
      9        1           0.000387261   -0.000137866    0.001033577
     10        6           0.004982245    0.000358185   -0.022344294
     11        1          -0.000250478   -0.000447453    0.001110749
     12        1           0.002638717    0.001240620    0.002715569
     13        6          -0.006772120   -0.001803054    0.046509030
     14        1          -0.000827440    0.003852061   -0.014623814
     15        1           0.002055201   -0.003918833   -0.014110849
     16        6           0.000317120   -0.000085345    0.000219911
     17        1           0.000081972   -0.000129970   -0.000001281
     18        1          -0.000129083    0.000111452    0.000145261
     19        1          -0.000066270   -0.000092212   -0.000129773
 -------------------------------------------------------------------
 Cartesian Forces:  Max     0.046509030 RMS     0.007506675
 Leave Link  716 at Sat Nov  7 02:06:28 2015, MaxMem=   805306368 cpu:         0.1
 (Enter /home/hetanjin/apps/g09D01/g09/l103.exe)

 GradGradGradGradGradGradGradGradGradGradGradGradGradGradGradGradGradGrad
 Berny optimization.
 FormGI is forming the generalized inverse of G from B-inverse, IUseBI=4.
 Internal  Forces:  Max     0.013835758 RMS     0.003312268
 Search for a local minimum.
 Step number   1 out of a maximum of  103
 All quantities printed in internal units (Hartrees-Bohrs-Radians)
 RMS Force = .33123D-02 SwitMx=.10000D-02 MixMth= 1
 Mixed Optimization -- RFO/linear search
 Second derivative matrix not updated -- first step.
 ITU=  0
     Eigenvalues ---    0.00230   0.00230   0.00279   0.00326   0.00326
     Eigenvalues ---    0.03219   0.03352   0.03574   0.03666   0.04645
     Eigenvalues ---    0.04711   0.04866   0.05254   0.05346   0.05357
     Eigenvalues ---    0.05439   0.05496   0.08726   0.09661   0.12495
     Eigenvalues ---    0.13073   0.16000   0.16000   0.16000   0.16000
     Eigenvalues ---    0.16000   0.16000   0.16000   0.16000   0.16722
     Eigenvalues ---    0.17090   0.21941   0.21969   0.28249   0.28249
     Eigenvalues ---    0.28802   0.29125   0.29125   0.33394   0.33637
     Eigenvalues ---    0.33637   0.33788   0.33788   0.33845   0.33973
     Eigenvalues ---    0.34116   0.34116   0.34193   0.34193   0.34238
     Eigenvalues ---    0.34238
 RFO step:  Lambda=-1.39431546D-02 EMin= 2.30000000D-03
 Linear search not attempted -- first point.
 Iteration  1 RMS(Cart)=  0.04281897 RMS(Int)=  0.00830313
 Iteration  2 RMS(Cart)=  0.00634834 RMS(Int)=  0.00573541
 Iteration  3 RMS(Cart)=  0.00008162 RMS(Int)=  0.00573507
 Iteration  4 RMS(Cart)=  0.00000178 RMS(Int)=  0.00573507
 Iteration  5 RMS(Cart)=  0.00000005 RMS(Int)=  0.00573507
 ITry= 1 IFail=0 DXMaxC= 2.23D-01 DCOld= 1.00D+10 DXMaxT= 3.00D-01 DXLimC= 3.00D+00 Rises=F
 Variable       Old X    -DE/DX   Delta X   Delta X   Delta X     New X
                                 (Linear)    (Quad)   (Total)
    R1        2.07376  -0.00005   0.00000  -0.00014  -0.00014   2.07362
    R2        2.07005  -0.00002   0.00000  -0.00005  -0.00005   2.07000
    R3        2.07134  -0.00003   0.00000  -0.00010  -0.00010   2.07125
    R4        2.89742  -0.00014   0.00000  -0.00045  -0.00045   2.89698
    R5        2.07947   0.00020   0.00000   0.00058   0.00058   2.08006
    R6        2.07690   0.00002   0.00000   0.00005   0.00005   2.07695
    R7        2.91596   0.00007   0.00000   0.00023   0.00023   2.91620
    R8        2.08366  -0.00103   0.00000  -0.00295  -0.00295   2.08071
    R9        2.91596   0.00160   0.00000   0.00539   0.00539   2.92135
   R10        2.90418  -0.00013   0.00000  -0.00042  -0.00042   2.90376
   R11        2.07690   0.00022   0.00000   0.00062   0.00062   2.07752
   R12        2.07947   0.00288   0.00000   0.00821   0.00821   2.08769
   R13        2.89742  -0.01223   0.00000  -0.04007  -0.04007   2.85735
   R14        2.07005  -0.00044   0.00000  -0.00125  -0.00125   2.06881
   R15        2.07134  -0.00060   0.00000  -0.00168  -0.00168   2.06966
   R16        2.06931  -0.00013   0.00000  -0.00036  -0.00036   2.06895
   R17        2.07593   0.00016   0.00000   0.00044   0.00044   2.07637
   R18        2.06930  -0.00005   0.00000  -0.00015  -0.00015   2.06916
    A1        1.87842   0.00003   0.00000   0.00022   0.00022   1.87863
    A2        1.87726   0.00005   0.00000   0.00022   0.00022   1.87748
    A3        1.93932  -0.00005   0.00000  -0.00032  -0.00032   1.93900
    A4        1.87288   0.00003   0.00000   0.00016   0.00016   1.87304
    A5        1.95782   0.00001   0.00000   0.00006   0.00006   1.95788
    A6        1.93461  -0.00005   0.00000  -0.00031  -0.00031   1.93430
    A7        1.90987   0.00001   0.00000  -0.00006  -0.00006   1.90981
    A8        1.89569   0.00003   0.00000  -0.00016  -0.00016   1.89554
    A9        2.00987  -0.00015   0.00000  -0.00068  -0.00068   2.00919
   A10        1.84904  -0.00003   0.00000  -0.00004  -0.00004   1.84900
   A11        1.90093   0.00011   0.00000   0.00083   0.00083   1.90175
   A12        1.89164   0.00005   0.00000   0.00015   0.00015   1.89179
   A13        1.87539   0.00012   0.00000   0.00226   0.00226   1.87764
   A14        1.92053  -0.00005   0.00000  -0.00079  -0.00079   1.91975
   A15        1.95271   0.00006   0.00000   0.00056   0.00056   1.95327
   A16        1.87539  -0.00013   0.00000  -0.00226  -0.00225   1.87313
   A17        1.88339   0.00007   0.00000   0.00139   0.00138   1.88477
   A18        1.95271  -0.00007   0.00000  -0.00109  -0.00109   1.95162
   A19        1.89165  -0.00065   0.00000   0.00774   0.00749   1.89914
   A20        1.90093   0.00048   0.00000  -0.00037  -0.00033   1.90059
   A21        2.00987   0.00301   0.00000   0.01350   0.01336   2.02323
   A22        1.84904   0.00030   0.00000  -0.00132  -0.00127   1.84777
   A23        1.89569   0.00014   0.00000   0.01116   0.01093   1.90662
   A24        1.90987  -0.00345   0.00000  -0.03138  -0.03132   1.87855
   A25        1.95782   0.01384   0.00000   0.14617   0.11812   2.07594
   A26        1.93461   0.01317   0.00000   0.14386   0.11560   2.05021
   A27        1.87288  -0.00069   0.00000   0.12189   0.08666   1.95954
   A28        1.95027  -0.00016   0.00000  -0.00128  -0.00128   1.94899
   A29        1.93183   0.00021   0.00000   0.00158   0.00158   1.93341
   A30        1.95027  -0.00015   0.00000  -0.00084  -0.00084   1.94943
   A31        1.87919  -0.00004   0.00000  -0.00033  -0.00033   1.87886
   A32        1.86960   0.00008   0.00000  -0.00021  -0.00021   1.86939
   A33        1.87920   0.00007   0.00000   0.00113   0.00113   1.88032
    D1        3.12776   0.00002   0.00000   0.00015   0.00015   3.12792
    D2       -1.14441   0.00000   0.00000  -0.00001  -0.00001  -1.14442
    D3        0.98010  -0.00002   0.00000  -0.00040  -0.00040   0.97970
    D4        1.02422   0.00001   0.00000   0.00006   0.00006   1.02428
    D5        3.03522   0.00000   0.00000  -0.00010  -0.00010   3.03512
    D6       -1.12345  -0.00002   0.00000  -0.00049  -0.00049  -1.12394
    D7       -1.06899   0.00001   0.00000   0.00002   0.00002  -1.06896
    D8        0.94202  -0.00001   0.00000  -0.00014  -0.00014   0.94188
    D9        3.06653  -0.00003   0.00000  -0.00053  -0.00053   3.06600
   D10       -0.95817  -0.00011   0.00000  -0.00204  -0.00204  -0.96021
   D11       -2.99494   0.00001   0.00000  -0.00021  -0.00021  -2.99515
   D12        1.10606   0.00009   0.00000   0.00139   0.00139   1.10745
   D13       -3.11059  -0.00009   0.00000  -0.00212  -0.00212  -3.11272
   D14        1.13582   0.00002   0.00000  -0.00029  -0.00029   1.13553
   D15       -1.04636   0.00011   0.00000   0.00131   0.00131  -1.04505
   D16        1.16853  -0.00014   0.00000  -0.00259  -0.00259   1.16593
   D17       -0.86824  -0.00002   0.00000  -0.00076  -0.00076  -0.86901
   D18       -3.05042   0.00006   0.00000   0.00084   0.00084  -3.04959
   D19        0.86823  -0.00045   0.00000  -0.00711  -0.00715   0.86108
   D20       -1.13583  -0.00071   0.00000  -0.00947  -0.00947  -1.14531
   D21        2.99493   0.00129   0.00000   0.02248   0.02253   3.01746
   D22       -1.16854  -0.00050   0.00000  -0.00810  -0.00814  -1.17668
   D23        3.11058  -0.00076   0.00000  -0.01046  -0.01046   3.10012
   D24        0.95816   0.00124   0.00000   0.02149   0.02154   0.97969
   D25        3.05041  -0.00046   0.00000  -0.00776  -0.00780   3.04261
   D26        1.04635  -0.00072   0.00000  -0.01012  -0.01012   1.03622
   D27       -1.10608   0.00128   0.00000   0.02183   0.02188  -1.08420
   D28       -1.01213  -0.00014   0.00000  -0.00259  -0.00259  -1.01473
   D29        1.08212  -0.00016   0.00000  -0.00280  -0.00280   1.07933
   D30       -3.10680  -0.00002   0.00000  -0.00086  -0.00086  -3.10766
   D31        1.04733   0.00009   0.00000   0.00137   0.00137   1.04870
   D32        3.14159   0.00008   0.00000   0.00116   0.00116  -3.14043
   D33       -1.04734   0.00021   0.00000   0.00310   0.00310  -1.04424
   D34        3.10679  -0.00007   0.00000  -0.00116  -0.00116   3.10564
   D35       -1.08213  -0.00008   0.00000  -0.00136  -0.00136  -1.08349
   D36        1.01213   0.00005   0.00000   0.00058   0.00058   1.01270
   D37        1.12344  -0.00921   0.00000  -0.19297  -0.19925   0.92419
   D38       -3.06654   0.00832   0.00000   0.15991   0.16607  -2.90047
   D39       -3.03523  -0.00789   0.00000  -0.16515  -0.17129   3.07666
   D40       -0.94203   0.00965   0.00000   0.18773   0.19402  -0.74800
   D41       -1.02422  -0.00931   0.00000  -0.17750  -0.18372  -1.20795
   D42        1.06898   0.00822   0.00000   0.17539   0.18159   1.25057
         Item               Value     Threshold  Converged?
 Maximum Force            0.013836     0.000015     NO 
 RMS     Force            0.003312     0.000010     NO 
 Maximum Displacement     0.222503     0.000060     NO 
 RMS     Displacement     0.040232     0.000040     NO 
 Predicted change in Energy=-1.004956D-02
 Lowest energy point so far.  Saving SCF results.
 GradGradGradGradGradGradGradGradGradGradGradGradGradGradGradGradGradGrad

 Leave Link  103 at Sat Nov  7 02:06:28 2015, MaxMem=   805306368 cpu:         0.1
 (Enter /home/hetanjin/apps/g09D01/g09/l202.exe)
                          Input orientation:                          
 ---------------------------------------------------------------------
 Center     Atomic      Atomic             Coordinates (Angstroms)
 Number     Number       Type             X           Y           Z
 ---------------------------------------------------------------------
      1          6           0       -2.584939   -0.172124   -0.306190
      2          1           0       -2.556064   -0.208091   -1.402530
      3          1           0       -2.801213    0.861078   -0.013585
      4          1           0       -3.429695   -0.788068    0.022962
      5          6           0       -1.271072   -0.681581    0.297413
      6          1           0       -1.324578   -0.620499    1.395132
      7          1           0       -1.166565   -1.749442    0.059262
      8          6           0       -0.001289    0.051243   -0.184294
      9          1           0        0.013940    0.002231   -1.284161
     10          6           0        1.259096   -0.683707    0.326708
     11          1           0        1.162737   -1.754461    0.096875
     12          1           0        1.292324   -0.613070    1.428703
     13          6           0        2.580827   -0.176949   -0.204808
     14          1           0        2.813841    0.889052   -0.116175
     15          1           0        3.462370   -0.808659   -0.052067
     16          6           0       -0.003958    1.532401    0.224753
     17          1           0       -0.879399    2.058950   -0.168976
     18          1           0       -0.017806    1.634617    1.318668
     19          1           0        0.881981    2.056853   -0.148047
 ---------------------------------------------------------------------
                    Distance matrix (angstroms):
                    1          2          3          4          5
     1  C    0.000000
     2  H    1.097310   0.000000
     3  H    1.095399   1.769856   0.000000
     4  H    1.096057   1.769642   1.765222   0.000000
     5  C    1.533013   2.182935   2.194959   2.178604   0.000000
     6  H    2.164266   3.084404   2.521905   2.518422   1.100718
     7  H    2.152503   2.538366   3.080940   2.459129   1.099074
     8  C    2.596151   2.842223   2.919683   3.535727   1.543186
     9  H    2.782265   2.581312   3.205786   3.767196   2.149472
    10  C    3.929235   4.215676   4.357553   4.699779   2.530339
    11  H    4.087949   4.297552   4.750383   4.693592   2.667342
    12  H    4.270534   4.794787   4.583705   4.929929   2.802769
    13  C    5.166763   5.274766   5.484561   6.045802   3.917142
    14  H    5.505364   5.629770   5.616060   6.466362   4.395959
    15  H    6.086025   6.197256   6.482435   6.892504   4.748027
    16  C    3.138275   3.491506   2.886540   4.142580   2.551975
    17  H    2.811652   3.077717   2.269893   3.827057   2.807390
    18  H    3.534777   4.152499   3.181291   4.380553   2.824608
    19  H    4.124668   4.303935   3.874774   5.168498   3.511850
                    6          7          8          9         10
     6  H    0.000000
     7  H    1.756140   0.000000
[...]
 7,-0.20667724,-0.11674889,0.05520096,-0.00093645,-0.00021085,0.0007758
 0,0.00551741,0.00322282,-0.00244431,0.22596560,-0.11736902,-0.13459833
 ,0.03997617,0.00156830,-0.00007404,-0.00022814,-0.02443798,-0.01719696
 ,0.00954470,0.12668102,0.14345252,0.05547691,0.03999108,-0.06854661,0.
 02629423,0.02004760,-0.00780852,-0.00958935,-0.00628127,0.00264431,-0.
 05911729,-0.04524827,0.06969421,-0.15747164,0.03401754,-0.03829123,0.0
 0123647,-0.00098558,0.00005745,-0.00405021,0.00239184,-0.00174489,-0.0
 2203652,0.01220817,-0.01178410,0.45759426,0.03653775,-0.09899983,0.017
 40773,-0.00066286,-0.00030210,0.00007966,0.02773798,-0.01081781,0.0147
 6461,-0.01661049,0.00785152,-0.00918719,-0.01824706,0.55407367,-0.0375
 4141,0.01740150,-0.09986504,-0.03042911,0.01337679,-0.01347738,0.01004
 211,-0.00308339,0.00452799,0.00863061,-0.00453937,0.00350192,-0.004066
 87,0.03069365,0.56702362,0.00088068,-0.00059570,-0.03064905,-0.0050488
 2,0.00257444,-0.00251997,0.00130703,-0.00013651,0.00085776,0.00099173,
 -0.00069947,0.00047879,-0.04965039,0.00038247,0.01753864,0.05817651,-0
 .00020895,-0.00008458,0.01385845,0.00243637,-0.00010652,0.00157053,-0.
 00084429,0.00046784,0.00017742,-0.00025825,0.00022077,-0.00056917,0.00
 044774,-0.05160498,-0.00743508,-0.00010258,0.05158857,0.00024840,-0.00
 025842,-0.01300178,-0.00256032,0.00106231,0.00054519,0.00013386,0.0004
 4683,0.00072640,-0.00039926,-0.00031521,0.00040453,0.01695598,-0.00708
 503,-0.29600882,-0.01845503,0.00595578,0.32450764,-0.00529831,0.029233
 45,0.00796263,0.00109972,-0.00072672,-0.00005040,-0.00486738,0.0021615
 0,-0.00318872,0.00099930,-0.00034796,0.00074325,-0.04896876,0.02127540
 ,0.00674817,-0.00062918,0.00227730,0.00066661,0.06099573,0.00215200,-0
 .01174217,-0.00316169,-0.00029324,0.00020653,0.00042784,0.00207658,0.0
 0067011,0.00142846,0.00029362,0.00089904,-0.00010735,0.02067794,-0.279
 59349,-0.06510889,-0.00005336,-0.00027350,-0.00096752,-0.02344641,0.30
 580670,-0.00223189,0.01443532,0.00384637,0.00081523,0.00014048,0.00061
 759,-0.00266838,0.00154757,-0.00025152,0.00069027,-0.00047769,0.000375
 11,0.00618118,-0.06512926,-0.07048460,0.00293979,-0.03260660,-0.008828
 38,-0.00583616,0.07061453,0.07104389,-0.02754057,-0.01202740,0.0061289
 2,0.00207196,-0.00059820,0.00123213,0.00119709,-0.00059026,0.00041097,
 -0.00277972,0.00199559,-0.00144535,-0.13994955,-0.03909684,0.02424377,
 -0.00372878,-0.00208154,0.00172859,0.00042058,0.00069511,0.00012938,0.
 45742748,0.00817630,0.00917099,-0.00580642,-0.00000304,0.00030735,0.00
 013274,0.00085255,-0.00046502,-0.00054967,0.00418299,-0.00117313,0.001
 47539,-0.03529726,-0.10277019,0.01511666,0.00038634,-0.00053045,-0.000
 06533,-0.02696702,-0.01778990,0.01092550,0.00624552,0.47430745,-0.0102
 5223,-0.00870977,0.00449367,-0.00165943,-0.00053693,0.00026317,0.00063
 442,0.00027141,0.00000462,-0.00385999,0.00135379,-0.00130033,0.0246417
 5,0.01429414,-0.09065960,0.02901428,0.01746241,-0.01190922,-0.00876464
 ,-0.00564258,0.00228601,-0.00777811,0.00357299,0.58328878,0.00173821,0
 .00030145,0.00144599,-0.00027260,0.00009795,-0.00094819,-0.00012413,0.
 00002179,-0.00002416,0.00036035,-0.00009587,-0.00032031,-0.00403889,-0
 .00053810,0.02926695,-0.00460396,-0.00293098,0.00198976,0.00089331,0.0
 0022178,-0.00072149,-0.04877348,-0.00020083,0.01019349,0.05784973,0.00
 092355,0.00019023,-0.00030516,-0.00008471,0.00021916,-0.00033753,-0.00
 007358,0.00005805,-0.00007067,0.00018161,-0.00013065,-0.00001146,-0.00
 223733,-0.00040604,0.01700202,-0.00292116,-0.00106935,0.00119829,0.000
 71684,0.00044118,0.00001625,-0.00009743,-0.04896698,-0.00368329,-0.000
 13275,0.05754727,-0.00088288,-0.00020129,0.00051855,0.00092430,-0.0002
 3986,0.00068277,-0.00001397,0.00000834,0.00008015,-0.00000445,0.000053
 66,0.00045034,0.00134806,0.00034892,-0.01152647,0.00152726,0.00149092,
 0.00068852,0.00006853,0.00054416,0.00046409,0.01011595,-0.00419873,-0.
 28996636,-0.01083751,0.00368360,0.31827171,-0.00259212,-0.00294035,0.0
 0225901,0.00000954,-0.00009223,-0.00011122,-0.00012705,0.00018794,0.00
 009068,-0.00107768,0.00064844,-0.00057416,-0.03191032,0.01144831,-0.01
 062634,0.00162336,0.00065415,-0.00073863,0.00071225,0.00174986,-0.0003
 7008,-0.12452475,0.03166821,-0.02133187,-0.00223598,0.00114102,-0.0011
 4117,0.45350511,-0.00299742,-0.00230559,0.00122424,0.00020520,-0.00003
 779,-0.00004895,-0.00005547,0.00005645,0.00010312,-0.00134270,0.000428
 45,-0.00027363,-0.00898335,0.00736517,-0.00562350,-0.00016150,0.000024
 27,-0.00002804,-0.00212909,0.00033283,-0.00030914,0.03813343,-0.093874
 72,0.01644630,0.00052254,-0.00052154,0.00033374,0.02447600,0.47879333,
 0.00165675,0.00143326,-0.00143666,0.00003273,0.00000439,0.00048795,-0.
 00011102,-0.00011597,0.00005165,0.00078943,-0.00015580,0.00067841,0.00
 789903,-0.00615968,0.00452012,0.00119021,-0.00012391,0.00002858,-0.000
 38239,-0.00019100,0.00007187,-0.02490812,0.01777060,-0.09493629,-0.028
 42275,0.01753876,-0.01345859,-0.01166494,0.01131785,0.56211691,0.00028
 024,-0.00002923,-0.00011987,0.00002504,0.00000997,0.00003741,0.0001434
 5,-0.00005721,0.00003145,0.00006035,-0.00005456,0.00003546,0.00054436,
 0.00215101,0.00053325,-0.00004898,-0.00012016,0.00006158,-0.00062178,-
 0.00058827,-0.00026181,-0.00031740,0.02609991,0.00643597,0.00086364,-0
 .00076623,0.00002463,-0.04132796,-0.02851936,-0.00817565,0.05670244,0.
 00016281,0.00051572,0.00035983,-0.00000344,-0.00005631,-0.00001510,-0.
 00034360,0.00019346,-0.00004505,0.00004554,0.00002531,0.00001635,-0.00
 216755,0.00011133,-0.00055169,0.00005187,0.00002637,0.00007640,0.00072
 568,0.00129372,0.00004080,0.00028566,-0.01935911,-0.00573993,-0.000381
 18,0.00053910,0.00048662,-0.01407048,-0.25692220,-0.05919301,0.0249878
 3,0.28788145,0.00018762,0.00018830,-0.00011092,-0.00004512,0.00003025,
 -0.00004792,-0.00001832,0.00001155,-0.00003108,0.00006429,-0.00004146,
 0.00000921,0.00035393,-0.00001458,0.00021004,0.00000610,-0.00017720,-0
 .00005537,0.00016225,-0.00009698,0.00026927,-0.00121558,0.01234974,0.0
 0261649,0.00073144,-0.00003079,0.00047502,-0.00353151,-0.05222754,-0.0
 6129018,0.00606326,0.06090172,0.06309616,-0.00017190,0.00003382,0.0001
 1581,0.00010043,-0.00005695,0.00025143,0.00001735,0.00000550,0.0000116
 4,-0.00005310,0.00000079,0.00007854,0.00164810,0.00013954,-0.00120313,
 -0.00040943,0.00002987,0.00069450,-0.00008552,-0.00003487,-0.00000507,
 -0.00118525,-0.00140635,-0.02729891,-0.00434693,0.00279803,-0.00179542
 ,-0.05037086,0.00193607,-0.00291797,0.00043911,0.00016882,-0.00341844,
 0.05656781,-0.00004600,-0.00005813,0.00005952,-0.00004667,-0.00002498,
 -0.00005772,0.00002731,-0.00002298,0.00000431,0.00000098,-0.00000596,-
 0.00007193,-0.00073471,-0.00002439,-0.00019914,-0.00002916,0.00035209,
 -0.00020249,0.00009718,0.00003132,-0.00016409,0.00032282,-0.00016912,0
 .01714731,0.00285708,-0.00117850,0.00169431,0.00196879,-0.04739978,-0.
 01135253,-0.00063529,-0.00222248,-0.03282744,0.00046415,0.05095064,-0.
 00023144,0.00000149,0.00048032,0.00026456,-0.00005847,0.00010387,-0.00
 001710,0.00002207,-0.00000783,-0.00011687,0.00002332,-0.00001212,0.000
 78971,0.00002643,-0.00007137,-0.00073055,-0.00022306,0.00069347,-0.000
 05235,0.00008026,0.00000483,-0.00098509,-0.00016627,-0.01289100,-0.002
 21526,0.00131827,0.00044832,-0.00259304,-0.01062240,-0.29662092,-0.000
 46702,-0.00175005,-0.00943301,0.00274052,0.00987228,0.32549688,-0.0004
 9487,-0.00079731,0.00073881,0.00004621,-0.00001490,-0.00004143,-0.0000
 5294,-0.00000335,-0.00000034,-0.00036625,0.00011188,-0.00016200,-0.003
 06251,0.00298779,-0.00167231,-0.00009593,0.00003814,0.00021188,0.00028
 944,-0.00000796,-0.00013530,-0.03201518,-0.00802447,0.00542859,0.00169
 811,-0.00089889,0.00132040,-0.19098895,-0.05004235,0.04498988,-0.01096
 620,-0.01193856,0.00247273,-0.00015555,-0.00158601,0.00088434,0.553803
 16,0.00073457,0.00083881,-0.00025107,-0.00002824,-0.00001838,0.0000426
 2,-0.00018381,0.00005546,-0.00003257,0.00033119,-0.00006545,0.00013378
 ,0.00133334,-0.00170597,0.00125238,-0.00012612,-0.00014305,0.00002657,
 0.00031209,0.00051066,0.00018283,0.00692942,0.00626794,-0.00707639,0.0
 0027798,0.00019778,0.00028324,-0.05160630,-0.06694818,0.03181703,-0.02
 693145,-0.00973796,0.01154035,-0.00166471,-0.00145460,0.00145032,0.077
 64571,0.12093555,-0.00094338,-0.00055790,0.00092390,0.00012851,-0.0000
 5543,-0.00002175,-0.00005449,0.00010530,0.00000648,-0.00043013,0.00014
 600,-0.00017356,-0.00262257,0.00227880,-0.00174146,-0.00013881,0.00000
 010,0.00052862,0.00013075,0.00035163,-0.00014660,-0.00851268,-0.008186
 42,0.00652142,-0.00134618,-0.00047831,0.00059859,0.04108275,0.03041837
 ,-0.10623743,-0.00286522,0.00246429,0.00407078,0.03077804,0.01469940,-
 0.01141414,0.06402634,-0.14575928,0.56607099,0.00002449,0.00002931,-0.
 00006147,-0.00005475,0.00001151,-0.00004098,-0.00002555,0.00001942,-0.
 00000763,0.00000605,0.00000016,0.,-0.00009396,-0.00008652,-0.00019187,
 0.00012985,0.00005147,-0.00024908,0.00006061,0.00005267,0.00004648,0.0
 0233793,-0.00028338,0.00181586,-0.00022250,0.00003870,-0.00095687,0.00
 216463,-0.00413173,0.02423155,-0.00005083,-0.00057825,0.00005338,-0.00
 432700,-0.00240703,0.00217121,-0.05742435,-0.01378299,0.01736638,0.052
 26694,0.00001845,0.00000773,-0.00001910,-0.00001928,0.00001331,-0.0000
 1471,0.00001369,-0.00001140,-0.00001019,-0.00001488,-0.00001383,0.0000
 0641,0.00002243,-0.00009191,-0.00006055,0.00008936,0.00000898,-0.00006
 032,-0.00003573,-0.00006084,0.00002183,-0.00009906,0.00031101,-0.00063
 652,-0.00032935,0.00021750,-0.00035101,0.00151043,0.00023731,0.0120701
 7,0.00048576,0.00012486,-0.00104465,-0.00178306,0.00019693,-0.00055545
 ,-0.01400632,-0.03384443,0.08004040,0.01454986,0.03067796,0.00005041,0
 .00006360,-0.00003295,0.00001957,0.00000014,0.00001697,0.00002323,-0.0
 0002373,-0.00000258,0.00003861,-0.00001855,0.00000879,0.00007330,-0.00
 019316,0.00037886,-0.00019889,-0.00003798,0.00002055,-0.00005258,-0.00
 005557,-0.00002360,-0.00112493,0.00056900,0.00036693,0.00078110,-0.000
 28144,0.00047817,-0.00142710,0.00002686,-0.00628671,0.00021781,0.00022
 024,-0.00029412,0.00173861,0.00146828,0.00032600,0.01673576,0.08564610
 ,-0.31979346,-0.02079809,-0.09033363,0.33469903,-0.00029861,-0.0003712
 0,0.00033826,0.00002136,0.00000531,-0.00003502,-0.00002915,0.00005914,
 -0.00000341,-0.00022384,0.00006435,-0.00007697,-0.00082023,0.00128913,
 -0.00080662,-0.00003381,-0.00000813,0.00010452,0.00010759,0.00005025,-
 0.00004181,-0.00244468,-0.00373906,0.00246459,0.00023213,-0.00007196,-
 0.00010795,-0.01283067,0.00496641,-0.01389446,-0.00098717,-0.00035274,
 -0.00001114,0.00119811,0.00046043,0.00019701,-0.26020023,0.00362420,-0
 .13661223,0.00529034,-0.00052570,0.00377669,0.27109168,-0.00012921,-0.
 00016569,0.00015148,0.00001062,0.00000222,-0.00001349,0.00001378,0.000
 00999,-0.00000272,-0.00006366,0.00003511,-0.00003118,-0.00032885,0.000
 46995,-0.00042920,0.00003195,0.00001282,0.00002883,-0.00003454,-0.0000
 1658,-0.00001593,0.00069918,-0.00176283,0.00167202,-0.00005055,-0.0000
 6961,-0.00019917,-0.00973494,0.00553838,-0.00762136,0.00070137,-0.0012
 5285,0.00040983,0.00063977,0.00000301,0.00049123,0.00733418,-0.0145009
 6,0.02413012,0.00621396,0.00240670,0.00329662,-0.00543164,0.00914492,0
 .00016674,0.00010297,-0.00013432,0.00000089,0.00000939,0.00001211,0.00
 002202,-0.00001830,0.00000216,0.00009304,-0.00002374,0.00002720,0.0006
 4683,-0.00030873,0.00059700,-0.00009995,-0.00005023,-0.00000371,-0.000
 05702,-0.00005770,-0.00000141,0.00193651,0.00137683,-0.00079443,0.0002
 5423,-0.00000632,0.00043018,0.01099606,-0.00071128,0.00813148,0.000655
 79,0.00036939,0.00009851,-0.00053472,-0.00073461,0.00127692,-0.1356012
 2,0.02093749,-0.13938501,-0.02322818,0.00114493,-0.00990843,0.14476616
 ,-0.02185771,0.13964513,0.00050935,-0.00087195,0.00015208,-0.00006981,
 -0.00007074,-0.00033053,-0.00074645,-0.00038192,0.00009751,0.00012236,
 0.00015906,-0.00007943,0.00016959,-0.02919078,-0.00896740,0.00098378,0
 .00064804,-0.00062218,-0.00520477,-0.00382649,0.00136590,-0.08102649,-
 0.00109159,0.00022118,-0.00002459,0.00164996,0.00048716,-0.00121832,0.
 02768592,0.00802740,-0.00468799,0.00381955,-0.00147858,0.00102924,-0.0
 0068842,0.00065911,0.00038687,0.00210293,-0.00027842,-0.00020773,0.000
 03629,0.00041140,-0.00012029,0.00009088,0.00001446,0.58543078,-0.00069
 175,0.00107026,0.00032942,-0.00009939,-0.00001649,-0.00009457,0.000130
 98,-0.00070552,-0.00048828,0.00062908,-0.00047251,0.00010370,-0.006372
 08,-0.02024969,-0.00397008,0.00149643,0.00109873,-0.00076856,-0.001474
 27,0.00006593,0.00017274,0.00008225,-0.17221227,-0.03085647,0.00021133
 ,-0.00329239,-0.00104021,0.00642501,-0.02204618,-0.00322317,0.00178954
 ,-0.00041773,0.00047446,-0.00148397,0.00110374,-0.00087060,-0.00021733
 ,-0.00086852,-0.00062490,0.00008656,0.00019664,0.00015122,-0.00037838,
 0.00008080,0.00004110,-0.00402167,0.48214744,0.00043040,-0.00021763,-0
 .00043463,0.00009805,-0.00001730,0.00009343,-0.00034894,0.00022111,0.0
 0052904,0.00007314,0.00032079,0.00019864,-0.00106135,0.00827923,0.0031
 5334,0.00023777,0.00158682,0.00059985,0.00212653,0.00225658,-0.0001688
 0,-0.00015805,-0.03280920,-0.09213226,0.00010234,-0.03434525,-0.010495
 80,0.00018811,0.01064665,0.00387796,-0.00250303,0.00274058,-0.00036856
 ,-0.00011215,0.00139968,0.00069462,0.00067230,0.00048024,0.00012162,-0
 .00011849,-0.00011406,0.00006558,-0.00011909,-0.00015673,0.00008340,0.
 00064958,-0.03517119,0.55928155,-0.00099058,-0.00054539,0.00006415,0.0
 0003193,0.00009534,0.00002379,-0.00101945,-0.00139799,-0.00018443,0.00
 012550,-0.00020958,0.00001611,-0.00017004,0.00020587,0.00038502,-0.000
 00642,-0.00006350,0.00001798,0.00012998,0.00015192,-0.00008340,0.00107
 223,-0.00087277,0.00121899,0.00018317,0.00033494,0.00038654,0.00075275
 ,0.00016579,0.00063367,-0.00011656,-0.00014064,-0.00018423,-0.00001074
 ,-0.00016784,-0.00002890,0.00007037,0.00059449,0.00002877,0.00002539,-
 0.00010225,-0.00006923,0.00000663,-0.00005247,0.00000495,-0.19978370,0
 .10245158,-0.08181195,0.21705056,0.00005482,-0.00056066,-0.00029523,-0
 .00009212,-0.00003798,-0.00009944,-0.00129600,0.00023223,0.00026306,-0
 .00012210,0.00054215,-0.00000969,0.00104125,0.00078153,0.00053561,-0.0
 0012415,-0.00009731,-0.00002785,-0.00000804,0.00019491,-0.00017749,0.0
 2487898,-0.01446281,0.01451411,-0.00016530,0.00145031,-0.00029705,-0.0
 0160110,-0.00552762,-0.00305886,0.00176282,-0.00135012,0.00044101,-0.0
 0029410,0.00014914,0.00001395,-0.00082055,0.00007810,0.00038201,0.0001
 2366,-0.00004019,-0.00014103,0.00015784,0.00004030,-0.00004826,0.10151
 743,-0.11788352,0.05502400,-0.11217660,0.12765220,-0.00059168,0.000372
 27,0.00049749,-0.00000792,-0.00013054,-0.00019437,0.00026064,-0.000445
 85,0.00005999,0.00006489,-0.00024666,-0.00015649,-0.00040180,0.0006414
 8,-0.00000808,-0.00007157,0.00002402,0.00003285,0.00019997,0.00004296,
 -0.00003864,0.00984047,-0.00549529,0.00401355,0.00041534,0.00064040,0.
 00065771,-0.00034313,-0.00205073,-0.00037060,0.00040275,-0.00041108,0.
 00057058,0.00016446,-0.00028537,0.00043012,-0.00011884,-0.00008821,0.0
 0004997,-0.00001661,0.00002261,0.00002947,0.00004812,-0.00000195,-0.00
 001885,-0.08155035,0.05575955,-0.09426036,0.09055962,-0.05935165,0.097
 45453,-0.00008824,-0.00001185,0.00003260,0.00006179,0.00009753,0.00014
 164,-0.00004409,0.00008461,-0.00012352,-0.00001531,-0.00002669,0.00004
 963,0.00042162,-0.00001114,-0.00131791,0.00017154,-0.00007256,0.000179
 84,-0.00004850,0.00008489,0.00011672,-0.00102909,-0.00017774,-0.000561
 46,0.00072154,-0.00018882,-0.00010413,0.00023184,-0.00010211,0.0012277
 0,0.00000602,-0.00000971,-0.00020048,0.00009279,0.00022116,-0.00026645
 ,-0.00016846,-0.00017181,-0.00001026,0.00010757,-0.00001317,-0.0001560
 0,-0.00004740,0.00007616,-0.00003222,-0.05201900,0.00147023,0.02163896
 ,0.00318665,-0.00212301,-0.02608291,0.04965849,-0.00011603,-0.00000028
 ,0.00008294,0.00016539,-0.00005821,0.00009500,-0.00006917,0.00001376,0
 .00000912,-0.00005976,0.00005433,0.00000364,0.00090935,0.00185156,-0.0
 0119067,-0.00035774,-0.00008906,0.00095988,0.00029077,0.00031584,0.000
 38796,0.00277083,-0.00243308,-0.03397152,0.00002358,-0.00645377,-0.002
 12999,-0.00095535,0.00150111,-0.00122242,-0.00023378,0.00029826,0.0003
 4527,0.00030582,-0.00006659,0.00089318,0.00011891,0.00008560,0.0001853
 2,-0.00012805,-0.00004957,0.00002839,0.00005056,0.00000739,-0.00000204
 ,0.00141342,-0.04931099,-0.01102636,-0.00308681,0.00059084,0.01692489,
 -0.00121453,0.05346331,-0.00021538,-0.00020893,0.00009436,0.00013572,0
 .00010533,0.00014583,-0.00007684,0.00004181,-0.00022860,-0.00007002,-0
 .00004087,0.00001438,0.00056995,0.00089308,0.00040022,-0.00070574,-0.0
 0061240,0.00059810,-0.00006021,-0.00002095,0.00042665,0.00063339,-0.00
 125818,-0.01165741,0.00004983,-0.00246077,0.00084006,-0.00046387,0.000
 67889,0.00046402,0.00002883,-0.00004372,0.00034809,0.00061195,-0.00053
 217,0.00056590,0.00016474,-0.00007881,-0.00001292,-0.00013205,0.000001
 99,0.00009703,0.00008572,-0.00003977,0.00002873,0.02147018,-0.01108687
 ,-0.30247296,0.00165427,-0.00030527,-0.01243894,-0.02394216,0.01491835
 ,0.33059039,-0.00001742,0.00017204,0.00028205,0.00001286,-0.00004287,-
 0.00006022,0.00033041,-0.00023756,-0.00009884,0.00001747,-0.00019664,-
 0.00002395,0.00060863,0.00028853,-0.00056555,-0.00000878,0.00010786,0.
 00003100,0.00001567,0.00004398,0.00007043,0.00078768,0.00045169,-0.000
 56249,0.00010288,-0.00031179,-0.00035848,0.00020519,0.00037374,-0.0002
 0103,0.00006021,-0.00026159,0.00000840,0.00002335,-0.00007878,-0.00000
 239,-0.00030274,0.00060952,0.00027282,-0.00000715,0.00020252,-0.000039
 66,0.00008825,0.00001399,-0.00000439,-0.24352282,-0.10003415,0.0600158
 7,-0.02053768,-0.01071374,0.00722854,-0.00119977,0.00017260,0.00026171
 ,0.26334378,0.00077201,-0.00025324,0.00006696,-0.00006240,0.00003076,-
 0.00005931,-0.00022224,0.00037633,0.00009625,-0.00013727,0.00022168,0.
 00001318,0.00230417,-0.00593835,-0.00318706,0.00029459,0.00019834,0.00
 002389,-0.00192043,-0.00129232,0.00039439,-0.02844806,-0.01439515,0.01
 011892,0.00028945,0.00122823,-0.00027019,-0.00087740,0.00130630,0.0004
 6563,-0.00005267,0.00030915,-0.00023183,0.00020180,-0.00015939,0.00005
 349,0.00012141,0.00031757,0.00046051,0.00022068,-0.00028676,-0.0003853
 7,0.00015117,0.00001691,-0.00016319,-0.09897993,-0.09828773,0.03090203
 ,0.01481591,0.00824847,-0.00592084,0.00208856,0.00027954,0.00004926,0.
 10944066,0.10807964,0.00000355,-0.00003892,0.00020596,0.00003406,0.000
 03607,0.00001045,0.00006679,-0.00002919,-0.00017536,0.00002125,-0.0000
 8268,-0.00000943,0.00045562,-0.00163009,-0.00047028,-0.00022103,-0.000
 29081,0.00043299,-0.00036422,-0.00033619,0.00053788,-0.01027217,-0.004
 75394,0.00239227,-0.00039460,0.00061340,0.00036302,0.00030045,0.000699
 20,0.00020844,-0.00013562,0.00007340,-0.00013299,0.00010032,0.00008239
 ,-0.00007086,0.00008568,-0.00050663,0.00003397,0.00011646,-0.00010815,
 -0.00014553,-0.00007238,0.00018908,-0.00008665,0.05975093,0.03116270,-
 0.06836565,-0.01263171,-0.00736195,0.00369004,0.02941041,0.01470905,-0
 .00780291,-0.06625380,-0.03242672,0.06938464\\0.00000068,-0.00000060,0
 .00000014,0.00000012,0.00000022,0.00000020,-0.00000025,-0.00000041,0.0
 0000076,0.00000012,-0.00000084,-0.00000030,0.00000062,-0.00000053,-0.0
 0000041,-0.00000004,-0.00000124,-0.00000056,0.00000037,-0.00000047,-0.
 00000093,-0.00000230,0.00000092,-0.00000067,0.00000034,0.00000086,0.00
 000004,0.00000082,-0.00000186,0.00000018,0.00000053,0.00000123,-0.0000
 0170,0.00000036,0.00000030,-0.00000043,-0.00000004,0.00000054,-0.00000
 013,-0.00000019,0.00000179,-0.00000033,0.00000030,0.00000083,-0.000000
 23,0.00000046,-0.00000024,0.00000153,-0.00000097,0.00000011,0.00000119
 ,-0.00000039,-0.00000093,0.00000055,-0.00000054,0.00000033,0.00000108\
 \\@


 MODELS ARE TO BE USED, NOT BELIEVED.

    -- PARAPHRASED BY H. THIEL IN "PRINCIPLES OF ECONOMETRICS"
 Job cpu time:       0 days  0 hours 28 minutes 22.2 seconds.
 File lengths (MBytes):  RWF=     64 Int=      0 D2E=      0 Chk=      3 Scr=      1
 Normal termination of Gaussian 09 at Sat Nov  7 02:44:34 2015.
