 Entering Gaussian System, Link 0=/home/hetanjin/apps/g09D01/g09/g09
 Input=C6H14_5_r005_C1_2_opt_B3L.gjf
 Output=C6H14_5_r005_C1_2_opt_B3L.log
 Initial command:
 /home/hetanjin/apps/g09D01/g09/l1.exe "/state/partition1/Gau-4172.inp" -scrdir="/state/partition1/"
 Entering Link 1 = /home/hetanjin/apps/g09D01/g09/l1.exe PID=      4173.
  
 Copyright (c) 1988,1990,1992,1993,1995,1998,2003,2009,2013,
            Gaussian, Inc.  All Rights Reserved.
  
 This is part of the Gaussian(R) 09 program.  It is based on
 the Gaussian(R) 03 system (copyright 2003, Gaussian, Inc.),
 the Gaussian(R) 98 system (copyright 1998, Gaussian, Inc.),
 the Gaussian(R) 94 system (copyright 1995, Gaussian, Inc.),
 the Gaussian 92(TM) system (copyright 1992, Gaussian, Inc.),
 the Gaussian 90(TM) system (copyright 1990, Gaussian, Inc.),
 the Gaussian 88(TM) system (copyright 1988, Gaussian, Inc.),
 the Gaussian 86(TM) system (copyright 1986, Carnegie Mellon
 University), and the Gaussian 82(TM) system (copyright 1983,
 Carnegie Mellon University). Gaussian is a federally registered
 trademark of Gaussian, Inc.
  
 This software contains proprietary and confidential information,
 including trade secrets, belonging to Gaussian, Inc.
  
 This software is provided under written license and may be
 used, copied, transmitted, or stored only in accord with that
 written license.
  
 The following legend is applicable only to US Government
 contracts under FAR:
  
                    RESTRICTED RIGHTS LEGEND
  
 Use, reproduction and disclosure by the US Government is
 subject to restrictions as set forth in subparagraphs (a)
 and (c) of the Commercial Computer Software - Restricted
 Rights clause in FAR 52.227-19.
  
 Gaussian, Inc.
 340 Quinnipiac St., Bldg. 40, Wallingford CT 06492
  
  
 ---------------------------------------------------------------
 Warning -- This program may not be used in any manner that
 competes with the business of Gaussian, Inc. or will provide
 assistance to any competitor of Gaussian, Inc.  The licensee
 of this program is prohibited from giving any competitor of
 Gaussian, Inc. access to this program.  By using this program,
 the user acknowledges that Gaussian, Inc. is engaged in the
 business of creating and licensing software in the field of
 computational chemistry and represents and warrants to the
 licensee that it is not a competitor of Gaussian, Inc. and that
 it will not use this program in any manner prohibited above.
 ---------------------------------------------------------------
  

 Cite this work as:
 Gaussian 09, Revision D.01,
 M. J. Frisch, G. W. Trucks, H. B. Schlegel, G. E. Scuseria, 
 M. A. Robb, J. R. Cheeseman, G. Scalmani, V. Barone, B. Mennucci, 
 G. A. Petersson, H. Nakatsuji, M. Caricato, X. Li, H. P. Hratchian, 
 A. F. Izmaylov, J. Bloino, G. Zheng, J. L. Sonnenberg, M. Hada, 
 M. Ehara, K. Toyota, R. Fukuda, J. Hasegawa, M. Ishida, T. Nakajima, 
 Y. Honda, O. Kitao, H. Nakai, T. Vreven, J. A. Montgomery, Jr., 
 J. E. Peralta, F. Ogliaro, M. Bearpark, J. J. Heyd, E. Brothers, 
 K. N. Kudin, V. N. Staroverov, T. Keith, R. Kobayashi, J. Normand, 
 K. Raghavachari, A. Rendell, J. C. Burant, S. S. Iyengar, J. Tomasi, 
 M. Cossi, N. Rega, J. M. Millam, M. Klene, J. E. Knox, J. B. Cross, 
 V. Bakken, C. Adamo, J. Jaramillo, R. Gomperts, R. E. Stratmann, 
 O. Yazyev, A. J. Austin, R. Cammi, C. Pomelli, J. W. Ochterski, 
 R. L. Martin, K. Morokuma, V. G. Zakrzewski, G. A. Voth, 
 P. Salvador, J. J. Dannenberg, S. Dapprich, A. D. Daniels, 
 O. Farkas, J. B. Foresman, J. V. Ortiz, J. Cioslowski, 
 and D. J. Fox, Gaussian, Inc., Wallingford CT, 2013.
 
 ******************************************
 Gaussian 09:  ES64L-G09RevD.01 24-Apr-2013
                 7-Nov-2015 
 ******************************************
 %mem=6GB
 %nprocshared=4
 Will use up to    4 processors via shared memory.
 ----------------------------------------------
 #p B3LYP/6-31G(d) opt=tight int=ultrafine freq
 ----------------------------------------------
 1/7=10,14=-1,18=20,19=15,26=4,38=1/1,3;
 2/9=110,12=2,17=6,18=5,40=1/2;
 3/5=1,6=6,7=1,11=2,16=1,25=1,30=1,71=1,74=-5,75=-5/1,2,3;
 4//1;
 5/5=2,38=5/2;
 6/7=2,8=2,9=2,10=2,28=1/1;
 7//1,2,3,16;
 1/7=10,14=-1,18=20,19=15,26=4/3(2);
 2/9=110/2;
 99//99;
 2/9=110/2;
 3/5=1,6=6,7=1,11=2,16=1,25=1,30=1,71=1,74=-5,75=-5/1,2,3;
 4/5=5,16=3,69=1/1;
 5/5=2,38=5/2;
 7//1,2,3,16;
 1/7=10,14=-1,18=20,19=15,26=4/3(-5);
 2/9=110/2;
 6/7=2,8=2,9=2,10=2,19=2,28=1/1;
 99/9=1/99;
 Leave Link    1 at Sat Nov  7 02:12:32 2015, MaxMem=   805306368 cpu:         0.2
 (Enter /home/hetanjin/apps/g09D01/g09/l101.exe)
 ---------------------------------------------
 using B3LYP/6-31G(d) to do opt and freq calc.
 ---------------------------------------------
 Symbolic Z-matrix:
 Charge =  0 Multiplicity = 2
 C                     1.61803   0.98966  -0.00005 
 H                     1.59367   1.63635  -0.88611 
 H                     2.57832   0.45929  -0.00002 
 C                     0.43635  -0.0005    0. 
 C                    -0.87859   0.82391  -0.00003 
 H                    -0.86571   1.48649  -0.87756 
 H                    -0.86571   1.48655   0.87745 
 C                    -2.19348   0.03388  0. 
 H                    -2.28903  -0.60502   0.88496 
 H                    -3.04849   0.71981  -0.00001 
 H                    -2.28904  -0.60506  -0.88493 
 C                     0.5289   -0.88501  -1.25865 
 H                    -0.26244  -1.64248  -1.28525 
 H                     0.44851  -0.28292  -2.17262 
 H                     1.4897   -1.41334  -1.29204 
 C                     0.52891  -0.8849    1.25873 
 H                     1.4897   -1.41324   1.29215 
 H                     0.44854  -0.28273   2.17265 
 H                    -0.26244  -1.64236   1.2854 
 
 NAtoms=     19 NQM=       19 NQMF=       0 NMMI=      0 NMMIF=      0
                NMic=       0 NMicF=      0.
                    Isotopes and Nuclear Properties:
 (Nuclear quadrupole moments (NQMom) in fm**2, nuclear magnetic moments (NMagM)
  in nuclear magnetons)

  Atom         1           2           3           4           5           6           7           8           9          10
 IAtWgt=          12           1           1          12          12           1           1          12           1           1
 AtmWgt=  12.0000000   1.0078250   1.0078250  12.0000000  12.0000000   1.0078250   1.0078250  12.0000000   1.0078250   1.0078250
 NucSpn=           0           1           1           0           0           1           1           0           1           1
 AtZEff=   0.0000000   0.0000000   0.0000000   0.0000000   0.0000000   0.0000000   0.0000000   0.0000000   0.0000000   0.0000000
 NQMom=    0.0000000   0.0000000   0.0000000   0.0000000   0.0000000   0.0000000   0.0000000   0.0000000   0.0000000   0.0000000
 NMagM=    0.0000000   2.7928460   2.7928460   0.0000000   0.0000000   2.7928460   2.7928460   0.0000000   2.7928460   2.7928460
 AtZNuc=   6.0000000   1.0000000   1.0000000   6.0000000   6.0000000   1.0000000   1.0000000   6.0000000   1.0000000   1.0000000

  Atom        11          12          13          14          15          16          17          18          19
 IAtWgt=           1          12           1           1           1          12           1           1           1
 AtmWgt=   1.0078250  12.0000000   1.0078250   1.0078250   1.0078250  12.0000000   1.0078250   1.0078250   1.0078250
 NucSpn=           1           0           1           1           1           0           1           1           1
 AtZEff=   0.0000000   0.0000000   0.0000000   0.0000000   0.0000000   0.0000000   0.0000000   0.0000000   0.0000000
 NQMom=    0.0000000   0.0000000   0.0000000   0.0000000   0.0000000   0.0000000   0.0000000   0.0000000   0.0000000
 NMagM=    2.7928460   0.0000000   2.7928460   2.7928460   2.7928460   0.0000000   2.7928460   2.7928460   2.7928460
 AtZNuc=   1.0000000   6.0000000   1.0000000   1.0000000   1.0000000   6.0000000   1.0000000   1.0000000   1.0000000
 Leave Link  101 at Sat Nov  7 02:12:32 2015, MaxMem=   805306368 cpu:         0.7
 (Enter /home/hetanjin/apps/g09D01/g09/l103.exe)

 GradGradGradGradGradGradGradGradGradGradGradGradGradGradGradGradGradGrad
 Berny optimization.
 Initialization pass.
                           ----------------------------
                           !    Initial Parameters    !
                           ! (Angstroms and Degrees)  !
 --------------------------                            --------------------------
 ! Name  Definition              Value          Derivative Info.                !
 --------------------------------------------------------------------------------
 ! R1    R(1,2)                  1.0972         estimate D2E/DX2                !
 ! R2    R(1,3)                  1.097          estimate D2E/DX2                !
 ! R3    R(1,4)                  1.5417         estimate D2E/DX2                !
 ! R4    R(4,5)                  1.552          estimate D2E/DX2                !
 ! R5    R(4,12)                 1.5411         estimate D2E/DX2                !
 ! R6    R(4,16)                 1.5411         estimate D2E/DX2                !
 ! R7    R(5,6)                  1.0996         estimate D2E/DX2                !
 ! R8    R(5,7)                  1.0996         estimate D2E/DX2                !
 ! R9    R(5,8)                  1.534          estimate D2E/DX2                !
 ! R10   R(8,9)                  1.0957         estimate D2E/DX2                !
 ! R11   R(8,10)                 1.0961         estimate D2E/DX2                !
 ! R12   R(8,11)                 1.0957         estimate D2E/DX2                !
 ! R13   R(12,13)                1.0958         estimate D2E/DX2                !
 ! R14   R(12,14)                1.0974         estimate D2E/DX2                !
 ! R15   R(12,15)                1.097          estimate D2E/DX2                !
 ! R16   R(16,17)                1.097          estimate D2E/DX2                !
 ! R17   R(16,18)                1.0974         estimate D2E/DX2                !
 ! R18   R(16,19)                1.0958         estimate D2E/DX2                !
 ! A1    A(2,1,3)              107.722          estimate D2E/DX2                !
 ! A2    A(2,1,4)              111.195          estimate D2E/DX2                !
 ! A3    A(3,1,4)              111.1274         estimate D2E/DX2                !
 ! A4    A(1,4,5)              107.9534         estimate D2E/DX2                !
 ! A5    A(1,4,12)             108.8179         estimate D2E/DX2                !
 ! A6    A(1,4,16)             108.8179         estimate D2E/DX2                !
 ! A7    A(5,4,12)             110.8381         estimate D2E/DX2                !
 ! A8    A(5,4,16)             110.8381         estimate D2E/DX2                !
 ! A9    A(12,4,16)            109.5162         estimate D2E/DX2                !
 ! A10   A(4,5,6)              108.0687         estimate D2E/DX2                !
 ! A11   A(4,5,7)              108.0687         estimate D2E/DX2                !
 ! A12   A(4,5,8)              116.915          estimate D2E/DX2                !
 ! A13   A(6,5,7)              105.8765         estimate D2E/DX2                !
 ! A14   A(6,5,8)              108.6851         estimate D2E/DX2                !
 ! A15   A(7,5,8)              108.6852         estimate D2E/DX2                !
 ! A16   A(5,8,9)              112.0296         estimate D2E/DX2                !
 ! A17   A(5,8,10)             110.2629         estimate D2E/DX2                !
 ! A18   A(5,8,11)             112.0296         estimate D2E/DX2                !
 ! A19   A(9,8,10)             107.27           estimate D2E/DX2                !
 ! A20   A(9,8,11)             107.7399         estimate D2E/DX2                !
 ! A21   A(10,8,11)            107.27           estimate D2E/DX2                !
 ! A22   A(4,12,13)            111.913          estimate D2E/DX2                !
 ! A23   A(4,12,14)            111.1551         estimate D2E/DX2                !
 ! A24   A(4,12,15)            110.724          estimate D2E/DX2                !
 ! A25   A(13,12,14)           107.8276         estimate D2E/DX2                !
 ! A26   A(13,12,15)           107.389          estimate D2E/DX2                !
 ! A27   A(14,12,15)           107.6407         estimate D2E/DX2                !
 ! A28   A(4,16,17)            110.7241         estimate D2E/DX2                !
 ! A29   A(4,16,18)            111.155          estimate D2E/DX2                !
 ! A30   A(4,16,19)            111.913          estimate D2E/DX2                !
 ! A31   A(17,16,18)           107.6408         estimate D2E/DX2                !
 ! A32   A(17,16,19)           107.3889         estimate D2E/DX2                !
 ! A33   A(18,16,19)           107.8276         estimate D2E/DX2                !
 ! D1    D(2,1,4,5)            -60.01           estimate D2E/DX2                !
 ! D2    D(2,1,4,12)            60.3526         estimate D2E/DX2                !
 ! D3    D(2,1,4,16)           179.6274         estimate D2E/DX2                !
 ! D4    D(3,1,4,5)            179.9997         estimate D2E/DX2                !
 ! D5    D(3,1,4,12)           -59.6377         estimate D2E/DX2                !
 ! D6    D(3,1,4,16)            59.6371         estimate D2E/DX2                !
 ! D7    D(1,4,5,6)             57.0744         estimate D2E/DX2                !
 ! D8    D(1,4,5,7)            -57.0751         estimate D2E/DX2                !
 ! D9    D(1,4,5,8)            179.9996         estimate D2E/DX2                !
 ! D10   D(12,4,5,6)           -62.0124         estimate D2E/DX2                !
 ! D11   D(12,4,5,7)          -176.1619         estimate D2E/DX2                !
 ! D12   D(12,4,5,8)            60.9128         estimate D2E/DX2                !
 ! D13   D(16,4,5,6)           176.1612         estimate D2E/DX2                !
 ! D14   D(16,4,5,7)            62.0117         estimate D2E/DX2                !
 ! D15   D(16,4,5,8)           -60.9136         estimate D2E/DX2                !
 ! D16   D(1,4,12,13)          177.2395         estimate D2E/DX2                !
 ! D17   D(1,4,12,14)          -62.1296         estimate D2E/DX2                !
 ! D18   D(1,4,12,15)           57.4635         estimate D2E/DX2                !
 ! D19   D(5,4,12,13)          -64.1959         estimate D2E/DX2                !
 ! D20   D(5,4,12,14)           56.435          estimate D2E/DX2                !
 ! D21   D(5,4,12,15)          176.0282         estimate D2E/DX2                !
 ! D22   D(16,4,12,13)          58.4016         estimate D2E/DX2                !
 ! D23   D(16,4,12,14)         179.0325         estimate D2E/DX2                !
 ! D24   D(16,4,12,15)         -61.3744         estimate D2E/DX2                !
 ! D25   D(1,4,16,17)          -57.4641         estimate D2E/DX2                !
 ! D26   D(1,4,16,18)           62.129          estimate D2E/DX2                !
 ! D27   D(1,4,16,19)         -177.2401         estimate D2E/DX2                !
 ! D28   D(5,4,16,17)         -176.0287         estimate D2E/DX2                !
 ! D29   D(5,4,16,18)          -56.4356         estimate D2E/DX2                !
 ! D30   D(5,4,16,19)           64.1953         estimate D2E/DX2                !
 ! D31   D(12,4,16,17)          61.3738         estimate D2E/DX2                !
 ! D32   D(12,4,16,18)        -179.0331         estimate D2E/DX2                !
 ! D33   D(12,4,16,19)         -58.4022         estimate D2E/DX2                !
 ! D34   D(4,5,8,9)             60.6085         estimate D2E/DX2                !
 ! D35   D(4,5,8,10)           179.9992         estimate D2E/DX2                !
 ! D36   D(4,5,8,11)           -60.6101         estimate D2E/DX2                !
 ! D37   D(6,5,8,9)           -176.7844         estimate D2E/DX2                !
 ! D38   D(6,5,8,10)           -57.3938         estimate D2E/DX2                !
 ! D39   D(6,5,8,11)            61.9969         estimate D2E/DX2                !
 ! D40   D(7,5,8,9)            -61.9986         estimate D2E/DX2                !
 ! D41   D(7,5,8,10)            57.3921         estimate D2E/DX2                !
 ! D42   D(7,5,8,11)           176.7828         estimate D2E/DX2                !
 --------------------------------------------------------------------------------
 Trust Radius=3.00D-01 FncErr=1.00D-07 GrdErr=1.00D-06
 Number of steps in this run=    103 maximum allowed number of steps=    114.
 GradGradGradGradGradGradGradGradGradGradGradGradGradGradGradGradGradGrad

 Leave Link  103 at Sat Nov  7 02:12:32 2015, MaxMem=   805306368 cpu:         0.0
 (Enter /home/hetanjin/apps/g09D01/g09/l202.exe)
                          Input orientation:                          
 ---------------------------------------------------------------------
 Center     Atomic      Atomic             Coordinates (Angstroms)
 Number     Number       Type             X           Y           Z
 ---------------------------------------------------------------------
      1          6           0        1.618032    0.989661   -0.000046
      2          1           0        1.593672    1.636347   -0.886113
      3          1           0        2.578316    0.459293   -0.000021
      4          6           0        0.436353   -0.000500    0.000000
      5          6           0       -0.878586    0.823914   -0.000030
      6          1           0       -0.865713    1.486486   -0.877558
      7          1           0       -0.865712    1.486551    0.877447
      8          6           0       -2.193477    0.033880   -0.000001
      9          1           0       -2.289029   -0.605019    0.884964
     10          1           0       -3.048488    0.719808   -0.000012
     11          1           0       -2.289041   -0.605062   -0.884933
     12          6           0        0.528897   -0.885012   -1.258652
     13          1           0       -0.262439   -1.642476   -1.285245
     14          1           0        0.448512   -0.282917   -2.172624
     15          1           0        1.489696   -1.413344   -1.292039
     16          6           0        0.528906   -0.884904    1.258727
     17          1           0        1.489700   -1.413241    1.292148
     18          1           0        0.448537   -0.282728    2.172647
     19          1           0       -0.262436   -1.642360    1.285396
 ---------------------------------------------------------------------
                    Distance matrix (angstroms):
                    1          2          3          4          5
     1  C    0.000000
     2  H    1.097229   0.000000
     3  H    1.097012   1.772044   0.000000
     4  C    1.541682   2.191769   2.190757   0.000000
     5  C    2.502114   2.749045   3.476078   1.552006   0.000000
     6  H    2.680644   2.463961   3.699531   2.162547   1.099647
     7  H    2.680649   3.030042   3.699532   2.162546   1.099645
     8  C    3.929519   4.206613   4.790719   2.630055   1.533979
     9  H    4.311771   4.820353   5.060337   2.928534   2.194177
    10  H    4.674316   4.814028   5.632832   3.558505   2.172398
    11  H    4.311773   4.483233   5.060344   2.928545   2.194176
    12  C    2.506931   2.762206   2.755254   1.541146   2.546677
    13  H    3.480812   3.788817   3.760202   2.199148   2.848595
    14  H    2.776207   2.578774   3.131636   2.190936   2.776046
    15  H    2.731327   3.078344   2.522137   2.185183   3.504764
    16  C    2.506930   3.477179   2.755248   1.541146   2.546677
    17  H    2.731332   3.749082   2.522136   2.185183   3.504763
    18  H    2.776200   3.788165   3.131619   2.190935   2.776047
    19  H    3.480812   4.348621   3.760201   2.199148   2.848591
                    6          7          8          9         10
     6  H    0.000000
     7  H    1.755005   0.000000
     8  C    2.154792   2.154792   0.000000
     9  H    3.083295   2.529931   1.095667   0.000000
    10  H    2.474346   2.474336   1.096148   1.764972   0.000000
    11  H    2.529919   3.083293   1.095666   1.769897   1.764972
    12  C    2.777440   3.483126   3.136859   3.551646   4.117925
    13  H    3.212562   3.851232   2.861980   3.145344   3.872245
    14  H    2.556398   3.763128   3.435223   4.116640   4.237300
    15  H    3.758824   4.320186   4.162882   4.435256   5.178299
    16  C    3.483126   2.777433   3.136866   2.856360   4.117921
    17  H    4.320186   3.758821   4.162884   3.885591   5.178294
    18  H    3.763127   2.556392   3.435241   3.042411   4.237300
    19  H    3.851232   3.212545   2.861983   2.311601   3.872234
                   11         12         13         14         15
    11  H    0.000000
    12  C    2.856364   0.000000
    13  H    2.311621   1.095752   0.000000
    14  H    3.042388   1.097417   1.772369   0.000000
    15  H    3.885603   1.096989   1.767067   1.771259   0.000000
    16  C    3.551678   2.517379   2.769826   3.484684   2.776468
    17  H    4.435281   2.776463   3.124979   3.790297   2.584187
    18  H    4.116677   3.484683   3.783044   4.345271   3.790297
    19  H    3.145384   2.769831   2.570641   3.783046   3.124994
                   16         17         18         19
    16  C    0.000000
    17  H    1.096988   0.000000
    18  H    1.097417   1.771259   0.000000
    19  H    1.095752   1.767066   1.772370   0.000000
 Stoichiometry    C6H13(2)
 Framework group  C1[X(C6H13)]
 Deg. of freedom    51
 Full point group                 C1      NOp   1
 Largest Abelian subgroup         C1      NOp   1
 Largest concise Abelian subgroup C1      NOp   1
                         Standard orientation:                         
 ---------------------------------------------------------------------
 Center     Atomic      Atomic             Coordinates (Angstroms)
 Number     Number       Type             X           Y           Z
 ---------------------------------------------------------------------
      1          6           0        1.595736   -0.514926   -0.979687
      2          1           0        1.562811   -1.607325   -1.077111
      3          1           0        2.581203   -0.244822   -0.580522
      4          6           0        0.465957   -0.002664   -0.064278
      5          6           0       -0.888420   -0.422989   -0.694923
      6          1           0       -0.885207   -1.516331   -0.812463
      7          1           0       -0.932795   -0.011055   -1.713530
      8          6           0       -2.161290   -0.013270    0.056759
      9          1           0       -2.248443    1.074502    0.154943
     10          1           0       -3.049507   -0.363619   -0.481634
     11          1           0       -2.200463   -0.443559    1.063636
     12          6           0        0.637107   -0.627759    1.333969
     13          1           0       -0.113989   -0.259026    2.041474
     14          1           0        0.551255   -1.721017    1.292258
     15          1           0        1.623892   -0.387361    1.748515
     16          6           0        0.568853    1.531402    0.041466
     17          1           0        1.553822    1.829105    0.421718
     18          1           0        0.433452    2.005929   -0.938746
     19          1           0       -0.183693    1.945815    0.721620
 ---------------------------------------------------------------------
 Rotational constants (GHZ):      4.3973643      2.5387695      2.4969850
 Leave Link  202 at Sat Nov  7 02:12:32 2015, MaxMem=   805306368 cpu:         0.1
 (Enter /home/hetanjin/apps/g09D01/g09/l301.exe)
 Standard basis: 6-31G(d) (6D, 7F)
 Ernie: Thresh=  0.10000D-02 Tol=  0.10000D-05 Strict=F.
 There are   116 symmetry adapted cartesian basis functions of A   symmetry.
 There are   116 symmetry adapted basis functions of A   symmetry.
   116 basis functions,   220 primitive gaussians,   116 cartesian basis functions
    25 alpha electrons       24 beta electrons
       nuclear repulsion energy       254.3122857874 Hartrees.
 IExCor=  402 DFT=T Ex+Corr=B3LYP ExCW=0 ScaHFX=  0.200000
 ScaDFX=  0.800000  0.720000  1.000000  0.810000 ScalE2=  1.000000  1.000000
 IRadAn=      5 IRanWt=     -1 IRanGd=            0 ICorTp=0 IEmpDi=  4
 NAtoms=   19 NActive=   19 NUniq=   19 SFac= 1.00D+00 NAtFMM=   60 NAOKFM=F Big=F
 Integral buffers will be    131072 words long.
 Raffenetti 2 integral format.
 Two-electron integral symmetry is turned on.
 Leave Link  301 at Sat Nov  7 02:12:32 2015, MaxMem=   805306368 cpu:         0.2
 (Enter /home/hetanjin/apps/g09D01/g09/l302.exe)
 NPDir=0 NMtPBC=     1 NCelOv=     1 NCel=       1 NClECP=     1 NCelD=      1
         NCelK=      1 NCelE2=     1 NClLst=     1 CellRange=     0.0.
 One-electron integrals computed using PRISM.
 NBasis=   116 RedAO= T EigKep=  3.89D-03  NBF=   116
 NBsUse=   116 1.00D-06 EigRej= -1.00D+00 NBFU=   116
 Precomputing XC quadrature grid using
 IXCGrd= 4 IRadAn=           5 IRanWt=          -1 IRanGd=           0 AccXCQ= 0.00D+00.
 Generated NRdTot=       0 NPtTot=           0 NUsed=           0 NTot=          32
 NSgBfM=   116   116   116   116   116 MxSgAt=    19 MxSgA2=    19.
 Leave Link  302 at Sat Nov  7 02:12:33 2015, MaxMem=   805306368 cpu:         1.9
 (Enter /home/hetanjin/apps/g09D01/g09/l303.exe)
 DipDrv:  MaxL=1.
 Leave Link  303 at Sat Nov  7 02:12:33 2015, MaxMem=   805306368 cpu:         0.2
 (Enter /home/hetanjin/apps/g09D01/g09/l401.exe)
 ExpMin= 1.61D-01 ExpMax= 3.05D+03 ExpMxC= 4.57D+02 IAcc=3 IRadAn=         5 AccDes= 0.00D+00
 Harris functional with IExCor=  402 and IRadAn=       5 diagonalized for initial guess.
 HarFok:  IExCor=  402 AccDes= 0.00D+00 IRadAn=         5 IDoV= 1 UseB2=F ITyADJ=14
 ICtDFT=  3500011 ScaDFX=  1.000000  1.000000  1.000000  1.000000
 FoFCou: FMM=F IPFlag=           0 FMFlag=      100000 FMFlg1=           0
         NFxFlg=           0 DoJE=T BraDBF=F KetDBF=T FulRan=T
         wScrn=  0.000000 ICntrl=     500 IOpCl=  0 I1Cent=   200000004 NGrid=           0
         NMat0=    1 NMatS0=      1 NMatT0=    0 NMatD0=    1 NMtDS0=    0 NMtDT0=    0
 Petite list used in FoFCou.
 Harris En= -236.440027970292    
 JPrj=0 DoOrth=F DoCkMO=F.
 Initial guess <Sx>= 0.0000 <Sy>= 0.0000 <Sz>= 0.5000 <S**2>= 0.7500 S= 0.5000
 Leave Link  401 at Sat Nov  7 02:12:36 2015, MaxMem=   805306368 cpu:         9.0
 (Enter /home/hetanjin/apps/g09D01/g09/l502.exe)
 UHF open shell SCF:
 Using DIIS extrapolation, IDIIS=  1040.
 Integral symmetry usage will be decided dynamically.
 Keep R1 and R2 ints in memory in canonical form, NReq=47059932.
 IVT=       60514 IEndB=       60514 NGot=   805306368 MDV=   759189273
 LenX=   759189273 LenY=   759175376
 Requested convergence on RMS density matrix=1.00D-08 within 128 cycles.
 Requested convergence on MAX density matrix=1.00D-06.
 Requested convergence on             energy=1.00D-06.
 No special actions if energy rises.
 FoFCou: FMM=F IPFlag=           0 FMFlag=           0 FMFlg1=           0
         NFxFlg=           0 DoJE=F BraDBF=F KetDBF=F FulRan=T
         wScrn=  0.000000 ICntrl=     600 IOpCl=  0 I1Cent=           0 NGrid=           0
         NMat0=    1 NMatS0=   6786 NMatT0=    0 NMatD0=    1 NMtDS0=    0 NMtDT0=    0
 Symmetry not used in FoFCou.
 Integral accuracy reduced to 1.0D-05 until final iterations.

 Cycle   1  Pass 0  IDiag  1:
 E= -236.144634665654    
 DIIS: error= 5.40D-02 at cycle   1 NSaved=   1.
 NSaved= 1 IEnMin= 1 EnMin= -236.144634665654     IErMin= 1 ErrMin= 5.40D-02
 ErrMax= 5.40D-02  0.00D+00 EMaxC= 1.00D-01 BMatC= 9.15D-01 BMatP= 9.15D-01
 IDIUse=3 WtCom= 4.60D-01 WtEn= 5.40D-01
 Coeff-Com:  0.100D+01
 Coeff-En:   0.100D+01
 Coeff:      0.100D+01
 Gap=     0.274 Goal=   None    Shift=    0.000
 Gap=     0.214 Goal=   None    Shift=    0.000
 GapD=    0.214 DampG=1.000 DampE=0.500 DampFc=0.5000 IDamp=-1.
 Damping current iteration by 5.00D-01
 RMSDP=9.72D-03 MaxDP=1.43D-01              OVMax= 1.79D-01

 Cycle   2  Pass 0  IDiag  1:
 E= -236.256981149095     Delta-E=       -0.112346483441 Rises=F Damp=T
 DIIS: error= 8.54D-03 at cycle   2 NSaved=   2.
 NSaved= 2 IEnMin= 2 EnMin= -236.256981149095     IErMin= 2 ErrMin= 8.54D-03
 ErrMax= 8.54D-03  0.00D+00 EMaxC= 1.00D-01 BMatC= 4.17D-02 BMatP= 9.15D-01
 IDIUse=3 WtCom= 9.15D-01 WtEn= 8.54D-02
 Coeff-Com:  0.788D-01 0.921D+00
 Coeff-En:   0.133D+00 0.867D+00
 Coeff:      0.834D-01 0.917D+00
 Gap=     0.308 Goal=   None    Shift=    0.000
 Gap=     0.260 Goal=   None    Shift=    0.000
 RMSDP=1.74D-03 MaxDP=2.72D-02 DE=-1.12D-01 OVMax= 1.05D-01

 Cycle   3  Pass 0  IDiag  1:
 E= -236.398107797697     Delta-E=       -0.141126648602 Rises=F Damp=F
 DIIS: error= 2.99D-03 at cycle   3 NSaved=   3.
 NSaved= 3 IEnMin= 3 EnMin= -236.398107797697     IErMin= 3 ErrMin= 2.99D-03
 ErrMax= 2.99D-03  0.00D+00 EMaxC= 1.00D-01 BMatC= 8.58D-03 BMatP= 4.17D-02
 IDIUse=3 WtCom= 9.70D-01 WtEn= 2.99D-02
 Coeff-Com:  0.301D-02 0.260D+00 0.737D+00
 Coeff-En:   0.000D+00 0.000D+00 0.100D+01
 Coeff:      0.292D-02 0.252D+00 0.745D+00
 Gap=     0.311 Goal=   None    Shift=    0.000
 Gap=     0.237 Goal=   None    Shift=    0.000
 RMSDP=6.79D-04 MaxDP=1.54D-02 DE=-1.41D-01 OVMax= 1.56D-02

 Cycle   4  Pass 0  IDiag  1:
 E= -236.399479927757     Delta-E=       -0.001372130059 Rises=F Damp=F
 DIIS: error= 1.72D-03 at cycle   4 NSaved=   4.
 NSaved= 4 IEnMin= 4 EnMin= -236.399479927757     IErMin= 4 ErrMin= 1.72D-03
 ErrMax= 1.72D-03  0.00D+00 EMaxC= 1.00D-01 BMatC= 3.26D-03 BMatP= 8.58D-03
 IDIUse=3 WtCom= 9.83D-01 WtEn= 1.72D-02
 Coeff-Com: -0.525D-02 0.343D-01 0.388D+00 0.583D+00
 Coeff-En:   0.000D+00 0.000D+00 0.262D+00 0.738D+00
 Coeff:     -0.516D-02 0.337D-01 0.386D+00 0.585D+00
 Gap=     0.306 Goal=   None    Shift=    0.000
 Gap=     0.245 Goal=   None    Shift=    0.000
 RMSDP=2.43D-04 MaxDP=5.82D-03 DE=-1.37D-03 OVMax= 7.28D-03

 Cycle   5  Pass 0  IDiag  1:
 E= -236.400270174038     Delta-E=       -0.000790246281 Rises=F Damp=F
 DIIS: error= 2.43D-04 at cycle   5 NSaved=   5.
 NSaved= 5 IEnMin= 5 EnMin= -236.400270174038     IErMin= 5 ErrMin= 2.43D-04
 ErrMax= 2.43D-04  0.00D+00 EMaxC= 1.00D-01 BMatC= 6.18D-05 BMatP= 3.26D-03
 IDIUse=3 WtCom= 9.98D-01 WtEn= 2.43D-03
 Coeff-Com: -0.137D-02-0.279D-02 0.835D-01 0.190D+00 0.731D+00
 Coeff-En:   0.000D+00 0.000D+00 0.000D+00 0.000D+00 0.100D+01
 Coeff:     -0.137D-02-0.279D-02 0.833D-01 0.190D+00 0.731D+00
 Gap=     0.307 Goal=   None    Shift=    0.000
 Gap=     0.245 Goal=   None    Shift=    0.000
 RMSDP=4.17D-05 MaxDP=9.64D-04 DE=-7.90D-04 OVMax= 1.13D-03

 Cycle   6  Pass 0  IDiag  1:
 E= -236.400285682454     Delta-E=       -0.000015508415 Rises=F Damp=F
 DIIS: error= 8.06D-05 at cycle   6 NSaved=   6.
 NSaved= 6 IEnMin= 6 EnMin= -236.400285682454     IErMin= 6 ErrMin= 8.06D-05
 ErrMax= 8.06D-05  0.00D+00 EMaxC= 1.00D-01 BMatC= 5.15D-06 BMatP= 6.18D-05
 IDIUse=1 WtCom= 1.00D+00 WtEn= 0.00D+00
 Coeff-Com: -0.167D-03-0.265D-02 0.358D-02 0.258D-01 0.224D+00 0.749D+00
 Coeff:     -0.167D-03-0.265D-02 0.358D-02 0.258D-01 0.224D+00 0.749D+00
 Gap=     0.307 Goal=   None    Shift=    0.000
 Gap=     0.245 Goal=   None    Shift=    0.000
 RMSDP=1.72D-05 MaxDP=4.40D-04 DE=-1.55D-05 OVMax= 4.61D-04

 Cycle   7  Pass 0  IDiag  1:
 E= -236.400287275782     Delta-E=       -0.000001593329 Rises=F Damp=F
 DIIS: error= 4.08D-05 at cycle   7 NSaved=   7.
 NSaved= 7 IEnMin= 7 EnMin= -236.400287275782     IErMin= 7 ErrMin= 4.08D-05
 ErrMax= 4.08D-05  0.00D+00 EMaxC= 1.00D-01 BMatC= 1.39D-06 BMatP= 5.15D-06
 IDIUse=1 WtCom= 1.00D+00 WtEn= 0.00D+00
 Coeff-Com:  0.229D-03-0.367D-03-0.190D-01-0.359D-01-0.918D-01 0.316D+00
 Coeff-Com:  0.830D+00
 Coeff:      0.229D-03-0.367D-03-0.190D-01-0.359D-01-0.918D-01 0.316D+00
 Coeff:      0.830D+00
 Gap=     0.307 Goal=   None    Shift=    0.000
 Gap=     0.245 Goal=   None    Shift=    0.000
 RMSDP=7.48D-06 MaxDP=2.51D-04 DE=-1.59D-06 OVMax= 2.30D-04

 Initial convergence to 1.0D-05 achieved.  Increase integral accuracy.
 Cycle   8  Pass 1  IDiag  1:
 E= -236.400283505400     Delta-E=        0.000003770383 Rises=F Damp=F
 DIIS: error= 9.60D-06 at cycle   1 NSaved=   1.
 NSaved= 1 IEnMin= 1 EnMin= -236.400283505400     IErMin= 1 ErrMin= 9.60D-06
 ErrMax= 9.60D-06  0.00D+00 EMaxC= 1.00D-01 BMatC= 9.56D-08 BMatP= 9.56D-08
 IDIUse=1 WtCom= 1.00D+00 WtEn= 0.00D+00
 Coeff-Com:  0.100D+01
 Coeff:      0.100D+01
 Gap=     0.307 Goal=   None    Shift=    0.000
 Gap=     0.245 Goal=   None    Shift=    0.000
 RMSDP=7.48D-06 MaxDP=2.51D-04 DE= 3.77D-06 OVMax= 6.67D-05

 Cycle   9  Pass 1  IDiag  1:
 E= -236.400283529101     Delta-E=       -0.000000023701 Rises=F Damp=F
 DIIS: error= 6.70D-06 at cycle   2 NSaved=   2.
 NSaved= 2 IEnMin= 2 EnMin= -236.400283529101     IErMin= 2 ErrMin= 6.70D-06
 ErrMax= 6.70D-06  0.00D+00 EMaxC= 1.00D-01 BMatC= 5.44D-08 BMatP= 9.56D-08
 IDIUse=1 WtCom= 1.00D+00 WtEn= 0.00D+00
 Coeff-Com:  0.412D+00 0.588D+00
 Coeff:      0.412D+00 0.588D+00
 Gap=     0.307 Goal=   None    Shift=    0.000
 Gap=     0.245 Goal=   None    Shift=    0.000
 RMSDP=1.23D-06 MaxDP=2.66D-05 DE=-2.37D-08 OVMax= 2.93D-05

 Cycle  10  Pass 1  IDiag  1:
 E= -236.400283542897     Delta-E=       -0.000000013795 Rises=F Damp=F
 DIIS: error= 2.58D-06 at cycle   3 NSaved=   3.
 NSaved= 3 IEnMin= 3 EnMin= -236.400283542897     IErMin= 3 ErrMin= 2.58D-06
 ErrMax= 2.58D-06  0.00D+00 EMaxC= 1.00D-01 BMatC= 5.40D-09 BMatP= 5.44D-08
 IDIUse=1 WtCom= 1.00D+00 WtEn= 0.00D+00
 Coeff-Com: -0.130D-01 0.185D+00 0.828D+00
 Coeff:     -0.130D-01 0.185D+00 0.828D+00
 Gap=     0.307 Goal=   None    Shift=    0.000
 Gap=     0.245 Goal=   None    Shift=    0.000
 RMSDP=5.07D-07 MaxDP=1.26D-05 DE=-1.38D-08 OVMax= 1.46D-05

 Cycle  11  Pass 1  IDiag  1:
 E= -236.400283544730     Delta-E=       -0.000000001833 Rises=F Damp=F
 DIIS: error= 1.15D-06 at cycle   4 NSaved=   4.
 NSaved= 4 IEnMin= 4 EnMin= -236.400283544730     IErMin= 4 ErrMin= 1.15D-06
 ErrMax= 1.15D-06  0.00D+00 EMaxC= 1.00D-01 BMatC= 9.91D-10 BMatP= 5.40D-09
 IDIUse=1 WtCom= 1.00D+00 WtEn= 0.00D+00
 Coeff-Com: -0.805D-01-0.430D-01 0.299D+00 0.824D+00
 Coeff:     -0.805D-01-0.430D-01 0.299D+00 0.824D+00
 Gap=     0.307 Goal=   None    Shift=    0.000
 Gap=     0.245 Goal=   None    Shift=    0.000
 RMSDP=2.35D-07 MaxDP=5.62D-06 DE=-1.83D-09 OVMax= 6.45D-06

 Cycle  12  Pass 1  IDiag  1:
 E= -236.400283545126     Delta-E=       -0.000000000396 Rises=F Damp=F
 DIIS: error= 2.69D-07 at cycle   5 NSaved=   5.
 NSaved= 5 IEnMin= 5 EnMin= -236.400283545126     IErMin= 5 ErrMin= 2.69D-07
 ErrMax= 2.69D-07  0.00D+00 EMaxC= 1.00D-01 BMatC= 5.48D-11 BMatP= 9.91D-10
 IDIUse=1 WtCom= 1.00D+00 WtEn= 0.00D+00
 Coeff-Com: -0.105D-01-0.263D-01-0.485D-01 0.122D+00 0.964D+00
 Coeff:     -0.105D-01-0.263D-01-0.485D-01 0.122D+00 0.964D+00
 Gap=     0.307 Goal=   None    Shift=    0.000
 Gap=     0.245 Goal=   None    Shift=    0.000
 RMSDP=6.53D-08 MaxDP=2.46D-06 DE=-3.96D-10 OVMax= 2.26D-06

 Cycle  13  Pass 1  IDiag  1:
 E= -236.400283545148     Delta-E=       -0.000000000021 Rises=F Damp=F
 DIIS: error= 1.44D-07 at cycle   6 NSaved=   6.
 NSaved= 6 IEnMin= 6 EnMin= -236.400283545148     IErMin= 6 ErrMin= 1.44D-07
 ErrMax= 1.44D-07  0.00D+00 EMaxC= 1.00D-01 BMatC= 1.84D-11 BMatP= 5.48D-11
 IDIUse=1 WtCom= 1.00D+00 WtEn= 0.00D+00
 Coeff-Com:  0.290D-02-0.845D-02-0.541D-01-0.212D-01 0.480D+00 0.601D+00
 Coeff:      0.290D-02-0.845D-02-0.541D-01-0.212D-01 0.480D+00 0.601D+00
 Gap=     0.307 Goal=   None    Shift=    0.000
 Gap=     0.245 Goal=   None    Shift=    0.000
 RMSDP=2.20D-08 MaxDP=7.08D-07 DE=-2.13D-11 OVMax= 6.79D-07

 Cycle  14  Pass 1  IDiag  1:
 E= -236.400283545151     Delta-E=       -0.000000000004 Rises=F Damp=F
 DIIS: error= 2.80D-08 at cycle   7 NSaved=   7.
 NSaved= 7 IEnMin= 7 EnMin= -236.400283545151     IErMin= 7 ErrMin= 2.80D-08
 ErrMax= 2.80D-08  0.00D+00 EMaxC= 1.00D-01 BMatC= 4.66D-13 BMatP= 1.84D-11
 IDIUse=1 WtCom= 1.00D+00 WtEn= 0.00D+00
 Coeff-Com:  0.138D-02-0.109D-02-0.135D-01-0.131D-01 0.909D-01 0.190D+00
 Coeff-Com:  0.745D+00
 Coeff:      0.138D-02-0.109D-02-0.135D-01-0.131D-01 0.909D-01 0.190D+00
 Coeff:      0.745D+00
 Gap=     0.307 Goal=   None    Shift=    0.000
 Gap=     0.245 Goal=   None    Shift=    0.000
 RMSDP=4.70D-09 MaxDP=1.05D-07 DE=-3.58D-12 OVMax= 1.12D-07

 SCF Done:  E(UB3LYP) =  -236.400283545     A.U. after   14 cycles
            NFock= 14  Conv=0.47D-08     -V/T= 2.0103
 <Sx>= 0.0000 <Sy>= 0.0000 <Sz>= 0.5000 <S**2>= 0.7527 S= 0.5013
 <L.S>= 0.000000000000E+00
 KE= 2.339803893947D+02 PE=-1.054170443772D+03 EE= 3.294774850449D+02
 Annihilation of the first spin contaminant:
 S**2 before annihilation     0.7527,   after     0.7500
 Leave Link  502 at Sat Nov  7 02:13:22 2015, MaxMem=   805306368 cpu:       175.7
 (Enter /home/hetanjin/apps/g09D01/g09/l601.exe)
 Copying SCF densities to generalized density rwf, IOpCl= 1 IROHF=0.

 **********************************************************************

            Population analysis using the SCF density.

 **********************************************************************

 Orbital symmetries:
 Alpha Orbitals:
       Occupied  (A) (A) (A) (A) (A) (A) (A) (A) (A) (A) (A) (A)
                 (A) (A) (A) (A) (A) (A) (A) (A) (A) (A) (A) (A)
                 (A)
       Virtual   (A) (A) (A) (A) (A) (A) (A) (A) (A) (A) (A) (A)
                 (A) (A) (A) (A) (A) (A) (A) (A) (A) (A) (A) (A)
                 (A) (A) (A) (A) (A) (A) (A) (A) (A) (A) (A) (A)
                 (A) (A) (A) (A) (A) (A) (A) (A) (A) (A) (A) (A)
                 (A) (A) (A) (A) (A) (A) (A) (A) (A) (A) (A) (A)
                 (A) (A) (A) (A) (A) (A) (A) (A) (A) (A) (A) (A)
                 (A) (A) (A) (A) (A) (A) (A) (A) (A) (A) (A) (A)
                 (A) (A) (A) (A) (A) (A) (A)
 Beta  Orbitals:
       Occupied  (A) (A) (A) (A) (A) (A) (A) (A) (A) (A) (A) (A)
                 (A) (A) (A) (A) (A) (A) (A) (A) (A) (A) (A) (A)
       Virtual   (A) (A) (A) (A) (A) (A) (A) (A) (A) (A) (A) (A)
                 (A) (A) (A) (A) (A) (A) (A) (A) (A) (A) (A) (A)
                 (A) (A) (A) (A) (A) (A) (A) (A) (A) (A) (A) (A)
                 (A) (A) (A) (A) (A) (A) (A) (A) (A) (A) (A) (A)
                 (A) (A) (A) (A) (A) (A) (A) (A) (A) (A) (A) (A)
                 (A) (A) (A) (A) (A) (A) (A) (A) (A) (A) (A) (A)
                 (A) (A) (A) (A) (A) (A) (A) (A) (A) (A) (A) (A)
                 (A) (A) (A) (A) (A) (A) (A) (A)
 The electronic state is 2-A.
 Alpha  occ. eigenvalues --  -10.19693 -10.19188 -10.17590 -10.17569 -10.17073
 Alpha  occ. eigenvalues --  -10.16873  -0.81983  -0.73232  -0.68189  -0.67197
 Alpha  occ. eigenvalues --   -0.61789  -0.52226  -0.45546  -0.44658  -0.43490
 Alpha  occ. eigenvalues --   -0.41189  -0.39386  -0.38023  -0.37408  -0.35795
 Alpha  occ. eigenvalues --   -0.34416  -0.32380  -0.31501  -0.30739  -0.22849
 Alpha virt. eigenvalues --    0.07877   0.12363   0.13364   0.13726   0.14263
 Alpha virt. eigenvalues --    0.15262   0.16581   0.17560   0.18233   0.19755
 Alpha virt. eigenvalues --    0.20509   0.21850   0.22492   0.23962   0.25021
 Alpha virt. eigenvalues --    0.25768   0.26193   0.27310   0.49270   0.50757
 Alpha virt. eigenvalues --    0.51684   0.52196   0.53225   0.57186   0.59534
 Alpha virt. eigenvalues --    0.60902   0.62775   0.63864   0.70159   0.71791
 Alpha virt. eigenvalues --    0.75397   0.76321   0.80918   0.82301   0.87349
 Alpha virt. eigenvalues --    0.88336   0.89405   0.90533   0.90729   0.91339
 Alpha virt. eigenvalues --    0.91706   0.93656   0.94097   0.95580   0.96323
 Alpha virt. eigenvalues --    0.97918   0.98616   0.99801   1.02397   1.03751
 Alpha virt. eigenvalues --    1.25889   1.30972   1.39528   1.40397   1.48595
 Alpha virt. eigenvalues --    1.60589   1.63856   1.67822   1.71228   1.72590
 Alpha virt. eigenvalues --    1.79945   1.84596   1.87000   1.92404   1.93309
 Alpha virt. eigenvalues --    1.95601   1.99964   2.09676   2.09941   2.11375
 Alpha virt. eigenvalues --    2.11930   2.15139   2.24214   2.24668   2.26187
 Alpha virt. eigenvalues --    2.27042   2.30609   2.35605   2.36376   2.47750
 Alpha virt. eigenvalues --    2.56629   2.68968   2.71185   2.73858   2.76066
 Alpha virt. eigenvalues --    4.11666   4.20617   4.27257   4.30861   4.44560
 Alpha virt. eigenvalues --    4.66719
  Beta  occ. eigenvalues --  -10.19717 -10.17748 -10.17572 -10.17464 -10.17073
  Beta  occ. eigenvalues --  -10.16856  -0.81497  -0.73005  -0.68043  -0.65396
  Beta  occ. eigenvalues --   -0.61026  -0.51851  -0.45313  -0.44405  -0.43183
  Beta  occ. eigenvalues --   -0.40653  -0.38894  -0.37900  -0.37329  -0.35423
  Beta  occ. eigenvalues --   -0.34288  -0.31879  -0.31033  -0.30552
  Beta virt. eigenvalues --   -0.06082   0.08015   0.12603   0.13730   0.14041
  Beta virt. eigenvalues --    0.14549   0.15327   0.16753   0.17726   0.18368
  Beta virt. eigenvalues --    0.20179   0.20717   0.22036   0.22691   0.24193
  Beta virt. eigenvalues --    0.25789   0.26215   0.26451   0.27613   0.49552
  Beta virt. eigenvalues --    0.50973   0.51732   0.52356   0.56022   0.58114
  Beta virt. eigenvalues --    0.61120   0.62501   0.63517   0.64605   0.70489
  Beta virt. eigenvalues --    0.71951   0.75616   0.76511   0.81773   0.82584
  Beta virt. eigenvalues --    0.87463   0.88525   0.89594   0.90814   0.91195
  Beta virt. eigenvalues --    0.91732   0.92132   0.94147   0.94575   0.95889
  Beta virt. eigenvalues --    0.97199   0.98018   0.99014   0.99979   1.02522
  Beta virt. eigenvalues --    1.03937   1.26932   1.31777   1.40303   1.41010
  Beta virt. eigenvalues --    1.48839   1.61094   1.64242   1.68023   1.71842
  Beta virt. eigenvalues --    1.73903   1.80403   1.86609   1.87865   1.93203
  Beta virt. eigenvalues --    1.93942   1.96681   2.03241   2.09941   2.10184
  Beta virt. eigenvalues --    2.12024   2.13584   2.17582   2.25227   2.25596
  Beta virt. eigenvalues --    2.26649   2.27679   2.30666   2.35869   2.36493
  Beta virt. eigenvalues --    2.48212   2.57394   2.69115   2.71361   2.74333
  Beta virt. eigenvalues --    2.76924   4.12502   4.22681   4.27927   4.31081
  Beta virt. eigenvalues --    4.44589   4.66904
          Condensed to atoms (all electrons):
               1          2          3          4          5          6
     1  C    5.392958   0.346758   0.344821   0.384631  -0.054806  -0.005560
     2  H    0.346758   0.602894  -0.044514  -0.038015  -0.007031   0.005417
     3  H    0.344821  -0.044514   0.604944  -0.037087   0.005398  -0.000037
     4  C    0.384631  -0.038015  -0.037087   4.749265   0.392109  -0.035644
     5  C   -0.054806  -0.007031   0.005398   0.392109   5.023968   0.367259
     6  H   -0.005560   0.005417  -0.000037  -0.035644   0.367259   0.620059
     7  H   -0.001248  -0.000163   0.000005  -0.035701   0.370127  -0.036887
     8  C    0.004557  -0.000004  -0.000183  -0.036823   0.363886  -0.040388
     9  H    0.000042   0.000003   0.000002  -0.005652  -0.033839   0.005235
    10  H   -0.000120  -0.000003   0.000002   0.004104  -0.026755  -0.003317
    11  H    0.000050  -0.000004   0.000001  -0.005575  -0.033674  -0.004080
    12  C   -0.062017  -0.001848  -0.001910   0.376605  -0.056771  -0.006848
    13  H    0.005785  -0.000149  -0.000156  -0.026316  -0.005552  -0.000082
    14  H   -0.003932   0.004143  -0.000185  -0.030135  -0.004756   0.004726
    15  H   -0.004997  -0.000186   0.004723  -0.029812   0.005531  -0.000080
    16  C   -0.059280   0.005965  -0.006579   0.381489  -0.057815   0.006197
    17  H   -0.005845  -0.000022   0.004567  -0.029435   0.005404  -0.000185
    18  H   -0.001682  -0.000024  -0.000059  -0.029971  -0.004361  -0.000026
    19  H    0.005398  -0.000213  -0.000073  -0.028244  -0.005903  -0.000053
               7          8          9         10         11         12
     1  C   -0.001248   0.004557   0.000042  -0.000120   0.000050  -0.062017
     2  H   -0.000163  -0.000004   0.000003  -0.000003  -0.000004  -0.001848
     3  H    0.000005  -0.000183   0.000002   0.000002   0.000001  -0.001910
     4  C   -0.035701  -0.036823  -0.005652   0.004104  -0.005575   0.376605
     5  C    0.370127   0.363886  -0.033839  -0.026755  -0.033674  -0.056771
     6  H   -0.036887  -0.040388   0.005235  -0.003317  -0.004080  -0.006848
     7  H    0.609000  -0.040356  -0.004133  -0.003195   0.005162   0.006276
     8  C   -0.040356   5.086065   0.377489   0.371925   0.376229  -0.005296
     9  H   -0.004133   0.377489   0.572931  -0.031269  -0.032989  -0.000416
    10  H   -0.003195   0.371925  -0.031269   0.577034  -0.031381   0.000092
    11  H    0.005162   0.376229  -0.032989  -0.031381   0.576710   0.003023
    12  C    0.006276  -0.005296  -0.000416   0.000092   0.003023   5.169096
    13  H   -0.000058   0.001668   0.000191  -0.000067   0.002995   0.363733
    14  H   -0.000040  -0.000234   0.000054  -0.000030   0.000274   0.365139
    15  H   -0.000179   0.000076  -0.000022   0.000000  -0.000110   0.365916
    16  C   -0.006596  -0.005632   0.003341   0.000080  -0.000373  -0.063557
    17  H   -0.000064   0.000085  -0.000118   0.000000  -0.000020  -0.004292
    18  H    0.004785  -0.000270   0.000283  -0.000030   0.000052   0.005708
    19  H   -0.000090   0.002055   0.002767  -0.000059   0.000159  -0.004596
              13         14         15         16         17         18
     1  C    0.005785  -0.003932  -0.004997  -0.059280  -0.005845  -0.001682
     2  H   -0.000149   0.004143  -0.000186   0.005965  -0.000022  -0.000024
     3  H   -0.000156  -0.000185   0.004723  -0.006579   0.004567  -0.000059
     4  C   -0.026316  -0.030135  -0.029812   0.381489  -0.029435  -0.029971
     5  C   -0.005552  -0.004756   0.005531  -0.057815   0.005404  -0.004361
     6  H   -0.000082   0.004726  -0.000080   0.006197  -0.000185  -0.000026
     7  H   -0.000058  -0.000040  -0.000179  -0.006596  -0.000064   0.004785
     8  C    0.001668  -0.000234   0.000076  -0.005632   0.000085  -0.000270
     9  H    0.000191   0.000054  -0.000022   0.003341  -0.000118   0.000283
    10  H   -0.000067  -0.000030   0.000000   0.000080   0.000000  -0.000030
    11  H    0.002995   0.000274  -0.000110  -0.000373  -0.000020   0.000052
    12  C    0.363733   0.365139   0.365916  -0.063557  -0.004292   0.005708
    13  H    0.569733  -0.030516  -0.030311  -0.004690  -0.000185  -0.000035
    14  H   -0.030516   0.580453  -0.030706   0.005845  -0.000072  -0.000192
    15  H   -0.030311  -0.030706   0.580071  -0.004439   0.003869  -0.000070
    16  C   -0.004690   0.005845  -0.004439   5.150004   0.366710   0.368583
    17  H   -0.000185  -0.000072   0.003869   0.366710   0.584651  -0.030043
    18  H   -0.000035  -0.000192  -0.000070   0.368583  -0.030043   0.574989
    19  H    0.003637  -0.000036  -0.000190   0.365209  -0.031446  -0.031235
              19
     1  C    0.005398
     2  H   -0.000213
     3  H   -0.000073
     4  C   -0.028244
     5  C   -0.005903
     6  H   -0.000053
     7  H   -0.000090
     8  C    0.002055
     9  H    0.002767
    10  H   -0.000059
    11  H    0.000159
    12  C   -0.004596
    13  H    0.003637
    14  H   -0.000036
    15  H   -0.000190
    16  C    0.365209
    17  H   -0.031446
    18  H   -0.031235
    19  H    0.582976
          Atomic-Atomic Spin Densities.
               1          2          3          4          5          6
     1  C    1.130019  -0.011707  -0.011715  -0.031849  -0.008509  -0.000107
     2  H   -0.011707  -0.025647   0.006243   0.002134   0.001052   0.000001
     3  H   -0.011715   0.006243  -0.025713   0.002190   0.000175   0.000010
     4  C   -0.031849   0.002134   0.002190  -0.031119   0.004650   0.000506
     5  C   -0.008509   0.001052   0.000175   0.004650   0.015053  -0.000078
     6  H   -0.000107   0.000001   0.000010   0.000506  -0.000078  -0.000798
     7  H    0.004216  -0.000284  -0.000079  -0.000787  -0.003847   0.000045
     8  C    0.000092  -0.000071  -0.000005   0.000356  -0.002329   0.000123
     9  H    0.000000   0.000001   0.000000   0.000016  -0.000165  -0.000004
    10  H   -0.000006   0.000001   0.000000  -0.000020   0.000179  -0.000005
    11  H    0.000022   0.000003   0.000001  -0.000075   0.000313   0.000012
    12  C   -0.028455  -0.002447  -0.002486   0.011968  -0.004861  -0.000194
    13  H    0.002539   0.000143   0.000153  -0.002762   0.001099   0.000041
    14  H    0.000923   0.000113   0.000066   0.000247   0.000109  -0.000010
    15  H    0.000590   0.000051   0.000056   0.000290   0.000024   0.000001
    16  C   -0.007604   0.000126   0.001055   0.004890   0.003244  -0.000004
    17  H   -0.000126   0.000009   0.000007   0.000487   0.000007   0.000000
    18  H    0.003096  -0.000057  -0.000207  -0.000541  -0.000782  -0.000004
    19  H    0.000131  -0.000002  -0.000051   0.000296  -0.000381   0.000004
               7          8          9         10         11         12
     1  C    0.004216   0.000092   0.000000  -0.000006   0.000022  -0.028455
     2  H   -0.000284  -0.000071   0.000001   0.000001   0.000003  -0.002447
     3  H   -0.000079  -0.000005   0.000000   0.000000   0.000001  -0.002486
     4  C   -0.000787   0.000356   0.000016  -0.000020  -0.000075   0.011968
     5  C   -0.003847  -0.002329  -0.000165   0.000179   0.000313  -0.004861
     6  H    0.000045   0.000123  -0.000004  -0.000005   0.000012  -0.000194
     7  H    0.000717   0.001230   0.000037  -0.000121  -0.000058   0.000495
     8  C    0.001230   0.000810   0.000182  -0.000013  -0.000573   0.001720
     9  H    0.000037   0.000182   0.000029  -0.000013  -0.000026   0.000016
    10  H   -0.000121  -0.000013  -0.000013  -0.000087   0.000086  -0.000022
    11  H   -0.000058  -0.000573  -0.000026   0.000086   0.000388  -0.000294
    12  C    0.000495   0.001720   0.000016  -0.000022  -0.000294   0.075571
    13  H   -0.000082  -0.001073  -0.000013   0.000015   0.000432  -0.014758
    14  H   -0.000014  -0.000051   0.000000   0.000001   0.000018  -0.001493
    15  H   -0.000003  -0.000007   0.000000   0.000000   0.000004  -0.000768
    16  C   -0.000750  -0.000593  -0.000021   0.000007   0.000042  -0.004718
    17  H   -0.000007   0.000001   0.000000   0.000000   0.000000  -0.000259
    18  H    0.000272   0.000151   0.000009  -0.000003  -0.000006   0.000428
    19  H    0.000106   0.000101   0.000014   0.000001  -0.000028   0.001163
              13         14         15         16         17         18
     1  C    0.002539   0.000923   0.000590  -0.007604  -0.000126   0.003096
     2  H    0.000143   0.000113   0.000051   0.000126   0.000009  -0.000057
     3  H    0.000153   0.000066   0.000056   0.001055   0.000007  -0.000207
     4  C   -0.002762   0.000247   0.000290   0.004890   0.000487  -0.000541
     5  C    0.001099   0.000109   0.000024   0.003244   0.000007  -0.000782
     6  H    0.000041  -0.000010   0.000001  -0.000004   0.000000  -0.000004
     7  H   -0.000082  -0.000014  -0.000003  -0.000750  -0.000007   0.000272
     8  C   -0.001073  -0.000051  -0.000007  -0.000593   0.000001   0.000151
     9  H   -0.000013   0.000000   0.000000  -0.000021   0.000000   0.000009
    10  H    0.000015   0.000001   0.000000   0.000007   0.000000  -0.000003
    11  H    0.000432   0.000018   0.000004   0.000042   0.000000  -0.000006
    12  C   -0.014758  -0.001493  -0.000768  -0.004718  -0.000259   0.000428
    13  H    0.031565   0.000704   0.000431   0.001015   0.000062  -0.000084
    14  H    0.000704  -0.001934   0.000332   0.000032   0.000001  -0.000003
    15  H    0.000431   0.000332  -0.001997   0.000083  -0.000010  -0.000009
    16  C    0.001015   0.000032   0.000083   0.011824   0.000007  -0.002849
    17  H    0.000062   0.000001  -0.000010   0.000007  -0.000669  -0.000039
    18  H   -0.000084  -0.000003  -0.000009  -0.002849  -0.000039   0.000584
    19  H   -0.000769  -0.000005  -0.000012  -0.001030   0.000085   0.000874
              19
     1  C    0.000131
     2  H   -0.000002
     3  H   -0.000051
     4  C    0.000296
     5  C   -0.000381
     6  H    0.000004
     7  H    0.000106
     8  C    0.000101
     9  H    0.000014
    10  H    0.000001
    11  H   -0.000028
    12  C    0.001163
    13  H   -0.000769
    14  H   -0.000005
    15  H   -0.000012
    16  C   -0.001030
    17  H    0.000085
    18  H    0.000874
    19  H   -0.000733
 Mulliken charges and spin densities:
               1          2
     1  C   -0.285513   1.041550
     2  H    0.126997  -0.030338
     3  H    0.126321  -0.030301
     4  C    0.080206  -0.039124
     5  C   -0.242417   0.004953
     6  H    0.124293  -0.000461
     7  H    0.133353   0.001086
     8  C   -0.454850   0.000050
     9  H    0.146098   0.000060
    10  H    0.142989   0.000001
    11  H    0.143552   0.000261
    12  C   -0.448036   0.030606
    13  H    0.150376   0.018658
    14  H    0.140200  -0.000965
    15  H    0.140916  -0.000946
    16  C   -0.444461   0.004757
    17  H    0.136440  -0.000444
    18  H    0.143598   0.000831
    19  H    0.139937  -0.000235
 Sum of Mulliken charges =   0.00000   1.00000
 Mulliken charges and spin densities with hydrogens summed into heavy atoms:
               1          2
     1  C   -0.032195   0.980911
     4  C    0.080206  -0.039124
     5  C    0.015229   0.005578
     8  C   -0.022211   0.000372
    12  C   -0.016544   0.047354
    16  C   -0.024485   0.004909
 Electronic spatial extent (au):  <R**2>=            682.7380
 Charge=              0.0000 electrons
 Dipole moment (field-independent basis, Debye):
    X=             -0.1320    Y=             -0.1606    Z=              0.5911  Tot=              0.6266
 Quadrupole moment (field-independent basis, Debye-Ang):
   XX=            -40.9135   YY=            -40.5311   ZZ=            -42.0687
   XY=             -0.1547   XZ=              1.1655   YZ=             -0.0390
 Traceless Quadrupole moment (field-independent basis, Debye-Ang):
   XX=              0.2576   YY=              0.6400   ZZ=             -0.8976
   XY=             -0.1547   XZ=              1.1655   YZ=             -0.0390
 Octapole moment (field-independent basis, Debye-Ang**2):
  XXX=              0.9030  YYY=             -2.1332  ZZZ=              3.3600  XYY=             -0.5286
  XXY=             -0.0086  XXZ=              2.1350  XZZ=             -3.4782  YZZ=              1.1986
  YYZ=             -0.2694  XYZ=              0.1258
 Hexadecapole moment (field-independent basis, Debye-Ang**3):
 XXXX=           -484.1762 YYYY=           -237.3047 ZZZZ=           -229.0157 XXXY=              3.5018
 XXXZ=             10.5215 YYYX=             -2.7149 YYYZ=             -0.0220 ZZZX=              5.0731
 ZZZY=             -1.9278 XXYY=           -120.7642 XXZZ=           -122.1016 YYZZ=            -77.0850
 XXYZ=              1.2345 YYXZ=             -0.3649 ZZXY=              1.0567
 N-N= 2.543122857874D+02 E-N=-1.054170447878D+03  KE= 2.339803893947D+02
                          Isotropic Fermi Contact Couplings
        Atom                 a.u.       MegaHertz       Gauss      10(-4) cm-1
     1  C(13)              0.30293     340.54754     121.51583     113.59443
     2  H(1)              -0.00414     -18.52467      -6.61006      -6.17917
     3  H(1)              -0.00416     -18.58069      -6.63005      -6.19785
     4  C(13)             -0.00946     -10.63848      -3.79607      -3.54861
     5  C(13)              0.00816       9.17719       3.27465       3.06118
     6  H(1)              -0.00022      -0.99296      -0.35431      -0.33122
     7  H(1)              -0.00017      -0.75226      -0.26842      -0.25093
     8  C(13)             -0.00007      -0.08288      -0.02957      -0.02765
     9  H(1)               0.00004       0.19916       0.07106       0.06643
    10  H(1)               0.00003       0.13462       0.04804       0.04490
    11  H(1)               0.00005       0.22782       0.08129       0.07599
    12  C(13)              0.04849      54.50833      19.44993      18.18202
    13  H(1)               0.00711      31.78365      11.34120      10.60189
    14  H(1)              -0.00026      -1.17417      -0.41897      -0.39166
    15  H(1)              -0.00001      -0.02330      -0.00831      -0.00777
    16  C(13)              0.00728       8.18412       2.92030       2.72993
    17  H(1)              -0.00021      -0.93842      -0.33485      -0.31302
    18  H(1)              -0.00019      -0.82928      -0.29591      -0.27662
    19  H(1)              -0.00012      -0.55842      -0.19926      -0.18627
 --------------------------------------------------------
       Center         ----  Spin Dipole Couplings  ----
                      3XX-RR        3YY-RR        3ZZ-RR
 --------------------------------------------------------
     1   Atom       -0.466743     -0.244186      0.710929
     2   Atom       -0.059028      0.071810     -0.012782
     3   Atom        0.046221     -0.039417     -0.006804
     4   Atom       -0.004492     -0.021150      0.025642
     5   Atom        0.017842     -0.008781     -0.009061
     6   Atom        0.008270     -0.002944     -0.005327
     7   Atom        0.013966     -0.008355     -0.005611
     8   Atom        0.004195     -0.002491     -0.001703
     9   Atom        0.002418     -0.001201     -0.001218
    10   Atom        0.002699     -0.001482     -0.001216
    11   Atom        0.002607     -0.002053     -0.000554
    12   Atom       -0.026732     -0.024689      0.051421
    13   Atom        0.000161     -0.003791      0.003630
    14   Atom       -0.005798      0.002555      0.003243
    15   Atom       -0.002891     -0.008791      0.011683
    16   Atom       -0.008135      0.009068     -0.000933
    17   Atom       -0.005986      0.005735      0.000251
    18   Atom       -0.003921      0.009649     -0.005728
    19   Atom       -0.001075      0.001525     -0.000450
 --------------------------------------------------------
                        XY            XZ            YZ
 --------------------------------------------------------
     1   Atom       -0.056063      0.129018     -0.529617
     2   Atom        0.003987      0.006347      0.003574
     3   Atom        0.032821      0.038173     -0.008469
     4   Atom       -0.004466     -0.027042      0.002048
     5   Atom        0.005357     -0.006289     -0.001404
     6   Atom        0.007007     -0.002034     -0.001023
     7   Atom       -0.003162      0.003409     -0.000746
     8   Atom       -0.000488     -0.001500     -0.000019
     9   Atom       -0.001790     -0.001296      0.000439
    10   Atom       -0.000012     -0.000501     -0.000013
    11   Atom        0.000040     -0.001848     -0.000036
    12   Atom        0.003753     -0.013557     -0.019579
    13   Atom       -0.002636     -0.005713      0.001286
    14   Atom        0.002657     -0.005430     -0.007741
    15   Atom        0.000037      0.004215      0.001284
    16   Atom       -0.006203     -0.004285      0.013283
    17   Atom        0.000484      0.000099      0.007947
    18   Atom       -0.007854     -0.001619      0.001893
    19   Atom       -0.003446     -0.002666      0.003251
 --------------------------------------------------------


 ---------------------------------------------------------------------------------
              Anisotropic Spin Dipole Couplings in Principal Axis System
 ---------------------------------------------------------------------------------

       Atom             a.u.   MegaHertz   Gauss  10(-4) cm-1        Axes

              Baa    -0.4815   -64.607   -23.054   -21.551  0.8124 -0.4953 -0.3079
     1 C(13)  Bbb    -0.4789   -64.265   -22.931   -21.436  0.5748  0.7689  0.2799
              Bcc     0.9604   128.872    45.985    42.987  0.0981 -0.4044  0.9093
 
              Baa    -0.0600   -32.000   -11.418   -10.674  0.9910 -0.0264 -0.1313
     2 H(1)   Bbb    -0.0121    -6.469    -2.308    -2.158  0.1299 -0.0483  0.9903
              Bcc     0.0721    38.468    13.726    12.832  0.0325  0.9985  0.0445
 
              Baa    -0.0600   -31.999   -11.418   -10.674 -0.4021  0.8144  0.4184
     3 H(1)   Bbb    -0.0122    -6.490    -2.316    -2.165 -0.2325 -0.5328  0.8137
              Bcc     0.0721    38.489    13.734    12.839  0.8856  0.2299  0.4036
 
              Baa    -0.0237    -3.187    -1.137    -1.063  0.5761  0.7665  0.2837
     4 C(13)  Bbb    -0.0180    -2.421    -0.864    -0.808  0.6403 -0.6390  0.4263
              Bcc     0.0418     5.608     2.001     1.871 -0.5081  0.0640  0.8589
 
              Baa    -0.0105    -1.412    -0.504    -0.471  0.1568  0.2812  0.9467
     5 C(13)  Bbb    -0.0098    -1.311    -0.468    -0.437 -0.2373  0.9412 -0.2403
              Bcc     0.0203     2.723     0.972     0.908  0.9587  0.1870 -0.2143
 
              Baa    -0.0063    -3.369    -1.202    -1.124 -0.4256  0.9030  0.0593
     6 H(1)   Bbb    -0.0056    -3.001    -1.071    -1.001  0.1435  0.0026  0.9896
              Bcc     0.0119     6.369     2.273     2.125  0.8935  0.4297 -0.1307
 
              Baa    -0.0088    -4.707    -1.679    -1.570  0.1221  0.9875  0.0997
     7 H(1)   Bbb    -0.0062    -3.293    -1.175    -1.098 -0.1782 -0.0770  0.9810
              Bcc     0.0150     7.999     2.854     2.668  0.9764 -0.1376  0.1665
 
              Baa    -0.0026    -0.343    -0.122    -0.114  0.1221  0.9640  0.2361
     8 C(13)  Bbb    -0.0020    -0.272    -0.097    -0.091  0.2073 -0.2574  0.9438
              Bcc     0.0046     0.615     0.220     0.205  0.9706 -0.0663 -0.2312
 
              Baa    -0.0020    -1.044    -0.372    -0.348  0.4252  0.8768  0.2244
     9 H(1)   Bbb    -0.0016    -0.848    -0.303    -0.283  0.1606 -0.3171  0.9347
              Bcc     0.0035     1.892     0.675     0.631  0.8907 -0.3614 -0.2756
 
              Baa    -0.0015    -0.791    -0.282    -0.264  0.0113  0.9975  0.0705
    10 H(1)   Bbb    -0.0013    -0.682    -0.243    -0.228  0.1245 -0.0713  0.9896
              Bcc     0.0028     1.474     0.526     0.492  0.9922 -0.0024 -0.1250
 
              Baa    -0.0021    -1.096    -0.391    -0.365  0.0019  0.9997  0.0262
    11 H(1)   Bbb    -0.0014    -0.750    -0.267    -0.250  0.4185 -0.0246  0.9079
              Bcc     0.0035     1.845     0.658     0.616  0.9082  0.0093 -0.4184
 
              Baa    -0.0297    -3.989    -1.424    -1.331 -0.5462  0.8305  0.1091
    12 C(13)  Bbb    -0.0288    -3.858    -1.377    -1.287  0.8217  0.5059  0.2625
              Bcc     0.0585     7.848     2.800     2.618 -0.1628 -0.2330  0.9587
 
              Baa    -0.0055    -2.957    -1.055    -0.986  0.6230  0.7280  0.2860
    13 H(1)   Bbb    -0.0029    -1.540    -0.549    -0.514 -0.5014  0.6524 -0.5684
              Bcc     0.0084     4.496     1.604     1.500 -0.6004  0.2107  0.7715
 
              Baa    -0.0085    -4.516    -1.612    -1.506  0.8612  0.1363  0.4896
    14 H(1)   Bbb    -0.0040    -2.144    -0.765    -0.715 -0.4078  0.7603  0.5056
              Bcc     0.0125     6.660     2.376     2.222 -0.3033 -0.6351  0.7104
 
              Baa    -0.0089    -4.739    -1.691    -1.581  0.0440  0.9965 -0.0712
    15 H(1)   Bbb    -0.0040    -2.137    -0.762    -0.713  0.9652 -0.0608 -0.2544
              Bcc     0.0129     6.875     2.453     2.293  0.2578  0.0575  0.9645
 
              Baa    -0.0101    -1.361    -0.485    -0.454  0.8858  0.4210 -0.1951
    16 C(13)  Bbb    -0.0101    -1.358    -0.485    -0.453  0.3866 -0.4371  0.8121
              Bcc     0.0203     2.719     0.970     0.907 -0.2566  0.7948  0.5500
 
              Baa    -0.0061    -3.233    -1.154    -1.078  0.9549 -0.1919  0.2266
    17 H(1)   Bbb    -0.0054    -2.856    -1.019    -0.953 -0.2958 -0.5480  0.7825
              Bcc     0.0114     6.089     2.173     2.031  0.0259  0.8142  0.5800
 
              Baa    -0.0078    -4.151    -1.481    -1.384  0.8649  0.3508  0.3592
    18 H(1)   Bbb    -0.0058    -3.075    -1.097    -1.026 -0.2802 -0.2564  0.9251
              Bcc     0.0135     7.225     2.578     2.410 -0.4166  0.9007  0.1235
 
              Baa    -0.0036    -1.922    -0.686    -0.641  0.8611  0.3378  0.3800
    19 H(1)   Bbb    -0.0029    -1.522    -0.543    -0.508 -0.0877 -0.6375  0.7654
              Bcc     0.0065     3.444     1.229     1.149 -0.5008  0.6925  0.5193
 

 ---------------------------------------------------------------------------------

 No NMR shielding tensors so no spin-rotation constants.
 Leave Link  601 at Sat Nov  7 02:13:22 2015, MaxMem=   805306368 cpu:         1.6
 (Enter /home/hetanjin/apps/g09D01/g09/l701.exe)
 Compute integral first derivatives.
 ... and contract with generalized density number  0.
 Leave Link  701 at Sat Nov  7 02:13:22 2015, MaxMem=   805306368 cpu:         1.1
 (Enter /home/hetanjin/apps/g09D01/g09/l702.exe)
 L702 exits ... SP integral derivatives will be done elsewhere.
 Leave Link  702 at Sat Nov  7 02:13:22 2015, MaxMem=   805306368 cpu:         0.1
 (Enter /home/hetanjin/apps/g09D01/g09/l703.exe)
 Compute integral first derivatives, UseDBF=F ICtDFT=           0.
 Integral derivatives from FoFJK, PRISM(SPDF).
 Calling FoFJK, ICntrl=      2127 FMM=F ISym2X=0 I1Cent= 0 IOpClX= 1 NMat=1 NMatS=1 NMatT=0.
 FoFJK:  IHMeth= 1 ICntrl=    2127 DoSepK=F KAlg= 0 I1Cent=   0 FoldK=F
 IRaf=         0 NMat=   1 IRICut=       1 DoRegI=T DoRafI=F ISym2E= 0.
 FoFCou: FMM=F IPFlag=           0 FMFlag=      100000 FMFlg1=         800
         NFxFlg=           0 DoJE=F BraDBF=F KetDBF=F FulRan=T
         wScrn=  0.000000 ICntrl=    2127 IOpCl=  1 I1Cent=           0 NGrid=           0
         NMat0=    1 NMatS0=      1 NMatT0=    0 NMatD0=    1 NMtDS0=    0 NMtDT0=    0
 Symmetry not used in FoFCou.
 Leave Link  703 at Sat Nov  7 02:13:32 2015, MaxMem=   805306368 cpu:        36.2
 (Enter /home/hetanjin/apps/g09D01/g09/l716.exe)
 Dipole        =-5.19280599D-02-6.31973422D-02 2.32543221D-01
 ***** Axes restored to original set *****
 -------------------------------------------------------------------
 Center     Atomic                   Forces (Hartrees/Bohr)
 Number     Number              X              Y              Z
 -------------------------------------------------------------------
      1        6          -0.004886746   -0.029801128   -0.034309807
      2        1          -0.001692116    0.011550562    0.008899383
      3        1           0.002948346    0.006019904    0.013036570
      4        6           0.001031517    0.012019571    0.014822150
      5        6          -0.001617029    0.001030746    0.000449094
      6        1           0.000082808   -0.000005571   -0.000003764
      7        1           0.000391046   -0.000404274   -0.000615335
      8        6           0.000100807   -0.000238240   -0.000167014
      9        1          -0.000009106    0.000027188    0.000003948
     10        1           0.000103196    0.000004474   -0.000017730
     11        1          -0.000205400   -0.000085560   -0.000062965
     12        6           0.004964050    0.001486470   -0.003654238
     13        1          -0.000691642    0.000294205    0.001346660
     14        1          -0.000136173   -0.000350613    0.000006172
     15        1          -0.000281765   -0.000291186   -0.000236397
     16        6          -0.000287054   -0.001007535    0.001477592
     17        1           0.000017607    0.000059811   -0.000026646
     18        1           0.000170032   -0.000143723   -0.000736830
     19        1          -0.000002379   -0.000165102   -0.000210843
 -------------------------------------------------------------------
 Cartesian Forces:  Max     0.034309807 RMS     0.007177423
 Leave Link  716 at Sat Nov  7 02:13:32 2015, MaxMem=   805306368 cpu:         0.1
 (Enter /home/hetanjin/apps/g09D01/g09/l103.exe)

 GradGradGradGradGradGradGradGradGradGradGradGradGradGradGradGradGradGrad
 Berny optimization.
 FormGI is forming the generalized inverse of G from B-inverse, IUseBI=4.
 Internal  Forces:  Max     0.013507312 RMS     0.003221724
 Search for a local minimum.
 Step number   1 out of a maximum of  103
 All quantities printed in internal units (Hartrees-Bohrs-Radians)
 RMS Force = .32217D-02 SwitMx=.10000D-02 MixMth= 1
 Mixed Optimization -- RFO/linear search
 Second derivative matrix not updated -- first step.
 ITU=  0
     Eigenvalues ---    0.00230   0.00230   0.00230   0.00230   0.00316
     Eigenvalues ---    0.03068   0.03552   0.04398   0.04674   0.05293
     Eigenvalues ---    0.05319   0.05319   0.05393   0.05432   0.05447
     Eigenvalues ---    0.05447   0.05522   0.09014   0.12691   0.14927
     Eigenvalues ---    0.15195   0.16000   0.16000   0.16000   0.16000
     Eigenvalues ---    0.16000   0.16000   0.16000   0.16000   0.16000
     Eigenvalues ---    0.16000   0.16000   0.21977   0.27481   0.28370
     Eigenvalues ---    0.28418   0.28418   0.29059   0.33721   0.33721
     Eigenvalues ---    0.33969   0.33969   0.33990   0.34015   0.34017
     Eigenvalues ---    0.34017   0.34112   0.34156   0.34156   0.34166
     Eigenvalues ---    0.34166
 RFO step:  Lambda=-1.36057052D-02 EMin= 2.30000000D-03
 Linear search not attempted -- first point.
 Iteration  1 RMS(Cart)=  0.04581458 RMS(Int)=  0.00838812
 Iteration  2 RMS(Cart)=  0.00662171 RMS(Int)=  0.00571870
 Iteration  3 RMS(Cart)=  0.00009122 RMS(Int)=  0.00571830
 Iteration  4 RMS(Cart)=  0.00000205 RMS(Int)=  0.00571830
 Iteration  5 RMS(Cart)=  0.00000006 RMS(Int)=  0.00571830
 ITry= 1 IFail=0 DXMaxC= 1.97D-01 DCOld= 1.00D+10 DXMaxT= 3.00D-01 DXLimC= 3.00D+00 Rises=F
 Variable       Old X    -DE/DX   Delta X   Delta X   Delta X     New X
                                 (Linear)    (Quad)   (Total)
    R1        2.07346  -0.00034   0.00000  -0.00097  -0.00097   2.07250
    R2        2.07305  -0.00033   0.00000  -0.00093  -0.00093   2.07212
    R3        2.91336  -0.01064   0.00000  -0.03578  -0.03578   2.87758
    R4        2.93287   0.00115   0.00000   0.00400   0.00400   2.93686
    R5        2.91234   0.00165   0.00000   0.00554   0.00554   2.91789
    R6        2.91234   0.00113   0.00000   0.00378   0.00378   2.91612
    R7        2.07803   0.00000   0.00000   0.00000   0.00000   2.07803
    R8        2.07803  -0.00073   0.00000  -0.00208  -0.00208   2.07595
    R9        2.89880   0.00016   0.00000   0.00052   0.00052   2.89932
   R10        2.07051  -0.00001   0.00000  -0.00003  -0.00003   2.07048
   R11        2.07142  -0.00008   0.00000  -0.00022  -0.00022   2.07120
   R12        2.07051   0.00012   0.00000   0.00033   0.00033   2.07084
   R13        2.07067   0.00026   0.00000   0.00074   0.00074   2.07141
   R14        2.07382  -0.00019   0.00000  -0.00053  -0.00053   2.07329
   R15        2.07301  -0.00010   0.00000  -0.00028  -0.00028   2.07273
   R16        2.07301  -0.00001   0.00000  -0.00004  -0.00004   2.07297
   R17        2.07382  -0.00070   0.00000  -0.00200  -0.00200   2.07182
   R18        2.07067   0.00011   0.00000   0.00031   0.00031   2.07098
    A1        1.88010  -0.00072   0.00000   0.12292   0.08774   1.96784
    A2        1.94072   0.01351   0.00000   0.14511   0.11714   2.05786
    A3        1.93954   0.01350   0.00000   0.14513   0.11715   2.05669
    A4        1.88414   0.00094   0.00000   0.00750   0.00743   1.89157
    A5        1.89923  -0.00269   0.00000  -0.02681  -0.02677   1.87246
    A6        1.89923   0.00114   0.00000   0.00898   0.00890   1.90813
    A7        1.93449   0.00079   0.00000   0.00347   0.00347   1.93796
    A8        1.93449  -0.00079   0.00000   0.00434   0.00427   1.93876
    A9        1.91142   0.00056   0.00000   0.00203   0.00204   1.91346
   A10        1.88615  -0.00001   0.00000  -0.00062  -0.00062   1.88554
   A11        1.88616  -0.00028   0.00000  -0.00228  -0.00228   1.88388
   A12        2.04055  -0.00001   0.00000  -0.00003  -0.00003   2.04052
   A13        1.84789  -0.00002   0.00000  -0.00020  -0.00020   1.84769
   A14        1.89691   0.00001   0.00000   0.00031   0.00031   1.89722
   A15        1.89691   0.00032   0.00000   0.00278   0.00278   1.89969
   A16        1.95529  -0.00003   0.00000  -0.00011  -0.00011   1.95518
   A17        1.92445  -0.00016   0.00000  -0.00120  -0.00120   1.92325
   A18        1.95528   0.00030   0.00000   0.00196   0.00196   1.95725
   A19        1.87221   0.00004   0.00000  -0.00015  -0.00015   1.87206
   A20        1.88042  -0.00008   0.00000  -0.00001  -0.00001   1.88041
   A21        1.87221  -0.00008   0.00000  -0.00057  -0.00057   1.87164
   A22        1.95325  -0.00252   0.00000  -0.01663  -0.01662   1.93663
   A23        1.94002   0.00076   0.00000   0.00543   0.00541   1.94543
   A24        1.93250   0.00095   0.00000   0.00655   0.00653   1.93903
   A25        1.88195   0.00066   0.00000   0.00179   0.00179   1.88374
   A26        1.87429   0.00052   0.00000   0.00099   0.00100   1.87529
   A27        1.87869  -0.00032   0.00000   0.00227   0.00221   1.88090
   A28        1.93250  -0.00003   0.00000  -0.00047  -0.00048   1.93202
   A29        1.94002  -0.00034   0.00000  -0.00188  -0.00188   1.93814
   A30        1.95325  -0.00008   0.00000  -0.00018  -0.00018   1.95307
   A31        1.87869   0.00012   0.00000   0.00017   0.00017   1.87886
   A32        1.87429   0.00004   0.00000   0.00013   0.00013   1.87443
   A33        1.88195   0.00031   0.00000   0.00237   0.00237   1.88432
    D1       -1.04737   0.00870   0.00000   0.18256   0.18888  -0.85850
    D2        1.05335   0.00866   0.00000   0.17571   0.18201   1.23536
    D3        3.13509   0.00844   0.00000   0.16779   0.17404  -2.97406
    D4        3.14159  -0.00849   0.00000  -0.16745  -0.17371   2.96788
    D5       -1.04087  -0.00853   0.00000  -0.17430  -0.18058  -1.22145
    D6        1.04086  -0.00875   0.00000  -0.18222  -0.18854   0.85232
    D7        0.99614  -0.00130   0.00000  -0.01508  -0.01509   0.98105
    D8       -0.99615  -0.00113   0.00000  -0.01339  -0.01340  -1.00954
    D9        3.14159  -0.00131   0.00000  -0.01520  -0.01521   3.12638
   D10       -1.08232   0.00093   0.00000   0.01094   0.01095  -1.07137
   D11       -3.07460   0.00110   0.00000   0.01263   0.01264  -3.06196
   D12        1.06313   0.00092   0.00000   0.01082   0.01083   1.07396
   D13        3.07459   0.00021   0.00000   0.00301   0.00301   3.07760
   D14        1.08231   0.00038   0.00000   0.00471   0.00470   1.08701
   D15       -1.06314   0.00021   0.00000   0.00289   0.00289  -1.06025
   D16        3.09341   0.00005   0.00000   0.00019   0.00019   3.09361
   D17       -1.08437  -0.00032   0.00000  -0.00518  -0.00518  -1.08955
   D18        1.00293   0.00041   0.00000   0.00555   0.00558   1.00851
   D19       -1.12043   0.00001   0.00000  -0.00515  -0.00514  -1.12557
   D20        0.98498  -0.00035   0.00000  -0.01052  -0.01052   0.97446
   D21        3.07227   0.00038   0.00000   0.00022   0.00025   3.07252
   D22        1.01930  -0.00007   0.00000   0.00400   0.00397   1.02327
   D23        3.12471  -0.00044   0.00000  -0.00137  -0.00141   3.12330
   D24       -1.07118   0.00029   0.00000   0.00937   0.00936  -1.06183
   D25       -1.00294   0.00126   0.00000   0.01614   0.01615  -0.98679
   D26        1.08436   0.00117   0.00000   0.01481   0.01483   1.09918
   D27       -3.09342   0.00128   0.00000   0.01641   0.01643  -3.07700
   D28       -3.07228  -0.00013   0.00000  -0.00119  -0.00120  -3.07348
   D29       -0.98499  -0.00022   0.00000  -0.00252  -0.00253  -0.98751
   D30        1.12042  -0.00012   0.00000  -0.00092  -0.00093   1.11949
   D31        1.07117  -0.00099   0.00000  -0.00983  -0.00984   1.06134
   D32       -3.12472  -0.00108   0.00000  -0.01115  -0.01116  -3.13588
   D33       -1.01931  -0.00097   0.00000  -0.00955  -0.00957  -1.02888
   D34        1.05782   0.00001   0.00000   0.00055   0.00055   1.05836
   D35        3.14158  -0.00006   0.00000  -0.00053  -0.00053   3.14105
   D36       -1.05785  -0.00007   0.00000  -0.00078  -0.00078  -1.05862
   D37       -3.08547  -0.00001   0.00000  -0.00005  -0.00005  -3.08552
   D38       -1.00171  -0.00008   0.00000  -0.00113  -0.00113  -1.00284
   D39        1.08205  -0.00009   0.00000  -0.00138  -0.00138   1.08067
   D40       -1.08208   0.00014   0.00000   0.00134   0.00134  -1.08074
   D41        1.00168   0.00007   0.00000   0.00027   0.00027   1.00195
   D42        3.08544   0.00006   0.00000   0.00002   0.00002   3.08546
         Item               Value     Threshold  Converged?
 Maximum Force            0.013507     0.000015     NO 
 RMS     Force            0.003222     0.000010     NO 
 Maximum Displacement     0.197355     0.000060     NO 
 RMS     Displacement     0.043140     0.000040     NO 
 Predicted change in Energy=-9.824611D-03
 Lowest energy point so far.  Saving SCF results.
 GradGradGradGradGradGradGradGradGradGradGradGradGradGradGradGradGradGrad

 Leave Link  103 at Sat Nov  7 02:13:34 2015, MaxMem=   805306368 cpu:         4.5
 (Enter /home/hetanjin/apps/g09D01/g09/l202.exe)
                          Input orientation:                          
 ---------------------------------------------------------------------
 Center     Atomic      Atomic             Coordinates (Angstroms)
 Number     Number       Type             X           Y           Z
 ---------------------------------------------------------------------
      1          6           0        1.614197    0.943759   -0.059173
      2          1           0        1.600601    1.740783   -0.812404
      3          1           0        2.616662    0.529685    0.101960
      4          6           0        0.432903   -0.016153   -0.015880
      5          6           0       -0.877568    0.819282   -0.014579
      6          1           0       -0.866639    1.471069   -0.900175
      7          1           0       -0.849236    1.491773    0.853610
      8          6           0       -2.198496    0.039105    0.005798
      9          1           0       -2.291427   -0.588176    0.899290
     10          1           0       -3.047418    0.732372    0.005409
     11          1           0       -2.308600   -0.609600   -0.870518
     12          6           0        0.520314   -0.908173   -1.273195
     13          1           0       -0.278934   -1.658315   -1.278114
     14          1           0        0.433231   -0.315806   -2.192556
     15          1           0        1.475820   -1.445460   -1.310459
     16          6           0        0.533452   -0.893007    1.249947
     17          1           0        1.491256   -1.427086    1.276533
     18          1           0        0.468014   -0.282361    2.158153
     19          1           0       -0.262433   -1.645313    1.290409
 ---------------------------------------------------------------------
                    Distance matrix (angstroms):
                    1          2          3          4          5
     1  C    0.000000
     2  H    1.096718   0.000000
     3  H    1.096520   1.826253   0.000000
     4  C    1.522748   2.254949   2.254025   0.000000
     5  C    2.495272   2.761705   3.508147   1.554120   0.000000
     6  H    2.672057   2.483490   3.744844   2.163936   1.099648
     7  H    2.683653   2.973098   3.674648   2.161882   1.098544
     8  C    3.919088   4.242440   4.841039   2.632068   1.534256
     9  H    4.303414   4.847868   5.096536   2.930310   2.194332
    10  H    4.666852   4.825950   5.668527   3.559969   2.171681
    11  H    4.296457   4.561746   5.147998   2.932307   2.195948
    12  C    2.469835   2.897640   2.890184   1.544079   2.553878
    13  H    3.441010   3.911956   3.882837   2.190124   2.844885
    14  H    2.744542   2.738089   3.278266   2.197205   2.783919
    15  H    2.700599   3.227348   2.682843   2.192380   3.513801
    16  C    2.501103   3.511261   2.771587   1.543147   2.553809
    17  H    2.723992   3.796184   2.544625   2.186589   3.510623
    18  H    2.780943   3.768299   3.082862   2.190553   2.782980
    19  H    3.470794   4.399815   3.798976   2.200919   2.855804
                    6          7          8          9         10
     6  H    0.000000
     7  H    1.753993   0.000000
[...]
 01122676,0.00857644,0.00180845,0.01150744,0.46901047,-0.00496405,0.019
 51290,-0.05208108,0.01156514,0.01108246,0.00248105,-0.00511248,-0.0052
 9716,0.00173565,0.00174419,-0.03097707,0.43649575,-0.03663913,0.008735
 47,-0.00163250,0.00149540,0.00178531,-0.00069355,-0.00265966,-0.001428
 73,0.00060743,-0.12697501,0.03538754,0.00412477,0.44773144,-0.01453621
 ,0.01118692,-0.00194492,-0.00159694,0.00041054,0.00050333,-0.00455909,
 -0.00292061,-0.00046656,0.03602394,-0.10379343,0.00228473,0.02168415,0
 .52213401,-0.00028424,-0.00111789,-0.00028520,0.00119089,0.00000862,0.
 00040816,-0.00009562,0.00036574,0.00011798,0.00141569,0.00152242,-0.07
 714427,0.00188133,0.00277875,0.59736343,0.00080966,0.00167359,-0.00104
 511,-0.00038401,-0.00070070,0.00016285,0.00031117,-0.00021593,0.000179
 06,-0.00233227,0.01578375,-0.02284173,-0.04723861,-0.00100744,0.001755
 76,0.05894921,-0.00157936,0.00021767,-0.00064302,0.00016531,0.00064214
 ,-0.00008573,-0.00000363,0.00014759,-0.00018477,0.00154188,-0.01282988
 ,0.01695513,-0.00077207,-0.13189517,0.11647505,0.00151316,0.14271892,0
 .00065590,0.00052052,0.00019748,-0.00063530,-0.00058142,0.00022518,-0.
 00010754,-0.00045592,0.00015114,0.00020514,-0.00049028,-0.00147758,0.0
 0091052,0.11669798,-0.21861894,-0.00184453,-0.12991365,0.23565135,0.00
 103510,0.00091786,0.00025250,-0.00007483,-0.00022661,0.00022480,0.0001
 0575,0.00000167,0.00010855,-0.00130563,0.01716999,0.02220206,-0.047548
 62,-0.00614001,-0.00839410,-0.00044129,0.00009071,0.00007280,0.0588927
 7,-0.00141501,0.00035424,0.00051803,0.00024989,0.00008272,-0.00007196,
 0.00006059,0.00004331,0.00006483,0.00103275,-0.01236036,-0.01545543,-0
 .00599188,-0.14409898,-0.12107739,0.00062639,0.01268702,0.01515919,0.0
 0678631,0.15553722,-0.00036818,-0.00015011,0.00072095,0.00020239,0.000
 09000,-0.00041668,0.00011772,0.00021951,-0.00000663,-0.00010058,0.0009
 1465,-0.00106697,-0.00755150,-0.12127081,-0.20937146,-0.00086462,-0.01
 662056,-0.02190375,0.00859915,0.13431348,0.22493612,-0.00277047,0.0029
 5753,-0.00096971,0.00015534,-0.00024494,0.00011357,-0.00056384,-0.0007
 6033,0.00046251,-0.02502553,-0.01112235,0.00081042,-0.15957615,-0.0509
 0046,0.00290969,-0.00246942,-0.00144726,0.00014049,-0.00339476,-0.0019
 3360,0.00006241,0.49633999,0.00323097,-0.00301057,0.00089366,0.0002750
 9,0.00020093,-0.00041650,0.00139117,0.00123217,0.00012205,0.01327714,0
 .01460832,-0.00128595,-0.04729611,-0.11412150,0.00149778,-0.01816577,-
 0.01084862,-0.00027309,-0.01909431,-0.01128942,0.00166063,-0.04157239,
 0.55521838,0.00020085,0.00023306,0.00044890,-0.00017143,-0.00023774,-0
 .00004417,0.00001762,-0.00011927,0.00032441,0.00000543,0.00027912,0.00
 005916,0.00248819,0.00119536,-0.08285088,0.02548232,0.01494967,0.00018
 624,-0.02443795,-0.01426053,0.00195876,0.00251356,0.00154344,0.5764824
 2,0.00000438,-0.00007594,-0.00018224,0.00017427,0.00021811,-0.00007241
 ,-0.00007870,0.00013412,-0.00011153,0.00135621,-0.00019672,0.00077889,
 -0.00080330,-0.01689066,0.02599553,-0.00527735,-0.00343525,0.00003045,
 0.00121439,0.00070400,-0.00050018,-0.04988898,-0.00928764,0.01359604,0
 .05363925,-0.00001397,-0.00001118,-0.00001301,0.00005769,0.00011295,-0
 .00003946,-0.00009106,0.00003750,-0.00005565,0.00066229,0.00002628,-0.
 00010281,-0.00089278,-0.01007592,0.01406435,-0.00347680,-0.00091739,-0
 .00045136,0.00053416,0.00012587,-0.00015818,-0.00965499,-0.13264126,0.
 12060240,0.01195555,0.14219186,0.00017993,-0.00013711,0.00007463,-0.00
 001529,-0.00009709,0.00003577,0.00008990,0.00003132,0.00000675,-0.0003
 6016,0.00080218,-0.00034566,0.00114291,-0.00050588,0.00058105,-0.00025
 764,-0.00015059,0.00166905,0.00052917,0.00008419,0.00078587,0.01409410
 ,0.12056266,-0.22880224,-0.01446842,-0.13507542,0.24594449,-0.00122185
 ,0.00122317,-0.00037243,-0.00002621,-0.00005904,0.00008147,-0.00049700
 ,-0.00039076,0.00005707,-0.00232409,-0.00532777,0.00035357,-0.02311887
 ,0.01965305,0.00018203,0.00106715,0.00009841,0.00061319,0.00103704,0.0
 0007150,-0.00067172,-0.20040743,0.13052771,0.00115658,0.00222799,-0.00
 184368,-0.00084341,0.21940952,-0.00057329,0.00068398,-0.00011460,0.000
 00714,-0.00000694,0.00004204,-0.00027845,-0.00021007,-0.00005476,-0.00
 275769,-0.00232871,0.00025613,-0.01621911,0.01250379,0.00011433,0.0007
 3932,0.00083492,-0.00007743,0.00073190,0.00086827,0.00001191,0.1311622
 8,-0.15888698,-0.00109234,0.01341088,-0.01225421,-0.00115160,-0.140869
 60,0.17143969,0.00004232,-0.00004507,0.00016908,0.00000738,-0.00002086
 ,0.00000250,0.00004387,0.00000824,-0.00000369,0.00003791,0.00015954,0.
 00003831,0.00074898,-0.00067147,-0.00106657,0.00018294,-0.00039465,0.0
 0006864,-0.00027206,0.00034791,0.00009843,0.00115671,-0.00107980,-0.04
 933562,-0.02229046,0.01826085,0.00095391,-0.00143123,0.00107580,0.0481
 5003,0.00005788,0.00005873,0.00043326,0.00009663,0.00003666,-0.0001037
 2,0.00000116,0.00007759,-0.00005474,0.00118038,-0.00009243,-0.00066627
 ,-0.00179048,-0.01785451,-0.02535315,0.00122203,0.00072816,0.00045693,
 -0.00522593,-0.00336873,0.00045047,-0.05153327,-0.01536335,-0.02089865
 ,-0.00081696,0.00149262,0.00095631,0.00324360,0.01419544,0.02172364,0.
 05527042,-0.00006988,0.00013603,0.00011779,0.00003588,-0.00000448,-0.0
 0005716,-0.00007843,-0.00000943,-0.00002143,0.00063825,0.00005437,0.00
 019311,-0.00150742,-0.01063521,-0.01365276,0.00052808,0.00014207,0.000
 16436,-0.00343069,-0.00086064,0.00072012,-0.01573670,-0.14109405,-0.12
 312171,0.00217423,0.01319144,0.01572053,-0.00262588,-0.01281552,-0.017
 69100,0.01860724,0.15171925,-0.00025152,0.00017775,0.00008658,0.000039
 23,0.00001765,-0.00002649,-0.00006911,-0.00002907,-0.00003452,0.000262
 13,-0.00077143,-0.00020108,-0.00092780,0.00172338,0.00221605,-0.000576
 37,-0.00008556,0.00082378,0.00069209,0.00039157,0.00160658,-0.02144518
 ,-0.12309937,-0.21893786,-0.00192070,-0.01699463,-0.02105416,0.0008344
 1,0.00099932,0.00051329,0.02219565,0.13767531,0.23489283,-0.00402128,-
 0.01720367,-0.01704297,-0.00057932,0.00036427,0.00077704,-0.00042983,0
 .00004119,0.00084573,-0.07330222,-0.00086651,-0.00564682,-0.00171512,0
 .02016238,0.02365092,0.00082244,-0.00084138,0.00023702,-0.00534584,0.0
 0397985,0.00084432,0.00052610,0.00039635,0.00061253,-0.00019139,-0.000
 03853,0.00027227,0.00027792,-0.00009460,0.00005676,-0.00070213,0.00049
 938,0.00016343,0.57513421,-0.01088606,-0.02131580,-0.01569745,-0.00003
 679,0.00049095,0.00071381,0.00040026,0.00066345,0.00074635,0.00827953,
 -0.09865647,-0.04232699,0.00613013,-0.01411591,-0.01646081,-0.00075917
 ,0.00027149,-0.00059677,0.00232703,-0.00126482,0.00000699,0.00070657,0
 .00066147,0.00122942,0.00006006,-0.00000941,-0.00005723,-0.00041247,-0
 .00057855,-0.00035145,-0.00010385,-0.00019424,-0.00110510,-0.00223582,
 0.52649859,-0.00889993,-0.00873788,-0.00061446,0.00076514,0.00051887,-
 0.00029250,0.00057757,0.00056855,-0.00004899,0.00793553,-0.02954467,-0
 .12268780,0.00418164,-0.00466640,-0.00274586,-0.00090669,0.00147677,0.
 00073876,-0.00099644,0.00104208,0.00061371,-0.00009337,0.00061724,-0.0
 0005709,-0.00001106,-0.00010238,0.00002906,-0.00044755,-0.00017607,0.0
 0015707,0.00007065,-0.00031218,0.00005466,0.00455457,-0.06976192,0.490
 27669,0.00046989,-0.00136008,-0.00119138,-0.00006689,-0.00012335,-0.00
 003862,0.00012129,0.00023305,0.00017696,0.00133325,0.00164953,0.000564
 01,-0.00018582,0.00021574,-0.00047017,-0.00004879,0.00007784,0.0000070
 1,0.00010992,-0.00024708,-0.00006398,-0.00094827,0.00042513,0.00010477
 ,0.00004427,-0.00004772,-0.00004795,0.00009664,0.00020230,0.00010869,-
 0.00117215,0.00108545,0.00087232,-0.19108007,-0.12849730,0.00673924,0.
 20820105,0.00004989,-0.00214549,-0.00401681,-0.00015004,0.00008478,0.0
 0027249,-0.00030757,-0.00013644,0.00008951,-0.01451810,-0.01350412,0.0
 0083749,-0.00092150,0.00008132,0.00041775,0.00005761,-0.00001454,-0.00
 013748,0.00016111,0.00026518,0.00003120,-0.00033615,-0.00032619,-0.000
 85358,0.00005965,0.00007149,0.00006994,0.00011073,0.00043790,0.0004301
 5,0.00123154,0.00026716,0.00053749,-0.12832128,-0.16479941,0.00743063,
 0.14241964,0.17731350,0.00037307,-0.00275359,-0.00276892,-0.00037135,-
 0.00024840,0.00010015,-0.00017160,0.00001129,0.00022944,-0.02056006,-0
 .01813490,-0.00101438,-0.00007908,0.00088272,0.00075635,0.00008314,-0.
 00005350,-0.00000192,-0.00014989,0.00025863,0.00005757,0.00048400,-0.0
 0003908,0.00030875,0.00011170,-0.00002016,-0.00019719,0.00003748,0.000
 12856,-0.00003264,0.00049993,-0.00026250,0.00007376,0.00628903,0.00733
 989,-0.04907034,-0.00838837,-0.00548082,0.05097948,-0.00026144,0.00067
 080,-0.00035757,0.00015170,-0.00015313,-0.00008810,0.00005283,-0.00007
 111,-0.00012177,-0.00164739,-0.00081650,0.00100282,0.00032980,-0.00054
 273,0.00095284,0.00011353,0.00022732,0.00000178,-0.00002336,-0.0000305
 6,-0.00014709,-0.00001484,0.00007670,0.00001280,0.00009006,-0.00002212
 ,-0.00016497,-0.00001251,0.00003028,-0.00004180,-0.00007930,-0.0001774
 6,0.00002324,-0.05181046,0.01209590,-0.01935195,0.00315366,-0.01295041
 ,0.02185515,0.05038614,0.00038137,0.00131834,-0.00046503,0.00004505,-0
 .00008243,0.00003687,-0.00001773,-0.00010110,-0.00004583,-0.00212094,0
 .01061291,-0.01654967,-0.00029003,0.00125131,-0.00024711,-0.00001078,-
 0.00009098,0.00025615,-0.00028513,0.00013919,0.00012611,-0.00000295,0.
 00008372,0.00008930,-0.00003909,-0.00007817,-0.00009450,0.00000451,0.0
 0005359,0.00001201,-0.00001821,-0.00011620,0.00005996,0.01236512,-0.12
 594489,0.11935576,0.00358854,-0.01149751,0.01767606,-0.01384092,0.1347
 3777,0.00103757,0.00141721,0.00116807,-0.00031543,-0.00068159,-0.00011
 611,0.00001884,-0.00012291,0.00000401,-0.00260575,0.01392497,-0.021588
 92,-0.00086509,0.00168083,0.00052456,0.00056630,-0.00103269,0.00053090
 ,-0.00019245,-0.00014049,0.00047456,0.00031919,-0.00023857,-0.00001386
 ,-0.00020533,-0.00003812,0.00016555,0.00008613,0.00000556,0.00002499,0
 .00014969,0.00015804,-0.00012148,-0.01951743,0.11905035,-0.23178900,0.
 00031597,0.00005542,0.00003991,0.02139543,-0.12877278,0.25356296,0.000
 88032,-0.00127371,-0.00023058,0.00002316,-0.00006600,-0.00006197,0.000
 30987,0.00033761,0.00006428,-0.00045696,-0.00007778,-0.00001726,0.0007
 4685,-0.00048036,0.00028711,0.00000662,-0.00006409,-0.00010977,0.00003
 273,0.00010625,0.00003431,0.00002271,0.00000160,-0.00037884,-0.0000132
 1,-0.00000905,0.00010297,0.00000006,0.00015245,0.00016505,0.00034159,0
 .00016237,0.00028213,-0.24913734,0.11278924,0.00620215,-0.02050813,0.0
 1241201,0.00011006,-0.00158842,0.00010828,-0.00031676,0.26878637,0.001
 31281,0.00067778,0.00092864,-0.00007257,-0.00005347,-0.00019874,-0.000
 45049,-0.00020969,-0.00042066,0.01643733,-0.01138520,-0.00010310,-0.00
 131170,-0.00213514,-0.00413810,-0.00030841,0.00039079,-0.00000831,0.00
 145272,-0.00065631,-0.00036567,-0.00070661,-0.00012167,-0.00024807,0.0
 0008843,0.00004583,-0.00004344,0.00010045,0.00017824,0.00016978,0.0001
 7864,0.00019785,0.00039612,0.11230808,-0.11118676,-0.00232837,-0.01993
 218,0.01249256,0.00052678,0.01538329,-0.00886692,-0.00100643,-0.123649
 88,0.11968122,0.00103362,0.00101443,0.00059337,-0.00010753,0.00000725,
 -0.00002789,-0.00036941,-0.00016376,-0.00008911,0.02328537,-0.01296626
 ,-0.00127742,-0.00108601,-0.00258063,-0.00464904,-0.00001930,-0.000278
 39,0.00020249,0.00144584,-0.00116551,0.00013240,-0.00048522,-0.0002727
 3,-0.00002000,0.00002538,0.00005371,0.00001334,0.00005888,0.00006124,0
 .00004993,0.00007900,0.00024653,0.00008184,0.00598140,-0.00215894,-0.0
 4865843,0.00160865,-0.00063906,-0.00081507,-0.02532316,0.01289381,0.00
 192340,-0.00635970,0.00601870,0.05133195,0.00071758,-0.01784084,0.0197
 9361,-0.00333026,-0.00348217,0.00031971,0.00055852,-0.00054222,0.00114
 671,-0.08051971,0.00502680,-0.00170960,-0.00322895,0.01781169,-0.02451
 290,-0.00516108,0.00370366,-0.00075924,0.00084045,-0.00089590,-0.00016
 372,0.00046613,0.00059280,-0.00052601,-0.00077051,0.00043399,-0.000100
 59,0.00018506,-0.00014075,-0.00001688,-0.00019369,-0.00004058,-0.00027
 120,0.00165744,0.00009927,0.00000341,-0.00000281,0.00039078,-0.0007969
 0,0.00006886,0.00011084,0.00032231,-0.00003815,-0.00019792,0.00103695,
 0.57871658,-0.00476631,-0.02150079,0.01936846,-0.00217109,-0.00177287,
 0.00089061,0.00157648,0.00141859,-0.00051951,0.00381406,-0.10116628,0.
 04583819,0.00566363,-0.01321813,0.01550153,0.00243839,-0.00115345,-0.0
 0010517,-0.00067535,0.00007272,0.00061397,0.00055112,0.00061683,-0.001
 22907,-0.00015467,-0.00010371,0.00103785,-0.00043396,-0.00052656,0.000
 41518,0.00007296,-0.00001727,0.00006167,-0.00074088,0.01064387,-0.0154
 8580,-0.00005066,0.00055311,-0.00051926,0.00001886,-0.00229497,-0.0051
 5307,-0.00016030,0.00038716,-0.00050040,0.00771057,0.54411122,0.005003
 89,0.00731895,-0.00410017,-0.00069094,-0.00167311,-0.00003490,-0.00108
 991,-0.00048846,0.00085620,-0.00489265,0.04073485,-0.13835244,-0.00541
 028,0.00432681,-0.00155714,0.00106849,-0.00162990,0.00098455,0.0009476
 5,-0.00134106,0.00077109,0.00013311,-0.00066975,0.00014115,-0.00009206
 ,0.00025725,0.00004131,0.00047560,0.00019951,0.00012100,0.00002155,0.0
 0010452,0.00002748,-0.00172694,0.01316734,-0.03466244,0.00023854,0.001
 41790,0.00158762,0.00021664,-0.00297137,-0.00384479,-0.00039325,0.0011
 3763,0.00149977,-0.00986081,0.05836505,0.49755089,0.00061007,-0.001256
 42,0.00043101,0.00025306,0.00009341,0.00001565,0.00048894,0.00025802,0
 .00004589,-0.00252146,0.00078989,0.00016187,0.00097362,-0.00049024,-0.
 00071103,-0.00006358,0.00022656,-0.00009378,0.00002171,-0.00006119,0.0
 0012305,0.00006151,0.00005635,0.00035183,0.00032733,0.00013458,-0.0002
 7616,-0.00002453,0.00012788,-0.00015311,-0.00001893,-0.00001496,-0.000
 10574,-0.00013397,-0.00013074,0.00046765,-0.00006980,0.00010170,-0.000
 01407,0.00027622,-0.00020163,-0.00010319,0.00044218,-0.00026563,-0.000
 53045,-0.24960952,0.11007032,-0.00270800,0.27024491,0.00180129,0.00055
 904,-0.00013464,-0.00034837,0.00024229,-0.00022556,-0.00097240,-0.0003
 4195,0.00002307,0.01630329,-0.01070617,-0.00045153,-0.00126608,-0.0017
 1581,0.00403917,0.00136487,-0.00064019,0.00039519,-0.00030541,0.000411
 98,0.00000829,-0.00063530,-0.00010141,0.00026293,0.00017235,0.00016179
 ,-0.00038537,0.00009304,0.00016542,-0.00017581,0.00008550,0.00004778,0
 .00003502,-0.00030821,0.00033899,-0.00101776,-0.00011182,0.00002974,0.
 00004370,-0.00024405,-0.00007212,-0.00004628,-0.00018589,0.00057000,0.
 00027538,0.10944731,-0.10853918,0.00051407,-0.12121677,0.11627448,-0.0
 0088552,-0.00093226,0.00058013,0.00001120,-0.00024367,0.00003895,0.000
 46547,0.00009442,0.00029398,-0.02499042,0.01348457,-0.00086625,0.00097
 943,0.00231634,-0.00491016,-0.00147504,0.00120683,0.00010087,0.0000434
 7,0.00026674,0.00017912,0.00048954,0.00028625,-0.00006928,-0.00010824,
 -0.00025573,0.00011952,-0.00007060,-0.00007867,0.00007362,-0.00002683,
 -0.00005316,0.00001635,-0.00097487,0.00053819,0.00149339,-0.00002080,-
 0.00004562,-0.00012457,0.00031483,-0.00007684,0.00030790,0.00049484,-0
 .00032717,-0.00047001,-0.00197321,0.00019435,-0.04850036,0.00249385,-0
 .00375214,0.05133650,0.00025025,0.00007521,0.00033123,-0.00003841,0.00
 004992,-0.00002634,-0.00017926,0.00014861,0.00009941,-0.00136083,-0.00
 131149,-0.00191781,0.00023796,-0.00068579,-0.00090645,-0.00000972,-0.0
 0002795,0.00017547,0.00011324,0.00025136,0.00002016,-0.00004101,0.0001
 0022,-0.00002105,-0.00009118,-0.00018111,-0.00001961,-0.00001854,0.000
 02751,0.00003793,0.00010409,-0.00001422,0.00016443,0.00000585,0.000188
 12,-0.00062384,0.00016977,0.00031314,0.00026284,0.00065345,-0.00003900
 ,-0.00017527,0.00024192,-0.00024735,-0.00029821,-0.05091210,0.00817504
 ,0.01231958,-0.00061687,0.01681167,0.02489977,0.04912401,0.00035125,0.
 00102978,0.00015474,0.00011527,0.00013888,-0.00000490,-0.00006078,-0.0
 0004507,-0.00010726,-0.00123388,0.01095741,0.01565135,-0.00021521,0.00
 119001,0.00024665,-0.00027016,0.00017176,-0.00011066,-0.00003555,-0.00
 005166,-0.00025272,-0.00003365,0.00007955,-0.00010370,-0.00003139,-0.0
 0012635,-0.00006124,-0.00000116,0.00004891,-0.00001314,-0.00002781,-0.
 00007286,0.00010342,0.00017285,-0.00200956,0.00268024,0.00026688,0.000
 03483,0.00016789,0.00003444,0.00091829,0.00101657,-0.00020711,-0.00005
 785,0.00010694,0.00835192,-0.13687235,-0.12397332,-0.00026779,-0.00921
 476,-0.01201470,-0.00987965,0.14633505,-0.00110081,-0.00103307,0.00124
 159,0.00010056,0.00007652,0.00001397,0.00036054,0.00003974,-0.00025279
 ,0.00195109,-0.01574883,-0.02142817,0.00069405,-0.00163844,0.00050767,
 0.00024328,0.00015246,0.00046775,-0.00059105,0.00101039,0.00043981,-0.
 00029944,0.00021625,-0.00000521,-0.00015099,-0.00015012,-0.00010674,-0
 .00008091,-0.00000775,0.00002608,0.00020001,0.00004607,0.00014070,-0.0
 0033834,0.00507647,-0.00437432,-0.00009487,0.00011309,0.00045689,0.000
 06404,-0.00113305,-0.00165374,0.00010293,0.00008076,0.00030482,0.01231
 720,-0.12310880,-0.22233158,0.00041363,0.00083239,0.00123507,-0.013123
 45,0.13398171,0.24331137,0.00027431,-0.00040958,0.00029115,0.00016685,
 0.00010353,0.00020850,0.00049067,0.00016164,-0.00016521,0.00230318,0.0
 0235302,-0.00043172,-0.00003536,0.00013348,0.00050586,0.00012432,-0.00
 020202,0.00004346,-0.00004281,0.00007507,-0.00002242,-0.00093781,0.000
 42834,-0.00010860,-0.00114657,0.00100093,-0.00081337,0.00010605,0.0001
 4611,-0.00010665,0.00001504,-0.00003469,0.00003856,0.00002500,-0.00001
 391,-0.00016674,0.00038298,0.00019725,0.00042492,0.00016149,0.00026272
 ,0.00008527,-0.00009218,-0.00011903,0.00002389,-0.18944385,-0.13093820
 ,0.00643980,-0.02064089,-0.02048503,0.00033311,0.00236739,0.00297153,-
 0.00066746,0.20592221,0.00150131,-0.00206609,0.00338507,-0.00100142,-0
 .00042268,0.00032468,-0.00004048,0.00008363,-0.00018606,-0.01349037,-0
 .01237189,-0.00006178,-0.00127362,-0.00003208,-0.00033808,0.00019001,0
 .00016585,0.00000816,0.00001959,-0.00000552,0.00010120,-0.00028980,-0.
 00025970,0.00088129,0.00113396,0.00025258,-0.00054920,0.00008174,0.000
 39283,-0.00043619,0.00006381,0.00006393,-0.00009349,0.00036140,0.00050
 703,-0.00155671,0.00020609,0.00079212,0.00047668,0.00031142,0.00003016
 ,-0.00007602,0.00010436,0.00005156,0.00004767,-0.13053926,-0.17063795,
 0.00520310,0.01204665,0.01253006,-0.00060772,-0.01375424,-0.01245401,0
 .00119422,0.14436885,0.18338014,-0.00171671,0.00363436,-0.00359897,0.0
 0121997,0.00108473,-0.00007694,0.00009639,-0.00023594,-0.00017763,0.02
 171157,0.01736445,-0.00127790,0.00048656,-0.00064510,0.00072429,0.0001
 0690,-0.00014289,0.00000401,-0.00008414,0.00005534,-0.00000948,-0.0003
 9640,-0.00002512,0.00022641,-0.00042436,0.00021846,0.00008571,-0.00001
 858,-0.00014115,-0.00000835,-0.00013372,0.00002551,-0.00015829,0.00096
 233,0.00064783,0.00163789,-0.00042002,-0.00052969,-0.00056488,-0.00024
 317,-0.00014985,0.00040108,0.00002229,-0.00007038,-0.00012634,0.005751
 16,0.00433421,-0.05019722,0.00019110,-0.00024012,-0.00083478,-0.021198
 80,-0.01746785,0.00200684,-0.00591237,-0.00771681,0.05194456\\-0.00000
 027,0.00000041,0.00000121,-0.00000025,0.00000080,0.00000178,-0.0000002
 2,0.00000043,0.00000124,-0.00000002,0.00000012,0.00000021,-0.00000016,
 -0.00000018,0.00000043,-0.00000007,0.00000040,0.00000084,-0.00000060,-
 0.00000074,0.00000088,-0.00000003,-0.00000051,-0.00000052,-0.00000016,
 -0.00000112,-0.00000094,-0.00000019,-0.00000069,-0.00000029,0.00000032
 ,0.00000002,-0.00000098,0.00000052,0.00000092,-0.00000047,0.00000071,0
 .00000079,-0.00000110,0.00000070,0.00000155,-0.00000003,0.00000068,0.0
 0000123,-0.00000049,-0.00000019,-0.00000068,-0.00000034,-0.00000009,-0
 .00000049,-0.00000042,-0.00000060,-0.00000134,0.00000008,-0.00000005,-
 0.00000093,-0.00000107\\\@


 THOSE WHO ASPIRE NOT TO GUESS AND DIVINE,
 BUT TO DISCOVER AND KNOW, WHO PROPOSE NOT TO DEVISE 
 MIMIC AND FABULOUS WORLDS OF THEIR OWN, BUT TO 
 EXAMINE AND DISSECT THE NATURE OF THIS VERY WORLD 
 ITSELF, MUST GO TO THE FACTS THEMSELVES FOR EVERYTHING.

                               -- FRANCIS BACON, 1620
 Job cpu time:       0 days  0 hours 30 minutes 53.2 seconds.
 File lengths (MBytes):  RWF=     64 Int=      0 D2E=      0 Chk=      3 Scr=      1
 Normal termination of Gaussian 09 at Sat Nov  7 02:31:17 2015.
