 Entering Gaussian System, Link 0=/share/apps/g09/g09
 Input=C6H14_1_02_1_opt_B3L.gjf
 Output=C6H14_1_02_1_opt_B3L.log
 Initial command:
 /share/apps/g09/l1.exe /state/partition1/Gau-32251.inp -scrdir=/state/partition1/
 Entering Link 1 = /share/apps/g09/l1.exe PID=     32252.
  
 Copyright (c) 1988,1990,1992,1993,1995,1998,2003,2009, Gaussian, Inc.
                  All Rights Reserved.
  
 This is part of the Gaussian(R) 09 program.  It is based on
 the Gaussian(R) 03 system (copyright 2003, Gaussian, Inc.),
 the Gaussian(R) 98 system (copyright 1998, Gaussian, Inc.),
 the Gaussian(R) 94 system (copyright 1995, Gaussian, Inc.),
 the Gaussian 92(TM) system (copyright 1992, Gaussian, Inc.),
 the Gaussian 90(TM) system (copyright 1990, Gaussian, Inc.),
 the Gaussian 88(TM) system (copyright 1988, Gaussian, Inc.),
 the Gaussian 86(TM) system (copyright 1986, Carnegie Mellon
 University), and the Gaussian 82(TM) system (copyright 1983,
 Carnegie Mellon University). Gaussian is a federally registered
 trademark of Gaussian, Inc.
  
 This software contains proprietary and confidential information,
 including trade secrets, belonging to Gaussian, Inc.
  
 This software is provided under written license and may be
 used, copied, transmitted, or stored only in accord with that
 written license.
  
 The following legend is applicable only to US Government
 contracts under FAR:
  
                    RESTRICTED RIGHTS LEGEND
  
 Use, reproduction and disclosure by the US Government is
 subject to restrictions as set forth in subparagraphs (a)
 and (c) of the Commercial Computer Software - Restricted
 Rights clause in FAR 52.227-19.
  
 Gaussian, Inc.
 340 Quinnipiac St., Bldg. 40, Wallingford CT 06492
  
  
 ---------------------------------------------------------------
 Warning -- This program may not be used in any manner that
 competes with the business of Gaussian, Inc. or will provide
 assistance to any competitor of Gaussian, Inc.  The licensee
 of this program is prohibited from giving any competitor of
 Gaussian, Inc. access to this program.  By using this program,
 the user acknowledges that Gaussian, Inc. is engaged in the
 business of creating and licensing software in the field of
 computational chemistry and represents and warrants to the
 licensee that it is not a competitor of Gaussian, Inc. and that
 it will not use this program in any manner prohibited above.
 ---------------------------------------------------------------
  

 Cite this work as:
 Gaussian 09, Revision A.01,
 M. J. Frisch, G. W. Trucks, H. B. Schlegel, G. E. Scuseria, 
 M. A. Robb, J. R. Cheeseman, G. Scalmani, V. Barone, B. Mennucci, 
 G. A. Petersson, H. Nakatsuji, M. Caricato, X. Li, H. P. Hratchian, 
 A. F. Izmaylov, J. Bloino, G. Zheng, J. L. Sonnenberg, M. Hada, 
 M. Ehara, K. Toyota, R. Fukuda, J. Hasegawa, M. Ishida, T. Nakajima, 
 Y. Honda, O. Kitao, H. Nakai, T. Vreven, J. A. Montgomery, Jr., 
 J. E. Peralta, F. Ogliaro, M. Bearpark, J. J. Heyd, E. Brothers, 
 K. N. Kudin, V. N. Staroverov, R. Kobayashi, J. Normand, 
 K. Raghavachari, A. Rendell, J. C. Burant, S. S. Iyengar, J. Tomasi, 
 M. Cossi, N. Rega, J. M. Millam, M. Klene, J. E. Knox, J. B. Cross, 
 V. Bakken, C. Adamo, J. Jaramillo, R. Gomperts, R. E. Stratmann, 
 O. Yazyev, A. J. Austin, R. Cammi, C. Pomelli, J. W. Ochterski, 
 R. L. Martin, K. Morokuma, V. G. Zakrzewski, G. A. Voth, 
 P. Salvador, J. J. Dannenberg, S. Dapprich, A. D. Daniels, 
 O. Farkas, J. B. Foresman, J. V. Ortiz, J. Cioslowski, 
 and D. J. Fox, Gaussian, Inc., Wallingford CT, 2009.
 
 ******************************************
 Gaussian 09:  EM64L-G09RevA.01  8-May-2009
                18-Sep-2015 
 ******************************************
 %mem=3GB
 %nprocshared=2
 Will use up to    2 processors via shared memory.
 -----------------------------------------
 #p B3LYP/6-31G(d) opt=tight int=ultrafine
 -----------------------------------------
 1/7=10,14=-1,18=20,19=15,26=3,38=1/1,3;
 2/9=110,12=2,17=6,18=5,40=1/2;
 3/5=1,6=6,7=1,11=2,16=1,25=1,30=1,71=1,74=-5,75=-5/1,2,3;
 4//1;
 5/5=2,38=5/2;
 6/7=2,8=2,9=2,10=2,28=1/1;
 7//1,2,3,16;
 1/7=10,14=-1,18=20,19=15/3(2);
 2/9=110/2;
 99//99;
 2/9=110/2;
 3/5=1,6=6,7=1,11=2,16=1,25=1,30=1,71=1,74=-5,75=-5/1,2,3;
 4/5=5,16=3/1;
 5/5=2,38=5/2;
 7//1,2,3,16;
 1/7=10,14=-1,18=20,19=15/3(-5);
 2/9=110/2;
 6/7=2,8=2,9=2,10=2,19=2,28=1/1;
 99/9=1/99;
 Leave Link    1 at Fri Sep 18 13:20:31 2015, MaxMem=  402653184 cpu:       0.1
 (Enter /share/apps/g09/l101.exe)
 ---------------------------------------------
 using B3LYP/6-31G(d) to do opt and freq calc.
 ---------------------------------------------
 Symbolic Z-matrix:
 Charge =  0 Multiplicity = 1
 C                     2.58628   0.85705  -0.25841 
 H                     1.90835   1.70851  -0.12815 
 H                     2.73164   0.71955  -1.33575 
 H                     3.55355   1.13662   0.17275 
 C                     2.03145  -0.40532   0.39821 
 H                     2.75857  -1.23274   0.27649 
 H                     1.93715  -0.24775   1.49053 
 C                     0.67798  -0.837    -0.1852 
 H                     0.46522  -1.87941   0.12217 
 H                     0.73582  -0.85581  -1.29053 
 C                    -0.47141   0.07614   0.26136 
 H                    -0.26435   1.11866  -0.04817 
 H                    -0.52801   0.09825   1.36632 
 C                    -1.81551  -0.38327  -0.32093 
 H                    -2.02305  -1.42626  -0.01176 
 H                    -1.75963  -0.40142  -1.42689 
 C                    -2.96248   0.52278   0.12183 
 H                    -2.80669   1.55794  -0.20235 
 H                    -3.91711   0.1873   -0.29816 
 H                    -3.06933   0.53425   1.21241 
 
 NAtoms=     20 NQM=     20 NQMF=      0 NMic=      0 NMicF=      0 NTot=     20.
                    Isotopes and Nuclear Properties:
 (Nuclear quadrupole moments (NQMom) in fm**2, nuclear magnetic moments (NMagM)
  in nuclear magnetons)

  Atom         1           2           3           4           5           6           7           8           9          10
 IAtWgt=          12           1           1           1          12           1           1          12           1           1
 AtmWgt=  12.0000000   1.0078250   1.0078250   1.0078250  12.0000000   1.0078250   1.0078250  12.0000000   1.0078250   1.0078250
 NucSpn=           0           1           1           1           0           1           1           0           1           1
 AtZEff=   0.0000000   0.0000000   0.0000000   0.0000000   0.0000000   0.0000000   0.0000000   0.0000000   0.0000000   0.0000000
 NQMom=    0.0000000   0.0000000   0.0000000   0.0000000   0.0000000   0.0000000   0.0000000   0.0000000   0.0000000   0.0000000
 NMagM=    0.0000000   2.7928460   2.7928460   2.7928460   0.0000000   2.7928460   2.7928460   0.0000000   2.7928460   2.7928460

  Atom        11          12          13          14          15          16          17          18          19          20
 IAtWgt=          12           1           1          12           1           1          12           1           1           1
 AtmWgt=  12.0000000   1.0078250   1.0078250  12.0000000   1.0078250   1.0078250  12.0000000   1.0078250   1.0078250   1.0078250
 NucSpn=           0           1           1           0           1           1           0           1           1           1
 AtZEff=   0.0000000   0.0000000   0.0000000   0.0000000   0.0000000   0.0000000   0.0000000   0.0000000   0.0000000   0.0000000
 NQMom=    0.0000000   0.0000000   0.0000000   0.0000000   0.0000000   0.0000000   0.0000000   0.0000000   0.0000000   0.0000000
 NMagM=    0.0000000   2.7928460   2.7928460   0.0000000   2.7928460   2.7928460   0.0000000   2.7928460   2.7928460   2.7928460
 Leave Link  101 at Fri Sep 18 13:20:31 2015, MaxMem=  402653184 cpu:       0.1
 (Enter /share/apps/g09/l103.exe)

 GradGradGradGradGradGradGradGradGradGradGradGradGradGradGradGradGradGrad
 Berny optimization.
 Initialization pass.
                           ----------------------------
                           !    Initial Parameters    !
                           ! (Angstroms and Degrees)  !
 --------------------------                            --------------------------
 ! Name  Definition              Value          Derivative Info.                !
 --------------------------------------------------------------------------------
 ! R1    R(1,2)                  1.0962         estimate D2E/DX2                !
 ! R2    R(1,3)                  1.0958         estimate D2E/DX2                !
 ! R3    R(1,4)                  1.0953         estimate D2E/DX2                !
 ! R4    R(1,5)                  1.5273         estimate D2E/DX2                !
 ! R5    R(5,6)                  1.1082         estimate D2E/DX2                !
 ! R6    R(5,7)                  1.1077         estimate D2E/DX2                !
 ! R7    R(5,8)                  1.5358         estimate D2E/DX2                !
 ! R8    R(8,9)                  1.1074         estimate D2E/DX2                !
 ! R9    R(8,10)                 1.107          estimate D2E/DX2                !
 ! R10   R(8,11)                 1.5344         estimate D2E/DX2                !
 ! R11   R(11,12)                1.107          estimate D2E/DX2                !
 ! R12   R(11,13)                1.1066         estimate D2E/DX2                !
 ! R13   R(11,14)                1.5352         estimate D2E/DX2                !
 ! R14   R(14,15)                1.1075         estimate D2E/DX2                !
 ! R15   R(14,16)                1.1075         estimate D2E/DX2                !
 ! R16   R(14,17)                1.5273         estimate D2E/DX2                !
 ! R17   R(17,18)                1.0959         estimate D2E/DX2                !
 ! R18   R(17,19)                1.0956         estimate D2E/DX2                !
 ! R19   R(17,20)                1.0959         estimate D2E/DX2                !
 ! A1    A(2,1,3)              107.2386         estimate D2E/DX2                !
 ! A2    A(2,1,4)              107.5255         estimate D2E/DX2                !
 ! A3    A(2,1,5)              111.4864         estimate D2E/DX2                !
 ! A4    A(3,1,4)              107.5716         estimate D2E/DX2                !
 ! A5    A(3,1,5)              111.5414         estimate D2E/DX2                !
 ! A6    A(4,1,5)              111.2572         estimate D2E/DX2                !
 ! A7    A(1,5,6)              109.3629         estimate D2E/DX2                !
 ! A8    A(1,5,7)              109.7138         estimate D2E/DX2                !
 ! A9    A(1,5,8)              112.9029         estimate D2E/DX2                !
 ! A10   A(6,5,7)              105.6868         estimate D2E/DX2                !
 ! A11   A(6,5,8)              109.0653         estimate D2E/DX2                !
 ! A12   A(7,5,8)              109.8516         estimate D2E/DX2                !
 ! A13   A(5,8,9)              109.1756         estimate D2E/DX2                !
 ! A14   A(5,8,10)             109.7572         estimate D2E/DX2                !
 ! A15   A(5,8,11)             112.4781         estimate D2E/DX2                !
 ! A16   A(9,8,10)             105.7348         estimate D2E/DX2                !
 ! A17   A(9,8,11)             109.6023         estimate D2E/DX2                !
 ! A18   A(10,8,11)            109.8676         estimate D2E/DX2                !
 ! A19   A(8,11,12)            109.8134         estimate D2E/DX2                !
 ! A20   A(8,11,13)            109.9256         estimate D2E/DX2                !
 ! A21   A(8,11,14)            111.5539         estimate D2E/DX2                !
 ! A22   A(12,11,13)           105.6599         estimate D2E/DX2                !
 ! A23   A(12,11,14)           109.8479         estimate D2E/DX2                !
 ! A24   A(13,11,14)           109.8723         estimate D2E/DX2                !
 ! A25   A(11,14,15)           109.8784         estimate D2E/DX2                !
 ! A26   A(11,14,16)           109.8464         estimate D2E/DX2                !
 ! A27   A(11,14,17)           111.718          estimate D2E/DX2                !
 ! A28   A(15,14,16)           105.8305         estimate D2E/DX2                !
 ! A29   A(15,14,17)           109.6967         estimate D2E/DX2                !
 ! A30   A(16,14,17)           109.7009         estimate D2E/DX2                !
 ! A31   A(14,17,18)           111.5841         estimate D2E/DX2                !
 ! A32   A(14,17,19)           111.1979         estimate D2E/DX2                !
 ! A33   A(14,17,20)           111.5886         estimate D2E/DX2                !
 ! A34   A(18,17,19)           107.4416         estimate D2E/DX2                !
 ! A35   A(18,17,20)           107.3597         estimate D2E/DX2                !
 ! A36   A(19,17,20)           107.4426         estimate D2E/DX2                !
 ! D1    D(2,1,5,6)           -178.0333         estimate D2E/DX2                !
 ! D2    D(2,1,5,7)            -62.5431         estimate D2E/DX2                !
 ! D3    D(2,1,5,8)             60.3437         estimate D2E/DX2                !
 ! D4    D(3,1,5,6)             62.113          estimate D2E/DX2                !
 ! D5    D(3,1,5,7)            177.6032         estimate D2E/DX2                !
 ! D6    D(3,1,5,8)            -59.5101         estimate D2E/DX2                !
 ! D7    D(4,1,5,6)            -58.008          estimate D2E/DX2                !
 ! D8    D(4,1,5,7)             57.4821         estimate D2E/DX2                !
 ! D9    D(4,1,5,8)           -179.6311         estimate D2E/DX2                !
 ! D10   D(1,5,8,9)            164.7282         estimate D2E/DX2                !
 ! D11   D(1,5,8,10)            49.2619         estimate D2E/DX2                !
 ! D12   D(1,5,8,11)           -73.3816         estimate D2E/DX2                !
 ! D13   D(6,5,8,9)             42.9373         estimate D2E/DX2                !
 ! D14   D(6,5,8,10)           -72.5291         estimate D2E/DX2                !
 ! D15   D(6,5,8,11)           164.8274         estimate D2E/DX2                !
 ! D16   D(7,5,8,9)            -72.4617         estimate D2E/DX2                !
 ! D17   D(7,5,8,10)           172.0719         estimate D2E/DX2                !
 ! D18   D(7,5,8,11)            49.4284         estimate D2E/DX2                !
 ! D19   D(5,8,11,12)           58.6006         estimate D2E/DX2                !
 ! D20   D(5,8,11,13)          -57.2347         estimate D2E/DX2                !
 ! D21   D(5,8,11,14)         -179.3714         estimate D2E/DX2                !
 ! D22   D(9,8,11,12)         -179.7518         estimate D2E/DX2                !
 ! D23   D(9,8,11,13)           64.4129         estimate D2E/DX2                !
 ! D24   D(9,8,11,14)          -57.7238         estimate D2E/DX2                !
 ! D25   D(10,8,11,12)         -63.9808         estimate D2E/DX2                !
 ! D26   D(10,8,11,13)        -179.8161         estimate D2E/DX2                !
 ! D27   D(10,8,11,14)          58.0472         estimate D2E/DX2                !
 ! D28   D(8,11,14,15)          57.98           estimate D2E/DX2                !
 ! D29   D(8,11,14,16)         -58.0534         estimate D2E/DX2                !
 ! D30   D(8,11,14,17)         179.9717         estimate D2E/DX2                !
 ! D31   D(12,11,14,15)        179.9881         estimate D2E/DX2                !
 ! D32   D(12,11,14,16)         63.9546         estimate D2E/DX2                !
 ! D33   D(12,11,14,17)        -58.0202         estimate D2E/DX2                !
 ! D34   D(13,11,14,15)        -64.1874         estimate D2E/DX2                !
 ! D35   D(13,11,14,16)        179.7791         estimate D2E/DX2                !
 ! D36   D(13,11,14,17)         57.8043         estimate D2E/DX2                !
 ! D37   D(11,14,17,18)         60.066          estimate D2E/DX2                !
 ! D38   D(11,14,17,19)       -179.9897         estimate D2E/DX2                !
 ! D39   D(11,14,17,20)        -60.041          estimate D2E/DX2                !
 ! D40   D(15,14,17,18)       -177.8379         estimate D2E/DX2                !
 ! D41   D(15,14,17,19)        -57.8935         estimate D2E/DX2                !
 ! D42   D(15,14,17,20)         62.0551         estimate D2E/DX2                !
 ! D43   D(16,14,17,18)        -61.9925         estimate D2E/DX2                !
 ! D44   D(16,14,17,19)         57.9518         estimate D2E/DX2                !
 ! D45   D(16,14,17,20)        177.9005         estimate D2E/DX2                !
 --------------------------------------------------------------------------------
 Trust Radius=3.00D-01 FncErr=1.00D-07 GrdErr=1.00D-06
 Number of steps in this run= 110 maximum allowed number of steps= 120.
 GradGradGradGradGradGradGradGradGradGradGradGradGradGradGradGradGradGrad

 Leave Link  103 at Fri Sep 18 13:20:31 2015, MaxMem=  402653184 cpu:       0.0
 (Enter /share/apps/g09/l202.exe)
                          Input orientation:                          
 ---------------------------------------------------------------------
 Center     Atomic      Atomic             Coordinates (Angstroms)
 Number     Number       Type             X           Y           Z
 ---------------------------------------------------------------------
      1          6           0        2.586275    0.857047   -0.258405
      2          1           0        1.908345    1.708510   -0.128149
      3          1           0        2.731643    0.719547   -1.335749
      4          1           0        3.553552    1.136617    0.172754
      5          6           0        2.031448   -0.405316    0.398205
      6          1           0        2.758570   -1.232740    0.276488
      7          1           0        1.937153   -0.247746    1.490530
      8          6           0        0.677982   -0.836998   -0.185203
      9          1           0        0.465222   -1.879412    0.122171
     10          1           0        0.735822   -0.855807   -1.290529
     11          6           0       -0.471406    0.076140    0.261357
     12          1           0       -0.264351    1.118662   -0.048167
     13          1           0       -0.528008    0.098249    1.366324
     14          6           0       -1.815508   -0.383269   -0.320932
     15          1           0       -2.023052   -1.426262   -0.011760
     16          1           0       -1.759632   -0.401424   -1.426889
     17          6           0       -2.962481    0.522781    0.121825
     18          1           0       -2.806687    1.557942   -0.202350
     19          1           0       -3.917107    0.187297   -0.298163
     20          1           0       -3.069332    0.534247    1.212412
 ---------------------------------------------------------------------
                    Distance matrix (angstroms):
                    1          2          3          4          5
     1  C    0.000000
     2  H    1.096150   0.000000
     3  H    1.095768   1.764700   0.000000
     4  H    1.095300   1.767572   1.767785   0.000000
     5  C    1.527262   2.181849   2.182243   2.178345   0.000000
     6  H    2.164025   3.088295   2.532086   2.501322   1.108220
     7  H    2.168110   2.539269   3.091072   2.503146   1.107652
     8  C    2.552789   2.827836   2.822076   3.506022   1.535768
     9  H    3.483089   3.875364   3.743899   4.317033   2.168460
    10  H    2.724578   3.049862   2.543047   3.748407   2.175640
    11  C    3.198340   2.911969   3.636515   4.163262   2.552412
    12  H    2.870315   2.252760   3.285291   3.824332   2.791496
    13  H    3.593644   3.280580   4.279315   4.377436   2.782382
    14  C    4.573619   4.275487   4.787759   5.601838   3.913657
    15  H    5.149780   5.029535   5.381874   6.140106   4.201116
    16  H    4.672902   4.426353   4.629950   5.757982   4.207525
    17  C    5.571804   5.019301   5.881011   6.545080   5.086952
    18  H    5.438606   4.718019   5.714945   6.385206   5.255721
    19  H    6.537899   6.023196   6.750241   7.545443   6.018424
    20  H    5.852640   5.287085   6.338673   6.730998   5.250111
                    6          7          8          9         10
     6  H    0.000000
     7  H    1.766023   0.000000
     8  C    2.167629   2.177340   0.000000
     9  H    2.387770   2.588691   1.107417   0.000000
    10  H    2.586335   3.089858   1.106998   1.765421   0.000000
    11  C    3.485131   2.723403   1.534382   2.172747   2.175839
    12  H    3.843507   3.013516   2.175173   3.090265   2.538176
    13  H    3.709565   2.492420   2.176312   2.538812   3.092953
    14  C    4.690491   4.169200   2.538067   2.763424   2.769963
    15  H    4.794210   4.396476   2.770000   2.532744   3.093874
    16  H    4.899666   4.711812   2.770103   3.087719   2.540147
    17  C    5.986334   5.145238   3.898235   4.185652   4.191980
    18  H    6.244139   5.350735   4.228351   4.756691   4.422634
    19  H    6.849189   6.136860   4.709223   4.863412   4.870586
    20  H    6.161383   5.074816   4.228002   4.416724   4.761949
                   11         12         13         14         15
    11  C    0.000000
    12  H    1.107036   0.000000
    13  H    1.106637   1.763956   0.000000
    14  C    1.535164   2.176301   2.176315   0.000000
    15  H    2.177019   3.093702   2.541339   1.107473   0.000000
    16  H    2.176641   2.539173   3.093317   1.107516   1.766996
    17  C    2.534642   2.768371   2.766887   1.527255   2.167750
    18  H    2.804336   2.584611   3.127910   2.182842   3.091259
    19  H    3.492603   3.777905   3.776829   2.177793   2.504604
    20  H    2.804209   3.130259   2.583043   2.182900   2.537104
                   16         17         18         19         20
    16  H    0.000000
    17  C    2.167837   0.000000
    18  H    2.536717   1.095865   0.000000
    19  H    2.505058   1.095559   1.766601   0.000000
    20  H    3.091392   1.095869   1.765923   1.766616   0.000000
 Stoichiometry    C6H14
 Framework group  C1[X(C6H14)]
 Deg. of freedom    54
 Full point group                 C1      NOp   1
 Largest Abelian subgroup         C1      NOp   1
 Largest concise Abelian subgroup C1      NOp   1
                         Standard orientation:                         
 ---------------------------------------------------------------------
 Center     Atomic      Atomic             Coordinates (Angstroms)
 Number     Number       Type             X           Y           Z
 ---------------------------------------------------------------------
      1          6           0        2.586275    0.857047   -0.258405
      2          1           0        1.908345    1.708510   -0.128149
      3          1           0        2.731643    0.719547   -1.335749
      4          1           0        3.553552    1.136618    0.172754
      5          6           0        2.031448   -0.405316    0.398205
      6          1           0        2.758570   -1.232740    0.276488
      7          1           0        1.937153   -0.247746    1.490530
      8          6           0        0.677982   -0.836998   -0.185203
      9          1           0        0.465222   -1.879412    0.122171
     10          1           0        0.735822   -0.855807   -1.290529
     11          6           0       -0.471406    0.076140    0.261357
     12          1           0       -0.264351    1.118662   -0.048167
     13          1           0       -0.528008    0.098249    1.366324
     14          6           0       -1.815508   -0.383269   -0.320932
     15          1           0       -2.023052   -1.426262   -0.011760
     16          1           0       -1.759632   -0.401424   -1.426889
     17          6           0       -2.962481    0.522781    0.121825
     18          1           0       -2.806687    1.557942   -0.202350
     19          1           0       -3.917107    0.187297   -0.298163
     20          1           0       -3.069332    0.534247    1.212412
 ---------------------------------------------------------------------
 Rotational constants (GHZ):      8.7205804      1.3433241      1.2613420
 Leave Link  202 at Fri Sep 18 13:20:31 2015, MaxMem=  402653184 cpu:       0.0
 (Enter /share/apps/g09/l301.exe)
 Standard basis: 6-31G(d) (6D, 7F)
 Ernie: Thresh=  0.10000D-02 Tol=  0.10000D-05 Strict=F.
 There are   118 symmetry adapted basis functions of A   symmetry.
 Integral buffers will be    131072 words long.
 Raffenetti 2 integral format.
 Two-electron integral symmetry is turned on.
   118 basis functions,   224 primitive gaussians,   118 cartesian basis functions
    25 alpha electrons       25 beta electrons
       nuclear repulsion energy       247.0945900587 Hartrees.
 IExCor=  402 DFT=T Ex+Corr=B3LYP ExCW=0 ScaHFX=  0.200000
 ScaDFX=  0.800000  0.720000  1.000000  0.810000 ScalE2=  1.000000  1.000000
 IRadAn=      5 IRanWt=     -1 IRanGd=            0 ICorTp=0
 NAtoms=   20 NActive=   20 NUniq=   20 SFac= 7.50D-01 NAtFMM=   80 NAOKFM=F Big=F
 Leave Link  301 at Fri Sep 18 13:20:31 2015, MaxMem=  402653184 cpu:       0.1
 (Enter /share/apps/g09/l302.exe)
 NPDir=0 NMtPBC=     1 NCelOv=     1 NCel=       1 NClECP=     1 NCelD=      1
         NCelK=      1 NCelE2=     1 NClLst=     1 CellRange=     0.0.
 One-electron integrals computed using PRISM.
 NBasis=   118 RedAO= T  NBF=   118
 NBsUse=   118 1.00D-06 NBFU=   118
 Precomputing XC quadrature grid using
 IXCGrd= 2 IRadAn=           5 IRanWt=          -1 IRanGd=           0 AccXCQ= 1.00D-10.
 NRdTot=    1655 NPtTot=      442746 NUsed=      454604 NTot=      454636
 NSgBfM=   118   118   118   118   118 NAtAll=    20    20.
 Leave Link  302 at Fri Sep 18 13:20:32 2015, MaxMem=  402653184 cpu:       1.2
 (Enter /share/apps/g09/l303.exe)
 DipDrv:  MaxL=1.
 Leave Link  303 at Fri Sep 18 13:20:32 2015, MaxMem=  402653184 cpu:       0.1
 (Enter /share/apps/g09/l401.exe)
 Harris functional with IExCor=  402 diagonalized for initial guess.
 ExpMin= 1.61D-01 ExpMax= 3.05D+03 ExpMxC= 4.57D+02 IAcc=3 IRadAn=         5 AccDes= 0.00D+00
 HarFok:  IExCor=  402 AccDes= 0.00D+00 IRadAn=         5 IDoV= 1
 ScaDFX=  1.000000  1.000000  1.000000  1.000000
 FoFCou: FMM=F IPFlag=           0 FMFlag=      100000 FMFlg1=           0
         NFxFlg=           0 DoJE=T BraDBF=F KetDBF=T FulRan=T
         Omega=  0.000000  0.000000  1.000000  0.000000  0.000000 ICntrl=     500 IOpCl=  0
         NMat0=    1 NMatS0=    1 NMatT0=    0 NMatD0=    1 NMtDS0=    0 NMtDT0=    0
         I1Cent=           4 NGrid=           0.
 Petite list used in FoFCou.
 Harris En= -237.178908421173    
 Initial guess orbital symmetries:
       Occupied  (A) (A) (A) (A) (A) (A) (A) (A) (A) (A) (A) (A)
                 (A) (A) (A) (A) (A) (A) (A) (A) (A) (A) (A) (A)
                 (A)
       Virtual   (A) (A) (A) (A) (A) (A) (A) (A) (A) (A) (A) (A)
                 (A) (A) (A) (A) (A) (A) (A) (A) (A) (A) (A) (A)
                 (A) (A) (A) (A) (A) (A) (A) (A) (A) (A) (A) (A)
                 (A) (A) (A) (A) (A) (A) (A) (A) (A) (A) (A) (A)
                 (A) (A) (A) (A) (A) (A) (A) (A) (A) (A) (A) (A)
                 (A) (A) (A) (A) (A) (A) (A) (A) (A) (A) (A) (A)
                 (A) (A) (A) (A) (A) (A) (A) (A) (A) (A) (A) (A)
                 (A) (A) (A) (A) (A) (A) (A) (A) (A)
 The electronic state of the initial guess is 1-A.
 Leave Link  401 at Fri Sep 18 13:20:37 2015, MaxMem=  402653184 cpu:      10.0
 (Enter /share/apps/g09/l502.exe)
 Closed shell SCF:
 Requested convergence on RMS density matrix=1.00D-08 within 128 cycles.
 Requested convergence on MAX density matrix=1.00D-06.
 Requested convergence on             energy=1.00D-06.
 No special actions if energy rises.
 Using DIIS extrapolation, IDIIS=  1040.
 Integral symmetry usage will be decided dynamically.
       454411 words used for storage of precomputed grid.
 Keep R1 ints in memory in canonical form, NReq=26108466.
 IEnd=      515955 IEndB=      515955 NGot=   402653184 MDV=   377517153
 LenX=   377517153 LenY=   377502788
 Symmetry not used in FoFDir.
 MinBra= 0 MaxBra= 2 Meth= 1.
 IRaf=       0 NMat=   1 IRICut=       1 DoRegI=T DoRafI=F ISym2E= 0 JSym2E=0.
 Integral accuracy reduced to 1.0D-05 until final iterations.

 Cycle   1  Pass 0  IDiag  1:
 E= -236.793199535241    
 DIIS: error= 4.70D-02 at cycle   1 NSaved=   1.
 NSaved= 1 IEnMin= 1 EnMin= -236.793199535241     IErMin= 1 ErrMin= 4.70D-02
 ErrMax= 4.70D-02 EMaxC= 1.00D-01 BMatC= 2.54D-01 BMatP= 2.54D-01
 IDIUse=3 WtCom= 5.30D-01 WtEn= 4.70D-01
 Coeff-Com:  0.100D+01
 Coeff-En:   0.100D+01
 Coeff:      0.100D+01
 Gap=     0.359 Goal=   None    Shift=    0.000
 GapD=    0.359 DampG=1.000 DampE=0.500 DampFc=0.5000 IDamp=-1.
 Damping current iteration by 5.00D-01
 RMSDP=1.01D-02 MaxDP=1.48D-01              OVMax= 1.85D-01

 Cycle   2  Pass 0  IDiag  1:
 E= -236.920675323952     Delta-E=       -0.127475788711 Rises=F Damp=T
 DIIS: error= 8.80D-03 at cycle   2 NSaved=   2.
 NSaved= 2 IEnMin= 2 EnMin= -236.920675323952     IErMin= 2 ErrMin= 8.80D-03
 ErrMax= 8.80D-03 EMaxC= 1.00D-01 BMatC= 9.82D-03 BMatP= 2.54D-01
 IDIUse=3 WtCom= 9.12D-01 WtEn= 8.80D-02
 Coeff-Com:  0.865D-01 0.914D+00
 Coeff-En:   0.140D+00 0.860D+00
 Coeff:      0.912D-01 0.909D+00
 Gap=     0.397 Goal=   None    Shift=    0.000
 RMSDP=1.47D-03 MaxDP=2.48D-02 DE=-1.27D-01 OVMax= 9.80D-02

 Cycle   3  Pass 0  IDiag  1:
 E= -237.082226606767     Delta-E=       -0.161551282815 Rises=F Damp=F
 DIIS: error= 1.83D-03 at cycle   3 NSaved=   3.
 NSaved= 3 IEnMin= 3 EnMin= -237.082226606767     IErMin= 3 ErrMin= 1.83D-03
 ErrMax= 1.83D-03 EMaxC= 1.00D-01 BMatC= 6.51D-04 BMatP= 9.82D-03
 IDIUse=3 WtCom= 9.82D-01 WtEn= 1.83D-02
 Coeff-Com:  0.588D-02 0.149D+00 0.845D+00
 Coeff-En:   0.000D+00 0.000D+00 0.100D+01
 Coeff:      0.577D-02 0.146D+00 0.848D+00
 Gap=     0.390 Goal=   None    Shift=    0.000
 RMSDP=3.82D-04 MaxDP=6.08D-03 DE=-1.62D-01 OVMax= 7.04D-03

 Cycle   4  Pass 0  IDiag  1:
 E= -237.082678386400     Delta-E=       -0.000451779634 Rises=F Damp=F
 DIIS: error= 7.63D-04 at cycle   4 NSaved=   4.
 NSaved= 4 IEnMin= 4 EnMin= -237.082678386400     IErMin= 4 ErrMin= 7.63D-04
 ErrMax= 7.63D-04 EMaxC= 1.00D-01 BMatC= 2.04D-04 BMatP= 6.51D-04
 IDIUse=3 WtCom= 9.92D-01 WtEn= 7.63D-03
 Coeff-Com:  0.270D-03 0.209D-01 0.361D+00 0.618D+00
 Coeff-En:   0.000D+00 0.000D+00 0.169D+00 0.831D+00
 Coeff:      0.268D-03 0.207D-01 0.359D+00 0.620D+00
 Gap=     0.391 Goal=   None    Shift=    0.000
 RMSDP=1.49D-04 MaxDP=2.67D-03 DE=-4.52D-04 OVMax= 3.25D-03

 Cycle   5  Pass 0  IDiag  1:
 E= -237.082867914505     Delta-E=       -0.000189528104 Rises=F Damp=F
 DIIS: error= 2.20D-04 at cycle   5 NSaved=   5.
 NSaved= 5 IEnMin= 5 EnMin= -237.082867914505     IErMin= 5 ErrMin= 2.20D-04
 ErrMax= 2.20D-04 EMaxC= 1.00D-01 BMatC= 1.85D-05 BMatP= 2.04D-04
 IDIUse=3 WtCom= 9.98D-01 WtEn= 2.20D-03
 Coeff-Com:  0.135D-03-0.117D-02 0.110D+00 0.296D+00 0.595D+00
 Coeff-En:   0.000D+00 0.000D+00 0.000D+00 0.000D+00 0.100D+01
 Coeff:      0.135D-03-0.117D-02 0.110D+00 0.295D+00 0.596D+00
 Gap=     0.391 Goal=   None    Shift=    0.000
 RMSDP=3.45D-05 MaxDP=7.25D-04 DE=-1.90D-04 OVMax= 7.61D-04

 Cycle   6  Pass 0  IDiag  1:
 E= -237.082885701261     Delta-E=       -0.000017786757 Rises=F Damp=F
 DIIS: error= 3.37D-05 at cycle   6 NSaved=   6.
 NSaved= 6 IEnMin= 6 EnMin= -237.082885701261     IErMin= 6 ErrMin= 3.37D-05
 ErrMax= 3.37D-05 EMaxC= 1.00D-01 BMatC= 2.46D-07 BMatP= 1.85D-05
 IDIUse=1 WtCom= 1.00D+00 WtEn= 0.00D+00
 Coeff-Com:  0.141D-03-0.106D-02 0.289D-01 0.873D-01 0.212D+00 0.673D+00
 Coeff:      0.141D-03-0.106D-02 0.289D-01 0.873D-01 0.212D+00 0.673D+00
 Gap=     0.391 Goal=   None    Shift=    0.000
 RMSDP=6.18D-06 MaxDP=9.73D-05 DE=-1.78D-05 OVMax= 1.33D-04

 Initial convergence to 1.0D-05 achieved.  Increase integral accuracy.
 Cycle   7  Pass 1  IDiag  1:
 E= -237.082866731886     Delta-E=        0.000018969375 Rises=F Damp=F
 DIIS: error= 7.34D-06 at cycle   1 NSaved=   1.
 NSaved= 1 IEnMin= 1 EnMin= -237.082866731886     IErMin= 1 ErrMin= 7.34D-06
 ErrMax= 7.34D-06 EMaxC= 1.00D-01 BMatC= 1.90D-08 BMatP= 1.90D-08
 IDIUse=1 WtCom= 1.00D+00 WtEn= 0.00D+00
 Coeff-Com:  0.100D+01
 Coeff:      0.100D+01
 Gap=     0.391 Goal=   None    Shift=    0.000
 RMSDP=6.18D-06 MaxDP=9.73D-05 DE= 1.90D-05 OVMax= 4.88D-05

 Cycle   8  Pass 1  IDiag  1:
 E= -237.082866731445     Delta-E=        0.000000000441 Rises=F Damp=F
 DIIS: error= 9.39D-06 at cycle   2 NSaved=   2.
 NSaved= 2 IEnMin= 1 EnMin= -237.082866731886     IErMin= 1 ErrMin= 7.34D-06
 ErrMax= 9.39D-06 EMaxC= 1.00D-01 BMatC= 2.17D-08 BMatP= 1.90D-08
 IDIUse=1 WtCom= 1.00D+00 WtEn= 0.00D+00
 Coeff-Com:  0.518D+00 0.482D+00
 Coeff:      0.518D+00 0.482D+00
 Gap=     0.391 Goal=   None    Shift=    0.000
 RMSDP=1.13D-06 MaxDP=2.80D-05 DE= 4.41D-10 OVMax= 2.75D-05

 Cycle   9  Pass 1  IDiag  1:
 E= -237.082866752086     Delta-E=       -0.000000020641 Rises=F Damp=F
 DIIS: error= 8.50D-07 at cycle   3 NSaved=   3.
 NSaved= 3 IEnMin= 3 EnMin= -237.082866752086     IErMin= 3 ErrMin= 8.50D-07
 ErrMax= 8.50D-07 EMaxC= 1.00D-01 BMatC= 1.93D-10 BMatP= 1.90D-08
 IDIUse=1 WtCom= 1.00D+00 WtEn= 0.00D+00
 Coeff-Com:  0.248D-01 0.911D-01 0.884D+00
 Coeff:      0.248D-01 0.911D-01 0.884D+00
 Gap=     0.391 Goal=   None    Shift=    0.000
 RMSDP=1.53D-07 MaxDP=3.12D-06 DE=-2.06D-08 OVMax= 2.88D-06

 Cycle  10  Pass 1  IDiag  1:
 E= -237.082866752254     Delta-E=       -0.000000000168 Rises=F Damp=F
 DIIS: error= 3.04D-07 at cycle   4 NSaved=   4.
 NSaved= 4 IEnMin= 4 EnMin= -237.082866752254     IErMin= 4 ErrMin= 3.04D-07
 ErrMax= 3.04D-07 EMaxC= 1.00D-01 BMatC= 2.51D-11 BMatP= 1.93D-10
 IDIUse=1 WtCom= 1.00D+00 WtEn= 0.00D+00
 Coeff-Com: -0.994D-02 0.195D-01 0.369D+00 0.622D+00
 Coeff:     -0.994D-02 0.195D-01 0.369D+00 0.622D+00
 Gap=     0.391 Goal=   None    Shift=    0.000
 RMSDP=5.36D-08 MaxDP=8.32D-07 DE=-1.68D-10 OVMax= 1.06D-06

 Cycle  11  Pass 1  IDiag  1:
 E= -237.082866752277     Delta-E=       -0.000000000023 Rises=F Damp=F
 DIIS: error= 7.41D-08 at cycle   5 NSaved=   5.
 NSaved= 5 IEnMin= 5 EnMin= -237.082866752277     IErMin= 5 ErrMin= 7.41D-08
 ErrMax= 7.41D-08 EMaxC= 1.00D-01 BMatC= 2.04D-12 BMatP= 2.51D-11
 IDIUse=1 WtCom= 1.00D+00 WtEn= 0.00D+00
 Coeff-Com: -0.574D-02 0.560D-02 0.139D+00 0.309D+00 0.552D+00
 Coeff:     -0.574D-02 0.560D-02 0.139D+00 0.309D+00 0.552D+00
 Gap=     0.391 Goal=   None    Shift=    0.000
 RMSDP=1.29D-08 MaxDP=2.48D-07 DE=-2.27D-11 OVMax= 2.62D-07

 Cycle  12  Pass 1  IDiag  1:
 E= -237.082866752279     Delta-E=       -0.000000000002 Rises=F Damp=F
 DIIS: error= 1.27D-08 at cycle   6 NSaved=   6.
 NSaved= 6 IEnMin= 6 EnMin= -237.082866752279     IErMin= 6 ErrMin= 1.27D-08
 ErrMax= 1.27D-08 EMaxC= 1.00D-01 BMatC= 2.43D-14 BMatP= 2.04D-12
 IDIUse=1 WtCom= 1.00D+00 WtEn= 0.00D+00
 Coeff-Com: -0.112D-02 0.595D-03 0.203D-01 0.543D-01 0.144D+00 0.782D+00
 Coeff:     -0.112D-02 0.595D-03 0.203D-01 0.543D-01 0.144D+00 0.782D+00
 Gap=     0.391 Goal=   None    Shift=    0.000
 RMSDP=2.19D-09 MaxDP=3.05D-08 DE=-2.39D-12 OVMax= 3.79D-08

 SCF Done:  E(RB3LYP) =  -237.082866752     A.U. after   12 cycles
             Convg  =    0.2187D-08             -V/T =  2.0107
 KE= 2.345843551398D+02 PE=-1.041090699853D+03 EE= 3.223288879017D+02
 Leave Link  502 at Fri Sep 18 13:21:25 2015, MaxMem=  402653184 cpu:      96.9
 (Enter /share/apps/g09/l601.exe)
 Copying SCF densities to generalized density rwf, IOpCl= 0 IROHF=0.

 **********************************************************************

            Population analysis using the SCF density.

 **********************************************************************

 Orbital symmetries:
       Occupied  (A) (A) (A) (A) (A) (A) (A) (A) (A) (A) (A) (A)
                 (A) (A) (A) (A) (A) (A) (A) (A) (A) (A) (A) (A)
                 (A)
       Virtual   (A) (A) (A) (A) (A) (A) (A) (A) (A) (A) (A) (A)
                 (A) (A) (A) (A) (A) (A) (A) (A) (A) (A) (A) (A)
                 (A) (A) (A) (A) (A) (A) (A) (A) (A) (A) (A) (A)
                 (A) (A) (A) (A) (A) (A) (A) (A) (A) (A) (A) (A)
                 (A) (A) (A) (A) (A) (A) (A) (A) (A) (A) (A) (A)
                 (A) (A) (A) (A) (A) (A) (A) (A) (A) (A) (A) (A)
                 (A) (A) (A) (A) (A) (A) (A) (A) (A) (A) (A) (A)
                 (A) (A) (A) (A) (A) (A) (A) (A) (A)
 The electronic state is 1-A.
 Alpha  occ. eigenvalues --  -10.17720 -10.17674 -10.17483 -10.17457 -10.16870
 Alpha  occ. eigenvalues --  -10.16854  -0.79983  -0.76043  -0.69991  -0.63701
 Alpha  occ. eigenvalues --   -0.58065  -0.56221  -0.46614  -0.44586  -0.43027
 Alpha  occ. eigenvalues --   -0.40692  -0.40481  -0.38013  -0.36351  -0.35340
 Alpha  occ. eigenvalues --   -0.33745  -0.32747  -0.32085  -0.31249  -0.29882
 Alpha virt. eigenvalues --    0.09176   0.10594   0.11694   0.12390   0.14649
 Alpha virt. eigenvalues --    0.15993   0.16317   0.17318   0.17917   0.19063
 Alpha virt. eigenvalues --    0.19189   0.19802   0.20469   0.22398   0.23343
 Alpha virt. eigenvalues --    0.26149   0.26652   0.28100   0.29017   0.50462
 Alpha virt. eigenvalues --    0.50923   0.51503   0.53804   0.55228   0.55854
 Alpha virt. eigenvalues --    0.58736   0.62345   0.64483   0.65889   0.68425
 Alpha virt. eigenvalues --    0.69565   0.71327   0.77862   0.78359   0.80486
 Alpha virt. eigenvalues --    0.84350   0.85815   0.87247   0.88653   0.89859
 Alpha virt. eigenvalues --    0.90479   0.91583   0.93514   0.93794   0.94816
 Alpha virt. eigenvalues --    0.95541   0.97180   0.98175   1.00078   1.02251
 Alpha virt. eigenvalues --    1.04617   1.14014   1.23804   1.40018   1.42389
 Alpha virt. eigenvalues --    1.44435   1.50840   1.54439   1.59783   1.67504
 Alpha virt. eigenvalues --    1.72046   1.79968   1.80805   1.87492   1.91053
 Alpha virt. eigenvalues --    1.92841   1.94800   1.96898   1.99246   2.01682
 Alpha virt. eigenvalues --    2.03336   2.06226   2.14171   2.21946   2.24011
 Alpha virt. eigenvalues --    2.26868   2.32078   2.33472   2.36793   2.41296
 Alpha virt. eigenvalues --    2.42562   2.45746   2.56638   2.58226   2.64646
 Alpha virt. eigenvalues --    2.74297   2.81608   4.11708   4.19044   4.29202
 Alpha virt. eigenvalues --    4.38415   4.45681   4.56076
          Condensed to atoms (all electrons):
              1          2          3          4          5          6
     1  C    5.066748   0.378293   0.377618   0.372473   0.379392  -0.038946
     2  H    0.378293   0.575562  -0.033540  -0.030727  -0.037110   0.005326
     3  H    0.377618  -0.033540   0.579401  -0.031255  -0.034981  -0.004510
     4  H    0.372473  -0.030727  -0.031255   0.579159  -0.029072  -0.003110
     5  C    0.379392  -0.037110  -0.034981  -0.029072   4.966025   0.370842
     6  H   -0.038946   0.005326  -0.004510  -0.003110   0.370842   0.618291
     7  H   -0.040225  -0.004359   0.005271  -0.002718   0.375843  -0.038786
     8  C   -0.046934  -0.004600  -0.004864   0.004533   0.374331  -0.033636
     9  H    0.005053  -0.000010   0.000044  -0.000175  -0.034170  -0.005084
    10  H   -0.007425  -0.000032   0.005728   0.000049  -0.039468  -0.001263
    11  C   -0.005355   0.002352  -0.000292   0.000098  -0.041335   0.004694
    12  H    0.001963   0.003763   0.000230  -0.000129  -0.003365  -0.000013
    13  H   -0.000259   0.000252   0.000040  -0.000020  -0.003884   0.000048
    14  C    0.000126  -0.000152  -0.000016   0.000000   0.003918  -0.000152
    15  H   -0.000002   0.000000   0.000001   0.000000   0.000011  -0.000004
    16  H   -0.000007   0.000014  -0.000003   0.000000   0.000065   0.000004
    17  C    0.000002   0.000008   0.000000   0.000000  -0.000150   0.000002
    18  H   -0.000003  -0.000004   0.000000   0.000000   0.000002   0.000000
    19  H    0.000000   0.000000   0.000000   0.000000   0.000002   0.000000
    20  H    0.000000   0.000001   0.000000   0.000000   0.000001   0.000000
              7          8          9         10         11         12
     1  C   -0.040225  -0.046934   0.005053  -0.007425  -0.005355   0.001963
     2  H   -0.004359  -0.004600  -0.000010  -0.000032   0.002352   0.003763
     3  H    0.005271  -0.004864   0.000044   0.005728  -0.000292   0.000230
     4  H   -0.002718   0.004533  -0.000175   0.000049   0.000098  -0.000129
     5  C    0.375843   0.374331  -0.034170  -0.039468  -0.041335  -0.003365
     6  H   -0.038786  -0.033636  -0.005084  -0.001263   0.004694  -0.000013
     7  H    0.614552  -0.039695  -0.001331   0.005611  -0.007989  -0.000151
     8  C   -0.039695   4.993085   0.369683   0.371717   0.384168  -0.040360
     9  H   -0.001331   0.369683   0.617813  -0.039418  -0.038611   0.005659
    10  H    0.005611   0.371717  -0.039418   0.617658  -0.040215  -0.005162
    11  C   -0.007989   0.384168  -0.038611  -0.040215   4.985472   0.373353
    12  H   -0.000151  -0.040360   0.005659  -0.005162   0.373353   0.611809
    13  H    0.006029  -0.038641  -0.005111   0.005653   0.371997  -0.041605
    14  C    0.000104  -0.039302  -0.004214  -0.003559   0.386045  -0.038329
    15  H    0.000008  -0.003520   0.005244  -0.000433  -0.039232   0.005550
    16  H    0.000007  -0.003454  -0.000436   0.005032  -0.039059  -0.005256
    17  C   -0.000002   0.003942   0.000055   0.000043  -0.046296  -0.002645
    18  H    0.000001   0.000050   0.000006   0.000004  -0.004789   0.004922
    19  H    0.000000  -0.000151   0.000002   0.000002   0.004448  -0.000031
    20  H   -0.000002   0.000050   0.000004   0.000005  -0.004769  -0.000406
             13         14         15         16         17         18
     1  C   -0.000259   0.000126  -0.000002  -0.000007   0.000002  -0.000003
     2  H    0.000252  -0.000152   0.000000   0.000014   0.000008  -0.000004
     3  H    0.000040  -0.000016   0.000001  -0.000003   0.000000   0.000000
     4  H   -0.000020   0.000000   0.000000   0.000000   0.000000   0.000000
     5  C   -0.003884   0.003918   0.000011   0.000065  -0.000150   0.000002
     6  H    0.000048  -0.000152  -0.000004   0.000004   0.000002   0.000000
     7  H    0.006029   0.000104   0.000008   0.000007  -0.000002   0.000001
     8  C   -0.038641  -0.039302  -0.003520  -0.003454   0.003942   0.000050
     9  H   -0.005111  -0.004214   0.005244  -0.000436   0.000055   0.000006
    10  H    0.005653  -0.003559  -0.000433   0.005032   0.000043   0.000004
    11  C    0.371997   0.386045  -0.039232  -0.039059  -0.046296  -0.004789
    12  H   -0.041605  -0.038329   0.005550  -0.005256  -0.002645   0.004922
    13  H    0.616330  -0.038777  -0.005261   0.005604  -0.002933  -0.000398
    14  C   -0.038777   4.952553   0.376328   0.376277   0.370353  -0.034232
    15  H   -0.005261   0.376328   0.613196  -0.040372  -0.038355   0.005207
    16  H    0.005604   0.376277  -0.040372   0.613025  -0.038160  -0.004547
    17  C   -0.002933   0.370353  -0.038355  -0.038160   5.069231   0.377891
    18  H   -0.000398  -0.034232   0.005207  -0.004547   0.377891   0.580069
    19  H   -0.000033  -0.028061  -0.002662  -0.002748   0.370152  -0.031527
    20  H    0.004863  -0.034348  -0.004528   0.005202   0.378092  -0.033404
             19         20
     1  C    0.000000   0.000000
     2  H    0.000000   0.000001
     3  H    0.000000   0.000000
     4  H    0.000000   0.000000
     5  C    0.000002   0.000001
     6  H    0.000000   0.000000
     7  H    0.000000  -0.000002
     8  C   -0.000151   0.000050
     9  H    0.000002   0.000004
    10  H    0.000002   0.000005
    11  C    0.004448  -0.004769
    12  H   -0.000031  -0.000406
    13  H   -0.000033   0.004863
    14  C   -0.028061  -0.034348
    15  H   -0.002662  -0.004528
    16  H   -0.002748   0.005202
    17  C    0.370152   0.378092
    18  H   -0.031527  -0.033404
    19  H    0.582966  -0.031607
    20  H   -0.031607   0.580084
 Mulliken atomic charges:
              1
     1  C   -0.442515
     2  H    0.144963
     3  H    0.141128
     4  H    0.140893
     5  C   -0.246896
     6  H    0.126295
     7  H    0.127833
     8  C   -0.246403
     9  H    0.124998
    10  H    0.125471
    11  C   -0.244684
    12  H    0.130204
    13  H    0.126107
    14  C   -0.244563
    15  H    0.128823
    16  H    0.128811
    17  C   -0.441230
    18  H    0.140753
    19  H    0.139250
    20  H    0.140763
 Sum of Mulliken atomic charges =   0.00000
 Mulliken charges with hydrogens summed into heavy atoms:
              1
     1  C   -0.015531
     5  C    0.007232
     8  C    0.004066
    11  C    0.011627
    14  C    0.013071
    17  C   -0.020465
 Sum of Mulliken charges with hydrogens summed into heavy atoms =   0.00000
 Electronic spatial extent (au):  <R**2>=           1022.7326
 Charge=              0.0000 electrons
 Dipole moment (field-independent basis, Debye):
    X=              0.0135    Y=             -0.0414    Z=              0.0009  Tot=              0.0436
 Quadrupole moment (field-independent basis, Debye-Ang):
   XX=            -42.2468   YY=            -41.5981   ZZ=            -41.1563
   XY=              0.0739   XZ=              0.0403   YZ=             -0.1080
 Traceless Quadrupole moment (field-independent basis, Debye-Ang):
   XX=             -0.5797   YY=              0.0690   ZZ=              0.5107
   XY=              0.0739   XZ=              0.0403   YZ=             -0.1080
 Octapole moment (field-independent basis, Debye-Ang**2):
  XXX=              1.7295  YYY=             -0.2835  ZZZ=             -0.0030  XYY=             -0.3784
  XXY=             -1.7354  XXZ=             -0.2046  XZZ=             -0.1535  YZZ=             -0.0496
  YYZ=              0.1997  XYZ=              0.7185
 Hexadecapole moment (field-independent basis, Debye-Ang**3):
 XXXX=          -1129.1583 YYYY=           -181.9537 ZZZZ=           -104.8736 XXXY=              4.9252
 XXXZ=              5.6049 YYYX=             -1.8618 YYYZ=             -1.5771 ZZZX=             -2.2340
 ZZZY=              0.4895 XXYY=           -220.9773 XXZZ=           -204.8859 YYZZ=            -50.7385
 XXYZ=              1.3679 YYXZ=              0.8888 ZZXY=              0.0759
 N-N= 2.470945900587D+02 E-N=-1.041090701275D+03  KE= 2.345843551398D+02
 No NMR shielding tensors so no spin-rotation constants.
 Leave Link  601 at Fri Sep 18 13:21:26 2015, MaxMem=  402653184 cpu:       0.3
 (Enter /share/apps/g09/l701.exe)
 Compute integral first derivatives.
 ... and contract with generalized density number  0.
 Leave Link  701 at Fri Sep 18 13:21:26 2015, MaxMem=  402653184 cpu:       0.3
 (Enter /share/apps/g09/l702.exe)
 L702 exits ... SP integral derivatives will be done elsewhere.
 Leave Link  702 at Fri Sep 18 13:21:26 2015, MaxMem=  402653184 cpu:       0.0
 (Enter /share/apps/g09/l703.exe)
 Compute integral first derivatives, UseDBF=F ICtDFT=           0.
 Integral derivatives from FoFDir, PRISM(SPDF).
 Calling FoFJK, ICntrl=      2127 FMM=F ISym2X=0 I1Cent= 0 IOpClX= 0 NMat=1 NMatS=1 NMatT=0.
 FoFCou: FMM=F IPFlag=           0 FMFlag=      100000 FMFlg1=         800
         NFxFlg=           0 DoJE=F BraDBF=F KetDBF=F FulRan=T
         Omega=  0.000000  0.000000  1.000000  0.000000  0.000000 ICntrl=    2127 IOpCl=  0
         NMat0=    1 NMatS0=    1 NMatT0=    0 NMatD0=    1 NMtDS0=    0 NMtDT0=    0
         I1Cent=           0 NGrid=           0.
 Symmetry not used in FoFCou.
 Leave Link  703 at Fri Sep 18 13:21:37 2015, MaxMem=  402653184 cpu:      23.3
 (Enter /share/apps/g09/l716.exe)
 Dipole        = 5.29769279D-03-1.62931877D-02 3.57307071D-04
 ***** Axes restored to original set *****
 -------------------------------------------------------------------
 Center     Atomic                   Forces (Hartrees/Bohr)
 Number     Number              X              Y              Z
 -------------------------------------------------------------------
      1        6           0.002144770    0.003408499    0.001292026
      2        1           0.000755733    0.000416167    0.000216934
      3        1           0.000008678   -0.001109780   -0.000767630
      4        1           0.000550153    0.000665255    0.000123583
      5        6           0.005552879   -0.007486067    0.000744883
      6        1          -0.002958901    0.005007892    0.000224672
      7        1          -0.000503344   -0.000996702   -0.005267451
      8        6           0.001747907   -0.002887580    0.004174937
      9        1          -0.000523258    0.005295765   -0.000587156
     10        1           0.000007518    0.000781956    0.004504815
     11        6          -0.000412452   -0.002730073   -0.004297961
     12        1          -0.002543214   -0.005047124    0.000459017
     13        1           0.000085127   -0.001581024   -0.004254436
     14        6          -0.000929197    0.001077444    0.000190235
     15        1           0.001797474    0.004989316   -0.000746482
     16        1           0.000509500    0.000609729    0.005296920
     17        6          -0.005483392   -0.000882194   -0.001702499
     18        1           0.000797558    0.000525252   -0.000490630
     19        1          -0.001161907    0.000371935    0.000069708
     20        1           0.000558367   -0.000428666    0.000816514
 -------------------------------------------------------------------
 Cartesian Forces:  Max     0.007486067 RMS     0.002663951
 Leave Link  716 at Fri Sep 18 13:21:38 2015, MaxMem=  402653184 cpu:       0.1
 (Enter /share/apps/g09/l103.exe)

 GradGradGradGradGradGradGradGradGradGradGradGradGradGradGradGradGradGrad
 Berny optimization.
 Internal  Forces:  Max     0.009022472 RMS     0.002490679
 Search for a local minimum.
 Step number   1 out of a maximum of  110
 All quantities printed in internal units (Hartrees-Bohrs-Radians)
 RMS Force = .24907D-02 SwitMx=.10000D-02 MixMth= 1
 Mixed Optimization -- RFO/linear search
 Second derivative matrix not updated -- first step.
     Eigenvalues ---    0.00293   0.00301   0.00311   0.00405   0.00405
     Eigenvalues ---    0.03459   0.03461   0.03543   0.03573   0.04768
     Eigenvalues ---    0.04785   0.04794   0.04821   0.05446   0.05464
     Eigenvalues ---    0.05479   0.05486   0.08167   0.08211   0.08311
     Eigenvalues ---    0.08404   0.12087   0.12114   0.12195   0.12258
     Eigenvalues ---    0.16000   0.16000   0.16000   0.16000   0.16000
     Eigenvalues ---    0.16000   0.21844   0.21855   0.21869   0.21878
     Eigenvalues ---    0.28897   0.28952   0.29022   0.29678   0.29678
     Eigenvalues ---    0.32789   0.32850   0.32864   0.32869   0.32875
     Eigenvalues ---    0.32916   0.32920   0.32959   0.34111   0.34143
     Eigenvalues ---    0.34144   0.34154   0.34178   0.342071000.00000
     Eigenvalues --- 1000.000001000.000001000.000001000.000001000.00000
     Eigenvalues --- 1000.000001000.000001000.000001000.000001000.00000
     Eigenvalues --- 1000.000001000.000001000.000001000.000001000.00000
     Eigenvalues --- 1000.000001000.000001000.000001000.000001000.00000
     Eigenvalues --- 1000.000001000.000001000.000001000.000001000.00000
     Eigenvalues --- 1000.000001000.000001000.000001000.000001000.00000
     Eigenvalues --- 1000.000001000.000001000.000001000.000001000.00000
     Eigenvalues --- 1000.000001000.000001000.000001000.000001000.00000
     Eigenvalues --- 1000.000001000.000001000.000001000.000001000.00000
 RFO step:  Lambda=-2.63989995D-03 EMin= 2.92800601D-03
 Linear search not attempted -- first point.
 Iteration  1 RMS(Cart)=  0.03953779 RMS(Int)=  0.00043531
 Iteration  2 RMS(Cart)=  0.00070812 RMS(Int)=  0.00008841
 Iteration  3 RMS(Cart)=  0.00000048 RMS(Int)=  0.00008841
 Variable       Old X    -DE/DX   Delta X   Delta X   Delta X     New X
                                 (Linear)    (Quad)   (Total)
    R1        2.07142  -0.00012   0.00000  -0.00035  -0.00035   2.07108
    R2        2.07070   0.00089   0.00000   0.00260   0.00260   2.07330
    R3        2.06982   0.00070   0.00000   0.00204   0.00204   2.07186
    R4        2.88611   0.00367   0.00000   0.01227   0.01227   2.89838
    R5        2.09423  -0.00570   0.00000  -0.01726  -0.01726   2.07697
    R6        2.09316  -0.00529   0.00000  -0.01599  -0.01599   2.07717
    R7        2.90218   0.00356   0.00000   0.01221   0.01221   2.91439
    R8        2.09271  -0.00505   0.00000  -0.01523  -0.01523   2.07748
    R9        2.09192  -0.00451   0.00000  -0.01359  -0.01359   2.07833
   R10        2.89956   0.00189   0.00000   0.00644   0.00644   2.90600
   R11        2.09200  -0.00536   0.00000  -0.01615  -0.01615   2.07585
   R12        2.09124  -0.00428   0.00000  -0.01289  -0.01289   2.07835
   R13        2.90104   0.00025   0.00000   0.00084   0.00084   2.90188
   R14        2.09282  -0.00525   0.00000  -0.01583  -0.01583   2.07699
   R15        2.09290  -0.00527   0.00000  -0.01592  -0.01592   2.07699
   R16        2.88609   0.00335   0.00000   0.01119   0.01119   2.89728
   R17        2.07088   0.00076   0.00000   0.00220   0.00220   2.07308
   R18        2.07031   0.00087   0.00000   0.00253   0.00253   2.07284
   R19        2.07089   0.00075   0.00000   0.00219   0.00219   2.07308
    A1        1.87167   0.00045   0.00000   0.00402   0.00404   1.87571
    A2        1.87667  -0.00085   0.00000  -0.00451  -0.00453   1.87214
    A3        1.94581   0.00105   0.00000   0.00752   0.00752   1.95333
    A4        1.87748   0.00029   0.00000  -0.00015  -0.00015   1.87733
    A5        1.94676  -0.00164   0.00000  -0.01042  -0.01041   1.93635
    A6        1.94180   0.00068   0.00000   0.00350   0.00349   1.94529
    A7        1.90874  -0.00243   0.00000  -0.01079  -0.01093   1.89781
    A8        1.91487  -0.00123   0.00000  -0.00500  -0.00493   1.90994
    A9        1.97053   0.00567   0.00000   0.02718   0.02719   1.99771
   A10        1.84458   0.00109   0.00000  -0.00041  -0.00047   1.84411
   A11        1.90355  -0.00084   0.00000   0.00244   0.00243   1.90598
   A12        1.91727  -0.00257   0.00000  -0.01523  -0.01521   1.90206
   A13        1.90547  -0.00174   0.00000  -0.00009   0.00002   1.90549
   A14        1.91562  -0.00311   0.00000  -0.01323  -0.01313   1.90250
   A15        1.96311   0.00902   0.00000   0.04298   0.04302   2.00613
   A16        1.84542   0.00185   0.00000   0.00097   0.00074   1.84616
   A17        1.91292  -0.00375   0.00000  -0.01968  -0.01994   1.89298
   A18        1.91755  -0.00275   0.00000  -0.01364  -0.01367   1.90388
   A19        1.91660  -0.00138   0.00000   0.00286   0.00297   1.91957
   A20        1.91856  -0.00314   0.00000  -0.01596  -0.01581   1.90276
   A21        1.94698   0.00833   0.00000   0.03870   0.03876   1.98574
   A22        1.84411   0.00199   0.00000   0.00560   0.00542   1.84953
   A23        1.91721  -0.00373   0.00000  -0.01946  -0.01973   1.89747
   A24        1.91763  -0.00249   0.00000  -0.01389  -0.01384   1.90380
   A25        1.91774  -0.00271   0.00000  -0.01521  -0.01532   1.90242
   A26        1.91718  -0.00254   0.00000  -0.01342  -0.01354   1.90365
   A27        1.94985   0.00694   0.00000   0.03305   0.03308   1.98293
   A28        1.84709   0.00146   0.00000   0.00106   0.00090   1.84799
   A29        1.91457  -0.00169   0.00000  -0.00347  -0.00337   1.91120
   A30        1.91464  -0.00180   0.00000  -0.00393  -0.00385   1.91079
   A31        1.94751  -0.00116   0.00000  -0.00817  -0.00820   1.93931
   A32        1.94077   0.00170   0.00000   0.01253   0.01256   1.95333
   A33        1.94759  -0.00118   0.00000  -0.00833  -0.00836   1.93923
   A34        1.87521  -0.00007   0.00000   0.00157   0.00159   1.87680
   A35        1.87378   0.00083   0.00000   0.00126   0.00118   1.87496
   A36        1.87523  -0.00007   0.00000   0.00145   0.00147   1.87670
    D1       -3.10727   0.00065   0.00000   0.01451   0.01446  -3.09280
    D2       -1.09158  -0.00009   0.00000   0.00512   0.00512  -1.08647
    D3        1.05320  -0.00035   0.00000   0.00079   0.00082   1.05401
    D4        1.08408   0.00047   0.00000   0.01137   0.01133   1.09541
    D5        3.09976  -0.00027   0.00000   0.00198   0.00199   3.10175
    D6       -1.03865  -0.00053   0.00000  -0.00235  -0.00231  -1.04096
    D7       -1.01243   0.00075   0.00000   0.01625   0.01621  -0.99622
    D8        1.00325   0.00001   0.00000   0.00686   0.00687   1.01012
    D9       -3.13515  -0.00025   0.00000   0.00253   0.00257  -3.13259
   D10        2.87505  -0.00011   0.00000   0.03304   0.03303   2.90808
   D11        0.85978   0.00038   0.00000   0.03929   0.03936   0.89914
   D12       -1.28075  -0.00009   0.00000   0.03663   0.03679  -1.24396
   D13        0.74940  -0.00020   0.00000   0.02689   0.02676   0.77616
   D14       -1.26587   0.00028   0.00000   0.03314   0.03309  -1.23278
   D15        2.87678  -0.00018   0.00000   0.03047   0.03052   2.90730
   D16       -1.26470   0.00038   0.00000   0.03445   0.03433  -1.23037
   D17        3.00322   0.00087   0.00000   0.04070   0.04066   3.04388
   D18        0.86269   0.00041   0.00000   0.03803   0.03809   0.90078
   D19        1.02277  -0.00033   0.00000  -0.00241  -0.00245   1.02032
   D20       -0.99893  -0.00013   0.00000  -0.00165  -0.00161  -1.00054
   D21       -3.13062  -0.00042   0.00000   0.00090   0.00107  -3.12955
   D22       -3.13726   0.00088   0.00000   0.01253   0.01229  -3.12497
   D23        1.12422   0.00108   0.00000   0.01329   0.01313   1.13735
   D24       -1.00747   0.00079   0.00000   0.01584   0.01581  -0.99166
   D25       -1.11668  -0.00061   0.00000  -0.00536  -0.00536  -1.12204
   D26       -3.13838  -0.00041   0.00000  -0.00459  -0.00452   3.14028
   D27        1.01311  -0.00070   0.00000  -0.00205  -0.00184   1.01127
   D28        1.01194  -0.00110   0.00000  -0.01474  -0.01460   0.99735
   D29       -1.01322   0.00018   0.00000   0.00054   0.00051  -1.01271
   D30        3.14110  -0.00045   0.00000  -0.00742  -0.00738   3.13372
   D31        3.14138   0.00017   0.00000   0.00146   0.00141  -3.14039
   D32        1.11622   0.00145   0.00000   0.01674   0.01652   1.13274
   D33       -1.01264   0.00083   0.00000   0.00878   0.00863  -1.00401
   D34       -1.12028  -0.00101   0.00000  -0.01098  -0.01081  -1.13109
   D35        3.13774   0.00026   0.00000   0.00430   0.00430  -3.14115
   D36        1.00887  -0.00036   0.00000  -0.00366  -0.00359   1.00529
   D37        1.04835  -0.00024   0.00000  -0.00406  -0.00403   1.04432
   D38       -3.14141   0.00005   0.00000   0.00094   0.00094  -3.14047
   D39       -1.04791   0.00032   0.00000   0.00567   0.00564  -1.04227
   D40       -3.10386  -0.00018   0.00000  -0.00356  -0.00350  -3.10735
   D41       -1.01043   0.00010   0.00000   0.00144   0.00148  -1.00896
   D42        1.08307   0.00037   0.00000   0.00617   0.00618   1.08925
   D43       -1.08197  -0.00042   0.00000  -0.00651  -0.00651  -1.08849
   D44        1.01145  -0.00013   0.00000  -0.00151  -0.00154   1.00991
   D45        3.10495   0.00014   0.00000   0.00322   0.00316   3.10811
         Item               Value     Threshold  Converged?
 Maximum Force            0.009022     0.000015     NO 
 RMS     Force            0.002491     0.000010     NO 
 Maximum Displacement     0.146363     0.000060     NO 
 RMS     Displacement     0.039834     0.000040     NO 
 Predicted change in Energy=-1.348329D-03
 GradGradGradGradGradGradGradGradGradGradGradGradGradGradGradGradGradGrad

 Leave Link  103 at Fri Sep 18 13:21:38 2015, MaxMem=  402653184 cpu:       0.1
 (Enter /share/apps/g09/l202.exe)
                          Input orientation:                          
 ---------------------------------------------------------------------
 Center     Atomic      Atomic             Coordinates (Angstroms)
 Number     Number       Type             X           Y           Z
 ---------------------------------------------------------------------
      1          6           0        2.638177    0.865613   -0.244897
      2          1           0        1.985797    1.731580   -0.084758
      3          1           0        2.766821    0.745940   -1.327880
      4          1           0        3.618275    1.113691    0.179272
      5          6           0        2.061575   -0.409436    0.382945
      6          1           0        2.777485   -1.230304    0.235833
      7          1           0        1.981359   -0.277169    1.471198
      8          6           0        0.686236   -0.829862   -0.173973
      9          1           0        0.465474   -1.857819    0.147206
     10          1           0        0.739838   -0.864614   -1.271922
     11          6           0       -0.486223    0.073227    0.243846
     12          1           0       -0.298910    1.105822   -0.080726
     13          1           0       -0.539683    0.106148    1.341866
     14          6           0       -1.844542   -0.379157   -0.311503
     15          1           0       -2.037280   -1.411838    0.011660
     16          1           0       -1.790822   -0.412446   -1.408778
     17          6           0       -3.012334    0.517457    0.116253
     18          1           0       -2.863273    1.549676   -0.224001
     19          1           0       -3.967894    0.168906   -0.294360
     20          1           0       -3.111628    0.542650    1.208487
 ---------------------------------------------------------------------
                    Distance matrix (angstroms):
                    1          2          3          4          5
     1  C    0.000000
     2  H    1.095966   0.000000
     3  H    1.097143   1.768286   0.000000
     4  H    1.096382   1.765356   1.769667   0.000000
     5  C    1.533755   2.192815   2.181556   2.187399   0.000000
     6  H    2.154849   3.082580   2.520089   2.490871   1.099088
     7  H    2.163872   2.540884   3.081970   2.506603   1.099193
     8  C    2.586453   2.873639   2.853680   3.535397   1.542230
     9  H    3.505919   3.904993   3.775134   4.332558   2.168161
    10  H    2.766254   3.114803   2.589532   3.782203   2.166278
    11  C    3.260156   2.994828   3.674936   4.234812   2.596841
    12  H    2.951463   2.368855   3.329206   3.925812   2.843041
    13  H    3.632272   3.324956   4.297656   4.433439   2.819911
    14  C    4.652812   4.379283   4.854228   5.684349   3.967483
    15  H    5.206967   5.106419   5.434129   6.196103   4.235950
    16  H    4.754375   4.540123   4.703244   5.840319   4.248675
    17  C    5.672734   5.147408   5.961237   6.657660   5.164765
    18  H    5.543855   4.854478   5.793315   6.508700   5.334850
    19  H    6.642892   6.158922   6.837946   7.659432   6.094892
    20  H    5.939435   5.391640   6.405517   6.832054   5.324473
                    6          7          8          9         10
     6  H    0.000000
     7  H    1.751688   0.000000
     8  C    2.168321   2.165503   0.000000
     9  H    2.397296   2.559164   1.099357   0.000000
    10  H    2.561066   3.067764   1.099806   1.753754   0.000000
    11  C    3.514405   2.778152   1.537791   2.154995   2.163405
    12  H    3.875810   3.085573   2.173955   3.069105   2.525977
    13  H    3.743397   2.553295   2.162582   2.508928   3.067807
    14  C    4.731507   4.222078   2.574274   2.780832   2.799480
    15  H    4.823398   4.423481   2.791182   2.545791   3.107961
    16  H    4.923724   4.747832   2.799070   3.098557   2.574378
    17  C    6.049047   5.234910   3.947014   4.211655   4.232722
    18  H    6.305386   5.448075   4.273608   4.778010   4.461989
    19  H    6.909344   6.221719   4.761613   4.894624   4.917980
    20  H    6.226643   5.165234   4.268344   4.436691   4.792349
                   11         12         13         14         15
    11  C    0.000000
    12  H    1.098492   0.000000
    13  H    1.099813   1.755303   0.000000
    14  C    1.535609   2.155782   2.161436   0.000000
    15  H    2.159886   3.060894   2.513270   1.099095   0.000000
    16  H    2.160792   2.508915   3.065995   1.099093   1.754186
    17  C    2.568046   2.783459   2.790216   1.533176   2.164220
    18  H    2.837103   2.606433   3.151949   2.183087   3.083564
    19  H    3.524323   3.792742   3.799184   2.193010   2.513895
    20  H    2.836132   3.144935   2.612130   2.183027   2.531134
                   16         17         18         19         20
    16  H    0.000000
    17  C    2.163915   0.000000
    18  H    2.530567   1.097027   0.000000
    19  H    2.513869   1.096898   1.769651   0.000000
    20  H    3.083312   1.097028   1.768560   1.769583   0.000000
 Stoichiometry    C6H14
 Framework group  C1[X(C6H14)]
 Deg. of freedom    54
 Full point group                 C1      NOp   1
 Largest Abelian subgroup         C1      NOp   1
 Largest concise Abelian subgroup C1      NOp   1
                         Standard orientation:                         
 ---------------------------------------------------------------------
 Center     Atomic      Atomic             Coordinates (Angstroms)
 Number     Number       Type             X           Y           Z
 ---------------------------------------------------------------------
      1          6           0        2.639877    0.861873   -0.240360
      2          1           0        1.989113    1.727888   -0.074030
      3          1           0        2.767642    0.749212   -1.324199
      4          1           0        3.620670    1.105400    0.184839
      5          6           0        2.061432   -0.416333    0.379315
      6          1           0        2.775814   -1.237449    0.226273
      7          1           0        1.982121   -0.291198    1.468478
      8          6           0        0.685016   -0.830628   -0.179532
      9          1           0        0.462653   -1.860320    0.134913
     10          1           0        0.737878   -0.858138   -1.277722
     11          6           0       -0.485602    0.071697    0.245048
     12          1           0       -0.296683    1.106108   -0.072738
     13          1           0       -0.538326    0.097376    1.343297
     14          6           0       -1.845054   -0.374595   -0.312454
     15          1           0       -2.039400   -1.409073    0.003926
     16          1           0       -1.792071   -0.400647   -1.409960
     17          6           0       -3.011010    0.521179    0.122016
     18          1           0       -2.860353    1.555387   -0.211430
     19          1           0       -3.967432    0.177048   -0.290313
     20          1           0       -3.109585    0.539249    1.214457
 ---------------------------------------------------------------------
 Rotational constants (GHZ):      8.8484217      1.3031434      1.2239743
 Leave Link  202 at Fri Sep 18 13:21:38 2015, MaxMem=  402653184 cpu:       0.0
 (Enter /share/apps/g09/l301.exe)
 Standard basis: 6-31G(d) (6D, 7F)
 Ernie: Thresh=  0.10000D-02 Tol=  0.10000D-05 Strict=F.
 There are   118 symmetry adapted basis functions of A   symmetry.
 Integral buffers will be    131072 words long.
 Raffenetti 2 integral format.
 Two-electron integral symmetry is turned on.
   118 basis functions,   224 primitive gaussians,   118 cartesian basis functions
    25 alpha electrons       25 beta electrons
       nuclear repulsion energy       245.6993041779 Hartrees.
 IExCor=  402 DFT=T Ex+Corr=B3LYP ExCW=0 ScaHFX=  0.200000
 ScaDFX=  0.800000  0.720000  1.000000  0.810000 ScalE2=  1.000000  1.000000
 IRadAn=      5 IRanWt=     -1 IRanGd=            0 ICorTp=0
 NAtoms=   20 NActive=   20 NUniq=   20 SFac= 7.50D-01 NAtFMM=   80 NAOKFM=F Big=F
 Leave Link  301 at Fri Sep 18 13:21:38 2015, MaxMem=  402653184 cpu:       0.1
 (Enter /share/apps/g09/l302.exe)
 NPDir=0 NMtPBC=     1 NCelOv=     1 NCel=       1 NClECP=     1 NCelD=      1
         NCelK=      1 NCelE2=     1 NClLst=     1 CellRange=     0.0.
 One-electron integrals computed using PRISM.
 NBasis=   118 RedAO= T  NBF=   118
 NBsUse=   118 1.00D-06 NBFU=   118
 Precomputing XC quadrature grid using
 IXCGrd= 2 IRadAn=           5 IRanWt=          -1 IRanGd=           0 AccXCQ= 1.00D-10.
 NRdTot=    1655 NPtTot=      443048 NUsed=      454906 NTot=      454938
 NSgBfM=   118   118   118   118   118 NAtAll=    20    20.
 Leave Link  302 at Fri Sep 18 13:21:38 2015, MaxMem=  402653184 cpu:       1.2
 (Enter /share/apps/g09/l303.exe)
 DipDrv:  MaxL=1.
 Leave Link  303 at Fri Sep 18 13:21:38 2015, MaxMem=  402653184 cpu:       0.1
 (Enter /share/apps/g09/l401.exe)
 Initial guess read from the read-write file.
 B after Tr=     0.000000    0.000000    0.000000
         Rot=    1.000000    0.000000    0.000000    0.000000 Ang=   0.00 deg.
 Guess basis will be translated and rotated to current coordinates.
 Initial guess orbital symmetries:
       Occupied  (A) (A) (A) (A) (A) (A) (A) (A) (A) (A) (A) (A)
                 (A) (A) (A) (A) (A) (A) (A) (A) (A) (A) (A) (A)
                 (A)
       Virtual   (A) (A) (A) (A) (A) (A) (A) (A) (A) (A) (A) (A)
                 (A) (A) (A) (A) (A) (A) (A) (A) (A) (A) (A) (A)
                 (A) (A) (A) (A) (A) (A) (A) (A) (A) (A) (A) (A)
                 (A) (A) (A) (A) (A) (A) (A) (A) (A) (A) (A) (A)
                 (A) (A) (A) (A) (A) (A) (A) (A) (A) (A) (A) (A)
                 (A) (A) (A) (A) (A) (A) (A) (A) (A) (A) (A) (A)
                 (A) (A) (A) (A) (A) (A) (A) (A) (A) (A) (A) (A)
                 (A) (A) (A) (A) (A) (A) (A) (A) (A)
 The electronic state of the initial guess is 1-A.
 Generating alternative initial guess.
 Harris functional with IExCor=  402 diagonalized for initial guess.
 ExpMin= 1.61D-01 ExpMax= 3.05D+03 ExpMxC= 4.57D+02 IAcc=3 IRadAn=         5 AccDes= 0.00D+00
 HarFok:  IExCor=  402 AccDes= 0.00D+00 IRadAn=         5 IDoV= 1
 ScaDFX=  1.000000  1.000000  1.000000  1.000000
 FoFCou: FMM=F IPFlag=           0 FMFlag=      100000 FMFlg1=           0
         NFxFlg=           0 DoJE=T BraDBF=F KetDBF=T FulRan=T
         Omega=  0.000000  0.000000  1.000000  0.000000  0.000000 ICntrl=     500 IOpCl=  0
         NMat0=    1 NMatS0=    1 NMatT0=    0 NMatD0=    1 NMtDS0=    0 NMtDT0=    0
         I1Cent=           4 NGrid=           0.
 Petite list used in FoFCou.
 Harris En= -237.182666097397    
 Leave Link  401 at Fri Sep 18 13:21:43 2015, MaxMem=  402653184 cpu:      10.1
 (Enter /share/apps/g09/l502.exe)
 Closed shell SCF:
 Requested convergence on RMS density matrix=1.00D-08 within 128 cycles.
 Requested convergence on MAX density matrix=1.00D-06.
 Requested convergence on             energy=1.00D-06.
 No special actions if energy rises.
 Using DIIS extrapolation, IDIIS=  1040.
 Integral symmetry usage will be decided dynamically.
       454713 words used for storage of precomputed grid.
 Keep R1 ints in memory in canonical form, NReq=26108768.
 IEnd=      516257 IEndB=      516257 NGot=   402653184 MDV=   377516851
 LenX=   377516851 LenY=   377502486
 Symmetry not used in FoFDir.
 MinBra= 0 MaxBra= 2 Meth= 1.
 IRaf=       0 NMat=   1 IRICut=       1 DoRegI=T DoRafI=F ISym2E= 0 JSym2E=0.
 Integral accuracy reduced to 1.0D-05 until final iterations.

 Cycle   1  Pass 0  IDiag  1:
 E= -237.082883137176    
 DIIS: error= 1.67D-03 at cycle   1 NSaved=   1.
 NSaved= 1 IEnMin= 1 EnMin= -237.082883137176     IErMin= 1 ErrMin= 1.67D-03
 ErrMax= 1.67D-03 EMaxC= 1.00D-01 BMatC= 5.67D-04 BMatP= 5.67D-04
 IDIUse=3 WtCom= 9.83D-01 WtEn= 1.67D-02
 Coeff-Com:  0.100D+01
 Coeff-En:   0.100D+01
 Coeff:      0.100D+01
 Gap=     0.398 Goal=   None    Shift=    0.000
 GapD=    0.398 DampG=1.000 DampE=1.000 DampFc=1.0000 IDamp=-1.
 RMSDP=3.12D-04 MaxDP=4.30D-03              OVMax= 8.58D-03

 Cycle   2  Pass 0  IDiag  1:
 E= -237.083929116304     Delta-E=       -0.001045979127 Rises=F Damp=F
 DIIS: error= 3.97D-04 at cycle   2 NSaved=   2.
 NSaved= 2 IEnMin= 2 EnMin= -237.083929116304     IErMin= 2 ErrMin= 3.97D-04
 ErrMax= 3.97D-04 EMaxC= 1.00D-01 BMatC= 2.93D-05 BMatP= 5.67D-04
 IDIUse=3 WtCom= 9.96D-01 WtEn= 3.97D-03
 Coeff-Com:  0.279D-01 0.972D+00
 Coeff-En:   0.000D+00 0.100D+01
 Coeff:      0.278D-01 0.972D+00
 Gap=     0.396 Goal=   None    Shift=    0.000
 RMSDP=1.03D-04 MaxDP=1.65D-03 DE=-1.05D-03 OVMax= 2.11D-03

 Cycle   3  Pass 0  IDiag  1:
 E= -237.083933330954     Delta-E=       -0.000004214651 Rises=F Damp=F
 DIIS: error= 4.38D-04 at cycle   3 NSaved=   3.
 NSaved= 3 IEnMin= 3 EnMin= -237.083933330954     IErMin= 2 ErrMin= 3.97D-04
 ErrMax= 4.38D-04 EMaxC= 1.00D-01 BMatC= 3.12D-05 BMatP= 2.93D-05
 IDIUse=3 WtCom= 9.96D-01 WtEn= 4.38D-03
 Coeff-Com: -0.334D-01 0.522D+00 0.512D+00
 Coeff-En:   0.000D+00 0.465D+00 0.535D+00
 Coeff:     -0.333D-01 0.522D+00 0.512D+00
 Gap=     0.397 Goal=   None    Shift=    0.000
 RMSDP=5.13D-05 MaxDP=8.55D-04 DE=-4.21D-06 OVMax= 1.01D-03

 Cycle   4  Pass 0  IDiag  1:
 E= -237.083965303654     Delta-E=       -0.000031972699 Rises=F Damp=F
 DIIS: error= 3.80D-05 at cycle   4 NSaved=   4.
 NSaved= 4 IEnMin= 4 EnMin= -237.083965303654     IErMin= 4 ErrMin= 3.80D-05
 ErrMax= 3.80D-05 EMaxC= 1.00D-01 BMatC= 3.19D-07 BMatP= 2.93D-05
 IDIUse=1 WtCom= 1.00D+00 WtEn= 0.00D+00
 Coeff-Com: -0.130D-01 0.130D+00 0.164D+00 0.719D+00
 Coeff:     -0.130D-01 0.130D+00 0.164D+00 0.719D+00
 Gap=     0.397 Goal=   None    Shift=    0.000
 RMSDP=6.09D-06 MaxDP=7.49D-05 DE=-3.20D-05 OVMax= 1.15D-04

 Initial convergence to 1.0D-05 achieved.  Increase integral accuracy.
 Cycle   5  Pass 1  IDiag  1:
 E= -237.083953125729     Delta-E=        0.000012177925 Rises=F Damp=F
 DIIS: error= 1.05D-05 at cycle   1 NSaved=   1.
 NSaved= 1 IEnMin= 1 EnMin= -237.083953125729     IErMin= 1 ErrMin= 1.05D-05
 ErrMax= 1.05D-05 EMaxC= 1.00D-01 BMatC= 1.90D-08 BMatP= 1.90D-08
 IDIUse=1 WtCom= 1.00D+00 WtEn= 0.00D+00
 Coeff-Com:  0.100D+01
 Coeff:      0.100D+01
 Gap=     0.397 Goal=   None    Shift=    0.000
 RMSDP=6.09D-06 MaxDP=7.49D-05 DE= 1.22D-05 OVMax= 5.50D-05

 Cycle   6  Pass 1  IDiag  1:
 E= -237.083953125101     Delta-E=        0.000000000628 Rises=F Damp=F
 DIIS: error= 1.08D-05 at cycle   2 NSaved=   2.
 NSaved= 2 IEnMin= 1 EnMin= -237.083953125729     IErMin= 1 ErrMin= 1.05D-05
 ErrMax= 1.08D-05 EMaxC= 1.00D-01 BMatC= 2.18D-08 BMatP= 1.90D-08
 IDIUse=1 WtCom= 1.00D+00 WtEn= 0.00D+00
 Coeff-Com:  0.518D+00 0.482D+00
 Coeff:      0.518D+00 0.482D+00
 Gap=     0.397 Goal=   None    Shift=    0.000
 RMSDP=1.26D-06 MaxDP=2.43D-05 DE= 6.28D-10 OVMax= 2.73D-05

 Cycle   7  Pass 1  IDiag  1:
 E= -237.083953146400     Delta-E=       -0.000000021299 Rises=F Damp=F
 DIIS: error= 1.12D-06 at cycle   3 NSaved=   3.
 NSaved= 3 IEnMin= 3 EnMin= -237.083953146400     IErMin= 3 ErrMin= 1.12D-06
 ErrMax= 1.12D-06 EMaxC= 1.00D-01 BMatC= 3.02D-10 BMatP= 1.90D-08
 IDIUse=1 WtCom= 1.00D+00 WtEn= 0.00D+00
 Coeff-Com:  0.988D-01 0.145D+00 0.756D+00
 Coeff:      0.988D-01 0.145D+00 0.756D+00
 Gap=     0.397 Goal=   None    Shift=    0.000
 RMSDP=2.03D-07 MaxDP=3.32D-06 DE=-2.13D-08 OVMax= 4.38D-06

 Cycle   8  Pass 1  IDiag  1:
 E= -237.083953146679     Delta-E=       -0.000000000279 Rises=F Damp=F
 DIIS: error= 3.30D-07 at cycle   4 NSaved=   4.
 NSaved= 4 IEnMin= 4 EnMin= -237.083953146679     IErMin= 4 ErrMin= 3.30D-07
 ErrMax= 3.30D-07 EMaxC= 1.00D-01 BMatC= 2.42D-11 BMatP= 3.02D-10
 IDIUse=1 WtCom= 1.00D+00 WtEn= 0.00D+00
 Coeff-Com: -0.103D-01 0.884D-02 0.251D+00 0.750D+00
 Coeff:     -0.103D-01 0.884D-02 0.251D+00 0.750D+00
 Gap=     0.397 Goal=   None    Shift=    0.000
 RMSDP=6.39D-08 MaxDP=1.17D-06 DE=-2.79D-10 OVMax= 1.44D-06

 Cycle   9  Pass 1  IDiag  1:
 E= -237.083953146704     Delta-E=       -0.000000000024 Rises=F Damp=F
 DIIS: error= 8.05D-08 at cycle   5 NSaved=   5.
 NSaved= 5 IEnMin= 5 EnMin= -237.083953146704     IErMin= 5 ErrMin= 8.05D-08
 ErrMax= 8.05D-08 EMaxC= 1.00D-01 BMatC= 1.55D-12 BMatP= 2.42D-11
 IDIUse=1 WtCom= 1.00D+00 WtEn= 0.00D+00
 Coeff-Com: -0.710D-02 0.147D-02 0.108D+00 0.369D+00 0.529D+00
 Coeff:     -0.710D-02 0.147D-02 0.108D+00 0.369D+00 0.529D+00
 Gap=     0.397 Goal=   None    Shift=    0.000
 RMSDP=1.20D-08 MaxDP=2.09D-07 DE=-2.44D-11 OVMax= 2.39D-07

 Cycle  10  Pass 1  IDiag  1:
 E= -237.083953146706     Delta-E=       -0.000000000002 Rises=F Damp=F
 DIIS: error= 1.10D-08 at cycle   6 NSaved=   6.
 NSaved= 6 IEnMin= 6 EnMin= -237.083953146706     IErMin= 6 ErrMin= 1.10D-08
 ErrMax= 1.10D-08 EMaxC= 1.00D-01 BMatC= 3.26D-14 BMatP= 1.55D-12
 IDIUse=1 WtCom= 1.00D+00 WtEn= 0.00D+00
 Coeff-Com: -0.129D-02-0.135D-03 0.137D-01 0.564D-01 0.160D+00 0.772D+00
 Coeff:     -0.129D-02-0.135D-03 0.137D-01 0.564D-01 0.160D+00 0.772D+00
 Gap=     0.397 Goal=   None    Shift=    0.000
 RMSDP=1.94D-09 MaxDP=3.21D-08 DE=-2.27D-12 OVMax= 4.11D-08

 SCF Done:  E(RB3LYP) =  -237.083953147     A.U. after   10 cycles
             Convg  =    0.1939D-08             -V/T =  2.0106
 KE= 2.346045933617D+02 PE=-1.038304625594D+03 EE= 3.209167749078D+02
 Leave Link  502 at Fri Sep 18 13:22:29 2015, MaxMem=  402653184 cpu:      91.2
 (Enter /share/apps/g09/l701.exe)
 Compute integral first derivatives.
 ... and contract with generalized density number  0.
 Leave Link  701 at Fri Sep 18 13:22:29 2015, MaxMem=  402653184 cpu:       0.3
 (Enter /share/apps/g09/l702.exe)
 L702 exits ... SP integral derivatives will be done elsewhere.
 Leave Link  702 at Fri Sep 18 13:22:29 2015, MaxMem=  402653184 cpu:       0.0
 (Enter /share/apps/g09/l703.exe)
 Compute integral first derivatives, UseDBF=F ICtDFT=           0.
 Integral derivatives from FoFDir, PRISM(SPDF).
 Calling FoFJK, ICntrl=      2127 FMM=F ISym2X=0 I1Cent= 0 IOpClX= 0 NMat=1 NMatS=1 NMatT=0.
 FoFCou: FMM=F IPFlag=           0 FMFlag=      100000 FMFlg1=         800
         NFxFlg=           0 DoJE=F BraDBF=F KetDBF=F FulRan=T
         Omega=  0.000000  0.000000  1.000000  0.000000  0.000000 ICntrl=    2127 IOpCl=  0
         NMat0=    1 NMatS0=    1 NMatT0=    0 NMatD0=    1 NMtDS0=    0 NMtDT0=    0
         I1Cent=           0 NGrid=           0.
 Symmetry not used in FoFCou.
 Leave Link  703 at Fri Sep 18 13:22:41 2015, MaxMem=  402653184 cpu:      23.1
 (Enter /share/apps/g09/l716.exe)
 Dipole        = 8.39733899D-03-2.00403954D-02 2.39798727D-03
 ***** Axes restored to original set *****
 -------------------------------------------------------------------
 Center     Atomic                   Forces (Hartrees/Bohr)
 Number     Number              X              Y              Z
 -------------------------------------------------------------------
      1        6          -0.000718273    0.000482852   -0.000289071
      2        1          -0.000187481   -0.000004763    0.000078975
      3        1          -0.000036827   -0.000027102   -0.000144799
      4        1          -0.000148910   -0.000604436    0.000214894
      5        6          -0.000948576   -0.000221675    0.000832946
      6        1          -0.000933593    0.000018066   -0.000792233
      7        1          -0.000073452    0.000117373    0.000347890
      8        6          -0.000256479    0.000162358   -0.000620993
      9        1           0.000489621    0.000071374    0.000599480
     10        1           0.000163699   -0.000210364   -0.000567024
     11        6           0.000586002    0.000984783    0.000322849
     12        1           0.000357121    0.000510831   -0.000114540
     13        1           0.000056807    0.000062653    0.000558173
     14        6           0.000529653   -0.001284592   -0.000605413
     15        1          -0.000371230   -0.000248886    0.000095142
     16        1          -0.000163179    0.000097077   -0.000272652
     17        6           0.000617888    0.000398615    0.000421887
     18        1           0.000050284    0.000116268    0.000018116
     19        1           0.000946861   -0.000473772   -0.000185694
     20        1           0.000040064    0.000053340    0.000102068
 -------------------------------------------------------------------
 Cartesian Forces:  Max     0.001284592 RMS     0.000460930
 Leave Link  716 at Fri Sep 18 13:22:41 2015, MaxMem=  402653184 cpu:       0.0
 (Enter /share/apps/g09/l103.exe)

 GradGradGradGradGradGradGradGradGradGradGradGradGradGradGradGradGradGrad
 Berny optimization.
[...]
 Leave Link  103 at Fri Sep 18 13:28:08 2015, MaxMem=  402653184 cpu:       0.0
 (Enter /share/apps/g09/l202.exe)
                          Input orientation:                          
 ---------------------------------------------------------------------
 Center     Atomic      Atomic             Coordinates (Angstroms)
 Number     Number       Type             X           Y           Z
 ---------------------------------------------------------------------
      1          6           0        2.597868    0.888843   -0.197826
      2          1           0        1.957417    1.736995    0.068818
      3          1           0        2.662712    0.853914   -1.292799
      4          1           0        3.601679    1.102043    0.187382
      5          6           0        2.061333   -0.433181    0.364252
      6          1           0        2.781397   -1.231996    0.140636
      7          1           0        2.009826   -0.369824    1.460809
      8          6           0        0.684565   -0.846496   -0.182491
      9          1           0        0.455062   -1.861905    0.171433
     10          1           0        0.737240   -0.912912   -1.279799
     11          6           0       -0.470362    0.084198    0.212877
     12          1           0       -0.284679    1.097475   -0.169795
     13          1           0       -0.503008    0.174356    1.309461
     14          6           0       -1.836668   -0.395515   -0.294686
     15          1           0       -2.031498   -1.406488    0.090963
     16          1           0       -1.802579   -0.490412   -1.389495
     17          6           0       -2.989511    0.532760    0.101024
     18          1           0       -2.841197    1.542761   -0.300879
     19          1           0       -3.950019    0.162667   -0.275640
     20          1           0       -3.071131    0.620784    1.191526
 ---------------------------------------------------------------------
                    Distance matrix (angstroms):
                    1          2          3          4          5
     1  C    0.000000
     2  H    1.095737   0.000000
     3  H    1.097447   1.769541   0.000000
     4  H    1.096119   1.766585   1.770357   0.000000
     5  C    1.533476   2.192656   2.182679   2.181940   0.000000
     6  H    2.155504   3.082046   2.533741   2.474427   1.098454
     7  H    2.163586   2.525682   3.083205   2.514360   1.099592
     8  C    2.583092   2.890975   2.835004   3.527488   1.537937
     9  H    3.506364   3.901241   3.793859   4.322782   2.158365
    10  H    2.806942   3.213970   2.613290   3.797061   2.164779
    11  C    3.198464   2.940510   3.560292   4.197402   2.588450
    12  H    2.890223   2.343696   3.163475   3.902740   2.851646
    13  H    3.521057   3.167763   4.153955   4.355241   2.799708
    14  C    4.617799   4.367471   4.775115   5.661333   3.953483
    15  H    5.175227   5.078721   5.390716   6.167229   4.215836
    16  H    4.763019   4.607123   4.664267   5.850510   4.243668
    17  C    5.606684   5.091494   5.830395   6.616293   5.149112
    18  H    5.479202   4.816751   5.634841   6.476364   5.327433
    19  H    6.588491   6.123312   6.726117   7.623973   6.074607
    20  H    5.842920   5.271878   6.253254   6.765081   5.304471
                    6          7          8          9         10
     6  H    0.000000
     7  H    1.755425   0.000000
     8  C    2.156322   2.164248   0.000000
     9  H    2.410304   2.511193   1.099541   0.000000
    10  H    2.509587   3.070073   1.100577   1.756783   0.000000
    11  C    3.508778   2.813326   1.535045   2.155329   2.163473
    12  H    3.863110   3.174364   2.172238   3.069460   2.513580
    13  H    3.759161   2.575534   2.162958   2.521778   3.069957
    14  C    4.713356   4.228231   2.563705   2.760361   2.804131
    15  H    4.816313   4.391292   2.786640   2.529201   3.128660
    16  H    4.889180   4.761639   2.787389   3.068295   2.577057
    17  C    6.034841   5.258996   3.934661   4.195766   4.229103
    18  H    6.285520   5.503994   4.260699   4.762368   4.449025
    19  H    6.886968   6.230454   4.744097   4.868625   4.912800
    20  H    6.228101   5.183623   4.259822   4.431521   4.792011
                   11         12         13         14         15
    11  C    0.000000
    12  H    1.098930   0.000000
    13  H    1.100768   1.757275   0.000000
    14  C    1.534449   2.157147   2.162565   0.000000
    15  H    2.161979   3.064180   2.513978   1.099432   0.000000
    16  H    2.161614   2.512583   3.068414   1.099443   1.755949
    17  C    2.561216   2.776394   2.787735   1.532099   2.163000
    18  H    2.830584   2.598316   3.151643   2.183124   3.083378
    19  H    3.514658   3.784150   3.794017   2.185906   2.505468
    20  H    2.830137   3.137634   2.609303   2.183023   2.530199
                   16         17         18         19         20
    16  H    0.000000
    17  C    2.162714   0.000000
    18  H    2.529348   1.097098   0.000000
    19  H    2.505730   1.096093   1.770532   0.000000
    20  H    3.083123   1.097090   1.769232   1.770562   0.000000
 Stoichiometry    C6H14
 Framework group  C1[X(C6H14)]
 Deg. of freedom    54
 Full point group                 C1      NOp   1
 Largest Abelian subgroup         C1      NOp   1
 Largest concise Abelian subgroup C1      NOp   1
                         Standard orientation:                         
 ---------------------------------------------------------------------
 Center     Atomic      Atomic             Coordinates (Angstroms)
 Number     Number       Type             X           Y           Z
 ---------------------------------------------------------------------
      1          6           0        2.596229    0.886469   -0.225415
      2          1           0        1.957260    1.738141    0.033453
      3          1           0        2.654095    0.836276   -1.320186
      4          1           0        3.602419    1.105207    0.150366
      5          6           0        2.063650   -0.427682    0.358466
      6          1           0        2.782490   -1.229407    0.141426
      7          1           0        2.019122   -0.349040    1.454339
      8          6           0        0.683534   -0.848838   -0.173659
      9          1           0        0.456570   -1.859252    0.195856
     10          1           0        0.729226   -0.930549   -1.270247
     11          6           0       -0.469100    0.087071    0.216050
     12          1           0       -0.286138    1.094944   -0.181900
     13          1           0       -0.494774    0.192515    1.311455
     14          6           0       -1.838485   -0.399928   -0.276040
     15          1           0       -2.030576   -1.405457    0.124912
     16          1           0       -1.811356   -0.510085   -1.369614
     17          6           0       -2.989033    0.533567    0.114030
     18          1           0       -2.843561    1.537889   -0.302863
     19          1           0       -3.951824    0.158078   -0.251294
     20          1           0       -3.063719    0.636784    1.203697
 ---------------------------------------------------------------------
 Rotational constants (GHZ):      8.7112859      1.3268931      1.2361592
 Leave Link  202 at Fri Sep 18 13:28:08 2015, MaxMem=  402653184 cpu:       0.0
 (Enter /share/apps/g09/l601.exe)
 Copying SCF densities to generalized density rwf, IOpCl= 0 IROHF=0.

 **********************************************************************

            Population analysis using the SCF density.

 **********************************************************************

 Orbital symmetries:
       Occupied  (A) (A) (A) (A) (A) (A) (A) (A) (A) (A) (A) (A)
                 (A) (A) (A) (A) (A) (A) (A) (A) (A) (A) (A) (A)
                 (A)
       Virtual   (A) (A) (A) (A) (A) (A) (A) (A) (A) (A) (A) (A)
                 (A) (A) (A) (A) (A) (A) (A) (A) (A) (A) (A) (A)
                 (A) (A) (A) (A) (A) (A) (A) (A) (A) (A) (A) (A)
                 (A) (A) (A) (A) (A) (A) (A) (A) (A) (A) (A) (A)
                 (A) (A) (A) (A) (A) (A) (A) (A) (A) (A) (A) (A)
                 (A) (A) (A) (A) (A) (A) (A) (A) (A) (A) (A) (A)
                 (A) (A) (A) (A) (A) (A) (A) (A) (A) (A) (A) (A)
                 (A) (A) (A) (A) (A) (A) (A) (A) (A)
 The electronic state is 1-A.
 Alpha  occ. eigenvalues --  -10.17623 -10.17586 -10.17383 -10.17306 -10.16986
 Alpha  occ. eigenvalues --  -10.16944  -0.79880  -0.76005  -0.70066  -0.63962
 Alpha  occ. eigenvalues --   -0.58260  -0.56080  -0.46748  -0.44528  -0.43085
 Alpha  occ. eigenvalues --   -0.40884  -0.40331  -0.38125  -0.36361  -0.35374
 Alpha  occ. eigenvalues --   -0.33725  -0.32748  -0.31655  -0.31313  -0.30412
 Alpha virt. eigenvalues --    0.09123   0.10653   0.12220   0.12886   0.14746
 Alpha virt. eigenvalues --    0.16002   0.16330   0.17165   0.18182   0.19168
 Alpha virt. eigenvalues --    0.19259   0.19940   0.20431   0.22263   0.22612
 Alpha virt. eigenvalues --    0.25394   0.26332   0.27871   0.29246   0.50194
 Alpha virt. eigenvalues --    0.50577   0.51504   0.53607   0.55283   0.55808
 Alpha virt. eigenvalues --    0.58646   0.62186   0.64311   0.65740   0.68172
 Alpha virt. eigenvalues --    0.68972   0.71339   0.77559   0.78371   0.80911
 Alpha virt. eigenvalues --    0.84620   0.86371   0.87592   0.88925   0.90071
 Alpha virt. eigenvalues --    0.90291   0.91640   0.93782   0.94128   0.94869
 Alpha virt. eigenvalues --    0.95517   0.97487   0.98362   1.00168   1.02012
 Alpha virt. eigenvalues --    1.03856   1.13141   1.23578   1.39058   1.41743
 Alpha virt. eigenvalues --    1.44862   1.50241   1.53486   1.59108   1.67055
 Alpha virt. eigenvalues --    1.69730   1.79828   1.81101   1.88122   1.91697
 Alpha virt. eigenvalues --    1.92478   1.95570   1.97079   1.99589   2.01614
 Alpha virt. eigenvalues --    2.02922   2.06248   2.14505   2.21943   2.25222
 Alpha virt. eigenvalues --    2.27388   2.32111   2.33636   2.36125   2.40515
 Alpha virt. eigenvalues --    2.42010   2.44834   2.58032   2.59828   2.64190
 Alpha virt. eigenvalues --    2.74751   2.80194   4.11207   4.18765   4.29151
 Alpha virt. eigenvalues --    4.38419   4.45532   4.55425
          Condensed to atoms (all electrons):
              1          2          3          4          5          6
     1  C    5.065866   0.378496   0.376833   0.373009   0.378207  -0.039952
     2  H    0.378496   0.573071  -0.033016  -0.031309  -0.034500   0.005209
     3  H    0.376833  -0.033016   0.581322  -0.031320  -0.036225  -0.004094
     4  H    0.373009  -0.031309  -0.031320   0.578871  -0.028516  -0.003563
     5  C    0.378207  -0.034500  -0.036225  -0.028516   4.958547   0.373236
     6  H   -0.039952   0.005209  -0.004094  -0.003563   0.373236   0.613894
     7  H   -0.040615  -0.004544   0.005378  -0.002463   0.375236  -0.038569
     8  C   -0.045338  -0.004785  -0.004140   0.004316   0.378781  -0.033494
     9  H    0.005040  -0.000027   0.000011  -0.000161  -0.034483  -0.003981
    10  H   -0.006494  -0.000106   0.005487  -0.000017  -0.039297  -0.002782
    11  C   -0.004615   0.002832  -0.000531   0.000108  -0.038985   0.004594
    12  H    0.002855   0.002388   0.000296  -0.000085  -0.004079  -0.000031
    13  H   -0.000563   0.000354   0.000074  -0.000025  -0.002975   0.000017
    14  C    0.000124  -0.000093  -0.000024  -0.000001   0.003571  -0.000129
    15  H    0.000001   0.000000   0.000000   0.000000  -0.000016  -0.000004
    16  H   -0.000012   0.000009   0.000001   0.000000   0.000057   0.000004
    17  C    0.000002   0.000006   0.000000   0.000000  -0.000128   0.000002
    18  H   -0.000002  -0.000002   0.000000   0.000000   0.000001   0.000000
    19  H    0.000000   0.000000   0.000000   0.000000   0.000001   0.000000
    20  H    0.000000   0.000001   0.000000   0.000000   0.000001   0.000000
              7          8          9         10         11         12
     1  C   -0.040615  -0.045338   0.005040  -0.006494  -0.004615   0.002855
     2  H   -0.004544  -0.004785  -0.000027  -0.000106   0.002832   0.002388
     3  H    0.005378  -0.004140   0.000011   0.005487  -0.000531   0.000296
     4  H   -0.002463   0.004316  -0.000161  -0.000017   0.000108  -0.000085
     5  C    0.375236   0.378781  -0.034483  -0.039297  -0.038985  -0.004079
     6  H   -0.038569  -0.033494  -0.003981  -0.002782   0.004594  -0.000031
     7  H    0.614449  -0.039570  -0.002807   0.005990  -0.006954  -0.000197
     8  C   -0.039570   4.984882   0.370720   0.370551   0.385725  -0.038620
     9  H   -0.002807   0.370720   0.617946  -0.039017  -0.041203   0.005890
    10  H    0.005990   0.370551  -0.039017   0.620034  -0.041161  -0.005481
    11  C   -0.006954   0.385725  -0.041203  -0.041161   4.980649   0.373615
    12  H   -0.000197  -0.038620   0.005890  -0.005481   0.373615   0.612083
    13  H    0.005732  -0.041282  -0.005050   0.006056   0.372118  -0.041173
    14  C    0.000026  -0.035638  -0.004336  -0.003585   0.388503  -0.040470
    15  H    0.000004  -0.003636   0.005674  -0.000447  -0.040487   0.005965
    16  H    0.000008  -0.003330  -0.000471   0.005066  -0.040529  -0.005519
    17  C   -0.000001   0.003590   0.000053   0.000016  -0.042745  -0.002666
    18  H    0.000000   0.000032   0.000008   0.000003  -0.004547   0.005007
    19  H    0.000000  -0.000130   0.000002   0.000002   0.004130  -0.000037
    20  H   -0.000001   0.000032   0.000003   0.000006  -0.004494  -0.000416
             13         14         15         16         17         18
     1  C   -0.000563   0.000124   0.000001  -0.000012   0.000002  -0.000002
     2  H    0.000354  -0.000093   0.000000   0.000009   0.000006  -0.000002
     3  H    0.000074  -0.000024   0.000000   0.000001   0.000000   0.000000
     4  H   -0.000025  -0.000001   0.000000   0.000000   0.000000   0.000000
     5  C   -0.002975   0.003571  -0.000016   0.000057  -0.000128   0.000001
     6  H    0.000017  -0.000129  -0.000004   0.000004   0.000002   0.000000
     7  H    0.005732   0.000026   0.000004   0.000008  -0.000001   0.000000
     8  C   -0.041282  -0.035638  -0.003636  -0.003330   0.003590   0.000032
     9  H   -0.005050  -0.004336   0.005674  -0.000471   0.000053   0.000008
    10  H    0.006056  -0.003585  -0.000447   0.005066   0.000016   0.000003
    11  C    0.372118   0.388503  -0.040487  -0.040529  -0.042745  -0.004547
    12  H   -0.041173  -0.040470   0.005965  -0.005519  -0.002666   0.005007
    13  H    0.620420  -0.040450  -0.005554   0.006002  -0.002929  -0.000393
    14  C   -0.040450   4.951102   0.376288   0.376560   0.371580  -0.034642
    15  H   -0.005554   0.376288   0.613647  -0.040242  -0.038625   0.005274
    16  H    0.006002   0.376560  -0.040242   0.613314  -0.038712  -0.004517
    17  C   -0.002929   0.371580  -0.038625  -0.038712   5.066116   0.377245
    18  H   -0.000393  -0.034642   0.005274  -0.004517   0.377245   0.580188
    19  H   -0.000035  -0.027194  -0.002678  -0.002720   0.371327  -0.031380
    20  H    0.004848  -0.034712  -0.004495   0.005275   0.377419  -0.032946
             19         20
     1  C    0.000000   0.000000
     2  H    0.000000   0.000001
     3  H    0.000000   0.000000
     4  H    0.000000   0.000000
     5  C    0.000001   0.000001
     6  H    0.000000   0.000000
     7  H    0.000000  -0.000001
     8  C   -0.000130   0.000032
     9  H    0.000002   0.000003
    10  H    0.000002   0.000006
    11  C    0.004130  -0.004494
    12  H   -0.000037  -0.000416
    13  H   -0.000035   0.004848
    14  C   -0.027194  -0.034712
    15  H   -0.002678  -0.004495
    16  H   -0.002720   0.005275
    17  C    0.371327   0.377419
    18  H   -0.031380  -0.032946
    19  H    0.579223  -0.031442
    20  H   -0.031442   0.580127
 Mulliken atomic charges:
              1
     1  C   -0.442841
     2  H    0.146015
     3  H    0.139948
     4  H    0.141156
     5  C   -0.248433
     6  H    0.129642
     7  H    0.128899
     8  C   -0.248665
     9  H    0.126189
    10  H    0.125177
    11  C   -0.246023
    12  H    0.130676
    13  H    0.124806
    14  C   -0.246480
    15  H    0.129331
    16  H    0.129755
    17  C   -0.441549
    18  H    0.140671
    19  H    0.140932
    20  H    0.140794
 Sum of Mulliken atomic charges =   0.00000
 Mulliken charges with hydrogens summed into heavy atoms:
              1
     1  C   -0.015723
     5  C    0.010109
     8  C    0.002702
    11  C    0.009460
    14  C    0.012606
    17  C   -0.019153
 Sum of Mulliken charges with hydrogens summed into heavy atoms =   0.00000
 Electronic spatial extent (au):  <R**2>=           1035.9088
 Charge=              0.0000 electrons
 Dipole moment (field-independent basis, Debye):
    X=              0.0238    Y=             -0.0531    Z=              0.0044  Tot=              0.0583
 Quadrupole moment (field-independent basis, Debye-Ang):
   XX=            -41.9302   YY=            -41.6392   ZZ=            -41.1231
   XY=              0.0272   XZ=              0.0488   YZ=             -0.1478
 Traceless Quadrupole moment (field-independent basis, Debye-Ang):
   XX=             -0.3660   YY=             -0.0751   ZZ=              0.4411
   XY=              0.0272   XZ=              0.0488   YZ=             -0.1478
 Octapole moment (field-independent basis, Debye-Ang**2):
  XXX=              1.7257  YYY=             -0.2606  ZZZ=             -0.0016  XYY=             -0.2675
  XXY=             -1.8104  XXZ=             -0.2242  XZZ=             -0.1740  YZZ=             -0.0337
  YYZ=              0.2458  XYZ=              0.7396
 Hexadecapole moment (field-independent basis, Debye-Ang**3):
 XXXX=          -1141.5475 YYYY=           -188.0821 ZZZZ=            -99.4076 XXXY=              4.8353
 XXXZ=              5.5077 YYYX=             -1.8231 YYYZ=             -1.6622 ZZZX=             -1.9477
 ZZZY=              0.4565 XXYY=           -225.2210 XXZZ=           -207.4550 YYZZ=            -50.1228
 XXYZ=              1.2942 YYXZ=              0.8168 ZZXY=             -0.1316
 N-N= 2.463230418875D+02 E-N=-1.039569889655D+03  KE= 2.346209379849D+02
 No NMR shielding tensors so no spin-rotation constants.
 Leave Link  601 at Fri Sep 18 13:28:08 2015, MaxMem=  402653184 cpu:       0.3
 (Enter /share/apps/g09/l9999.exe)
 1\1\GINC-COMPUTE-0-10\FOpt\RB3LYP\6-31G(d)\C6H14\HETANJIN\18-Sep-2015\
 0\\#p B3LYP/6-31G(d) opt=tight int=ultrafine\\using B3LYP/6-31G(d) to 
 do opt and freq calc.\\0,1\C,2.5978682322,0.888842588,-0.1978263419\H,
 1.9574166583,1.7369946346,0.0688184285\H,2.6627122801,0.8539135991,-1.
 2927992846\H,3.6016794952,1.1020427199,0.1873818902\C,2.0613329535,-0.
 4331808237,0.3642522513\H,2.781396544,-1.2319961452,0.1406360097\H,2.0
 09826153,-0.3698239988,1.460808933\C,0.6845645641,-0.8464961385,-0.182
 4914833\H,0.4550618387,-1.8619053013,0.1714328722\H,0.7372403139,-0.91
 29122613,-1.279798961\C,-0.4703622325,0.0841979006,0.212877401\H,-0.28
 46786589,1.0974749311,-0.1697950978\H,-0.5030080235,0.1743557822,1.309
 4607878\C,-1.8366675597,-0.3955146733,-0.2946860131\H,-2.0314978463,-1
 .4064877054,0.0909629807\H,-1.8025790491,-0.4904115731,-1.3894952396\C
 ,-2.9895105448,0.5327596006,0.1010235016\H,-2.8411967357,1.5427608641,
 -0.3008786174\H,-3.9500190555,0.1626669987,-0.27563987\H,-3.0711313268
 ,0.6207840017,1.1915258525\\Version=EM64L-G09RevA.01\State=1-A\HF=-237
 .084132\RMSD=6.171e-09\RMSF=7.790e-07\Dipole=0.0093551,-0.0209103,0.00
 14927\Quadrupole=-0.2725788,-0.0526729,0.3252517,0.0205012,0.0327256,-
 0.115113\PG=C01 [X(C6H14)]\\@


 IN NATURE THERE ARE NEITHER REWARDS OR
 PUNISHMENTS -- THERE ARE CONSEQUENCES.

                            -- ROBERT GREEN INGERSOLL
 Job cpu time:  0 days  0 hours 15 minutes 11.1 seconds.
 File lengths (MBytes):  RWF=     15 Int=      0 D2E=      0 Chk=      2 Scr=      1
 Normal termination of Gaussian 09 at Fri Sep 18 13:28:08 2015.
