 Entering Gaussian System, Link 0=/share/apps/g09/g09
 Input=C6H14_1_08_1_opt_PM6.gjf
 Output=C6H14_1_08_1_opt_PM6.log
 Initial command:
 /share/apps/g09/l1.exe /state/partition1/Gau-8322.inp -scrdir=/state/partition1/
 Entering Link 1 = /share/apps/g09/l1.exe PID=      8323.
  
 Copyright (c) 1988,1990,1992,1993,1995,1998,2003,2009, Gaussian, Inc.
                  All Rights Reserved.
  
 This is part of the Gaussian(R) 09 program.  It is based on
 the Gaussian(R) 03 system (copyright 2003, Gaussian, Inc.),
 the Gaussian(R) 98 system (copyright 1998, Gaussian, Inc.),
 the Gaussian(R) 94 system (copyright 1995, Gaussian, Inc.),
 the Gaussian 92(TM) system (copyright 1992, Gaussian, Inc.),
 the Gaussian 90(TM) system (copyright 1990, Gaussian, Inc.),
 the Gaussian 88(TM) system (copyright 1988, Gaussian, Inc.),
 the Gaussian 86(TM) system (copyright 1986, Carnegie Mellon
 University), and the Gaussian 82(TM) system (copyright 1983,
 Carnegie Mellon University). Gaussian is a federally registered
 trademark of Gaussian, Inc.
  
 This software contains proprietary and confidential information,
 including trade secrets, belonging to Gaussian, Inc.
  
 This software is provided under written license and may be
 used, copied, transmitted, or stored only in accord with that
 written license.
  
 The following legend is applicable only to US Government
 contracts under FAR:
  
                    RESTRICTED RIGHTS LEGEND
  
 Use, reproduction and disclosure by the US Government is
 subject to restrictions as set forth in subparagraphs (a)
 and (c) of the Commercial Computer Software - Restricted
 Rights clause in FAR 52.227-19.
  
 Gaussian, Inc.
 340 Quinnipiac St., Bldg. 40, Wallingford CT 06492
  
  
 ---------------------------------------------------------------
 Warning -- This program may not be used in any manner that
 competes with the business of Gaussian, Inc. or will provide
 assistance to any competitor of Gaussian, Inc.  The licensee
 of this program is prohibited from giving any competitor of
 Gaussian, Inc. access to this program.  By using this program,
 the user acknowledges that Gaussian, Inc. is engaged in the
 business of creating and licensing software in the field of
 computational chemistry and represents and warrants to the
 licensee that it is not a competitor of Gaussian, Inc. and that
 it will not use this program in any manner prohibited above.
 ---------------------------------------------------------------
  

 Cite this work as:
 Gaussian 09, Revision A.01,
 M. J. Frisch, G. W. Trucks, H. B. Schlegel, G. E. Scuseria, 
 M. A. Robb, J. R. Cheeseman, G. Scalmani, V. Barone, B. Mennucci, 
 G. A. Petersson, H. Nakatsuji, M. Caricato, X. Li, H. P. Hratchian, 
 A. F. Izmaylov, J. Bloino, G. Zheng, J. L. Sonnenberg, M. Hada, 
 M. Ehara, K. Toyota, R. Fukuda, J. Hasegawa, M. Ishida, T. Nakajima, 
 Y. Honda, O. Kitao, H. Nakai, T. Vreven, J. A. Montgomery, Jr., 
 J. E. Peralta, F. Ogliaro, M. Bearpark, J. J. Heyd, E. Brothers, 
 K. N. Kudin, V. N. Staroverov, R. Kobayashi, J. Normand, 
 K. Raghavachari, A. Rendell, J. C. Burant, S. S. Iyengar, J. Tomasi, 
 M. Cossi, N. Rega, J. M. Millam, M. Klene, J. E. Knox, J. B. Cross, 
 V. Bakken, C. Adamo, J. Jaramillo, R. Gomperts, R. E. Stratmann, 
 O. Yazyev, A. J. Austin, R. Cammi, C. Pomelli, J. W. Ochterski, 
 R. L. Martin, K. Morokuma, V. G. Zakrzewski, G. A. Voth, 
 P. Salvador, J. J. Dannenberg, S. Dapprich, A. D. Daniels, 
 O. Farkas, J. B. Foresman, J. V. Ortiz, J. Cioslowski, 
 and D. J. Fox, Gaussian, Inc., Wallingford CT, 2009.
 
 ******************************************
 Gaussian 09:  EM64L-G09RevA.01  8-May-2009
                14-Sep-2015 
 ******************************************
 %mem=3GB
 %nprocshared=2
 Will use up to    2 processors via shared memory.
 %chk=C6H14_1_08_1_opt_PM6.chk
 ----------
 #p PM6 opt
 ----------
 1/14=-1,18=20,19=15,26=1,38=1/1,3;
 2/9=110,12=2,17=6,18=5,40=1/2;
 3/5=2,16=1,25=1,41=3900000,71=1/1,2,3;
 4/35=1/1;
 5/5=2,35=1,38=5/2;
 6/7=2,8=2,9=2,10=2,28=1/1;
 7//1,2,3,16;
 1/14=-1,18=20,19=15/3(2);
 2/9=110/2;
 99//99;
 2/9=110/2;
 3/5=2,16=1,25=1,41=3900000,71=1,135=20/1,2,3;
 4/5=5,16=3,35=1/1;
 5/5=2,35=1,38=5/2;
 7//1,2,3,16;
 1/14=-1,18=20,19=15/3(-5);
 2/9=110/2;
 6/7=2,8=2,9=2,10=2,19=2,28=1/1;
 99/9=1/99;
 Leave Link    1 at Mon Sep 14 19:12:09 2015, MaxMem=  402653184 cpu:       0.1
 (Enter /share/apps/g09/l101.exe)
 ----------------------------------
 using PM6 to do opt and freq calc.
 ----------------------------------
 Symbolic Z-matrix:
 Charge =  0 Multiplicity = 1
 C                     1.1777    2.6623    0.6642 
 H                     1.4686    1.6744    1.0868 
 H                     0.4971    3.1812    1.3768 
 H                     2.0994    3.2748    0.5406 
 C                     0.4979    2.4884   -0.6932 
 H                     0.3345    3.5014   -1.1288 
 H                     1.1824    1.9331   -1.3755 
 C                    -0.8594    1.7726   -0.6306 
 H                    -1.2914    1.7841   -1.6584 
 H                    -1.5422    2.3512    0.0336 
 C                    -0.7763    0.3167   -0.1418 
 H                    -0.5343    0.3012    0.9461 
 H                     0.0506   -0.1992   -0.6833 
 C                    -2.0585   -0.495    -0.3776 
 H                    -1.8654   -1.5459   -0.0601 
 H                    -2.2974   -0.5089   -1.4662 
 C                    -3.2741    0.0156    0.3948 
 H                    -3.5788    1.021     0.0268 
 H                    -4.1274   -0.6844    0.2463 
 H                    -3.0468    0.0755    1.4833 
 
 NAtoms=     20 NQM=     20 NQMF=      0 NMic=      0 NMicF=      0 NTot=     20.
                    Isotopes and Nuclear Properties:
 (Nuclear quadrupole moments (NQMom) in fm**2, nuclear magnetic moments (NMagM)
  in nuclear magnetons)

  Atom         1           2           3           4           5           6           7           8           9          10
 IAtWgt=          12           1           1           1          12           1           1          12           1           1
 AtmWgt=  12.0000000   1.0078250   1.0078250   1.0078250  12.0000000   1.0078250   1.0078250  12.0000000   1.0078250   1.0078250
 NucSpn=           0           1           1           1           0           1           1           0           1           1
 AtZEff=   0.0000000   0.0000000   0.0000000   0.0000000   0.0000000   0.0000000   0.0000000   0.0000000   0.0000000   0.0000000
 NQMom=    0.0000000   0.0000000   0.0000000   0.0000000   0.0000000   0.0000000   0.0000000   0.0000000   0.0000000   0.0000000
 NMagM=    0.0000000   2.7928460   2.7928460   2.7928460   0.0000000   2.7928460   2.7928460   0.0000000   2.7928460   2.7928460

  Atom        11          12          13          14          15          16          17          18          19          20
 IAtWgt=          12           1           1          12           1           1          12           1           1           1
 AtmWgt=  12.0000000   1.0078250   1.0078250  12.0000000   1.0078250   1.0078250  12.0000000   1.0078250   1.0078250   1.0078250
 NucSpn=           0           1           1           0           1           1           0           1           1           1
 AtZEff=   0.0000000   0.0000000   0.0000000   0.0000000   0.0000000   0.0000000   0.0000000   0.0000000   0.0000000   0.0000000
 NQMom=    0.0000000   0.0000000   0.0000000   0.0000000   0.0000000   0.0000000   0.0000000   0.0000000   0.0000000   0.0000000
 NMagM=    0.0000000   2.7928460   2.7928460   0.0000000   2.7928460   2.7928460   0.0000000   2.7928460   2.7928460   2.7928460
 Leave Link  101 at Mon Sep 14 19:12:11 2015, MaxMem=  402653184 cpu:       0.2
 (Enter /share/apps/g09/l103.exe)

 GradGradGradGradGradGradGradGradGradGradGradGradGradGradGradGradGradGrad
 Berny optimization.
 Initialization pass.
                           ----------------------------
                           !    Initial Parameters    !
                           ! (Angstroms and Degrees)  !
 --------------------------                            --------------------------
 ! Name  Definition              Value          Derivative Info.                !
 --------------------------------------------------------------------------------
 ! R1    R(1,2)                  1.1132         estimate D2E/DX2                !
 ! R2    R(1,3)                  1.1137         estimate D2E/DX2                !
 ! R3    R(1,4)                  1.1135         estimate D2E/DX2                !
 ! R4    R(1,5)                  1.528          estimate D2E/DX2                !
 ! R5    R(5,6)                  1.1147         estimate D2E/DX2                !
 ! R6    R(5,7)                  1.1146         estimate D2E/DX2                !
 ! R7    R(5,8)                  1.5358         estimate D2E/DX2                !
 ! R8    R(8,9)                  1.115          estimate D2E/DX2                !
 ! R9    R(8,10)                 1.1145         estimate D2E/DX2                !
 ! R10   R(8,11)                 1.538          estimate D2E/DX2                !
 ! R11   R(11,12)                1.1146         estimate D2E/DX2                !
 ! R12   R(11,13)                1.115          estimate D2E/DX2                !
 ! R13   R(11,14)                1.5357         estimate D2E/DX2                !
 ! R14   R(14,15)                1.1147         estimate D2E/DX2                !
 ! R15   R(14,16)                1.1146         estimate D2E/DX2                !
 ! R16   R(14,17)                1.5281         estimate D2E/DX2                !
 ! R17   R(17,18)                1.1131         estimate D2E/DX2                !
 ! R18   R(17,19)                1.1136         estimate D2E/DX2                !
 ! R19   R(17,20)                1.1136         estimate D2E/DX2                !
 ! A1    A(2,1,3)              109.2862         estimate D2E/DX2                !
 ! A2    A(2,1,4)              108.2993         estimate D2E/DX2                !
 ! A3    A(2,1,5)              110.6403         estimate D2E/DX2                !
 ! A4    A(3,1,4)              108.6982         estimate D2E/DX2                !
 ! A5    A(3,1,5)              110.46           estimate D2E/DX2                !
 ! A6    A(4,1,5)              109.4046         estimate D2E/DX2                !
 ! A7    A(1,5,6)              107.9943         estimate D2E/DX2                !
 ! A8    A(1,5,7)              109.1026         estimate D2E/DX2                !
 ! A9    A(1,5,8)              114.2062         estimate D2E/DX2                !
 ! A10   A(6,5,7)              107.6704         estimate D2E/DX2                !
 ! A11   A(6,5,8)              108.0552         estimate D2E/DX2                !
 ! A12   A(7,5,8)              109.6024         estimate D2E/DX2                !
 ! A13   A(5,8,9)              107.4608         estimate D2E/DX2                !
 ! A14   A(5,8,10)             108.8913         estimate D2E/DX2                !
 ! A15   A(5,8,11)             113.9794         estimate D2E/DX2                !
 ! A16   A(9,8,10)             107.8567         estimate D2E/DX2                !
 ! A17   A(9,8,11)             108.8849         estimate D2E/DX2                !
 ! A18   A(10,8,11)            109.5805         estimate D2E/DX2                !
 ! A19   A(8,11,12)            109.5783         estimate D2E/DX2                !
 ! A20   A(8,11,13)            108.8883         estimate D2E/DX2                !
 ! A21   A(8,11,14)            113.9798         estimate D2E/DX2                !
 ! A22   A(12,11,13)           107.853          estimate D2E/DX2                !
 ! A23   A(12,11,14)           108.8921         estimate D2E/DX2                !
 ! A24   A(13,11,14)           107.4619         estimate D2E/DX2                !
 ! A25   A(11,14,15)           108.0552         estimate D2E/DX2                !
 ! A26   A(11,14,16)           109.6033         estimate D2E/DX2                !
 ! A27   A(11,14,17)           114.2022         estimate D2E/DX2                !
 ! A28   A(15,14,16)           107.6721         estimate D2E/DX2                !
 ! A29   A(15,14,17)           107.9908         estimate D2E/DX2                !
 ! A30   A(16,14,17)           109.1077         estimate D2E/DX2                !
 ! A31   A(14,17,18)           110.6373         estimate D2E/DX2                !
 ! A32   A(14,17,19)           109.3968         estimate D2E/DX2                !
 ! A33   A(14,17,20)           110.4679         estimate D2E/DX2                !
 ! A34   A(18,17,19)           108.2949         estimate D2E/DX2                !
 ! A35   A(18,17,20)           109.2951         estimate D2E/DX2                !
 ! A36   A(19,17,20)           108.6964         estimate D2E/DX2                !
 ! D1    D(2,1,5,6)           -173.4526         estimate D2E/DX2                !
 ! D2    D(2,1,5,7)            -56.6934         estimate D2E/DX2                !
 ! D3    D(2,1,5,8)             66.3286         estimate D2E/DX2                !
 ! D4    D(3,1,5,6)             65.4001         estimate D2E/DX2                !
 ! D5    D(3,1,5,7)           -177.8407         estimate D2E/DX2                !
 ! D6    D(3,1,5,8)            -54.8188         estimate D2E/DX2                !
 ! D7    D(4,1,5,6)            -54.2165         estimate D2E/DX2                !
 ! D8    D(4,1,5,7)             62.5427         estimate D2E/DX2                !
 ! D9    D(4,1,5,8)           -174.4354         estimate D2E/DX2                !
 ! D10   D(1,5,8,9)            175.2479         estimate D2E/DX2                !
 ! D11   D(1,5,8,10)            58.6716         estimate D2E/DX2                !
 ! D12   D(1,5,8,11)           -64.0041         estimate D2E/DX2                !
 ! D13   D(6,5,8,9)             55.0631         estimate D2E/DX2                !
 ! D14   D(6,5,8,10)           -61.5132         estimate D2E/DX2                !
 ! D15   D(6,5,8,11)           175.8111         estimate D2E/DX2                !
 ! D16   D(7,5,8,9)            -62.0016         estimate D2E/DX2                !
 ! D17   D(7,5,8,10)          -178.578          estimate D2E/DX2                !
 ! D18   D(7,5,8,11)            58.7464         estimate D2E/DX2                !
 ! D19   D(5,8,11,12)           70.8918         estimate D2E/DX2                !
 ! D20   D(5,8,11,13)          -46.8569         estimate D2E/DX2                !
 ! D21   D(5,8,11,14)         -166.8105         estimate D2E/DX2                !
 ! D22   D(9,8,11,12)         -169.1587         estimate D2E/DX2                !
 ! D23   D(9,8,11,13)           73.0926         estimate D2E/DX2                !
 ! D24   D(9,8,11,14)          -46.861          estimate D2E/DX2                !
 ! D25   D(10,8,11,12)         -51.4062         estimate D2E/DX2                !
 ! D26   D(10,8,11,13)        -169.1549         estimate D2E/DX2                !
 ! D27   D(10,8,11,14)          70.8915         estimate D2E/DX2                !
 ! D28   D(8,11,14,15)         175.8166         estimate D2E/DX2                !
 ! D29   D(8,11,14,16)          58.7494         estimate D2E/DX2                !
 ! D30   D(8,11,14,17)         -64.0056         estimate D2E/DX2                !
 ! D31   D(12,11,14,15)        -61.5096         estimate D2E/DX2                !
 ! D32   D(12,11,14,16)       -178.5769         estimate D2E/DX2                !
 ! D33   D(12,11,14,17)         58.6682         estimate D2E/DX2                !
 ! D34   D(13,11,14,15)         55.0633         estimate D2E/DX2                !
 ! D35   D(13,11,14,16)        -62.0039         estimate D2E/DX2                !
 ! D36   D(13,11,14,17)        175.2411         estimate D2E/DX2                !
 ! D37   D(11,14,17,18)         66.3381         estimate D2E/DX2                !
 ! D38   D(11,14,17,19)       -174.4381         estimate D2E/DX2                !
 ! D39   D(11,14,17,20)        -54.8237         estimate D2E/DX2                !
 ! D40   D(15,14,17,18)       -173.4481         estimate D2E/DX2                !
 ! D41   D(15,14,17,19)        -54.2243         estimate D2E/DX2                !
 ! D42   D(15,14,17,20)         65.3901         estimate D2E/DX2                !
 ! D43   D(16,14,17,18)        -56.6861         estimate D2E/DX2                !
 ! D44   D(16,14,17,19)         62.5377         estimate D2E/DX2                !
 ! D45   D(16,14,17,20)       -177.8479         estimate D2E/DX2                !
 --------------------------------------------------------------------------------
 Trust Radius=3.00D-01 FncErr=1.00D-07 GrdErr=1.00D-07
 Number of steps in this run= 110 maximum allowed number of steps= 120.
 GradGradGradGradGradGradGradGradGradGradGradGradGradGradGradGradGradGrad

 Leave Link  103 at Mon Sep 14 19:12:12 2015, MaxMem=  402653184 cpu:       0.0
 (Enter /share/apps/g09/l202.exe)
                          Input orientation:                          
 ---------------------------------------------------------------------
 Center     Atomic      Atomic             Coordinates (Angstroms)
 Number     Number       Type             X           Y           Z
 ---------------------------------------------------------------------
      1          6           0        1.177700    2.662300    0.664200
      2          1           0        1.468600    1.674400    1.086800
      3          1           0        0.497100    3.181200    1.376800
      4          1           0        2.099400    3.274800    0.540600
      5          6           0        0.497900    2.488400   -0.693200
      6          1           0        0.334500    3.501400   -1.128800
      7          1           0        1.182400    1.933100   -1.375500
      8          6           0       -0.859400    1.772600   -0.630600
      9          1           0       -1.291400    1.784100   -1.658400
     10          1           0       -1.542200    2.351200    0.033600
     11          6           0       -0.776300    0.316700   -0.141800
     12          1           0       -0.534300    0.301200    0.946100
     13          1           0        0.050600   -0.199200   -0.683300
     14          6           0       -2.058500   -0.495000   -0.377600
     15          1           0       -1.865400   -1.545900   -0.060100
     16          1           0       -2.297400   -0.508900   -1.466200
     17          6           0       -3.274100    0.015600    0.394800
     18          1           0       -3.578800    1.021000    0.026800
     19          1           0       -4.127400   -0.684400    0.246300
     20          1           0       -3.046800    0.075500    1.483300
 ---------------------------------------------------------------------
                    Distance matrix (angstroms):
                    1          2          3          4          5
     1  C    0.000000
     2  H    1.113176   0.000000
     3  H    1.113675   1.816138   0.000000
     4  H    1.113537   1.804861   1.809795   0.000000
     5  C    1.528039   2.184778   2.182859   2.169214   0.000000
     6  H    2.151726   3.087555   2.531205   2.439901   1.114727
     7  H    2.166133   2.492340   3.098797   2.512466   1.114644
     8  C    2.572518   2.894597   2.802481   3.518922   1.535758
     9  H    3.501737   3.894324   3.789863   4.307588   2.151568
    10  H    2.809323   3.260706   2.579114   3.790955   2.170039
    11  C    3.157466   2.896961   3.483253   4.181588   2.577578
    12  H    2.930052   2.432506   3.089286   3.992882   2.921744
    13  H    3.357721   2.941829   3.983777   4.214758   2.724586
    14  C    4.639707   4.392175   4.808686   5.687057   3.941505
    15  H    5.243474   4.775067   5.476455   6.270537   4.718218
    16  H    5.164439   5.046520   5.432193   6.138036   4.170736
    17  C    5.186147   5.071852   5.020687   6.286346   4.639662
    18  H    5.071926   5.198729   4.806446   6.130706   4.392169
    19  H    6.286424   6.130709   6.132446   7.384776   5.687066
    20  H    5.020842   4.806509   4.713379   6.132502   4.808756
                    6          7          8          9         10
     6  H    0.000000
     7  H    1.799822   0.000000
     8  C    2.159248   2.179354   0.000000
     9  H    2.423458   2.494378   1.114957   0.000000
    10  H    2.489204   3.095774   1.114520   1.802045   0.000000
    11  C    3.514308   2.823344   1.538010   2.172249   2.180954
    12  H    3.911688   3.316622   2.180984   3.091215   2.459882
    13  H    3.738116   2.511337   2.172297   2.585588   3.091197
    14  C    4.718259   4.170720   2.577569   2.724553   2.921730
    15  H    5.608647   4.808618   3.514249   3.738039   3.911602
    16  H    4.808663   4.252129   2.823351   2.511339   3.316610
    17  C    5.243487   5.164413   3.157415   3.357726   2.930012
    18  H    4.775114   5.046523   2.896932   2.941839   2.432533
    19  H    6.270596   6.138039   4.181582   4.214768   3.992915
    20  H    5.476591   5.432269   3.483309   3.983845   3.089379
                   11         12         13         14         15
    11  C    0.000000
    12  H    1.114599   0.000000
    13  H    1.114961   1.802069   0.000000
    14  C    1.535739   2.170093   2.151570   0.000000
    15  H    2.159188   2.489185   2.423435   1.114668   0.000000
    16  H    2.179311   3.095800   2.494384   1.114592   1.799753
    17  C    2.572471   2.809271   3.501724   1.528070   2.151663
    18  H    2.894559   3.260706   3.894313   2.184744   3.087437
    19  H    3.518905   3.790975   4.307582   2.169210   2.439817
    20  H    2.802552   2.579182   3.789921   2.182924   2.531151
                   16         17         18         19         20
    16  H    0.000000
    17  C    2.166187   0.000000
    18  H    2.492314   1.113147   0.000000
    19  H    2.512440   1.113631   1.804863   0.000000
    20  H    3.098818   1.113591   1.816146   1.809783   0.000000
 Stoichiometry    C6H14
 Framework group  C1[X(C6H14)]
 Deg. of freedom    54
 Full point group                 C1      NOp   1
 Largest Abelian subgroup         C1      NOp   1
 Largest concise Abelian subgroup C1      NOp   1
                         Standard orientation:                         
 ---------------------------------------------------------------------
 Center     Atomic      Atomic             Coordinates (Angstroms)
 Number     Number       Type             X           Y           Z
 ---------------------------------------------------------------------
      1          6           0        2.567038    0.687191    0.366671
      2          1           0        2.182980    0.716791    1.411077
      3          1           0        2.352965    1.659869   -0.131670
      4          1           0        3.670218    0.540308    0.403853
      5          6           0        1.927635   -0.462988   -0.409959
      6          1           0        2.427362   -0.526853   -1.404348
      7          1           0        2.122181   -1.419350    0.128516
      8          6           0        0.418564   -0.301860   -0.645102
      9          1           0        0.088046   -1.149429   -1.289706
     10          1           0        0.239809    0.644280   -1.206370
     11          6           0       -0.418585   -0.301807    0.645114
     12          1           0       -0.239811    0.644470    1.206301
     13          1           0       -0.088045   -1.149251    1.289878
     14          6           0       -1.927637   -0.462982    0.410000
     15          1           0       -2.427341   -0.526655    1.404347
     16          1           0       -2.122184   -1.419376   -0.128311
     17          6           0       -2.566991    0.687202   -0.366726
     18          1           0       -2.183012    0.716576   -1.411136
     19          1           0       -3.670249    0.540192   -0.403890
     20          1           0       -2.353063    1.659891    0.131467
 ---------------------------------------------------------------------
 Rotational constants (GHZ):      7.6728427      1.4338712      1.4256315
 Leave Link  202 at Mon Sep 14 19:12:13 2015, MaxMem=  402653184 cpu:       0.0
 (Enter /share/apps/g09/l301.exe)
 Standard basis: VSTO-6G (5D, 7F)
 Ernie: Thresh=  0.10000D-02 Tol=  0.10000D-05 Strict=F.
  NNHCO=     0 NNPyr=     0 NCTC=     0               EPep=         0.000000000
    EC=       126.339759802  ECS=         3.143741983   EG=         0.308531521
   EHC=         0.000409433  EAt=       -31.187935768  AtH=         2.796400831
 EPDDG=         0.000000000  ECC=       129.792442739 EAtT=        33.984336599
 There are    38 symmetry adapted basis functions of A   symmetry.
 Integral buffers will be    131072 words long.
 Regular integral format.
 Two-electron integral symmetry is turned off.
    38 basis functions,   228 primitive gaussians,    38 cartesian basis functions
    19 alpha electrons       19 beta electrons
       nuclear repulsion energy       163.7767793384 Hartrees.
 IExCor=    0 DFT=F Ex=HF Corr=None ExCW=0 ScaHFX=  1.000000
 ScaDFX=  1.000000  1.000000  1.000000  1.000000 ScalE2=  1.000000  1.000000
 IRadAn=      0 IRanWt=     -1 IRanGd=            0 ICorTp=0
 Leave Link  301 at Mon Sep 14 19:12:13 2015, MaxMem=  402653184 cpu:       0.1
 (Enter /share/apps/g09/l302.exe)
 Do NDO integrals.
 NPDir=0 NMtPBC=     1 NCelOv=     1 NCel=       1 NClECP=     1 NCelD=      1
         NCelK=      1 NCelE2=     1 NClLst=     1 CellRange=     0.0.
 One-electron integrals computed using PRISM.
 NBasis=    38 RedAO= F  NBF=    38
 NBsUse=    38 1.00D-04 NBFU=    38
 Leave Link  302 at Mon Sep 14 19:12:14 2015, MaxMem=  402653184 cpu:       0.1
 (Enter /share/apps/g09/l303.exe)
 DipDrv:  MaxL=1.
 Leave Link  303 at Mon Sep 14 19:12:14 2015, MaxMem=  402653184 cpu:       0.0
 (Enter /share/apps/g09/l401.exe)
 Simple Huckel Guess.
 Initial guess orbital symmetries:
       Occupied  (A) (A) (A) (A) (A) (A) (A) (A) (A) (A) (A) (A)
                 (A) (A) (A) (A) (A) (A) (A)
       Virtual   (A) (A) (A) (A) (A) (A) (A) (A) (A) (A) (A) (A)
                 (A) (A) (A) (A) (A) (A) (A)
 The electronic state of the initial guess is 1-A.
 Leave Link  401 at Mon Sep 14 19:12:14 2015, MaxMem=  402653184 cpu:       0.1
 (Enter /share/apps/g09/l502.exe)
 Closed shell SCF:
 Requested convergence on RMS density matrix=1.00D-08 within 128 cycles.
 Requested convergence on MAX density matrix=1.00D-06.
 Requested convergence on             energy=1.00D-06.
 No special actions if energy rises.
 Using DIIS extrapolation, IDIIS=  1040.
 Overlap will be assumed to be unity.
 Two-electron integral symmetry not used.
 Keep J ints in memory in canonical form, NReq=884654.
 IEnd=       81865 IEndB=       81865 NGot=   402653184 MDV=   402586639
 LenX=   402586639 LenY=   402584754
 Symmetry not used in FoFDir.
 MinBra= 0 MaxBra= 1 Meth=40.
 IRaf=       0 NMat=   1 IRICut=       1 DoRegI=T DoRafI=F ISym2E= 0 JSym2E=0.

 Cycle   1  Pass 1  IDiag  1:
 E= 0.735791186385484E-01
 DIIS: error= 2.19D-02 at cycle   1 NSaved=   1.
 NSaved= 1 IEnMin= 1 EnMin= 0.735791186385484E-01 IErMin= 1 ErrMin= 2.19D-02
 ErrMax= 2.19D-02 EMaxC= 1.00D-01 BMatC= 4.39D-02 BMatP= 4.39D-02
 IDIUse=3 WtCom= 7.81D-01 WtEn= 2.19D-01
 Coeff-Com:  0.100D+01
 Coeff-En:   0.100D+01
 Coeff:      0.100D+01
 GapD=    2.000 DampG=2.000 DampE=0.500 DampFc=1.0000 IDamp=-1.
 RMSDP=8.40D-03 MaxDP=6.95D-02              OVMax= 0.00D+00

 Cycle   2  Pass 1  IDiag  1:
 E=-0.428981329791895E-01 Delta-E=       -0.116477251618 Rises=F Damp=F
 DIIS: error= 5.35D-03 at cycle   2 NSaved=   2.
 NSaved= 2 IEnMin= 2 EnMin=-0.428981329791895E-01 IErMin= 2 ErrMin= 5.35D-03
 ErrMax= 5.35D-03 EMaxC= 1.00D-01 BMatC= 2.90D-03 BMatP= 4.39D-02
 IDIUse=3 WtCom= 9.46D-01 WtEn= 5.35D-02
 Coeff-Com: -0.321D+00 0.132D+01
 Coeff-En:   0.000D+00 0.100D+01
 Coeff:     -0.303D+00 0.130D+01
 RMSDP=3.01D-03 MaxDP=2.13D-02 DE=-1.16D-01 OVMax= 0.00D+00

 Cycle   3  Pass 1  IDiag  3:
 E=-0.522590530984814E-01 Delta-E=       -0.009360920119 Rises=F Damp=F
 DIIS: error= 1.43D-03 at cycle   3 NSaved=   3.
 NSaved= 3 IEnMin= 3 EnMin=-0.522590530984814E-01 IErMin= 3 ErrMin= 1.43D-03
 ErrMax= 1.43D-03 EMaxC= 1.00D-01 BMatC= 8.13D-05 BMatP= 2.90D-03
 IDIUse=3 WtCom= 9.86D-01 WtEn= 1.43D-02
 Coeff-Com:  0.236D+00-0.102D+01 0.178D+01
 Coeff-En:   0.000D+00 0.000D+00 0.100D+01
 Coeff:      0.232D+00-0.100D+01 0.177D+01
 Gap=     0.556 Goal=   None    Shift=    0.000
 RMSDP=8.51D-04 MaxDP=8.68D-03 DE=-9.36D-03 OVMax= 0.00D+00

 Cycle   4  Pass 1  IDiag  3:
 E=-0.527385100849074E-01 Delta-E=       -0.000479456986 Rises=F Damp=F
 DIIS: error= 3.70D-04 at cycle   4 NSaved=   4.
 NSaved= 4 IEnMin= 4 EnMin=-0.527385100849074E-01 IErMin= 4 ErrMin= 3.70D-04
 ErrMax= 3.70D-04 EMaxC= 1.00D-01 BMatC= 4.35D-06 BMatP= 8.13D-05
 IDIUse=3 WtCom= 9.96D-01 WtEn= 3.70D-03
 Coeff-Com: -0.116D+00 0.505D+00-0.105D+01 0.166D+01
 Coeff-En:   0.000D+00 0.000D+00 0.000D+00 0.100D+01
 Coeff:     -0.115D+00 0.503D+00-0.104D+01 0.165D+01
 Gap=     0.557 Goal=   None    Shift=    0.000
 RMSDP=2.29D-04 MaxDP=2.42D-03 DE=-4.79D-04 OVMax= 0.00D+00

 Cycle   5  Pass 1  IDiag  3:
 E=-0.527676754816184E-01 Delta-E=       -0.000029165397 Rises=F Damp=F
 DIIS: error= 7.15D-05 at cycle   5 NSaved=   5.
 NSaved= 5 IEnMin= 5 EnMin=-0.527676754816184E-01 IErMin= 5 ErrMin= 7.15D-05
 ErrMax= 7.15D-05 EMaxC= 1.00D-01 BMatC= 3.30D-07 BMatP= 4.35D-06
 IDIUse=1 WtCom= 1.00D+00 WtEn= 0.00D+00
 Coeff-Com:  0.606D-01-0.266D+00 0.585D+00-0.111D+01 0.173D+01
 Coeff:      0.606D-01-0.266D+00 0.585D+00-0.111D+01 0.173D+01
 Gap=     0.556 Goal=   None    Shift=    0.000
 RMSDP=6.38D-05 MaxDP=5.56D-04 DE=-2.92D-05 OVMax= 0.00D+00

 Cycle   6  Pass 1  IDiag  3:
 E=-0.527700890314122E-01 Delta-E=       -0.000002413550 Rises=F Damp=F
 DIIS: error= 2.87D-05 at cycle   6 NSaved=   6.
 NSaved= 6 IEnMin= 6 EnMin=-0.527700890314122E-01 IErMin= 6 ErrMin= 2.87D-05
 ErrMax= 2.87D-05 EMaxC= 1.00D-01 BMatC= 3.00D-08 BMatP= 3.30D-07
 IDIUse=1 WtCom= 1.00D+00 WtEn= 0.00D+00
 Coeff-Com: -0.138D-02 0.663D-02-0.275D-01 0.978D-01-0.479D+00 0.140D+01
 Coeff:     -0.138D-02 0.663D-02-0.275D-01 0.978D-01-0.479D+00 0.140D+01
 Gap=     0.557 Goal=   None    Shift=    0.000
 RMSDP=2.09D-05 MaxDP=2.03D-04 DE=-2.41D-06 OVMax= 0.00D+00

 Cycle   7  Pass 1  IDiag  3:
 E=-0.527703073079522E-01 Delta-E=       -0.000000218277 Rises=F Damp=F
 DIIS: error= 6.43D-06 at cycle   7 NSaved=   7.
 NSaved= 7 IEnMin= 7 EnMin=-0.527703073079522E-01 IErMin= 7 ErrMin= 6.43D-06
 ErrMax= 6.43D-06 EMaxC= 1.00D-01 BMatC= 2.07D-09 BMatP= 3.00D-08
 IDIUse=1 WtCom= 1.00D+00 WtEn= 0.00D+00
 Coeff-Com:  0.130D-02-0.593D-02 0.183D-01-0.508D-01 0.222D+00-0.783D+00
 Coeff-Com:  0.160D+01
 Coeff:      0.130D-02-0.593D-02 0.183D-01-0.508D-01 0.222D+00-0.783D+00
 Coeff:      0.160D+01
 Gap=     0.557 Goal=   None    Shift=    0.000
 RMSDP=4.96D-06 MaxDP=5.05D-05 DE=-2.18D-07 OVMax= 0.00D+00

 Cycle   8  Pass 1  IDiag  3:
 E=-0.527703203395617E-01 Delta-E=       -0.000000013032 Rises=F Damp=F
 DIIS: error= 1.44D-06 at cycle   8 NSaved=   8.
 NSaved= 8 IEnMin= 8 EnMin=-0.527703203395617E-01 IErMin= 8 ErrMin= 1.44D-06
 ErrMax= 1.44D-06 EMaxC= 1.00D-01 BMatC= 1.10D-10 BMatP= 2.07D-09
 IDIUse=1 WtCom= 1.00D+00 WtEn= 0.00D+00
 Coeff-Com: -0.317D-03 0.156D-02-0.680D-02 0.231D-01-0.120D+00 0.465D+00
 Coeff-Com: -0.109D+01 0.173D+01
 Coeff:     -0.317D-03 0.156D-02-0.680D-02 0.231D-01-0.120D+00 0.465D+00
 Coeff:     -0.109D+01 0.173D+01
 Gap=     0.557 Goal=   None    Shift=    0.000
 RMSDP=1.09D-06 MaxDP=1.07D-05 DE=-1.30D-08 OVMax= 0.00D+00

 Cycle   9  Pass 1  IDiag  3:
 E=-0.527703210117352E-01 Delta-E=       -0.000000000672 Rises=F Damp=F
 DIIS: error= 2.43D-07 at cycle   9 NSaved=   9.
 NSaved= 9 IEnMin= 9 EnMin=-0.527703210117352E-01 IErMin= 9 ErrMin= 2.43D-07
 ErrMax= 2.43D-07 EMaxC= 1.00D-01 BMatC= 3.37D-12 BMatP= 1.10D-10
 IDIUse=1 WtCom= 1.00D+00 WtEn= 0.00D+00
 Coeff-Com: -0.527D-04 0.183D-03 0.589D-03-0.409D-02 0.294D-01-0.125D+00
 Coeff-Com:  0.310D+00-0.628D+00 0.142D+01
 Coeff:     -0.527D-04 0.183D-03 0.589D-03-0.409D-02 0.294D-01-0.125D+00
 Coeff:      0.310D+00-0.628D+00 0.142D+01
 Gap=     0.557 Goal=   None    Shift=    0.000
 RMSDP=1.82D-07 MaxDP=1.79D-06 DE=-6.72D-10 OVMax= 0.00D+00

 Cycle  10  Pass 1  IDiag  3:
 E=-0.527703210297830E-01 Delta-E=       -0.000000000018 Rises=F Damp=F
 DIIS: error= 2.16D-08 at cycle  10 NSaved=  10.
 NSaved=10 IEnMin=10 EnMin=-0.527703210297830E-01 IErMin=10 ErrMin= 2.16D-08
 ErrMax= 2.16D-08 EMaxC= 1.00D-01 BMatC= 6.49D-14 BMatP= 3.37D-12
 IDIUse=1 WtCom= 1.00D+00 WtEn= 0.00D+00
 Coeff-Com: -0.445D-05 0.358D-04-0.409D-03 0.176D-02-0.105D-01 0.430D-01
 Coeff-Com: -0.105D+00 0.217D+00-0.551D+00 0.141D+01
 Coeff:     -0.445D-05 0.358D-04-0.409D-03 0.176D-02-0.105D-01 0.430D-01
 Coeff:     -0.105D+00 0.217D+00-0.551D+00 0.141D+01
 Gap=     0.557 Goal=   None    Shift=    0.000
 RMSDP=2.04D-08 MaxDP=1.45D-07 DE=-1.80D-11 OVMax= 0.00D+00

 Cycle  11  Pass 1  IDiag  3:
 E=-0.527703210300388E-01 Delta-E=        0.000000000000 Rises=F Damp=F
 DIIS: error= 4.94D-09 at cycle  11 NSaved=  11.
 NSaved=11 IEnMin=11 EnMin=-0.527703210300388E-01 IErMin=11 ErrMin= 4.94D-09
 ErrMax= 4.94D-09 EMaxC= 1.00D-01 BMatC= 2.19D-15 BMatP= 6.49D-14
 IDIUse=1 WtCom= 1.00D+00 WtEn= 0.00D+00
 Coeff-Com:  0.173D-05-0.141D-04 0.163D-03-0.700D-03 0.420D-02-0.171D-01
 Coeff-Com:  0.419D-01-0.865D-01 0.224D+00-0.658D+00 0.149D+01
 Coeff:      0.173D-05-0.141D-04 0.163D-03-0.700D-03 0.420D-02-0.171D-01
 Coeff:      0.419D-01-0.865D-01 0.224D+00-0.658D+00 0.149D+01
 Gap=     0.557 Goal=   None    Shift=    0.000
 RMSDP=4.10D-09 MaxDP=3.01D-08 DE=-2.56D-13 OVMax= 0.00D+00

 Cycle  12  Pass 2  IDiag  1:
 RMSDP=4.10D-09 MaxDP=3.01D-08 DE=-2.56D-13 OVMax= 0.00D+00

 SCF Done:  E(RPM6) = -0.527703210300E-01 A.U. after   12 cycles
             Convg  =    0.4097D-08             -V/T =  0.9991
 KE=-5.604113712005D+01 PE=-2.487617052359D+02 EE= 1.409732926965D+02
 Leave Link  502 at Mon Sep 14 19:12:16 2015, MaxMem=  402653184 cpu:       0.1
 (Enter /share/apps/g09/l601.exe)
 Copying SCF densities to generalized density rwf, IOpCl= 0 IROHF=0.

 **********************************************************************

            Population analysis using the SCF density.

 **********************************************************************

 Orbital symmetries:
       Occupied  (A) (A) (A) (A) (A) (A) (A) (A) (A) (A) (A) (A)
                 (A) (A) (A) (A) (A) (A) (A)
       Virtual   (A) (A) (A) (A) (A) (A) (A) (A) (A) (A) (A) (A)
                 (A) (A) (A) (A) (A) (A) (A)
 The electronic state is 1-A.
 Alpha  occ. eigenvalues --   -1.04986  -0.99135  -0.89451  -0.82941  -0.74672
 Alpha  occ. eigenvalues --   -0.69828  -0.58693  -0.56262  -0.54196  -0.53708
 Alpha  occ. eigenvalues --   -0.50049  -0.47918  -0.47815  -0.44624  -0.43450
 Alpha  occ. eigenvalues --   -0.43169  -0.41105  -0.40620  -0.40190
 Alpha virt. eigenvalues --    0.15458   0.16337   0.16687   0.17533   0.18000
 Alpha virt. eigenvalues --    0.20905   0.21143   0.21575   0.21881   0.22054
 Alpha virt. eigenvalues --    0.22914   0.22928   0.23316   0.23979   0.24168
 Alpha virt. eigenvalues --    0.24471   0.24531   0.25175   0.25428
          Condensed to atoms (all electrons):
              1          2          3          4          5          6
     1  C    4.457185   0.000000   0.000000   0.000000   0.000000   0.000000
     2  H    0.000000   0.852598   0.000000   0.000000   0.000000   0.000000
     3  H    0.000000   0.000000   0.852648   0.000000   0.000000   0.000000
     4  H    0.000000   0.000000   0.000000   0.858710   0.000000   0.000000
     5  C    0.000000   0.000000   0.000000   0.000000   4.230023   0.000000
     6  H    0.000000   0.000000   0.000000   0.000000   0.000000   0.876806
     7  H    0.000000   0.000000   0.000000   0.000000   0.000000   0.000000
     8  C    0.000000   0.000000   0.000000   0.000000   0.000000   0.000000
     9  H    0.000000   0.000000   0.000000   0.000000   0.000000   0.000000
    10  H    0.000000   0.000000   0.000000   0.000000   0.000000   0.000000
    11  C    0.000000   0.000000   0.000000   0.000000   0.000000   0.000000
    12  H    0.000000   0.000000   0.000000   0.000000   0.000000   0.000000
    13  H    0.000000   0.000000   0.000000   0.000000   0.000000   0.000000
    14  C    0.000000   0.000000   0.000000   0.000000   0.000000   0.000000
    15  H    0.000000   0.000000   0.000000   0.000000   0.000000   0.000000
    16  H    0.000000   0.000000   0.000000   0.000000   0.000000   0.000000
    17  C    0.000000   0.000000   0.000000   0.000000   0.000000   0.000000
    18  H    0.000000   0.000000   0.000000   0.000000   0.000000   0.000000
    19  H    0.000000   0.000000   0.000000   0.000000   0.000000   0.000000
    20  H    0.000000   0.000000   0.000000   0.000000   0.000000   0.000000
              7          8          9         10         11         12
     1  C    0.000000   0.000000   0.000000   0.000000   0.000000   0.000000
     2  H    0.000000   0.000000   0.000000   0.000000   0.000000   0.000000
     3  H    0.000000   0.000000   0.000000   0.000000   0.000000   0.000000
     4  H    0.000000   0.000000   0.000000   0.000000   0.000000   0.000000
     5  C    0.000000   0.000000   0.000000   0.000000   0.000000   0.000000
     6  H    0.000000   0.000000   0.000000   0.000000   0.000000   0.000000
     7  H    0.873822   0.000000   0.000000   0.000000   0.000000   0.000000
     8  C    0.000000   4.258639   0.000000   0.000000   0.000000   0.000000
     9  H    0.000000   0.000000   0.872448   0.000000   0.000000   0.000000
    10  H    0.000000   0.000000   0.000000   0.867119   0.000000   0.000000
    11  C    0.000000   0.000000   0.000000   0.000000   4.258643   0.000000
    12  H    0.000000   0.000000   0.000000   0.000000   0.000000   0.867116
    13  H    0.000000   0.000000   0.000000   0.000000   0.000000   0.000000
    14  C    0.000000   0.000000   0.000000   0.000000   0.000000   0.000000
    15  H    0.000000   0.000000   0.000000   0.000000   0.000000   0.000000
    16  H    0.000000   0.000000   0.000000   0.000000   0.000000   0.000000
    17  C    0.000000   0.000000   0.000000   0.000000   0.000000   0.000000
    18  H    0.000000   0.000000   0.000000   0.000000   0.000000   0.000000
    19  H    0.000000   0.000000   0.000000   0.000000   0.000000   0.000000
    20  H    0.000000   0.000000   0.000000   0.000000   0.000000   0.000000
             13         14         15         16         17         18
     1  C    0.000000   0.000000   0.000000   0.000000   0.000000   0.000000
     2  H    0.000000   0.000000   0.000000   0.000000   0.000000   0.000000
     3  H    0.000000   0.000000   0.000000   0.000000   0.000000   0.000000
     4  H    0.000000   0.000000   0.000000   0.000000   0.000000   0.000000
     5  C    0.000000   0.000000   0.000000   0.000000   0.000000   0.000000
     6  H    0.000000   0.000000   0.000000   0.000000   0.000000   0.000000
     7  H    0.000000   0.000000   0.000000   0.000000   0.000000   0.000000
     8  C    0.000000   0.000000   0.000000   0.000000   0.000000   0.000000
     9  H    0.000000   0.000000   0.000000   0.000000   0.000000   0.000000
    10  H    0.000000   0.000000   0.000000   0.000000   0.000000   0.000000
    11  C    0.000000   0.000000   0.000000   0.000000   0.000000   0.000000
    12  H    0.000000   0.000000   0.000000   0.000000   0.000000   0.000000
    13  H    0.872450   0.000000   0.000000   0.000000   0.000000   0.000000
    14  C    0.000000   4.230022   0.000000   0.000000   0.000000   0.000000
    15  H    0.000000   0.000000   0.876810   0.000000   0.000000   0.000000
    16  H    0.000000   0.000000   0.000000   0.873821   0.000000   0.000000
    17  C    0.000000   0.000000   0.000000   0.000000   4.457177   0.000000
    18  H    0.000000   0.000000   0.000000   0.000000   0.000000   0.852599
    19  H    0.000000   0.000000   0.000000   0.000000   0.000000   0.000000
    20  H    0.000000   0.000000   0.000000   0.000000   0.000000   0.000000
             19         20
     1  C    0.000000   0.000000
     2  H    0.000000   0.000000
     3  H    0.000000   0.000000
     4  H    0.000000   0.000000
     5  C    0.000000   0.000000
     6  H    0.000000   0.000000
     7  H    0.000000   0.000000
     8  C    0.000000   0.000000
     9  H    0.000000   0.000000
    10  H    0.000000   0.000000
    11  C    0.000000   0.000000
    12  H    0.000000   0.000000
    13  H    0.000000   0.000000
    14  C    0.000000   0.000000
    15  H    0.000000   0.000000
    16  H    0.000000   0.000000
    17  C    0.000000   0.000000
    18  H    0.000000   0.000000
    19  H    0.858711   0.000000
    20  H    0.000000   0.852651
 Mulliken atomic charges:
              1
     1  C   -0.457185
     2  H    0.147402
     3  H    0.147352
     4  H    0.141290
     5  C   -0.230023
     6  H    0.123194
     7  H    0.126178
     8  C   -0.258639
     9  H    0.127552
    10  H    0.132881
    11  C   -0.258643
    12  H    0.132884
    13  H    0.127550
    14  C   -0.230022
    15  H    0.123190
    16  H    0.126179
    17  C   -0.457177
    18  H    0.147401
    19  H    0.141289
    20  H    0.147349
 Sum of Mulliken atomic charges =   0.00000
 Mulliken charges with hydrogens summed into heavy atoms:
              1
     1  C   -0.021141
     5  C    0.019349
     8  C    0.001793
    11  C    0.001790
    14  C    0.019347
    17  C   -0.021138
 Sum of Mulliken charges with hydrogens summed into heavy atoms =   0.00000
 Charge=              0.0000 electrons
 Dipole moment (field-independent basis, Debye):
    X=             -0.0002    Y=             -0.0036    Z=              0.0000  Tot=              0.0037
 N-N= 1.637767793384D+02 E-N=-2.487617052388D+02  KE=-5.604113712005D+01
 Leave Link  601 at Mon Sep 14 19:12:16 2015, MaxMem=  402653184 cpu:       0.0
 (Enter /share/apps/g09/l701.exe)
 Compute integral first derivatives.
 ... and contract with generalized density number  0.
 Leave Link  701 at Mon Sep 14 19:12:16 2015, MaxMem=  402653184 cpu:       0.1
 (Enter /share/apps/g09/l702.exe)
 L702 exits ... SP integral derivatives will be done elsewhere.
 Leave Link  702 at Mon Sep 14 19:12:17 2015, MaxMem=  402653184 cpu:       0.0
 (Enter /share/apps/g09/l703.exe)
 Compute integral first derivatives, UseDBF=F ICtDFT=           0.
 Integral derivatives from FoFDir, PRISM(SPDF).
 Calling FoFJK, ICntrl=      2127 FMM=F ISym2X=0 I1Cent= 0 IOpClX= 0 NMat=1 NMatS=1 NMatT=0.
 FoFCou: FMM=F IPFlag=           0 FMFlag=      100000 FMFlg1=         800
         NFxFlg=           0 DoJE=F BraDBF=F KetDBF=F FulRan=T
         Omega=  0.000000  0.000000  1.000000  0.000000  0.000000 ICntrl=    2127 IOpCl=  0
         NMat0=    1 NMatS0=    1 NMatT0=    0 NMatD0=    1 NMtDS0=    0 NMtDT0=    0
         I1Cent=           0 NGrid=           0.
 Symmetry not used in FoFCou.
 Leave Link  703 at Mon Sep 14 19:12:18 2015, MaxMem=  402653184 cpu:       0.0
 (Enter /share/apps/g09/l716.exe)
 Dipole        =-8.67200810D-05-1.43533275D-03 1.05489125D-05
 ***** Axes restored to original set *****
 -------------------------------------------------------------------
 Center     Atomic                   Forces (Hartrees/Bohr)
 Number     Number              X              Y              Z
 -------------------------------------------------------------------
      1        6           0.001654259    0.000101276    0.002198356
      2        1          -0.002563351    0.009781296   -0.001266627
      3        1           0.007837777   -0.005487408   -0.004290648
      4        1          -0.007288521   -0.005287465    0.004171584
      5        6           0.001512374   -0.000302939   -0.000066766
      6        1           0.001437130   -0.003504048   -0.001541120
      7        1          -0.002635367    0.003136681    0.001230273
      8        6          -0.002257940   -0.001027498   -0.000168363
      9        1          -0.001480012    0.000692041    0.004369918
     10        1           0.000909597   -0.003002727   -0.003788291
     11        6           0.002252501    0.001069820    0.000326924
     12        1           0.001228709    0.000256773   -0.004786950
     13        1          -0.000665009    0.002048936    0.004139540
     14        6          -0.001282514    0.000028534   -0.000827186
     15        1          -0.000123828    0.001804530   -0.003647306
     16        1           0.001373108   -0.001535477    0.003724450
     17        6          -0.002478509    0.000848189    0.000848551
     18        1           0.001473398   -0.008376050    0.005595284
     19        1           0.005456727    0.007684765    0.003220512
     20        1          -0.004360531    0.001070771   -0.009442134
 -------------------------------------------------------------------
 Cartesian Forces:  Max     0.009781296 RMS     0.003694032
 Leave Link  716 at Mon Sep 14 19:12:19 2015, MaxMem=  402653184 cpu:       0.0
 (Enter /share/apps/g09/l103.exe)

 GradGradGradGradGradGradGradGradGradGradGradGradGradGradGradGradGradGrad
 Berny optimization.
 Internal  Forces:  Max     0.010092102 RMS     0.003093571
 Search for a local minimum.
 Step number   1 out of a maximum of  110
 All quantities printed in internal units (Hartrees-Bohrs-Radians)
 RMS Force = .30936D-02 SwitMx=.10000D-02 MixMth= 1
 Mixed Optimization -- RFO/linear search
 Second derivative matrix not updated -- first step.
     Eigenvalues ---    0.00263   0.00293   0.00293   0.00395   0.00395
     Eigenvalues ---    0.03391   0.03391   0.03414   0.03414   0.04784
     Eigenvalues ---    0.04784   0.04828   0.04828   0.05609   0.05610
     Eigenvalues ---    0.05778   0.05778   0.08460   0.08460   0.08533
     Eigenvalues ---    0.08534   0.12306   0.12306   0.12355   0.12355
     Eigenvalues ---    0.16000   0.16000   0.16000   0.16000   0.16000
     Eigenvalues ---    0.16000   0.21990   0.21990   0.21991   0.21991
     Eigenvalues ---    0.28696   0.28898   0.28900   0.29602   0.29605
     Eigenvalues ---    0.32080   0.32081   0.32105   0.32111   0.32113
     Eigenvalues ---    0.32118   0.32119   0.32126   0.32214   0.32219
     Eigenvalues ---    0.32223   0.32228   0.32266   0.322691000.00000
     Eigenvalues --- 1000.000001000.000001000.000001000.000001000.00000
     Eigenvalues --- 1000.000001000.000001000.000001000.000001000.00000
     Eigenvalues --- 1000.000001000.000001000.000001000.000001000.00000
     Eigenvalues --- 1000.000001000.000001000.000001000.000001000.00000
     Eigenvalues --- 1000.000001000.000001000.000001000.000001000.00000
     Eigenvalues --- 1000.000001000.000001000.000001000.000001000.00000
     Eigenvalues --- 1000.000001000.000001000.000001000.000001000.00000
     Eigenvalues --- 1000.000001000.000001000.000001000.000001000.00000
     Eigenvalues --- 1000.000001000.000001000.000001000.000001000.00000
 RFO step:  Lambda=-3.88621342D-03 EMin= 2.63143276D-03
 Linear search not attempted -- first point.
 Iteration  1 RMS(Cart)=  0.04277449 RMS(Int)=  0.00060718
 Iteration  2 RMS(Cart)=  0.00091432 RMS(Int)=  0.00008007
 Iteration  3 RMS(Cart)=  0.00000042 RMS(Int)=  0.00008007
 Variable       Old X    -DE/DX   Delta X   Delta X   Delta X     New X
                                 (Linear)    (Quad)   (Total)
    R1        2.10360  -0.00983   0.00000  -0.03011  -0.03011   2.07349
    R2        2.10454  -0.01009   0.00000  -0.03095  -0.03095   2.07359
    R3        2.10428  -0.00940   0.00000  -0.02883  -0.02883   2.07545
    R4        2.88758   0.00046   0.00000   0.00153   0.00153   2.88911
    R5        2.10653  -0.00279   0.00000  -0.00859  -0.00859   2.09793
    R6        2.10637  -0.00393   0.00000  -0.01210  -0.01210   2.09427
    R7        2.90216  -0.00079   0.00000  -0.00269  -0.00269   2.89948
    R8        2.10696  -0.00345   0.00000  -0.01062  -0.01062   2.09634
    R9        2.10614  -0.00437   0.00000  -0.01345  -0.01345   2.09269
   R10        2.90642  -0.00475   0.00000  -0.01634  -0.01634   2.89007
   R11        2.10629  -0.00441   0.00000  -0.01356  -0.01356   2.09272
   R12        2.10697  -0.00345   0.00000  -0.01063  -0.01063   2.09634
   R13        2.90213  -0.00077   0.00000  -0.00264  -0.00264   2.89949
   R14        2.10642  -0.00276   0.00000  -0.00850  -0.00850   2.09792
   R15        2.10627  -0.00391   0.00000  -0.01204  -0.01204   2.09424
   R16        2.88763   0.00045   0.00000   0.00150   0.00150   2.88913
   R17        2.10354  -0.00982   0.00000  -0.03006  -0.03006   2.07348
   R18        2.10446  -0.00944   0.00000  -0.02895  -0.02895   2.07550
   R19        2.10438  -0.01006   0.00000  -0.03085  -0.03085   2.07353
    A1        1.90740  -0.00326   0.00000  -0.02599  -0.02599   1.88142
    A2        1.89018  -0.00261   0.00000  -0.01234  -0.01258   1.87760
    A3        1.93104   0.00218   0.00000   0.01186   0.01174   1.94278
    A4        1.89714  -0.00293   0.00000  -0.01517  -0.01542   1.88172
    A5        1.92789   0.00260   0.00000   0.01400   0.01386   1.94175
    A6        1.90947   0.00383   0.00000   0.02661   0.02635   1.93582
    A7        1.88486   0.00210   0.00000   0.01957   0.01959   1.90444
    A8        1.90420   0.00143   0.00000   0.00522   0.00518   1.90938
    A9        1.99327  -0.00370   0.00000  -0.01327  -0.01326   1.98001
   A10        1.87920  -0.00178   0.00000  -0.01961  -0.01963   1.85958
   A11        1.88592   0.00108   0.00000   0.00880   0.00884   1.89476
   A12        1.91292   0.00093   0.00000  -0.00117  -0.00117   1.91176
   A13        1.87554   0.00268   0.00000   0.02429   0.02430   1.89984
   A14        1.90051   0.00219   0.00000   0.01100   0.01090   1.91141
   A15        1.98932  -0.00470   0.00000  -0.01757  -0.01753   1.97179
   A16        1.88246  -0.00201   0.00000  -0.02065  -0.02074   1.86171
   A17        1.90040   0.00115   0.00000   0.00748   0.00758   1.90798
   A18        1.91254   0.00078   0.00000  -0.00470  -0.00467   1.90787
   A19        1.91250   0.00079   0.00000  -0.00468  -0.00465   1.90785
   A20        1.90046   0.00115   0.00000   0.00744   0.00753   1.90799
   A21        1.98932  -0.00469   0.00000  -0.01756  -0.01752   1.97180
   A22        1.88239  -0.00201   0.00000  -0.02062  -0.02072   1.86167
   A23        1.90053   0.00218   0.00000   0.01099   0.01088   1.91141
   A24        1.87556   0.00268   0.00000   0.02429   0.02430   1.89987
   A25        1.88592   0.00108   0.00000   0.00882   0.00886   1.89478
   A26        1.91294   0.00093   0.00000  -0.00118  -0.00118   1.91176
   A27        1.99320  -0.00370   0.00000  -0.01323  -0.01322   1.97998
   A28        1.87923  -0.00178   0.00000  -0.01962  -0.01963   1.85960
   A29        1.88479   0.00211   0.00000   0.01962   0.01964   1.90443
   A30        1.90429   0.00142   0.00000   0.00513   0.00509   1.90938
   A31        1.93099   0.00218   0.00000   0.01191   0.01178   1.94277
   A32        1.90933   0.00384   0.00000   0.02670   0.02644   1.93577
   A33        1.92803   0.00258   0.00000   0.01388   0.01375   1.94178
   A34        1.89010  -0.00261   0.00000  -0.01230  -0.01255   1.87756
   A35        1.90756  -0.00327   0.00000  -0.02606  -0.02605   1.88151
   A36        1.89711  -0.00293   0.00000  -0.01515  -0.01540   1.88171
    D1       -3.02732  -0.00030   0.00000  -0.00420  -0.00428  -3.03160
    D2       -0.98949  -0.00048   0.00000  -0.01388  -0.01394  -1.00342
    D3        1.15765  -0.00080   0.00000  -0.02079  -0.02085   1.13680
    D4        1.14145   0.00064   0.00000   0.01131   0.01136   1.15281
    D5       -3.10391   0.00045   0.00000   0.00163   0.00171  -3.10220
    D6       -0.95677   0.00013   0.00000  -0.00528  -0.00520  -0.96197
    D7       -0.94626   0.00024   0.00000   0.00462   0.00460  -0.94166
    D8        1.09158   0.00005   0.00000  -0.00506  -0.00505   1.08652
    D9       -3.04447  -0.00027   0.00000  -0.01197  -0.01197  -3.05644
   D10        3.05865   0.00022   0.00000  -0.01333  -0.01329   3.04537
   D11        1.02401   0.00000   0.00000  -0.00785  -0.00792   1.01609
   D12       -1.11708   0.00060   0.00000   0.00216   0.00215  -1.11493
   D13        0.96103  -0.00085   0.00000  -0.03593  -0.03588   0.92515
   D14       -1.07361  -0.00107   0.00000  -0.03046  -0.03051  -1.10412
   D15        3.06848  -0.00047   0.00000  -0.02044  -0.02044   3.04804
   D16       -1.08213   0.00016   0.00000  -0.01684  -0.01678  -1.09891
   D17       -3.11677  -0.00006   0.00000  -0.01137  -0.01141  -3.12818
   D18        1.02532   0.00054   0.00000  -0.00136  -0.00134   1.02398
   D19        1.23729  -0.00092   0.00000  -0.03153  -0.03153   1.20576
   D20       -0.81781   0.00038   0.00000  -0.00830  -0.00827  -0.82608
   D21       -2.91139  -0.00079   0.00000  -0.03309  -0.03303  -2.94442
   D22       -2.95238   0.00024   0.00000  -0.00672  -0.00675  -2.95913
   D23        1.27571   0.00155   0.00000   0.01651   0.01651   1.29222
   D24       -0.81788   0.00038   0.00000  -0.00828  -0.00825  -0.82613
   D25       -0.89721  -0.00106   0.00000  -0.02998  -0.03004  -0.92725
   D26       -2.95231   0.00024   0.00000  -0.00674  -0.00677  -2.95908
   D27        1.23729  -0.00092   0.00000  -0.03153  -0.03153   1.20576
   D28        3.06858  -0.00047   0.00000  -0.02050  -0.02050   3.04808
   D29        1.02537   0.00054   0.00000  -0.00141  -0.00140   1.02397
   D30       -1.11711   0.00060   0.00000   0.00220   0.00219  -1.11492
   D31       -1.07355  -0.00107   0.00000  -0.03050  -0.03055  -1.10409
   D32       -3.11675  -0.00006   0.00000  -0.01141  -0.01145  -3.12820
   D33        1.02395   0.00001   0.00000  -0.00779  -0.00786   1.01610
   D34        0.96104  -0.00085   0.00000  -0.03594  -0.03589   0.92515
   D35       -1.08217   0.00016   0.00000  -0.01685  -0.01679  -1.09896
   D36        3.05853   0.00023   0.00000  -0.01324  -0.01320   3.04534
   D37        1.15782  -0.00080   0.00000  -0.02091  -0.02098   1.13684
   D38       -3.04452  -0.00026   0.00000  -0.01198  -0.01197  -3.05649
   D39       -0.95685   0.00014   0.00000  -0.00528  -0.00521  -0.96206
   D40       -3.02724  -0.00030   0.00000  -0.00425  -0.00433  -3.03157
   D41       -0.94639   0.00024   0.00000   0.00469   0.00468  -0.94171
   D42        1.14127   0.00064   0.00000   0.01139   0.01145   1.15272
   D43       -0.98936  -0.00049   0.00000  -0.01396  -0.01401  -1.00337
   D44        1.09149   0.00005   0.00000  -0.00502  -0.00501   1.08648
   D45       -3.10403   0.00045   0.00000   0.00168   0.00176  -3.10227
         Item               Value     Threshold  Converged?
 Maximum Force            0.010092     0.000450     NO 
 RMS     Force            0.003094     0.000300     NO 
 Maximum Displacement     0.137840     0.001800     NO 
 RMS     Displacement     0.042982     0.001200     NO 
 Predicted change in Energy=-2.000320D-03
 GradGradGradGradGradGradGradGradGradGradGradGradGradGradGradGradGradGrad

 Leave Link  103 at Mon Sep 14 19:12:22 2015, MaxMem=  402653184 cpu:       0.0
 (Enter /share/apps/g09/l202.exe)
                          Input orientation:                          
 ---------------------------------------------------------------------
 Center     Atomic      Atomic             Coordinates (Angstroms)
 Number     Number       Type             X           Y           Z
 ---------------------------------------------------------------------
      1          6           0        1.131152    2.646531    0.675874
      2          1           0        1.395658    1.675308    1.112575
      3          1           0        0.452830    3.154222    1.373144
      4          1           0        2.051629    3.241909    0.609063
      5          6           0        0.487755    2.480004   -0.700968
      6          1           0        0.340026    3.481461   -1.156773
      7          1           0        1.181287    1.929217   -1.367182
      8          6           0       -0.865423    1.757955   -0.659199
      9          1           0       -1.308136    1.767052   -1.676329
     10          1           0       -1.562524    2.316143   -0.004360
     11          6           0       -0.756545    0.313829   -0.167680
     12          1           0       -0.494942    0.311949    0.908397
     13          1           0        0.075625   -0.192704   -0.698287
     14          6           0       -2.044939   -0.490986   -0.383364
     15          1           0       -1.855481   -1.545753   -0.093444
     16          1           0       -2.299486   -0.500958   -1.461911
     17          6           0       -3.235485    0.041440    0.414475
     18          1           0       -3.525021    1.044598    0.077174
     19          1           0       -4.109804   -0.612939    0.297693
     20          1           0       -3.001975    0.101821    1.484903
 ---------------------------------------------------------------------
                    Distance matrix (angstroms):
                    1          2          3          4          5
     1  C    0.000000
     2  H    1.097244   0.000000
     3  H    1.097295   1.773135   0.000000
     4  H    1.098279   1.771457   1.774166   0.000000
     5  C    1.528851   2.181917   2.181223   2.177702   0.000000
     6  H    2.163697   3.086501   2.553486   2.470860   1.110179
     7  H    2.165902   2.501923   3.088798   2.527093   1.108239
     8  C    2.560917   2.873761   2.796028   3.509957   1.534337
     9  H    3.500924   3.885473   3.784776   4.322759   2.164452
    10  H    2.797814   3.226306   2.580997   3.780930   2.171580
    11  C    3.117127   2.850378   3.450299   4.130717   2.554407
    12  H    2.854561   2.339831   3.031960   3.893494   2.873363
    13  H    3.326216   2.917392   3.954115   4.172568   2.704298
    14  C    4.588415   4.332248   4.755178   5.630390   3.916912
    15  H    5.204524   4.732824   5.437734   6.219384   4.697506
    16  H    5.123093   5.001820   5.382669   6.101654   4.151371
    17  C    5.091399   4.960278   4.920583   6.183401   4.588391
    18  H    4.960300   5.067833   4.685441   6.017484   4.332236
    19  H    6.183428   6.017493   6.013795   7.274617   5.630379
    20  H    4.920652   4.685474   4.611434   6.013831   4.755208
                    6          7          8          9         10
     6  H    0.000000
     7  H    1.778047   0.000000
     8  C    2.161286   2.172462   0.000000
     9  H    2.434250   2.513781   1.109338   0.000000
    10  H    2.511119   3.087960   1.107402   1.778116   0.000000
    11  C    3.494949   2.793470   1.529362   2.166133   2.164611
    12  H    3.874004   3.256311   2.164613   3.075617   2.447376
    13  H    3.712089   2.484443   2.166142   2.590754   3.075611
    14  C    4.697505   4.151363   2.554424   2.704325   2.873386
    15  H    5.587826   4.787461   3.494966   3.712114   3.874016
    16  H    4.787461   4.246234   2.793487   2.484475   3.256321
    17  C    5.204502   5.123073   3.117114   3.326240   2.854557
    18  H    4.732813   5.001805   2.850367   2.917412   2.339844
    19  H    6.219370   6.101640   4.130713   4.172585   3.893506
    20  H    5.437774   5.382699   3.450335   3.954171   3.032020
                   11         12         13         14         15
    11  C    0.000000
    12  H    1.107421   0.000000
    13  H    1.109336   1.778104   0.000000
    14  C    1.534342   2.171598   2.164472   0.000000
    15  H    2.161300   2.511137   2.434286   1.110171   0.000000
    16  H    2.172459   3.087969   2.513821   1.108223   1.778044
    17  C    2.560907   2.797805   3.500930   1.528864   2.163695
    18  H    2.873750   3.226311   3.885474   2.181916   3.086486
    19  H    3.509960   3.780953   4.322776   2.177701   2.470851
    20  H    2.796057   2.581032   3.784797   2.181229   2.553454
                   16         17         18         19         20
    16  H    0.000000
    17  C    2.165898   0.000000
    18  H    2.501892   1.097237   0.000000
    19  H    2.527053   1.098309   1.771448   0.000000
    20  H    3.088777   1.097264   1.773163   1.774157   0.000000
 Stoichiometry    C6H14
 Framework group  C1[X(C6H14)]
 Deg. of freedom    54
 Full point group                 C1      NOp   1
 Largest Abelian subgroup         C1      NOp   1
 Largest concise Abelian subgroup C1      NOp   1
                         Standard orientation:                         
 ---------------------------------------------------------------------
 Center     Atomic      Atomic             Coordinates (Angstroms)
 Number     Number       Type             X           Y           Z
 ---------------------------------------------------------------------
      1          6           0       -2.519815    0.708085   -0.362165
      2          1           0       -2.122788    0.761790   -1.383649
      3          1           0       -2.301852    1.662732    0.133007
      4          1           0       -3.611167    0.608965   -0.435265
      5          6           0       -1.915510   -0.466335    0.407860
      6          1           0       -2.422881   -0.555935    1.391243
      7          1           0       -2.118550   -1.408596   -0.139052
      8          6           0       -0.406431   -0.327296    0.647732
      9          1           0       -0.067608   -1.163167    1.293603
     10          1           0       -0.205218    0.607469    1.206363
     11          6           0        0.406431   -0.327300   -0.647723
     12          1           0        0.205207    0.607485   -1.206354
     13          1           0        0.067583   -1.163137   -1.293621
     14          6           0        1.915518   -0.466341   -0.407872
     15          1           0        2.422895   -0.555909   -1.391247
     16          1           0        2.118568   -1.408582    0.139038
     17          6           0        2.519797    0.708099    0.362168
     18          1           0        2.122792    0.761756    1.383656
     19          1           0        3.611173    0.608932    0.435291
     20          1           0        2.301903    1.662724   -0.133012
 ---------------------------------------------------------------------
 Rotational constants (GHZ):      7.5296316      1.4726945      1.4571101
 Leave Link  202 at Mon Sep 14 19:12:24 2015, MaxMem=  402653184 cpu:       0.0
 (Enter /share/apps/g09/l301.exe)
 Standard basis: VSTO-6G (5D, 7F)
 Ernie: Thresh=  0.10000D-02 Tol=  0.10000D-05 Strict=F.
  NNHCO=     0 NNPyr=     0 NCTC=     0               EPep=         0.000000000
    EC=       127.002264144  ECS=         3.219294518   EG=         0.309362332
   EHC=         0.000451997  EAt=       -31.187935768  AtH=         2.796400831
 EPDDG=         0.000000000  ECC=       130.531372991 EAtT=        33.984336599
 There are    38 symmetry adapted basis functions of A   symmetry.
 Integral buffers will be    131072 words long.
 Regular integral format.
 Two-electron integral symmetry is turned off.
    38 basis functions,   228 primitive gaussians,    38 cartesian basis functions
    19 alpha electrons       19 beta electrons
       nuclear repulsion energy       164.5157095895 Hartrees.
 IExCor=    0 DFT=F Ex=HF Corr=None ExCW=0 ScaHFX=  1.000000
 ScaDFX=  1.000000  1.000000  1.000000  1.000000 ScalE2=  1.000000  1.000000
 IRadAn=      0 IRanWt=     -1 IRanGd=            0 ICorTp=0
 Leave Link  301 at Mon Sep 14 19:12:24 2015, MaxMem=  402653184 cpu:       0.1
 (Enter /share/apps/g09/l302.exe)
 Do NDO integrals.
 NPDir=0 NMtPBC=     1 NCelOv=     1 NCel=       1 NClECP=     1 NCelD=      1
         NCelK=      1 NCelE2=     1 NClLst=     1 CellRange=     0.0.
 One-electron integrals computed using PRISM.
 NBasis=    38 RedAO= F  NBF=    38
 NBsUse=    38 1.00D-04 NBFU=    38
 Leave Link  302 at Mon Sep 14 19:12:24 2015, MaxMem=  402653184 cpu:       0.1
 (Enter /share/apps/g09/l303.exe)
 DipDrv:  MaxL=1.
 Leave Link  303 at Mon Sep 14 19:12:25 2015, MaxMem=  402653184 cpu:       0.0
 (Enter /share/apps/g09/l401.exe)
 Initial guess read from the read-write file.
 B after Tr=     0.000000    0.000000    0.000000
         Rot=    1.000000    0.000000    0.000000    0.000000 Ang=   0.00 deg.
 Guess basis will be translated and rotated to current coordinates.
 Initial guess orbital symmetries:
       Occupied  (A) (A) (A) (A) (A) (A) (A) (A) (A) (A) (A) (A)
                 (A) (A) (A) (A) (A) (A) (A)
       Virtual   (A) (A) (A) (A) (A) (A) (A) (A) (A) (A) (A) (A)
                 (A) (A) (A) (A) (A) (A) (A)
 The electronic state of the initial guess is 1-A.
 Leave Link  401 at Mon Sep 14 19:12:25 2015, MaxMem=  402653184 cpu:       0.2
 (Enter /share/apps/g09/l502.exe)
 Closed shell SCF:
 Requested convergence on RMS density matrix=1.00D-08 within 128 cycles.
 Requested convergence on MAX density matrix=1.00D-06.
 Requested convergence on             energy=1.00D-06.
 No special actions if energy rises.
 Using DIIS extrapolation, IDIIS=  1040.
 Overlap will be assumed to be unity.
 Two-electron integral symmetry not used.
 Keep J ints in memory in canonical form, NReq=884654.
 IEnd=       81865 IEndB=       81865 NGot=   402653184 MDV=   402586639
 LenX=   402586639 LenY=   402584754
 Symmetry not used in FoFDir.
 MinBra= 0 MaxBra= 1 Meth=40.
 IRaf=       0 NMat=   1 IRICut=       1 DoRegI=T DoRafI=F ISym2E= 0 JSym2E=0.

 Cycle   1  Pass 1  IDiag  1:
 E=  6.83380108891751    
 DIIS: error= 8.50D-02 at cycle   1 NSaved=   1.
 NSaved= 1 IEnMin= 1 EnMin=  6.83380108891751     IErMin= 1 ErrMin= 8.50D-02
 ErrMax= 8.50D-02 EMaxC= 1.00D-01 BMatC= 3.67D-01 BMatP= 3.67D-01
 IDIUse=3 WtCom= 1.50D-01 WtEn= 8.50D-01
 Coeff-Com:  0.100D+01
 Coeff-En:   0.100D+01
 Coeff:      0.100D+01
 GapD=    2.000 DampG=2.000 DampE=0.500 DampFc=1.0000 IDamp=-1.
 RMSDP=7.39D-02 MaxDP=4.76D-01              OVMax= 0.00D+00

 Cycle   2  Pass 1  IDiag  1:
 E=  2.06689311738506     Delta-E=       -4.766907971532 Rises=F Damp=F
 DIIS: error= 6.11D-02 at cycle   2 NSaved=   2.
 NSaved= 2 IEnMin= 2 EnMin=  2.06689311738506     IErMin= 2 ErrMin= 6.11D-02
 ErrMax= 6.11D-02 EMaxC= 1.00D-01 BMatC= 2.44D-01 BMatP= 3.67D-01
 IDIUse=3 WtCom= 3.89D-01 WtEn= 6.11D-01
 Coeff-Com:  0.168D+00 0.832D+00
 Coeff-En:   0.000D+00 0.100D+01
 Coeff:      0.653D-01 0.935D+00
 RMSDP=3.75D-02 MaxDP=3.01D-01 DE=-4.77D+00 OVMax= 0.00D+00

 Cycle   3  Pass 1  IDiag  1:
 E= 0.430674085538271     Delta-E=       -1.636219031847 Rises=F Damp=F
 DIIS: error= 4.45D-02 at cycle   3 NSaved=   3.
 NSaved= 3 IEnMin= 3 EnMin= 0.430674085538271     IErMin= 3 ErrMin= 4.45D-02
 ErrMax= 4.45D-02 EMaxC= 1.00D-01 BMatC= 8.21D-02 BMatP= 2.44D-01
 IDIUse=3 WtCom= 5.55D-01 WtEn= 4.45D-01
 Coeff-Com:  0.249D+00-0.111D+01 0.186D+01
 Coeff-En:   0.000D+00 0.000D+00 0.100D+01
 Coeff:      0.138D+00-0.615D+00 0.148D+01
 RMSDP=2.20D-02 MaxDP=1.70D-01 DE=-1.64D+00 OVMax= 0.00D+00

 Cycle   4  Pass 1  IDiag  1:
 E=-0.102032876395981E-01 Delta-E=       -0.440877373178 Rises=F Damp=F
 DIIS: error= 1.70D-02 at cycle   4 NSaved=   4.
 NSaved= 4 IEnMin= 4 EnMin=-0.102032876395981E-01 IErMin= 4 ErrMin= 1.70D-02
 ErrMax= 1.70D-02 EMaxC= 1.00D-01 BMatC= 7.33D-03 BMatP= 8.21D-02
 IDIUse=3 WtCom= 8.30D-01 WtEn= 1.70D-01
 Coeff-Com: -0.571D-01 0.279D+00-0.755D+00 0.153D+01
 Coeff-En:   0.000D+00 0.000D+00 0.000D+00 0.100D+01
 Coeff:     -0.474D-01 0.232D+00-0.627D+00 0.144D+01
 RMSDP=7.09D-03 MaxDP=7.85D-02 DE=-4.41D-01 OVMax= 0.00D+00

 Cycle   5  Pass 1  IDiag  3:
 E=-0.504433863306701E-01 Delta-E=       -0.040240098691 Rises=F Damp=F
 DIIS: error= 4.43D-03 at cycle   5 NSaved=   5.
 NSaved= 5 IEnMin= 5 EnMin=-0.504433863306701E-01 IErMin= 5 ErrMin= 4.43D-03
 ErrMax= 4.43D-03 EMaxC= 1.00D-01 BMatC= 6.28D-04 BMatP= 7.33D-03
 IDIUse=3 WtCom= 9.56D-01 WtEn= 4.43D-02
 Coeff-Com:  0.193D-01-0.664D-01 0.210D+00-0.749D+00 0.159D+01
 Coeff-En:   0.000D+00 0.000D+00 0.000D+00 0.000D+00 0.100D+01
 Coeff:      0.184D-01-0.634D-01 0.201D+00-0.716D+00 0.156D+01
 Gap=     0.556 Goal=   None    Shift=    0.000
 RMSDP=2.50D-03 MaxDP=2.77D-02 DE=-4.02D-02 OVMax= 0.00D+00

 Cycle   6  Pass 1  IDiag  3:
 E=-0.545122101771369E-01 Delta-E=       -0.004068823846 Rises=F Damp=F
 DIIS: error= 1.17D-03 at cycle   6 NSaved=   6.
 NSaved= 6 IEnMin= 6 EnMin=-0.545122101771369E-01 IErMin= 6 ErrMin= 1.17D-03
 ErrMax= 1.17D-03 EMaxC= 1.00D-01 BMatC= 5.91D-05 BMatP= 6.28D-04
 IDIUse=3 WtCom= 9.88D-01 WtEn= 1.17D-02
 Coeff-Com: -0.298D-02 0.257D-03-0.289D-01 0.258D+00-0.922D+00 0.169D+01
 Coeff-En:   0.000D+00 0.000D+00 0.000D+00 0.000D+00 0.000D+00 0.100D+01
 Coeff:     -0.294D-02 0.254D-03-0.286D-01 0.255D+00-0.911D+00 0.169D+01
 Gap=     0.559 Goal=   None    Shift=    0.000
 RMSDP=8.88D-04 MaxDP=9.40D-03 DE=-4.07D-03 OVMax= 0.00D+00

 Cycle   7  Pass 1  IDiag  3:
 E=-0.549431722905638E-01 Delta-E=       -0.000430962113 Rises=F Damp=F
 DIIS: error= 3.24D-04 at cycle   7 NSaved=   7.
 NSaved= 7 IEnMin= 7 EnMin=-0.549431722905638E-01 IErMin= 7 ErrMin= 3.24D-04
 ErrMax= 3.24D-04 EMaxC= 1.00D-01 BMatC= 4.88D-06 BMatP= 5.91D-05
 IDIUse=3 WtCom= 9.97D-01 WtEn= 3.24D-03
 Coeff-Com:  0.154D-02 0.195D-02 0.149D-01-0.156D+00 0.596D+00-0.132D+01
 Coeff-Com:  0.186D+01
 Coeff-En:   0.000D+00 0.000D+00 0.000D+00 0.000D+00 0.000D+00 0.000D+00
 Coeff-En:   0.100D+01
 Coeff:      0.153D-02 0.194D-02 0.148D-01-0.156D+00 0.594D+00-0.131D+01
 Coeff:      0.186D+01
 Gap=     0.556 Goal=   None    Shift=    0.000
 RMSDP=2.84D-04 MaxDP=2.44D-03 DE=-4.31D-04 OVMax= 0.00D+00

 Cycle   8  Pass 1  IDiag  3:
 E=-0.549801630658351E-01 Delta-E=       -0.000036990775 Rises=F Damp=F
 DIIS: error= 6.77D-05 at cycle   8 NSaved=   8.
 NSaved= 8 IEnMin= 8 EnMin=-0.549801630658351E-01 IErMin= 8 ErrMin= 6.77D-05
 ErrMax= 6.77D-05 EMaxC= 1.00D-01 BMatC= 2.21D-07 BMatP= 4.88D-06
 IDIUse=1 WtCom= 1.00D+00 WtEn= 0.00D+00
 Coeff-Com: -0.283D-03-0.479D-03-0.405D-02 0.341D-01-0.128D+00 0.307D+00
 Coeff-Com: -0.584D+00 0.138D+01
 Coeff:     -0.283D-03-0.479D-03-0.405D-02 0.341D-01-0.128D+00 0.307D+00
 Coeff:     -0.584D+00 0.138D+01
 Gap=     0.558 Goal=   None    Shift=    0.000
 RMSDP=4.79D-05 MaxDP=4.28D-04 DE=-3.70D-05 OVMax= 0.00D+00

 Cycle   9  Pass 1  IDiag  3:
 E=-0.549814998121576E-01 Delta-E=       -0.000001336746 Rises=F Damp=F
 DIIS: error= 2.02D-05 at cycle   9 NSaved=   9.
 NSaved= 9 IEnMin= 9 EnMin=-0.549814998121576E-01 IErMin= 9 ErrMin= 2.02D-05
 ErrMax= 2.02D-05 EMaxC= 1.00D-01 BMatC= 1.78D-08 BMatP= 2.21D-07
 IDIUse=1 WtCom= 1.00D+00 WtEn= 0.00D+00
 Coeff-Com:  0.583D-04-0.102D-03 0.153D-02-0.658D-02 0.207D-01-0.526D-01
 Coeff-Com:  0.123D+00-0.538D+00 0.145D+01
 Coeff:      0.583D-04-0.102D-03 0.153D-02-0.658D-02 0.207D-01-0.526D-01
 Coeff:      0.123D+00-0.538D+00 0.145D+01
 Gap=     0.557 Goal=   None    Shift=    0.000
 RMSDP=1.33D-05 MaxDP=1.32D-04 DE=-1.34D-06 OVMax= 0.00D+00

 Cycle  10  Pass 1  IDiag  3:
 E=-0.549816065731079E-01 Delta-E=       -0.000000106761 Rises=F Damp=F
 DIIS: error= 4.55D-06 at cycle  10 NSaved=  10.
 NSaved=10 IEnMin=10 EnMin=-0.549816065731079E-01 IErMin=10 ErrMin= 4.55D-06
 ErrMax= 4.55D-06 EMaxC= 1.00D-01 BMatC= 1.15D-09 BMatP= 1.78D-08
 IDIUse=1 WtCom= 1.00D+00 WtEn= 0.00D+00
 Coeff-Com:  0.500D-05 0.567D-04-0.413D-03 0.554D-03-0.407D-03 0.348D-02
 Coeff-Com: -0.185D-01 0.156D+00-0.679D+00 0.154D+01
 Coeff:      0.500D-05 0.567D-04-0.413D-03 0.554D-03-0.407D-03 0.348D-02
 Coeff:     -0.185D-01 0.156D+00-0.679D+00 0.154D+01
 Gap=     0.557 Goal=   None    Shift=    0.000
 RMSDP=3.51D-06 MaxDP=2.88D-05 DE=-1.07D-07 OVMax= 0.00D+00

 Cycle  11  Pass 1  IDiag  3:
 E=-0.549816133991783E-01 Delta-E=       -0.000000006826 Rises=F Damp=F
 DIIS: error= 6.76D-07 at cycle  11 NSaved=  11.
 NSaved=11 IEnMin=11 EnMin=-0.549816133991783E-01 IErMin=11 ErrMin= 6.76D-07
 ErrMax= 6.76D-07 EMaxC= 1.00D-01 BMatC= 3.72D-11 BMatP= 1.15D-09
 IDIUse=1 WtCom= 1.00D+00 WtEn= 0.00D+00
 Coeff-Com:  0.192D-06-0.307D-04 0.119D-03-0.240D-04-0.387D-03 0.106D-03
 Coeff-Com:  0.293D-02-0.345D-01 0.185D+00-0.545D+00 0.139D+01
 Coeff:      0.192D-06-0.307D-04 0.119D-03-0.240D-04-0.387D-03 0.106D-03
 Coeff:      0.293D-02-0.345D-01 0.185D+00-0.545D+00 0.139D+01
 Gap=     0.557 Goal=   None    Shift=    0.000
 RMSDP=5.28D-07 MaxDP=3.86D-06 DE=-6.83D-09 OVMax= 0.00D+00

 Cycle  12  Pass 1  IDiag  3:
 E=-0.549816135921333E-01 Delta-E=       -0.000000000193 Rises=F Damp=F
 DIIS: error= 1.41D-07 at cycle  12 NSaved=  12.
 NSaved=12 IEnMin=12 EnMin=-0.549816135921333E-01 IErMin=12 ErrMin= 1.41D-07
 ErrMax= 1.41D-07 EMaxC= 1.00D-01 BMatC= 1.93D-12 BMatP= 3.72D-11
 IDIUse=1 WtCom= 1.00D+00 WtEn= 0.00D+00
 Coeff-Com:  0.168D-06 0.508D-05-0.224D-04 0.838D-05-0.641D-05 0.332D-03
 Coeff-Com: -0.139D-02 0.862D-02-0.440D-01 0.133D+00-0.482D+00 0.139D+01
 Coeff:      0.168D-06 0.508D-05-0.224D-04 0.838D-05-0.641D-05 0.332D-03
 Coeff:     -0.139D-02 0.862D-02-0.440D-01 0.133D+00-0.482D+00 0.139D+01
 Gap=     0.557 Goal=   None    Shift=    0.000
 RMSDP=1.29D-07 MaxDP=9.96D-07 DE=-1.93D-10 OVMax= 0.00D+00

 Cycle  13  Pass 1  IDiag  3:
 E=-0.549816136023651E-01 Delta-E=       -0.000000000010 Rises=F Damp=F
 DIIS: error= 2.59D-08 at cycle  13 NSaved=  13.
 NSaved=13 IEnMin=13 EnMin=-0.549816136023651E-01 IErMin=13 ErrMin= 2.59D-08
 ErrMax= 2.59D-08 EMaxC= 1.00D-01 BMatC= 7.98D-14 BMatP= 1.93D-12
 IDIUse=1 WtCom= 1.00D+00 WtEn= 0.00D+00
 Coeff-Com: -0.105D-06-0.620D-07-0.868D-07 0.517D-05 0.894D-05-0.106D-03
 Coeff-Com:  0.307D-03-0.902D-03 0.517D-02-0.183D-01 0.103D+00-0.494D+00
 Coeff-Com:  0.141D+01
 Coeff:     -0.105D-06-0.620D-07-0.868D-07 0.517D-05 0.894D-05-0.106D-03
 Coeff:      0.307D-03-0.902D-03 0.517D-02-0.183D-01 0.103D+00-0.494D+00
 Coeff:      0.141D+01
 Gap=     0.557 Goal=   None    Shift=    0.000
 RMSDP=2.60D-08 MaxDP=1.47D-07 DE=-1.02D-11 OVMax= 0.00D+00

 Cycle  14  Pass 1  IDiag  3:
 E=-0.549816136026493E-01 Delta-E=        0.000000000000 Rises=F Damp=F
 DIIS: error= 6.01D-09 at cycle  14 NSaved=  14.
 NSaved=14 IEnMin=14 EnMin=-0.549816136026493E-01 IErMin=14 ErrMin= 6.01D-09
 ErrMax= 6.01D-09 EMaxC= 1.00D-01 BMatC= 3.45D-15 BMatP= 7.98D-14
 IDIUse=1 WtCom= 1.00D+00 WtEn= 0.00D+00
 Coeff-Com:  0.125D-07 0.706D-07-0.178D-06-0.516D-06-0.838D-05 0.509D-04
 Coeff-Com: -0.134D-03 0.362D-03-0.192D-02 0.644D-02-0.358D-01 0.183D+00
 Coeff-Com: -0.632D+00 0.148D+01
 Coeff:      0.125D-07 0.706D-07-0.178D-06-0.516D-06-0.838D-05 0.509D-04
 Coeff:     -0.134D-03 0.362D-03-0.192D-02 0.644D-02-0.358D-01 0.183D+00
 Coeff:     -0.632D+00 0.148D+01
 Gap=     0.557 Goal=   None    Shift=    0.000
 RMSDP=5.30D-09 MaxDP=3.59D-08 DE=-2.84D-13 OVMax= 0.00D+00

 Cycle  15  Pass 2  IDiag  1:
 RMSDP=5.30D-09 MaxDP=3.59D-08 DE=-2.84D-13 OVMax= 0.00D+00

 SCF Done:  E(RPM6) = -0.549816136026E-01 A.U. after   15 cycles
             Convg  =    0.5298D-08             -V/T =  0.9990
 KE=-5.610994055891D+01 PE=-2.500525061742D+02 EE= 1.415917555300D+02
 Leave Link  502 at Mon Sep 14 19:12:53 2015, MaxMem=  402653184 cpu:      26.0
 (Enter /share/apps/g09/l701.exe)
 Compute integral first derivatives.
 ... and contract with generalized density number  0.
 Leave Link  701 at Mon Sep 14 19:12:53 2015, MaxMem=  402653184 cpu:       0.1
 (Enter /share/apps/g09/l702.exe)
 L702 exits ... SP integral derivatives will be done elsewhere.
 Leave Link  702 at Mon Sep 14 19:12:53 2015, MaxMem=  402653184 cpu:       0.0
 (Enter /share/apps/g09/l703.exe)
 Compute integral first derivatives, UseDBF=F ICtDFT=           0.
 Integral derivatives from FoFDir, PRISM(SPDF).
 Calling FoFJK, ICntrl=      2127 FMM=F ISym2X=0 I1Cent= 0 IOpClX= 0 NMat=1 NMatS=1 NMatT=0.
 FoFCou: FMM=F IPFlag=           0 FMFlag=      100000 FMFlg1=         800
         NFxFlg=           0 DoJE=F BraDBF=F KetDBF=F FulRan=T
         Omega=  0.000000  0.000000  1.000000  0.000000  0.000000 ICntrl=    2127 IOpCl=  0
         NMat0=    1 NMatS0=    1 NMatT0=    0 NMatD0=    1 NMtDS0=    0 NMtDT0=    0
         I1Cent=           0 NGrid=           0.
 Symmetry not used in FoFCou.
 Leave Link  703 at Mon Sep 14 19:12:54 2015, MaxMem=  402653184 cpu:       0.1
 (Enter /share/apps/g09/l716.exe)
 Dipole        = 3.30485465D-05 2.08335915D-02 7.61664669D-07
 ***** Axes restored to original set *****
 -------------------------------------------------------------------
 Center     Atomic                   Forces (Hartrees/Bohr)
 Number     Number              X              Y              Z
 -------------------------------------------------------------------
      1        6           0.000011673    0.000484054   -0.000930966
      2        1          -0.000316205    0.001098109    0.000205192
      3        1           0.000980588   -0.000656397   -0.000165191
      4        1          -0.001282278   -0.000812753    0.000553293
      5        6           0.001057975    0.000620580    0.000424042
      6        1           0.000861130   -0.001017280   -0.000340608
      7        1          -0.000039056    0.000934713   -0.000230784
      8        6          -0.000935082    0.002059720   -0.000988732
      9        1          -0.000466591    0.000961328    0.000952972
     10        1          -0.000621858    0.000339528   -0.000958685
     11        6           0.000976023   -0.002113417    0.000844112
     12        1           0.000916947   -0.000721890   -0.000237181
     13        1          -0.000130136   -0.000201587    0.001409142
     14        6          -0.001210672   -0.000412240    0.000200393
     15        1          -0.000477609    0.000527807   -0.001175458
     16        1           0.000003982   -0.000891738    0.000360319
     17        6           0.000310774   -0.000931923   -0.000425034
     18        1           0.000042609   -0.000742731    0.000891504
     19        1           0.001025830    0.001158562    0.000503483
     20        1          -0.000708044    0.000317553   -0.000891812
 -------------------------------------------------------------------
 Cartesian Forces:  Max     0.002113417 RMS     0.000828374
 Leave Link  716 at Mon Sep 14 19:12:54 2015, MaxMem=  402653184 cpu:       0.0
 (Enter /share/apps/g09/l103.exe)

 GradGradGradGradGradGradGradGradGradGradGradGradGradGradGradGradGradGrad
 Berny optimization.
 Using GEDIIS/GDIIS optimizer.
 Internal  Forces:  Max     0.004316883 RMS     0.000697018
 Search for a local minimum.
 Step number   2 out of a maximum of  110
 All quantities printed in internal units (Hartrees-Bohrs-Radians)
 RMS Force = .69702D-03 SwitMx=.10000D-02 MixMth= 2
 Mixed Optimization -- En-DIIS/RFO-DIIS
 Update second derivatives using D2CorX and points    1    2
 DE= -2.21D-03 DEPred=-2.00D-03 R= 1.11D+00
 SS=  1.41D+00  RLast= 1.71D-01 DXNew= 5.0454D-01 5.1201D-01
 Trust test= 1.11D+00 RLast= 1.71D-01 DXMaxT set to 5.05D-01
 Use linear search instead of GDIIS.
     Eigenvalues ---    0.00263   0.00289   0.00293   0.00395   0.00395
     Eigenvalues ---    0.03437   0.03439   0.03442   0.03512   0.04473
     Eigenvalues ---    0.04768   0.04795   0.04806   0.05485   0.05489
     Eigenvalues ---    0.05536   0.05537   0.08342   0.08413   0.08455
     Eigenvalues ---    0.08563   0.12218   0.12220   0.12295   0.12300
     Eigenvalues ---    0.15139   0.16000   0.16000   0.16000   0.16000
     Eigenvalues ---    0.16026   0.20885   0.21919   0.21925   0.21956
     Eigenvalues ---    0.27864   0.28867   0.28899   0.29583   0.29604
     Eigenvalues ---    0.31848   0.32081   0.32087   0.32108   0.32114
     Eigenvalues ---    0.32118   0.32122   0.32132   0.32199   0.32218
     Eigenvalues ---    0.32224   0.32247   0.32268   0.344661000.00000
     Eigenvalues --- 1000.000001000.000001000.000001000.000001000.00000
     Eigenvalues --- 1000.000001000.000001000.000001000.000001000.00000
     Eigenvalues --- 1000.000001000.000001000.000001000.000001000.00000
     Eigenvalues --- 1000.000001000.000001000.000001000.000001000.00000
     Eigenvalues --- 1000.000001000.000001000.000001000.000001000.00000
     Eigenvalues --- 1000.000001000.000001000.000001000.000001000.00000
     Eigenvalues --- 1000.000001000.000001000.000001000.000001000.00000
     Eigenvalues --- 1000.000001000.000001000.000001000.000001000.00000
     Eigenvalues --- 1000.000001000.000001000.000001000.000001000.00000
[...]
 ! D10   D(1,5,8,9)            164.8297         -DE/DX =    0.0                 !
 ! D11   D(1,5,8,10)            49.338          -DE/DX =    0.0                 !
 ! D12   D(1,5,8,11)           -73.211          -DE/DX =    0.0                 !
 ! D13   D(6,5,8,9)             43.0537         -DE/DX =    0.0                 !
 ! D14   D(6,5,8,10)           -72.438          -DE/DX =    0.0                 !
 ! D15   D(6,5,8,11)           165.013          -DE/DX =    0.0                 !
 ! D16   D(7,5,8,9)            -72.3323         -DE/DX =    0.0                 !
 ! D17   D(7,5,8,10)           172.176          -DE/DX =    0.0                 !
 ! D18   D(7,5,8,11)            49.627          -DE/DX =    0.0                 !
 ! D19   D(5,8,11,12)           59.2406         -DE/DX =    0.0                 !
 ! D20   D(5,8,11,13)          -56.3561         -DE/DX =    0.0                 !
 ! D21   D(5,8,11,14)         -178.1363         -DE/DX =    0.0                 !
 ! D22   D(9,8,11,12)         -178.9792         -DE/DX =    0.0                 !
 ! D23   D(9,8,11,13)           65.4241         -DE/DX =    0.0                 !
 ! D24   D(9,8,11,14)          -56.3561         -DE/DX =    0.0                 !
 ! D25   D(10,8,11,12)         -63.3825         -DE/DX =    0.0                 !
 ! D26   D(10,8,11,13)        -178.9792         -DE/DX =    0.0                 !
 ! D27   D(10,8,11,14)          59.2406         -DE/DX =    0.0                 !
 ! D28   D(8,11,14,15)         165.0128         -DE/DX =    0.0                 !
 ! D29   D(8,11,14,16)          49.6268         -DE/DX =    0.0                 !
 ! D30   D(8,11,14,17)         -73.2112         -DE/DX =    0.0                 !
 ! D31   D(12,11,14,15)        -72.4382         -DE/DX =    0.0                 !
 ! D32   D(12,11,14,16)        172.1757         -DE/DX =    0.0                 !
 ! D33   D(12,11,14,17)         49.3378         -DE/DX =    0.0                 !
 ! D34   D(13,11,14,15)         43.0535         -DE/DX =    0.0                 !
 ! D35   D(13,11,14,16)        -72.3326         -DE/DX =    0.0                 !
 ! D36   D(13,11,14,17)        164.8294         -DE/DX =    0.0                 !
 ! D37   D(11,14,17,18)         60.3967         -DE/DX =    0.0                 !
 ! D38   D(11,14,17,19)       -179.5512         -DE/DX =    0.0                 !
 ! D39   D(11,14,17,20)        -59.4221         -DE/DX =    0.0                 !
 ! D40   D(15,14,17,18)       -177.9953         -DE/DX =    0.0                 !
 ! D41   D(15,14,17,19)        -57.9432         -DE/DX =    0.0                 !
 ! D42   D(15,14,17,20)         62.1859         -DE/DX =    0.0                 !
 ! D43   D(16,14,17,18)        -62.5401         -DE/DX =    0.0                 !
 ! D44   D(16,14,17,19)         57.512          -DE/DX =    0.0                 !
 ! D45   D(16,14,17,20)        177.6411         -DE/DX =    0.0                 !
 --------------------------------------------------------------------------------
 GradGradGradGradGradGradGradGradGradGradGradGradGradGradGradGradGradGrad

 Largest change from initial coordinates is atom   18       0.314 Angstoms.
 Leave Link  103 at Mon Sep 14 19:14:30 2015, MaxMem=  402653184 cpu:       0.0
 (Enter /share/apps/g09/l202.exe)
                          Input orientation:                          
 ---------------------------------------------------------------------
 Center     Atomic      Atomic             Coordinates (Angstroms)
 Number     Number       Type             X           Y           Z
 ---------------------------------------------------------------------
      1          6           0        0.965884    2.746471    0.742888
      2          1           0        1.037080    1.842116    1.358131
      3          1           0        0.234904    3.407796    1.221510
      4          1           0        1.939028    3.247745    0.778961
      5          6           0        0.566009    2.415748   -0.693537
      6          1           0        0.539896    3.348455   -1.291473
      7          1           0        1.344620    1.782174   -1.161570
      8          6           0       -0.800012    1.720677   -0.788938
      9          1           0       -1.154729    1.754837   -1.837247
     10          1           0       -1.550123    2.283887   -0.200770
     11          6           0       -0.753722    0.263944   -0.309099
     12          1           0       -0.416818    0.228545    0.744966
     13          1           0        0.009957   -0.292605   -0.886153
     14          6           0       -2.108997   -0.444854   -0.447210
     15          1           0       -1.957103   -1.538229   -0.349182
     16          1           0       -2.513377   -0.289305   -1.466517
     17          6           0       -3.130935    0.019016    0.588679
     18          1           0       -3.334407    1.092349    0.499197
     19          1           0       -4.083518   -0.508517    0.470867
     20          1           0       -2.777437   -0.160149    1.610295
 ---------------------------------------------------------------------
                    Distance matrix (angstroms):
                    1          2          3          4          5
     1  C    0.000000
     2  H    1.096108   0.000000
     3  H    1.095792   1.764513   0.000000
     4  H    1.095256   1.767694   1.767910   0.000000
     5  C    1.527284   2.181813   2.182016   2.178452   0.000000
     6  H    2.163903   3.088147   2.532118   2.500881   1.108220
     7  H    2.168011   2.539107   3.090822   2.503373   1.107567
     8  C    2.552868   2.828350   2.821227   3.506078   1.535656
     9  H    3.483883   3.875834   3.744242   4.317945   2.169289
    10  H    2.726677   3.052697   2.544087   3.750076   2.176745
    11  C    3.197916   2.911573   3.633724   4.163874   2.553378
    12  H    2.872598   2.256856   3.280163   3.829717   2.796265
    13  H    3.578206   3.263254   4.264483   4.362109   2.771547
    14  C    4.588658   4.288040   4.808473   5.614738   3.924204
    15  H    5.300484   4.827709   5.633394   6.273602   4.703042
    16  H    5.118854   5.012718   5.333582   6.113657   4.171022
    17  C    4.924096   4.613903   4.818006   6.013770   4.588660
    18  H    4.613893   4.517723   4.315439   5.703781   4.288035
    19  H    6.013768   5.703792   5.877904   7.104611   5.614737
    20  H    4.818017   4.315460   4.685679   5.877917   4.808484
                    6          7          8          9         10
     6  H    0.000000
     7  H    1.765698   0.000000
     8  C    2.167385   2.177633   0.000000
     9  H    2.389403   2.589215   1.107224   0.000000
    10  H    2.586720   3.091017   1.107164   1.764734   0.000000
    11  C    3.486074   2.726677   1.534424   2.172281   2.173972
    12  H    3.846586   3.025113   2.173972   3.088998   2.530460
    13  H    3.701681   2.482315   2.172281   2.540294   3.088998
    14  C    4.703043   4.171023   2.553378   2.771547   2.796265
    15  H    5.567998   4.752518   3.486074   3.701679   3.846586
    16  H    4.752517   4.389551   2.726675   2.482314   3.025110
    17  C    5.300485   5.118856   3.197918   3.578209   2.872601
    18  H    4.827706   5.012714   2.911571   3.263259   2.256853
    19  H    6.273599   6.113657   4.163872   4.362106   3.829714
    20  H    5.633406   5.333593   3.633736   4.264493   3.280178
                   11         12         13         14         15
    11  C    0.000000
    12  H    1.107164   0.000000
    13  H    1.107224   1.764734   0.000000
    14  C    1.535656   2.176745   2.169289   0.000000
    15  H    2.167386   2.586722   2.389402   1.108220   0.000000
    16  H    2.177633   3.091017   2.589217   1.107567   1.765698
    17  C    2.552868   2.726675   3.483882   1.527284   2.163903
    18  H    2.828344   3.052685   3.875831   2.181813   3.088147
    19  H    3.506078   3.750078   4.317946   2.178452   2.500886
    20  H    2.821232   2.544091   3.744244   2.182016   2.532114
                   16         17         18         19         20
    16  H    0.000000
    17  C    2.168011   0.000000
    18  H    2.539112   1.096108   0.000000
    19  H    2.503369   1.095256   1.767694   0.000000
    20  H    3.090822   1.095792   1.764513   1.767910   0.000000
 Stoichiometry    C6H14
 Framework group  C1[X(C6H14)]
 Deg. of freedom    54
 Full point group                 C1      NOp   1
 Largest Abelian subgroup         C1      NOp   1
 Largest concise Abelian subgroup C1      NOp   1
                         Standard orientation:                         
 ---------------------------------------------------------------------
 Center     Atomic      Atomic             Coordinates (Angstroms)
 Number     Number       Type             X           Y           Z
 ---------------------------------------------------------------------
      1          6           0        2.445829    0.847691    0.282126
      2          1           0        1.914951    1.131623    1.198097
      3          1           0        2.300897    1.657889   -0.441292
      4          1           0        3.514056    0.803552    0.519884
      5          6           0        1.944249   -0.487477   -0.264081
      6          1           0        2.527707   -0.757451   -1.166767
      7          1           0        2.143417   -1.290709    0.472027
      8          6           0        0.450781   -0.464413   -0.620814
      9          1           0        0.212535   -1.342189   -1.252236
     10          1           0        0.227091    0.422469   -1.244685
     11          6           0       -0.450780   -0.464410    0.620815
     12          1           0       -0.227091    0.422477    1.244681
     13          1           0       -0.212534   -1.342181    1.252242
     14          6           0       -1.944249   -0.487476    0.264082
     15          1           0       -2.527707   -0.757449    1.166769
     16          1           0       -2.143415   -1.290711   -0.472024
     17          6           0       -2.445831    0.847689   -0.282128
     18          1           0       -1.914944    1.131626   -1.198093
     19          1           0       -3.514055    0.803546   -0.519897
     20          1           0       -2.300910    1.657887    0.441293
 ---------------------------------------------------------------------
 Rotational constants (GHZ):      7.0024932      1.5286835      1.4418907
 Leave Link  202 at Mon Sep 14 19:14:31 2015, MaxMem=  402653184 cpu:       0.0
 (Enter /share/apps/g09/l601.exe)
 Copying SCF densities to generalized density rwf, IOpCl= 0 IROHF=0.

 **********************************************************************

            Population analysis using the SCF density.

 **********************************************************************

 Orbital symmetries:
       Occupied  (A) (A) (A) (A) (A) (A) (A) (A) (A) (A) (A) (A)
                 (A) (A) (A) (A) (A) (A) (A)
       Virtual   (A) (A) (A) (A) (A) (A) (A) (A) (A) (A) (A) (A)
                 (A) (A) (A) (A) (A) (A) (A)
 The electronic state is 1-A.
 Alpha  occ. eigenvalues --   -1.05711  -0.99695  -0.90310  -0.83365  -0.75316
 Alpha  occ. eigenvalues --   -0.71443  -0.58029  -0.56390  -0.55432  -0.53309
 Alpha  occ. eigenvalues --   -0.49840  -0.48608  -0.47734  -0.45011  -0.44134
 Alpha  occ. eigenvalues --   -0.42940  -0.41487  -0.40680  -0.40210
 Alpha virt. eigenvalues --    0.15387   0.16566   0.16644   0.17377   0.18045
 Alpha virt. eigenvalues --    0.21090   0.21239   0.21435   0.22167   0.22336
 Alpha virt. eigenvalues --    0.22949   0.23064   0.23280   0.24170   0.24499
 Alpha virt. eigenvalues --    0.24786   0.24811   0.25813   0.26002
          Condensed to atoms (all electrons):
              1          2          3          4          5          6
     1  C    4.458864   0.000000   0.000000   0.000000   0.000000   0.000000
     2  H    0.000000   0.853152   0.000000   0.000000   0.000000   0.000000
     3  H    0.000000   0.000000   0.854494   0.000000   0.000000   0.000000
     4  H    0.000000   0.000000   0.000000   0.858849   0.000000   0.000000
     5  C    0.000000   0.000000   0.000000   0.000000   4.223556   0.000000
     6  H    0.000000   0.000000   0.000000   0.000000   0.000000   0.877495
     7  H    0.000000   0.000000   0.000000   0.000000   0.000000   0.000000
     8  C    0.000000   0.000000   0.000000   0.000000   0.000000   0.000000
     9  H    0.000000   0.000000   0.000000   0.000000   0.000000   0.000000
    10  H    0.000000   0.000000   0.000000   0.000000   0.000000   0.000000
    11  C    0.000000   0.000000   0.000000   0.000000   0.000000   0.000000
    12  H    0.000000   0.000000   0.000000   0.000000   0.000000   0.000000
    13  H    0.000000   0.000000   0.000000   0.000000   0.000000   0.000000
    14  C    0.000000   0.000000   0.000000   0.000000   0.000000   0.000000
    15  H    0.000000   0.000000   0.000000   0.000000   0.000000   0.000000
    16  H    0.000000   0.000000   0.000000   0.000000   0.000000   0.000000
    17  C    0.000000   0.000000   0.000000   0.000000   0.000000   0.000000
    18  H    0.000000   0.000000   0.000000   0.000000   0.000000   0.000000
    19  H    0.000000   0.000000   0.000000   0.000000   0.000000   0.000000
    20  H    0.000000   0.000000   0.000000   0.000000   0.000000   0.000000
              7          8          9         10         11         12
     1  C    0.000000   0.000000   0.000000   0.000000   0.000000   0.000000
     2  H    0.000000   0.000000   0.000000   0.000000   0.000000   0.000000
     3  H    0.000000   0.000000   0.000000   0.000000   0.000000   0.000000
     4  H    0.000000   0.000000   0.000000   0.000000   0.000000   0.000000
     5  C    0.000000   0.000000   0.000000   0.000000   0.000000   0.000000
     6  H    0.000000   0.000000   0.000000   0.000000   0.000000   0.000000
     7  H    0.874038   0.000000   0.000000   0.000000   0.000000   0.000000
     8  C    0.000000   4.259476   0.000000   0.000000   0.000000   0.000000
     9  H    0.000000   0.000000   0.874127   0.000000   0.000000   0.000000
    10  H    0.000000   0.000000   0.000000   0.865948   0.000000   0.000000
    11  C    0.000000   0.000000   0.000000   0.000000   4.259476   0.000000
    12  H    0.000000   0.000000   0.000000   0.000000   0.000000   0.865948
    13  H    0.000000   0.000000   0.000000   0.000000   0.000000   0.000000
    14  C    0.000000   0.000000   0.000000   0.000000   0.000000   0.000000
    15  H    0.000000   0.000000   0.000000   0.000000   0.000000   0.000000
    16  H    0.000000   0.000000   0.000000   0.000000   0.000000   0.000000
    17  C    0.000000   0.000000   0.000000   0.000000   0.000000   0.000000
    18  H    0.000000   0.000000   0.000000   0.000000   0.000000   0.000000
    19  H    0.000000   0.000000   0.000000   0.000000   0.000000   0.000000
    20  H    0.000000   0.000000   0.000000   0.000000   0.000000   0.000000
             13         14         15         16         17         18
     1  C    0.000000   0.000000   0.000000   0.000000   0.000000   0.000000
     2  H    0.000000   0.000000   0.000000   0.000000   0.000000   0.000000
     3  H    0.000000   0.000000   0.000000   0.000000   0.000000   0.000000
     4  H    0.000000   0.000000   0.000000   0.000000   0.000000   0.000000
     5  C    0.000000   0.000000   0.000000   0.000000   0.000000   0.000000
     6  H    0.000000   0.000000   0.000000   0.000000   0.000000   0.000000
     7  H    0.000000   0.000000   0.000000   0.000000   0.000000   0.000000
     8  C    0.000000   0.000000   0.000000   0.000000   0.000000   0.000000
     9  H    0.000000   0.000000   0.000000   0.000000   0.000000   0.000000
    10  H    0.000000   0.000000   0.000000   0.000000   0.000000   0.000000
    11  C    0.000000   0.000000   0.000000   0.000000   0.000000   0.000000
    12  H    0.000000   0.000000   0.000000   0.000000   0.000000   0.000000
    13  H    0.874127   0.000000   0.000000   0.000000   0.000000   0.000000
    14  C    0.000000   4.223556   0.000000   0.000000   0.000000   0.000000
    15  H    0.000000   0.000000   0.877495   0.000000   0.000000   0.000000
    16  H    0.000000   0.000000   0.000000   0.874038   0.000000   0.000000
    17  C    0.000000   0.000000   0.000000   0.000000   4.458864   0.000000
    18  H    0.000000   0.000000   0.000000   0.000000   0.000000   0.853152
    19  H    0.000000   0.000000   0.000000   0.000000   0.000000   0.000000
    20  H    0.000000   0.000000   0.000000   0.000000   0.000000   0.000000
             19         20
     1  C    0.000000   0.000000
     2  H    0.000000   0.000000
     3  H    0.000000   0.000000
     4  H    0.000000   0.000000
     5  C    0.000000   0.000000
     6  H    0.000000   0.000000
     7  H    0.000000   0.000000
     8  C    0.000000   0.000000
     9  H    0.000000   0.000000
    10  H    0.000000   0.000000
    11  C    0.000000   0.000000
    12  H    0.000000   0.000000
    13  H    0.000000   0.000000
    14  C    0.000000   0.000000
    15  H    0.000000   0.000000
    16  H    0.000000   0.000000
    17  C    0.000000   0.000000
    18  H    0.000000   0.000000
    19  H    0.858849   0.000000
    20  H    0.000000   0.854494
 Mulliken atomic charges:
              1
     1  C   -0.458864
     2  H    0.146848
     3  H    0.145506
     4  H    0.141151
     5  C   -0.223556
     6  H    0.122505
     7  H    0.125962
     8  C   -0.259476
     9  H    0.125873
    10  H    0.134052
    11  C   -0.259476
    12  H    0.134052
    13  H    0.125873
    14  C   -0.223556
    15  H    0.122505
    16  H    0.125962
    17  C   -0.458864
    18  H    0.146848
    19  H    0.141151
    20  H    0.145506
 Sum of Mulliken atomic charges =   0.00000
 Mulliken charges with hydrogens summed into heavy atoms:
              1
     1  C   -0.025359
     5  C    0.024911
     8  C    0.000448
    11  C    0.000448
    14  C    0.024911
    17  C   -0.025359
 Sum of Mulliken charges with hydrogens summed into heavy atoms =   0.00000
 Charge=              0.0000 electrons
 Dipole moment (field-independent basis, Debye):
    X=              0.0000    Y=              0.0812    Z=              0.0000  Tot=              0.0812
 N-N= 1.644432539541D+02 E-N=-2.498922366807D+02  KE=-5.611218650078D+01
 Leave Link  601 at Mon Sep 14 19:14:31 2015, MaxMem=  402653184 cpu:       0.0
 (Enter /share/apps/g09/l9999.exe)
 1\1\GINC-COMPUTE-0-3\FOpt\RPM6\ZDO\C6H14\HETANJIN\14-Sep-2015\0\\#p PM
 6 opt\\using PM6 to do opt and freq calc.\\0,1\C,0.9658841344,2.746471
 2635,0.7428883511\H,1.0370801592,1.8421155342,1.3581312701\H,0.2349043
 914,3.4077961977,1.2215098573\H,1.939028411,3.2477446103,0.7789605484\
 C,0.5660086702,2.4157480607,-0.6935373318\H,0.5398963255,3.3484553247,
 -1.2914726934\H,1.344619948,1.7821742952,-1.1615696667\C,-0.8000123079
 ,1.7206766872,-0.7889376958\H,-1.1547294924,1.7548373021,-1.8372471717
 \H,-1.5501230602,2.2838866602,-0.200770204\C,-0.7537222723,0.263944360
 7,-0.3090993928\H,-0.4168178929,0.2285452013,0.7449664475\H,0.00995652
 57,-0.2926050987,-0.8861534424\C,-2.108997093,-0.444853675,-0.44720971
 52\H,-1.9571026435,-1.5382291621,-0.3491815378\H,-2.5133768625,-0.2893
 05181,-1.4665169772\C,-3.1309348303,0.019015619,0.5886791853\H,-3.3344
 071758,1.092348805,0.499197231\H,-4.0835182014,-0.5085173656,0.4708674
 765\H,-2.7774367332,-0.1601494394,1.6102954617\\Version=EM64L-G09RevA.
 01\State=1-A\HF=-0.0554038\RMSD=8.991e-09\RMSF=2.407e-06\Dipole=-0.007
 4409,0.0095051,0.0295738\PG=C01 [X(C6H14)]\\@


 The mind is not a vessel to be filled but a fire to be kindled.
                                  -- Plutarch
 Job cpu time:  0 days  0 hours  0 minutes 44.4 seconds.
 File lengths (MBytes):  RWF=      5 Int=      0 D2E=      0 Chk=      3 Scr=      1
 Normal termination of Gaussian 09 at Mon Sep 14 19:14:37 2015.
