using PM6 to do opt and freq calc.                                      
FOpt      RPM6                                                        ZDO                 
Number of atoms                            I               20
Info1-9                                    I   N=           9
          33          29           0           0           0         110
           2           8         302
Charge                                     I                0
Multiplicity                               I                1
Number of electrons                        I               38
Number of alpha electrons                  I               19
Number of beta electrons                   I               19
Number of basis functions                  I               38
Number of independent functions            I               38
Number of point charges in /Mol/           I                0
Number of translation vectors              I                0
Atomic numbers                             I   N=          20
           6           1           1           1           6           1
           1           6           1           1           6           1
           1           6           1           1           6           1
           1           1
Nuclear charges                            R   N=          20
  4.00000000E+00  1.00000000E+00  1.00000000E+00  1.00000000E+00  4.00000000E+00
  1.00000000E+00  1.00000000E+00  4.00000000E+00  1.00000000E+00  1.00000000E+00
  4.00000000E+00  1.00000000E+00  1.00000000E+00  4.00000000E+00  1.00000000E+00
  1.00000000E+00  4.00000000E+00  1.00000000E+00  1.00000000E+00  1.00000000E+00
Current cartesian coordinates              R   N=          60
  4.62194766E+00  1.60190303E+00  5.33141381E-01  3.61873239E+00  2.13845685E+00
  2.26407528E+00  4.34806565E+00  3.13295594E+00 -8.33921020E-01  6.64060431E+00
  1.51849391E+00  9.82438021E-01  3.67409904E+00 -9.21197690E-01 -4.99041170E-01
  4.77667487E+00 -1.43137441E+00 -2.20487074E+00  4.05047082E+00 -2.43908715E+00
  8.92001885E-01  8.51852456E-01 -8.77613478E-01 -1.17316887E+00  4.01633790E-01
 -2.53636903E+00 -2.36638245E+00  4.29139349E-01  7.98351007E-01 -2.35211459E+00
 -8.51851194E-01 -8.77606869E-01  1.17317109E+00 -4.29139351E-01  7.98365008E-01
  2.35210653E+00 -4.01631379E-01 -2.53635491E+00  2.36639468E+00 -3.67409775E+00
 -9.21197051E-01  4.99043115E-01 -4.77667306E+00 -1.43137202E+00  2.20487356E+00
 -4.05046721E+00 -2.43909040E+00 -8.91996486E-01 -4.62195002E+00  1.60190020E+00
 -5.33145083E-01 -3.61871958E+00  2.13846294E+00 -2.26406757E+00 -6.64060136E+00
  1.51848100E+00 -9.82462840E-01 -4.34809041E+00  3.13295239E+00  8.33922925E-01
Force Field                                I                0
Int Atom Types                             I   N=          20
           0           0           0           0           0           0
           0           0           0           0           0           0
           0           0           0           0           0           0
           0           0
MM charges                                 R   N=          20
  0.00000000E+00  0.00000000E+00  0.00000000E+00  0.00000000E+00  0.00000000E+00
  0.00000000E+00  0.00000000E+00  0.00000000E+00  0.00000000E+00  0.00000000E+00
  0.00000000E+00  0.00000000E+00  0.00000000E+00  0.00000000E+00  0.00000000E+00
  0.00000000E+00  0.00000000E+00  0.00000000E+00  0.00000000E+00  0.00000000E+00
Integer atomic weights                     I   N=          20
          12           1           1           1          12           1
           1          12           1           1          12           1
           1          12           1           1          12           1
           1           1
Real atomic weights                        R   N=          20
  1.20000000E+01  1.00782504E+00  1.00782504E+00  1.00782504E+00  1.20000000E+01
  1.00782504E+00  1.00782504E+00  1.20000000E+01  1.00782504E+00  1.00782504E+00
  1.20000000E+01  1.00782504E+00  1.00782504E+00  1.20000000E+01  1.00782504E+00
  1.00782504E+00  1.20000000E+01  1.00782504E+00  1.00782504E+00  1.00782504E+00
Atom fragment info                         I   N=          20
           0           0           0           0           0           0
           0           0           0           0           0           0
           0           0           0           0           0           0
           0           0
Atom residue num                           I   N=          20
           0           0           0           0           0           0
           0           0           0           0           0           0
           0           0           0           0           0           0
           0           0
Nuclear spins                              I   N=          20
           0           1           1           1           0           1
           1           0           1           1           0           1
           1           0           1           1           0           1
           1           1
Nuclear ZEff                               R   N=          20
 -3.90000000E+00 -1.00000000E+00 -1.00000000E+00 -1.00000000E+00 -3.90000000E+00
 -1.00000000E+00 -1.00000000E+00 -3.90000000E+00 -1.00000000E+00 -1.00000000E+00
 -3.90000000E+00 -1.00000000E+00 -1.00000000E+00 -3.90000000E+00 -1.00000000E+00
 -1.00000000E+00 -3.90000000E+00 -1.00000000E+00 -1.00000000E+00 -1.00000000E+00
Nuclear QMom                               R   N=          20
  0.00000000E+00  0.00000000E+00  0.00000000E+00  0.00000000E+00  0.00000000E+00
  0.00000000E+00  0.00000000E+00  0.00000000E+00  0.00000000E+00  0.00000000E+00
  0.00000000E+00  0.00000000E+00  0.00000000E+00  0.00000000E+00  0.00000000E+00
  0.00000000E+00  0.00000000E+00  0.00000000E+00  0.00000000E+00  0.00000000E+00
Nuclear GFac                               R   N=          20
  0.00000000E+00  2.79284600E+00  2.79284600E+00  2.79284600E+00  0.00000000E+00
  2.79284600E+00  2.79284600E+00  0.00000000E+00  2.79284600E+00  2.79284600E+00
  0.00000000E+00  2.79284600E+00  2.79284600E+00  0.00000000E+00  2.79284600E+00
  2.79284600E+00  0.00000000E+00  2.79284600E+00  2.79284600E+00  2.79284600E+00
MicOpt                                     I   N=          20
          -1          -1          -1          -1          -1          -1
          -1          -1          -1          -1          -1          -1
          -1          -1          -1          -1          -1          -1
          -1          -1
Number of contracted shells                I               20
Number of primitive shells                 I              120
Pure/Cartesian d shells                    I                0
Pure/Cartesian f shells                    I                0
Highest angular momentum                   I                1
Largest degree of contraction              I                6
Shell types                                I   N=          20
          -1           0           0           0          -1           0
           0          -1           0           0          -1           0
           0          -1           0           0          -1           0
           0           0
Number of primitives per shell             I   N=          20
           6           6           6           6           6           6
           6           6           6           6           6           6
           6           6           6           6           6           6
           6           6
Shell to atom map                          I   N=          20
           1           2           3           4           5           6
           7           8           9          10          11          12
          13          14          15          16          17          18
          19          20
Primitive exponents                        R   N=         120
  1.14476344E+01  3.29633588E+00  1.29653143E+00  5.92558930E-01  2.94896438E-01
  1.51447622E-01  4.39461478E+00  1.26542531E+00  4.97723458E-01  2.27476537E-01
  1.13207340E-01  5.81389949E-02  4.39461478E+00  1.26542531E+00  4.97723458E-01
  2.27476537E-01  1.13207340E-01  5.81389949E-02  4.39461478E+00  1.26542531E+00
  4.97723458E-01  2.27476537E-01  1.13207340E-01  5.81389949E-02  1.14476344E+01
  3.29633588E+00  1.29653143E+00  5.92558930E-01  2.94896438E-01  1.51447622E-01
  4.39461478E+00  1.26542531E+00  4.97723458E-01  2.27476537E-01  1.13207340E-01
  5.81389949E-02  4.39461478E+00  1.26542531E+00  4.97723458E-01  2.27476537E-01
  1.13207340E-01  5.81389949E-02  1.14476344E+01  3.29633588E+00  1.29653143E+00
  5.92558930E-01  2.94896438E-01  1.51447622E-01  4.39461478E+00  1.26542531E+00
  4.97723458E-01  2.27476537E-01  1.13207340E-01  5.81389949E-02  4.39461478E+00
  1.26542531E+00  4.97723458E-01  2.27476537E-01  1.13207340E-01  5.81389949E-02
  1.14476344E+01  3.29633588E+00  1.29653143E+00  5.92558930E-01  2.94896438E-01
  1.51447622E-01  4.39461478E+00  1.26542531E+00  4.97723458E-01  2.27476537E-01
  1.13207340E-01  5.81389949E-02  4.39461478E+00  1.26542531E+00  4.97723458E-01
  2.27476537E-01  1.13207340E-01  5.81389949E-02  1.14476344E+01  3.29633588E+00
  1.29653143E+00  5.92558930E-01  2.94896438E-01  1.51447622E-01  4.39461478E+00
  1.26542531E+00  4.97723458E-01  2.27476537E-01  1.13207340E-01  5.81389949E-02
  4.39461478E+00  1.26542531E+00  4.97723458E-01  2.27476537E-01  1.13207340E-01
  5.81389949E-02  1.14476344E+01  3.29633588E+00  1.29653143E+00  5.92558930E-01
  2.94896438E-01  1.51447622E-01  4.39461478E+00  1.26542531E+00  4.97723458E-01
  2.27476537E-01  1.13207340E-01  5.81389949E-02  4.39461478E+00  1.26542531E+00
  4.97723458E-01  2.27476537E-01  1.13207340E-01  5.81389949E-02  4.39461478E+00
  1.26542531E+00  4.97723458E-01  2.27476537E-01  1.13207340E-01  5.81389949E-02
Contraction coefficients                   R   N=         120
 -9.73739553E-03 -7.26587678E-02 -1.71615520E-01  1.28977624E-01  7.28861451E-01
  3.01331742E-01 -9.73739553E-03 -7.26587678E-02 -1.71615520E-01  1.28977624E-01
  7.28861451E-01  3.01331742E-01 -9.73739553E-03 -7.26587678E-02 -1.71615520E-01
  1.28977624E-01  7.28861451E-01  3.01331742E-01 -9.73739553E-03 -7.26587678E-02
 -1.71615520E-01  1.28977624E-01  7.28861451E-01  3.01331742E-01 -9.73739553E-03
 -7.26587678E-02 -1.71615520E-01  1.28977624E-01  7.28861451E-01  3.01331742E-01
 -9.73739553E-03 -7.26587678E-02 -1.71615520E-01  1.28977624E-01  7.28861451E-01
  3.01331742E-01 -9.73739553E-03 -7.26587678E-02 -1.71615520E-01  1.28977624E-01
  7.28861451E-01  3.01331742E-01 -9.73739553E-03 -7.26587678E-02 -1.71615520E-01
  1.28977624E-01  7.28861451E-01  3.01331742E-01 -9.73739553E-03 -7.26587678E-02
 -1.71615520E-01  1.28977624E-01  7.28861451E-01  3.01331742E-01 -9.73739553E-03
 -7.26587678E-02 -1.71615520E-01  1.28977624E-01  7.28861451E-01  3.01331742E-01
 -9.73739553E-03 -7.26587678E-02 -1.71615520E-01  1.28977624E-01  7.28861451E-01
  3.01331742E-01 -9.73739553E-03 -7.26587678E-02 -1.71615520E-01  1.28977624E-01
  7.28861451E-01  3.01331742E-01 -9.73739553E-03 -7.26587678E-02 -1.71615520E-01
  1.28977624E-01  7.28861451E-01  3.01331742E-01 -9.73739553E-03 -7.26587678E-02
 -1.71615520E-01  1.28977624E-01  7.28861451E-01  3.01331742E-01 -9.73739553E-03
 -7.26587678E-02 -1.71615520E-01  1.28977624E-01  7.28861451E-01  3.01331742E-01
 -9.73739553E-03 -7.26587678E-02 -1.71615520E-01  1.28977624E-01  7.28861451E-01
  3.01331742E-01 -9.73739553E-03 -7.26587678E-02 -1.71615520E-01  1.28977624E-01
  7.28861451E-01  3.01331742E-01 -9.73739553E-03 -7.26587678E-02 -1.71615520E-01
  1.28977624E-01  7.28861451E-01  3.01331742E-01 -9.73739553E-03 -7.26587678E-02
 -1.71615520E-01  1.28977624E-01  7.28861451E-01  3.01331742E-01 -9.73739553E-03
 -7.26587678E-02 -1.71615520E-01  1.28977624E-01  7.28861451E-01  3.01331742E-01
P(S=P) Contraction coefficients            R   N=         120
 -8.10494336E-03 -1.71547892E-02  7.36978576E-02  3.96514999E-01  4.97808488E-01
  1.17482582E-01  0.00000000E+00  0.00000000E+00  0.00000000E+00  0.00000000E+00
  0.00000000E+00  0.00000000E+00  0.00000000E+00  0.00000000E+00  0.00000000E+00
  0.00000000E+00  0.00000000E+00  0.00000000E+00  0.00000000E+00  0.00000000E+00
  0.00000000E+00  0.00000000E+00  0.00000000E+00  0.00000000E+00 -8.10494336E-03
 -1.71547892E-02  7.36978576E-02  3.96514999E-01  4.97808488E-01  1.17482582E-01
  0.00000000E+00  0.00000000E+00  0.00000000E+00  0.00000000E+00  0.00000000E+00
  0.00000000E+00  0.00000000E+00  0.00000000E+00  0.00000000E+00  0.00000000E+00
  0.00000000E+00  0.00000000E+00 -8.10494336E-03 -1.71547892E-02  7.36978576E-02
  3.96514999E-01  4.97808488E-01  1.17482582E-01  0.00000000E+00  0.00000000E+00
  0.00000000E+00  0.00000000E+00  0.00000000E+00  0.00000000E+00  0.00000000E+00
  0.00000000E+00  0.00000000E+00  0.00000000E+00  0.00000000E+00  0.00000000E+00
 -8.10494336E-03 -1.71547892E-02  7.36978576E-02  3.96514999E-01  4.97808488E-01
  1.17482582E-01  0.00000000E+00  0.00000000E+00  0.00000000E+00  0.00000000E+00
  0.00000000E+00  0.00000000E+00  0.00000000E+00  0.00000000E+00  0.00000000E+00
  0.00000000E+00  0.00000000E+00  0.00000000E+00 -8.10494336E-03 -1.71547892E-02
  7.36978576E-02  3.96514999E-01  4.97808488E-01  1.17482582E-01  0.00000000E+00
  0.00000000E+00  0.00000000E+00  0.00000000E+00  0.00000000E+00  0.00000000E+00
  0.00000000E+00  0.00000000E+00  0.00000000E+00  0.00000000E+00  0.00000000E+00
  0.00000000E+00 -8.10494336E-03 -1.71547892E-02  7.36978576E-02  3.96514999E-01
  4.97808488E-01  1.17482582E-01  0.00000000E+00  0.00000000E+00  0.00000000E+00
  0.00000000E+00  0.00000000E+00  0.00000000E+00  0.00000000E+00  0.00000000E+00
  0.00000000E+00  0.00000000E+00  0.00000000E+00  0.00000000E+00  0.00000000E+00
  0.00000000E+00  0.00000000E+00  0.00000000E+00  0.00000000E+00  0.00000000E+00
Coordinates of each shell                  R   N=          60
  4.62194766E+00  1.60190303E+00  5.33141381E-01  3.61873239E+00  2.13845685E+00
  2.26407528E+00  4.34806565E+00  3.13295594E+00 -8.33921020E-01  6.64060431E+00
  1.51849391E+00  9.82438021E-01  3.67409904E+00 -9.21197690E-01 -4.99041170E-01
  4.77667487E+00 -1.43137441E+00 -2.20487074E+00  4.05047082E+00 -2.43908715E+00
  8.92001885E-01  8.51852456E-01 -8.77613478E-01 -1.17316887E+00  4.01633790E-01
 -2.53636903E+00 -2.36638245E+00  4.29139349E-01  7.98351007E-01 -2.35211459E+00
 -8.51851194E-01 -8.77606869E-01  1.17317109E+00 -4.29139351E-01  7.98365008E-01
  2.35210653E+00 -4.01631379E-01 -2.53635491E+00  2.36639468E+00 -3.67409775E+00
 -9.21197051E-01  4.99043115E-01 -4.77667306E+00 -1.43137202E+00  2.20487356E+00
 -4.05046721E+00 -2.43909040E+00 -8.91996486E-01 -4.62195002E+00  1.60190020E+00
 -5.33145083E-01 -3.61871958E+00  2.13846294E+00 -2.26406757E+00 -6.64060136E+00
  1.51848100E+00 -9.82462840E-01 -4.34809041E+00  3.13295239E+00  8.33922925E-01
Constraint Structure                       R   N=          60
  4.85099870E+00  1.29860287E+00  6.92908548E-01  4.12523529E+00  1.35453821E+00
  2.66654969E+00  4.44645989E+00  3.13669689E+00 -2.48819464E-01  6.93570745E+00
  1.02103350E+00  7.63171743E-01  3.64270255E+00 -8.74921384E-01 -7.74710751E-01
  4.58705019E+00 -9.95608195E-01 -2.65383403E+00  4.01034173E+00 -2.68218298E+00
  2.42860329E-01  7.90970499E-01 -5.70432479E-01 -1.21906629E+00  1.66382118E-01
 -2.17210545E+00 -2.43719093E+00  4.53173726E-01  1.21751231E+00 -2.27970969E+00
 -7.91010913E-01 -5.70332307E-01  1.21908927E+00 -4.53177449E-01  1.21787204E+00
  2.27957836E+00 -1.66380290E-01 -2.17176900E+00  2.43751690E+00 -3.64270681E+00
 -8.74908258E-01  7.74787632E-01 -4.58700965E+00 -9.95234570E-01  2.65383182E+00
 -4.01034669E+00 -2.68223130E+00 -2.42471773E-01 -4.85090918E+00  1.29862356E+00
 -6.93011361E-01 -4.12529466E+00  1.35413150E+00 -2.66666076E+00 -6.93576626E+00
  1.02081527E+00 -7.63241339E-01 -4.44664450E+00  3.13673978E+00  2.48436859E-01
Num ILSW                                   I              100
ILSW                                       I   N=         100
           0           0           0           0           2           0
           0           0           0           0           0          -1
           0           0           0           0           0           0
           0           0           0           0           1           0
           1           0           0           0           0           0
           0           0      100000           0          -1           0
           0           0           0           0           0           0
           0           0           0          40           0           0
           0           0           1           0           0           0
           0           0           4          40           0           0
           0           0           0           0           0           0
           0           0           0           0           0           0
           0           0           0           0           0           0
           0           0           0           0           0           0
           0           0           0           0           0           0
           0           0           0           0           0           0
           0           0           0           0
Num RLSW                                   I               40
RLSW                                       R   N=          40
  1.00000000E+00  1.00000000E+00  1.00000000E+00  1.00000000E+00  1.00000000E+00
  0.00000000E+00  0.00000000E+00  1.00000000E+00  0.00000000E+00  0.00000000E+00
  0.00000000E+00  0.00000000E+00  1.00000000E+00  0.00000000E+00  0.00000000E+00
  0.00000000E+00  0.00000000E+00  1.00000000E+00  0.00000000E+00  0.00000000E+00
  0.00000000E+00  0.00000000E+00  1.00000000E+00  0.00000000E+00  0.00000000E+00
  0.00000000E+00  0.00000000E+00  1.00000000E+00  0.00000000E+00  0.00000000E+00
  0.00000000E+00  0.00000000E+00  0.00000000E+00  0.00000000E+00  0.00000000E+00
  0.00000000E+00  0.00000000E+00  0.00000000E+00  1.00000000E+00  1.00000000E+00
MxBond                                     I                4
NBond                                      I   N=          20
           4           1           1           1           4           1
           1           4           1           1           4           1
           1           4           1           1           4           1
           1           1
IBond                                      I   N=          80
           2           3           4           5           1           0
           0           0           1           0           0           0
           1           0           0           0           1           6
           7           8           5           0           0           0
           5           0           0           0           5           9
          10          11           8           0           0           0
           8           0           0           0           8          12
          13          14          11           0           0           0
          11           0           0           0          11          15
          16          17          14           0           0           0
          14           0           0           0          14          18
          19          20          17           0           0           0
          17           0           0           0          17           0
           0           0
RBond                                      R   N=          80
  1.00000000E+00  1.00000000E+00  1.00000000E+00  1.00000000E+00  1.00000000E+00
  0.00000000E+00  0.00000000E+00  0.00000000E+00  1.00000000E+00  0.00000000E+00
  0.00000000E+00  0.00000000E+00  1.00000000E+00  0.00000000E+00  0.00000000E+00
  0.00000000E+00  1.00000000E+00  1.00000000E+00  1.00000000E+00  1.00000000E+00
  1.00000000E+00  0.00000000E+00  0.00000000E+00  0.00000000E+00  1.00000000E+00
  0.00000000E+00  0.00000000E+00  0.00000000E+00  1.00000000E+00  1.00000000E+00
  1.00000000E+00  1.00000000E+00  1.00000000E+00  0.00000000E+00  0.00000000E+00
  0.00000000E+00  1.00000000E+00  0.00000000E+00  0.00000000E+00  0.00000000E+00
  1.00000000E+00  1.00000000E+00  1.00000000E+00  1.00000000E+00  1.00000000E+00
  0.00000000E+00  0.00000000E+00  0.00000000E+00  1.00000000E+00  0.00000000E+00
  0.00000000E+00  0.00000000E+00  1.00000000E+00  1.00000000E+00  1.00000000E+00
  1.00000000E+00  1.00000000E+00  0.00000000E+00  0.00000000E+00  0.00000000E+00
  1.00000000E+00  0.00000000E+00  0.00000000E+00  0.00000000E+00  1.00000000E+00
  1.00000000E+00  1.00000000E+00  1.00000000E+00  1.00000000E+00  0.00000000E+00
  0.00000000E+00  0.00000000E+00  1.00000000E+00  0.00000000E+00  0.00000000E+00
  0.00000000E+00  1.00000000E+00  0.00000000E+00  0.00000000E+00  0.00000000E+00
Virial Ratio                               R      9.990126244320889E-01
SCF Energy                                 R     -5.540380201293260E-02
Total Energy                               R     -5.540380201293260E-02
RMS Force                                  R      2.407172360886354E-06
RMS Density                                R      8.991134691586661E-09
External E-field                           R   N=          35
  0.00000000E+00  0.00000000E+00  0.00000000E+00  0.00000000E+00  0.00000000E+00
  0.00000000E+00  0.00000000E+00  0.00000000E+00  0.00000000E+00  0.00000000E+00
  0.00000000E+00  0.00000000E+00  0.00000000E+00  0.00000000E+00  0.00000000E+00
  0.00000000E+00  0.00000000E+00  0.00000000E+00  0.00000000E+00  0.00000000E+00
  0.00000000E+00  0.00000000E+00  0.00000000E+00  0.00000000E+00  0.00000000E+00
  0.00000000E+00  0.00000000E+00  0.00000000E+00  0.00000000E+00  0.00000000E+00
  0.00000000E+00  0.00000000E+00  0.00000000E+00  0.00000000E+00  0.00000000E+00
IOpCl                                      I                0
IROHF                                      I                0
Alpha Orbital Energies                     R   N=          38
 -1.05711354E+00 -9.96949718E-01 -9.03095651E-01 -8.33649796E-01 -7.53162652E-01
 -7.14426743E-01 -5.80285972E-01 -5.63898604E-01 -5.54324849E-01 -5.33086663E-01
 -4.98402596E-01 -4.86080940E-01 -4.77344130E-01 -4.50114304E-01 -4.41336831E-01
 -4.29399138E-01 -4.14874829E-01 -4.06802929E-01 -4.02096270E-01  1.53866018E-01
  1.65657458E-01  1.66441310E-01  1.73771713E-01  1.80451343E-01  2.10901610E-01
  2.12388508E-01  2.14346107E-01  2.21674049E-01  2.23364502E-01  2.29486721E-01
  2.30642743E-01  2.32796570E-01  2.41704669E-01  2.44992235E-01  2.47860387E-01
  2.48108781E-01  2.58125618E-01  2.60019833E-01
Alpha MO coefficients                      R   N=        1444
  2.41697504E-01 -4.36289794E-02 -5.94801365E-02 -2.39691864E-02  1.11769477E-01
  1.03696814E-01  9.12424478E-02  3.45385956E-01 -7.11789049E-02  3.36619299E-02
  6.94208057E-03  1.34939829E-01  1.46092882E-01  4.14948505E-01  2.28755545E-03
  7.57243412E-03  7.26652978E-02  1.70555786E-01  1.79696257E-01  4.14948358E-01
 -2.28741065E-03  7.57198874E-03 -7.26653442E-02  1.79696218E-01  1.70555739E-01
  3.45385561E-01  7.11788675E-02  3.36618974E-02 -6.94213169E-03  1.34939666E-01
  1.46092746E-01  2.41697101E-01  4.36290260E-02 -5.94799311E-02  2.39692738E-02
  1.11769450E-01  9.12423113E-02  1.03696485E-01  3.74720031E-01 -2.64004289E-02
 -7.15765879E-02 -3.24447710E-02  1.55134903E-01  1.59541855E-01  1.58996864E-01
  4.04492544E-01  1.16950770E-02  6.32061965E-02  1.41215375E-02  1.74276698E-01
  1.66346648E-01  1.52596073E-01  1.52164547E-01  7.25824798E-03 -4.34855364E-03
  4.97013188E-02  5.42293749E-02 -1.52596605E-01  1.52164524E-01 -7.25819165E-03
 -4.34843418E-03 -5.42296204E-02 -4.97015387E-02 -4.04492832E-01  1.16950383E-02
 -6.32061756E-02  1.41216562E-02 -1.74276802E-01 -1.66346745E-01 -3.74720184E-01
 -2.64005910E-02  7.15765054E-02 -3.24449489E-02 -1.55134969E-01 -1.58996901E-01
 -1.59541937E-01  4.10206208E-01  3.61366946E-02  1.16181775E-03 -3.57402959E-04
  1.72993313E-01  1.84515642E-01  2.06793972E-01  9.70233080E-02  1.67263238E-01
  1.10936719E-01  5.19235362E-02  5.38471821E-02  3.27435630E-02 -3.37204369E-01
  8.98085148E-02  4.08295178E-02 -4.98977333E-02 -1.64598951E-01 -1.19582501E-01
 -3.37204107E-01 -8.98085681E-02  4.08297848E-02  4.98976755E-02 -1.19582307E-01
 -1.64598783E-01  9.70233958E-02 -1.67263314E-01  1.10936414E-01 -5.19237442E-02
  5.38472110E-02  3.27435309E-02  4.10206275E-01 -3.61366602E-02  1.16176878E-03
  3.57420561E-04  1.72993132E-01  2.06793959E-01  1.84515903E-01  3.28276694E-01
  4.93774715E-02  9.41408187E-02  6.03952814E-02  1.82572031E-01  1.60498946E-01
  1.81665921E-01 -2.15944019E-01  1.19328757E-01  1.24760767E-01  1.12375559E-01
 -1.30328091E-01 -9.03867842E-02 -2.99697025E-01 -1.24972060E-01  2.34719024E-02
  1.19304625E-01 -1.67090940E-01 -1.51100075E-01  2.99697232E-01 -1.24971792E-01
 -2.34713074E-02  1.19304602E-01  1.51100130E-01  1.67091040E-01  2.15943717E-01
  1.19328997E-01 -1.24760152E-01  1.12375814E-01  1.30327907E-01  9.03865652E-02
 -3.28276693E-01  4.93776429E-02 -9.41405548E-02  6.03954401E-02 -1.82571849E-01
 -1.81666071E-01 -1.60498966E-01 -1.89797241E-01 -2.31242111E-03 -1.86995019E-01
 -7.50275269E-02 -1.57124770E-01 -1.40065390E-01 -9.38708199E-02  3.64763466E-01
  1.14148876E-01 -1.50504181E-01 -4.81971864E-02  2.45638382E-01  2.21370612E-01
 -1.68742692E-01  1.81703316E-01 -8.46024104E-02 -3.72456777E-02 -4.35980052E-02
 -1.33868094E-01 -1.68742878E-01 -1.81703538E-01 -8.46023759E-02  3.72458238E-02
 -1.33868357E-01 -4.35982343E-02  3.64763985E-01 -1.14148710E-01 -1.50504390E-01
  4.81975833E-02  2.45638707E-01  2.21370884E-01 -1.89797619E-01  2.31278410E-03
 -1.86995117E-01  7.50280682E-02 -1.57125397E-01 -9.38711859E-02 -1.40065153E-01
  1.36988005E-01  2.34589825E-02  1.67219528E-01 -2.92830055E-03  7.04673531E-02
  1.40114430E-01  7.36462054E-02 -2.27466338E-01 -1.09963930E-01  1.20731216E-01
 -1.03279602E-01 -1.05099066E-01 -2.15105464E-01  2.96929499E-01 -9.14005951E-02
  2.60287520E-02 -2.58068710E-01  2.28307924E-01  2.45718196E-01 -2.96929457E-01
 -9.14002385E-02 -2.60301907E-02 -2.58068704E-01 -2.45718062E-01 -2.28307993E-01
  2.27465849E-01 -1.09963696E-01 -1.20731650E-01 -1.03279457E-01  1.05098792E-01
  2.15105335E-01 -1.36987575E-01  2.34590777E-02 -1.67219061E-01 -2.92804620E-03
 -7.04674790E-02 -7.36455830E-02 -1.40113989E-01 -4.35855377E-02 -1.57633512E-01
 -1.62622856E-02 -2.21231257E-01 -8.75191457E-02  8.58661735E-02 -1.56175953E-01
  5.81918743E-02 -2.39677676E-02  2.23391809E-01 -2.07378337E-01  9.73401015E-02
 -1.82013318E-01 -1.03596570E-02  1.27493725E-01  3.69515032E-01 -1.05636053E-01
 -1.86155968E-01  2.15478709E-01 -1.03588448E-02 -1.27495314E-01  3.69515175E-01
  1.05633130E-01  2.15478308E-01 -1.86155831E-01  5.81917745E-02  2.39698507E-02
  2.23392382E-01  2.07375561E-01  9.73378761E-02 -1.82012678E-01 -4.35855604E-02
  1.57635579E-01 -1.62616443E-02  2.21229330E-01 -8.75155836E-02 -1.56178266E-01
  8.58649551E-02 -2.03310321E-03  2.98544509E-01 -5.92702311E-02 -1.64426210E-01
 -2.04286301E-01  1.74027456E-02  1.74566390E-01  1.03779587E-02  3.54613597E-01
 -5.65183546E-02 -1.73110006E-01  2.42475457E-01 -4.80460271E-03 -8.77849516E-02
 -2.36945853E-01 -1.66979259E-02 -1.42555117E-01  5.85295041E-02  4.57731978E-02
  8.77849716E-02 -2.36944494E-01  1.66952754E-02 -1.42556667E-01 -4.57743661E-02
 -5.85289334E-02 -1.03782551E-02  3.54613216E-01  5.65166452E-02 -1.73112717E-01
 -2.42476644E-01  4.80661198E-03  2.03327437E-03  2.98543252E-01  5.92697432E-02
 -1.64428646E-01  2.04288227E-01 -1.74563624E-01 -1.74066336E-02 -2.25935912E-02
 -1.99515320E-01 -2.10477792E-01  1.81969838E-01  1.23300735E-01 -1.79917674E-01
 -1.12202941E-01  6.84255519E-02 -4.49708659E-02  6.31775049E-02  3.23606065E-01
 -1.79190788E-01  1.40342595E-01 -2.77303111E-02 -5.36678469E-02  2.30094465E-01
  2.22062115E-01 -2.17783156E-01  3.93799128E-02 -2.77304267E-02  5.36687095E-02
  2.30093397E-01 -2.22062821E-01  3.93803994E-02 -2.17782918E-01  6.84255261E-02
  4.49696226E-02  6.31761339E-02 -3.23606379E-01 -1.79190337E-01  1.40343105E-01
 -2.25935735E-02  1.99514260E-01 -2.10478316E-01 -1.81969630E-01  1.23299934E-01
 -1.12199887E-01 -1.79919751E-01  5.65326305E-03  1.72064441E-01 -6.22477695E-02
  3.73752415E-01  1.49312016E-01 -2.16671994E-01  1.80429219E-01 -4.04020401E-02
  2.97074788E-02 -2.38380685E-01  2.10450265E-01 -8.94724131E-02  2.01311794E-01
  7.31770137E-02 -1.04692676E-01 -1.38393351E-01 -9.96721369E-02  1.65625041E-01
  2.04597446E-03 -7.31772348E-02 -1.04693658E-01  1.38393565E-01 -9.96724099E-02
 -2.04543252E-03 -1.65625564E-01  4.04023060E-02  2.97078745E-02  2.38381891E-01
  2.10449377E-01  8.94719091E-02 -2.01311926E-01 -5.65327666E-03  1.72066302E-01
  6.22488231E-02  3.73752236E-01 -1.49308560E-01 -1.80433128E-01  2.16672022E-01
 -1.48880622E-02  3.93085169E-01 -2.32034682E-01 -3.08790699E-02 -1.98586035E-01
 -1.52624641E-01  2.75779430E-01 -4.31363879E-02  2.00673271E-01  4.49121243E-02
  1.66863359E-02  3.82485828E-02 -1.24365475E-02  5.86163675E-02 -2.02172229E-01
  1.90766615E-01  1.79713976E-02 -5.64957377E-02  1.46368196E-01  5.86160171E-02
  2.02172382E-01  1.90767381E-01 -1.79724932E-02  1.46368633E-01 -5.64962771E-02
 -4.31362391E-02 -2.00673907E-01  4.49125463E-02 -1.66861314E-02  3.82488881E-02
 -1.24368922E-02 -1.48880281E-02 -3.93084647E-01 -2.32035322E-01  3.08810524E-02
 -1.98589694E-01  2.75778641E-01 -1.52620825E-01 -3.16115796E-02  7.47378289E-02
  4.14009966E-01 -3.51002520E-03  4.33589781E-02  1.99462830E-01  2.49928080E-02
 -2.65821028E-02 -1.10865471E-01 -3.21379243E-01 -1.99374851E-01  1.25495593E-01
  4.56664543E-02 -2.08235644E-02  1.22745458E-01 -2.12998180E-01  8.43379052E-02
  5.99064442E-02 -1.85124607E-01  2.08232598E-02  1.22743538E-01  2.12999219E-01
  8.43409289E-02  1.85126293E-01 -5.99052853E-02  2.65818999E-02 -1.10865588E-01
  3.21377358E-01 -1.99374828E-01 -1.25495165E-01 -4.56662626E-02  3.16114006E-02
  7.47384925E-02 -4.14009614E-01 -3.51280544E-03 -4.33579328E-02 -2.49912269E-02