 Entering Gaussian System, Link 0=/home/hetanjin/apps/g09D01/g09/g09
 Input=C6H14_3_3_opt_M06.gjf
 Output=C6H14_3_3_opt_M06.log
 Initial command:
 /home/hetanjin/apps/g09D01/g09/l1.exe "/state/partition1/Gau-25720.inp" -scrdir="/state/partition1/"
 Entering Link 1 = /home/hetanjin/apps/g09D01/g09/l1.exe PID=     25721.
  
 Copyright (c) 1988,1990,1992,1993,1995,1998,2003,2009,2013,
            Gaussian, Inc.  All Rights Reserved.
  
 This is part of the Gaussian(R) 09 program.  It is based on
 the Gaussian(R) 03 system (copyright 2003, Gaussian, Inc.),
 the Gaussian(R) 98 system (copyright 1998, Gaussian, Inc.),
 the Gaussian(R) 94 system (copyright 1995, Gaussian, Inc.),
 the Gaussian 92(TM) system (copyright 1992, Gaussian, Inc.),
 the Gaussian 90(TM) system (copyright 1990, Gaussian, Inc.),
 the Gaussian 88(TM) system (copyright 1988, Gaussian, Inc.),
 the Gaussian 86(TM) system (copyright 1986, Carnegie Mellon
 University), and the Gaussian 82(TM) system (copyright 1983,
 Carnegie Mellon University). Gaussian is a federally registered
 trademark of Gaussian, Inc.
  
 This software contains proprietary and confidential information,
 including trade secrets, belonging to Gaussian, Inc.
  
 This software is provided under written license and may be
 used, copied, transmitted, or stored only in accord with that
 written license.
  
 The following legend is applicable only to US Government
 contracts under FAR:
  
                    RESTRICTED RIGHTS LEGEND
  
 Use, reproduction and disclosure by the US Government is
 subject to restrictions as set forth in subparagraphs (a)
 and (c) of the Commercial Computer Software - Restricted
 Rights clause in FAR 52.227-19.
  
 Gaussian, Inc.
 340 Quinnipiac St., Bldg. 40, Wallingford CT 06492
  
  
 ---------------------------------------------------------------
 Warning -- This program may not be used in any manner that
 competes with the business of Gaussian, Inc. or will provide
 assistance to any competitor of Gaussian, Inc.  The licensee
 of this program is prohibited from giving any competitor of
 Gaussian, Inc. access to this program.  By using this program,
 the user acknowledges that Gaussian, Inc. is engaged in the
 business of creating and licensing software in the field of
 computational chemistry and represents and warrants to the
 licensee that it is not a competitor of Gaussian, Inc. and that
 it will not use this program in any manner prohibited above.
 ---------------------------------------------------------------
  

 Cite this work as:
 Gaussian 09, Revision D.01,
 M. J. Frisch, G. W. Trucks, H. B. Schlegel, G. E. Scuseria, 
 M. A. Robb, J. R. Cheeseman, G. Scalmani, V. Barone, B. Mennucci, 
 G. A. Petersson, H. Nakatsuji, M. Caricato, X. Li, H. P. Hratchian, 
 A. F. Izmaylov, J. Bloino, G. Zheng, J. L. Sonnenberg, M. Hada, 
 M. Ehara, K. Toyota, R. Fukuda, J. Hasegawa, M. Ishida, T. Nakajima, 
 Y. Honda, O. Kitao, H. Nakai, T. Vreven, J. A. Montgomery, Jr., 
 J. E. Peralta, F. Ogliaro, M. Bearpark, J. J. Heyd, E. Brothers, 
 K. N. Kudin, V. N. Staroverov, T. Keith, R. Kobayashi, J. Normand, 
 K. Raghavachari, A. Rendell, J. C. Burant, S. S. Iyengar, J. Tomasi, 
 M. Cossi, N. Rega, J. M. Millam, M. Klene, J. E. Knox, J. B. Cross, 
 V. Bakken, C. Adamo, J. Jaramillo, R. Gomperts, R. E. Stratmann, 
 O. Yazyev, A. J. Austin, R. Cammi, C. Pomelli, J. W. Ochterski, 
 R. L. Martin, K. Morokuma, V. G. Zakrzewski, G. A. Voth, 
 P. Salvador, J. J. Dannenberg, S. Dapprich, A. D. Daniels, 
 O. Farkas, J. B. Foresman, J. V. Ortiz, J. Cioslowski, 
 and D. J. Fox, Gaussian, Inc., Wallingford CT, 2013.
 
 ******************************************
 Gaussian 09:  ES64L-G09RevD.01 24-Apr-2013
                 5-Oct-2015 
 ******************************************
 %mem=6GB
 %nprocshared=4
 Will use up to    4 processors via shared memory.
 -----------------
 #p M062X/def2TZVP
 -----------------
 1/38=1/1;
 2/12=2,17=6,18=5,40=1/2;
 3/5=44,7=101,11=2,16=1,25=1,30=1,74=-55/1,2,3;
 4//1;
 5/5=2,38=5/2;
 6/7=2,8=2,9=2,10=2,28=1/1;
 99/5=1,9=1/99;
 Leave Link    1 at Mon Oct  5 16:18:32 2015, MaxMem=   805306368 cpu:         0.1
 (Enter /home/hetanjin/apps/g09D01/g09/l101.exe)
 ---------------------------------------------
 using B3LYP/6-31G(d) to do opt and freq calc.
 ---------------------------------------------
 Symbolic Z-matrix:
 Charge =  0 Multiplicity = 1
 C                    -2.58543  -0.17306  -0.29185 
 H                    -2.56946  -0.21059  -1.38848 
 H                    -2.79867   0.86056   0.00159 
 H                    -3.42636  -0.7886    0.04788 
 C                    -1.2643   -0.68112   0.2975 
 H                    -1.30509  -0.61825   1.39536 
 H                    -1.16192  -1.74928   0.0599 
 C                     0.        0.05117  -0.19883 
 H                     0.        0.00139  -1.30033 
 C                     1.2643   -0.68112   0.29751 
 H                     1.16193  -1.74928   0.05992 
 H                     1.30509  -0.61823   1.39536 
 C                     2.58543  -0.17306  -0.29185 
 H                     2.79867   0.86057   0.00157 
 H                     3.42636  -0.78859   0.04789 
 H                     2.56946  -0.21061  -1.38848 
 C                    0.         1.53336   0.20729 
 H                    -0.88093   2.05894  -0.1759 
 H                    -0.00001   1.63604   1.30101 
 H                     0.88093   2.05894  -0.17589 
 
 NAtoms=     20 NQM=       20 NQMF=       0 NMMI=      0 NMMIF=      0
                NMic=       0 NMicF=      0.
                    Isotopes and Nuclear Properties:
 (Nuclear quadrupole moments (NQMom) in fm**2, nuclear magnetic moments (NMagM)
  in nuclear magnetons)

  Atom         1           2           3           4           5           6           7           8           9          10
 IAtWgt=          12           1           1           1          12           1           1          12           1          12
 AtmWgt=  12.0000000   1.0078250   1.0078250   1.0078250  12.0000000   1.0078250   1.0078250  12.0000000   1.0078250  12.0000000
 NucSpn=           0           1           1           1           0           1           1           0           1           0
 AtZEff=   0.0000000   0.0000000   0.0000000   0.0000000   0.0000000   0.0000000   0.0000000   0.0000000   0.0000000   0.0000000
 NQMom=    0.0000000   0.0000000   0.0000000   0.0000000   0.0000000   0.0000000   0.0000000   0.0000000   0.0000000   0.0000000
 NMagM=    0.0000000   2.7928460   2.7928460   2.7928460   0.0000000   2.7928460   2.7928460   0.0000000   2.7928460   0.0000000
 AtZNuc=   6.0000000   1.0000000   1.0000000   1.0000000   6.0000000   1.0000000   1.0000000   6.0000000   1.0000000   6.0000000

  Atom        11          12          13          14          15          16          17          18          19          20
 IAtWgt=           1           1          12           1           1           1          12           1           1           1
 AtmWgt=   1.0078250   1.0078250  12.0000000   1.0078250   1.0078250   1.0078250  12.0000000   1.0078250   1.0078250   1.0078250
 NucSpn=           1           1           0           1           1           1           0           1           1           1
 AtZEff=   0.0000000   0.0000000   0.0000000   0.0000000   0.0000000   0.0000000   0.0000000   0.0000000   0.0000000   0.0000000
 NQMom=    0.0000000   0.0000000   0.0000000   0.0000000   0.0000000   0.0000000   0.0000000   0.0000000   0.0000000   0.0000000
 NMagM=    2.7928460   2.7928460   0.0000000   2.7928460   2.7928460   2.7928460   0.0000000   2.7928460   2.7928460   2.7928460
 AtZNuc=   1.0000000   1.0000000   6.0000000   1.0000000   1.0000000   1.0000000   6.0000000   1.0000000   1.0000000   1.0000000
 Leave Link  101 at Mon Oct  5 16:18:32 2015, MaxMem=   805306368 cpu:         0.4
 (Enter /home/hetanjin/apps/g09D01/g09/l202.exe)
                          Input orientation:                          
 ---------------------------------------------------------------------
 Center     Atomic      Atomic             Coordinates (Angstroms)
 Number     Number       Type             X           Y           Z
 ---------------------------------------------------------------------
      1          6           0       -2.585432   -0.173063   -0.291849
      2          1           0       -2.569458   -0.210592   -1.388477
      3          1           0       -2.798673    0.860561    0.001587
      4          1           0       -3.426358   -0.788597    0.047878
      5          6           0       -1.264298   -0.681121    0.297502
      6          1           0       -1.305088   -0.618252    1.395357
      7          1           0       -1.161923   -1.749281    0.059899
      8          6           0        0.000001    0.051166   -0.198829
      9          1           0        0.000003    0.001388   -1.300329
     10          6           0        1.264300   -0.681115    0.297508
     11          1           0        1.161927   -1.749278    0.059916
     12          1           0        1.305092   -0.618234    1.395362
     13          6           0        2.585433   -0.173062   -0.291851
     14          1           0        2.798671    0.860567    0.001568
     15          1           0        3.426361   -0.788588    0.047886
     16          1           0        2.569459   -0.210609   -1.388479
     17          6           0       -0.000004    1.533363    0.207287
     18          1           0       -0.880930    2.058937   -0.175897
     19          1           0       -0.000012    1.636037    1.301012
     20          1           0        0.880926    2.058939   -0.175885
 ---------------------------------------------------------------------
                    Distance matrix (angstroms):
                    1          2          3          4          5
     1  C    0.000000
     2  H    1.097386   0.000000
     3  H    1.095425   1.769798   0.000000
     4  H    1.096108   1.769600   1.765178   0.000000
     5  C    1.533249   2.183430   2.195144   2.179075   0.000000
     6  H    2.164287   3.084566   2.521959   2.518830   1.100410
     7  H    2.152805   2.538998   3.081173   2.459822   1.099046
     8  C    2.596805   2.843572   2.920251   3.536383   1.543062
     9  H    2.780636   2.579697   3.204021   3.765858   2.148800
    10  C    3.927581   4.214456   4.355696   4.698525   2.528598
    11  H    4.080550   4.288197   4.743523   4.687794   2.661574
    12  H    4.263923   4.788326   4.579337   4.922536   2.794820
    13  C    5.170865   5.270379   5.490271   6.052762   3.927581
    14  H    5.490269   5.647691   5.597344   6.439944   4.355697
    15  H    6.052763   6.192501   6.439944   6.852719   4.698525
    16  H    5.270380   5.138917   5.647701   6.192497   4.214452
    17  C    3.137748   3.491409   2.885745   4.142078   2.551572
    18  H    2.810800   3.077700   2.268335   3.825928   2.806955
    19  H    3.534748   4.152763   3.181567   4.380530   2.823946
    20  H    4.124429   4.304219   3.873894   5.168290   3.511981
                    6          7          8          9         10
     6  H    0.000000
     7  H    1.755896   0.000000
     8  C    2.166289   2.158383   0.000000
     9  H    3.058421   2.503025   1.102624   0.000000
    10  C    2.794813   2.661577   1.543061   2.148800   0.000000
    11  H    3.024696   2.323850   2.158384   2.503031   1.099046
    12  H    2.610180   3.024713   2.166288   3.058421   1.100410
    13  C    4.263921   4.080548   2.596804   2.780631   1.533250
    14  H    4.579344   4.743523   2.920247   3.204008   2.195144
    15  H    4.922530   4.687795   3.536382   3.765856   2.179075
    16  H    4.788322   4.288184   2.843573   2.579693   2.183430
    17  C    2.782841   3.485331   1.536827   2.149384   2.551572
    18  H    3.133064   3.825844   2.192649   2.504775   3.511981
    19  H    2.606519   3.788242   2.182049   3.072304   2.823951
    20  H    3.796684   4.327975   2.192649   2.504779   2.806951
                   11         12         13         14         15
    11  H    0.000000
    12  H    1.755897   0.000000
    13  C    2.152804   2.164287   0.000000
    14  H    3.081173   2.521962   1.095424   0.000000
    15  H    2.459823   2.518828   1.096108   1.765178   0.000000
    16  H    2.538995   3.084567   1.097387   1.769799   1.769600
    17  C    3.485331   2.782834   3.137755   2.885751   4.142082
    18  H    4.327976   3.796682   4.124432   3.873893   5.168291
    19  H    3.788242   2.606518   3.534767   3.181593   4.380544
    20  H    3.825844   3.133048   2.810804   2.268332   3.825928
                   16         17         18         19         20
    16  H    0.000000
    17  C    3.491425   0.000000
    18  H    4.304228   1.095029   0.000000
    19  H    4.152788   1.098534   1.770910   0.000000
    20  H    3.077723   1.095029   1.761856   1.770910   0.000000
 Stoichiometry    C6H14
 Framework group  C1[X(C6H14)]
 Deg. of freedom    54
 Full point group                 C1      NOp   1
 Largest Abelian subgroup         C1      NOp   1
 Largest concise Abelian subgroup C1      NOp   1
                         Standard orientation:                         
 ---------------------------------------------------------------------
 Center     Atomic      Atomic             Coordinates (Angstroms)
 Number     Number       Type             X           Y           Z
 ---------------------------------------------------------------------
      1          6           0       -2.585432   -0.173063   -0.291849
      2          1           0       -2.569458   -0.210592   -1.388477
      3          1           0       -2.798673    0.860561    0.001587
      4          1           0       -3.426358   -0.788597    0.047878
      5          6           0       -1.264298   -0.681121    0.297502
      6          1           0       -1.305088   -0.618252    1.395357
      7          1           0       -1.161923   -1.749281    0.059899
      8          6           0        0.000001    0.051166   -0.198829
      9          1           0        0.000003    0.001388   -1.300329
     10          6           0        1.264300   -0.681115    0.297508
     11          1           0        1.161927   -1.749278    0.059916
     12          1           0        1.305092   -0.618234    1.395362
     13          6           0        2.585433   -0.173062   -0.291851
     14          1           0        2.798671    0.860567    0.001568
     15          1           0        3.426361   -0.788588    0.047886
     16          1           0        2.569459   -0.210609   -1.388479
     17          6           0       -0.000004    1.533363    0.207287
     18          1           0       -0.880930    2.058937   -0.175897
     19          1           0       -0.000012    1.636037    1.301012
     20          1           0        0.880926    2.058939   -0.175885
 ---------------------------------------------------------------------
 Rotational constants (GHZ):      6.5158361      1.8329404      1.5774550
 Leave Link  202 at Mon Oct  5 16:18:33 2015, MaxMem=   805306368 cpu:         0.0
 (Enter /home/hetanjin/apps/g09D01/g09/l301.exe)
 Standard basis: def2TZVP (5D, 7F)
 Ernie: Thresh=  0.10000D-02 Tol=  0.10000D-05 Strict=F.
 There are   300 symmetry adapted cartesian basis functions of A   symmetry.
 There are   270 symmetry adapted basis functions of A   symmetry.
   270 basis functions,   418 primitive gaussians,   300 cartesian basis functions
    25 alpha electrons       25 beta electrons
       nuclear repulsion energy       255.3004820573 Hartrees.
 IExCor= 4336 DFT=T Ex+Corr=M062X ExCW=0 ScaHFX=  0.540000
 ScaDFX=  1.000000  1.000000  1.000000  1.000000 ScalE2=  1.000000  1.000000
 IRadAn=      0 IRanWt=     -1 IRanGd=            0 ICorTp=0 IEmpDi=  4
 NAtoms=   20 NActive=   20 NUniq=   20 SFac= 1.00D+00 NAtFMM=   60 NAOKFM=F Big=F
 Integral buffers will be    131072 words long.
 Raffenetti 2 integral format.
 Two-electron integral symmetry is turned on.
 Leave Link  301 at Mon Oct  5 16:18:33 2015, MaxMem=   805306368 cpu:         0.3
 (Enter /home/hetanjin/apps/g09D01/g09/l302.exe)
 NPDir=0 NMtPBC=     1 NCelOv=     1 NCel=       1 NClECP=     1 NCelD=      1
         NCelK=      1 NCelE2=     1 NClLst=     1 CellRange=     0.0.
 One-electron integrals computed using PRISM.
   1 Symmetry operations used in ECPInt.
 ECPInt:  NShTT=    7503 NPrTT=   21084 LenC2=    7393 LenP2D=   17142.
 LDataN:  DoStor=T MaxTD1= 6 Len=  172
 NBasis=   270 RedAO= T EigKep=  1.58D-04  NBF=   270
 NBsUse=   270 1.00D-06 EigRej= -1.00D+00 NBFU=   270
 Precomputing XC quadrature grid using
 IXCGrd= 4 IRadAn=           0 IRanWt=          -1 IRanGd=           0 AccXCQ= 0.00D+00.
 Generated NRdTot=       0 NPtTot=           0 NUsed=           0 NTot=          32
 NSgBfM=   299   299   299   299   299 MxSgAt=    20 MxSgA2=    20.
 Leave Link  302 at Mon Oct  5 16:18:33 2015, MaxMem=   805306368 cpu:         2.1
 (Enter /home/hetanjin/apps/g09D01/g09/l303.exe)
 DipDrv:  MaxL=1.
 Leave Link  303 at Mon Oct  5 16:18:33 2015, MaxMem=   805306368 cpu:         0.2
 (Enter /home/hetanjin/apps/g09D01/g09/l401.exe)
 ExpMin= 9.52D-02 ExpMax= 1.36D+04 ExpMxC= 4.63D+02 IAcc=2 IRadAn=         4 AccDes= 0.00D+00
 Harris functional with IExCor= 1009 and IRadAn=       4 diagonalized for initial guess.
 HarFok:  IExCor= 1009 AccDes= 0.00D+00 IRadAn=         4 IDoV= 1 UseB2=F ITyADJ=14
 ICtDFT=  3500011 ScaDFX=  1.000000  1.000000  1.000000  1.000000
 FoFCou: FMM=F IPFlag=           0 FMFlag=      100000 FMFlg1=           0
         NFxFlg=           0 DoJE=T BraDBF=F KetDBF=T FulRan=T
         wScrn=  0.000000 ICntrl=     500 IOpCl=  0 I1Cent=   200000004 NGrid=           0
         NMat0=    1 NMatS0=      1 NMatT0=    0 NMatD0=    1 NMtDS0=    0 NMtDT0=    0
 Petite list used in FoFCou.
 Harris En= -237.041788201218    
 JPrj=0 DoOrth=F DoCkMO=F.
 Leave Link  401 at Mon Oct  5 16:18:37 2015, MaxMem=   805306368 cpu:        11.9
 (Enter /home/hetanjin/apps/g09D01/g09/l502.exe)
 Closed shell SCF:
 Using DIIS extrapolation, IDIIS=  1040.
 Integral symmetry usage will be decided dynamically.
 Keep R1 ints in memory in canonical form, NReq=683177287.
 IVT=      292582 IEndB=      292582 NGot=   805306368 MDV=   135764382
 LenX=   135764382 LenY=   135673941
 Requested convergence on RMS density matrix=1.00D-08 within 128 cycles.
 Requested convergence on MAX density matrix=1.00D-06.
 Requested convergence on             energy=1.00D-06.
 No special actions if energy rises.
 FoFCou: FMM=F IPFlag=           0 FMFlag=           0 FMFlg1=           0
         NFxFlg=           0 DoJE=F BraDBF=F KetDBF=F FulRan=T
         wScrn=  0.000000 ICntrl=     600 IOpCl=  0 I1Cent=           0 NGrid=           0
         NMat0=    1 NMatS0=  36585 NMatT0=    0 NMatD0=    1 NMtDS0=    0 NMtDT0=    0
 Symmetry not used in FoFCou.
 Integral accuracy reduced to 1.0D-05 until final iterations.

 Cycle   1  Pass 0  IDiag  1:
 E= -236.732222916575    
 DIIS: error= 3.58D-02 at cycle   1 NSaved=   1.
 NSaved= 1 IEnMin= 1 EnMin= -236.732222916575     IErMin= 1 ErrMin= 3.58D-02
 ErrMax= 3.58D-02  0.00D+00 EMaxC= 1.00D-01 BMatC= 3.09D-01 BMatP= 3.09D-01
 IDIUse=3 WtCom= 6.42D-01 WtEn= 3.58D-01
 Coeff-Com:  0.100D+01
 Coeff-En:   0.100D+01
 Coeff:      0.100D+01
 Gap=     0.379 Goal=   None    Shift=    0.000
 GapD=    0.379 DampG=1.000 DampE=0.500 DampFc=0.5000 IDamp=-1.
 Damping current iteration by 5.00D-01
 RMSDP=3.22D-03 MaxDP=6.64D-02              OVMax= 1.66D-01

 Cycle   2  Pass 0  IDiag  1:
 E= -236.884740007491     Delta-E=       -0.152517090916 Rises=F Damp=T
 DIIS: error= 6.85D-03 at cycle   2 NSaved=   2.
 NSaved= 2 IEnMin= 2 EnMin= -236.884740007491     IErMin= 2 ErrMin= 6.85D-03
 ErrMax= 6.85D-03  0.00D+00 EMaxC= 1.00D-01 BMatC= 1.43D-02 BMatP= 3.09D-01
 IDIUse=3 WtCom= 9.32D-01 WtEn= 6.85D-02
 Coeff-Com: -0.801D-01 0.108D+01
 Coeff-En:   0.000D+00 0.100D+01
 Coeff:     -0.746D-01 0.107D+01
 Gap=     0.447 Goal=   None    Shift=    0.000
 RMSDP=1.03D-03 MaxDP=2.54D-02 DE=-1.53D-01 OVMax= 8.71D-02

 Cycle   3  Pass 0  IDiag  1:
 E= -237.030904070039     Delta-E=       -0.146164062548 Rises=F Damp=F
 DIIS: error= 2.97D-03 at cycle   3 NSaved=   3.
 NSaved= 3 IEnMin= 3 EnMin= -237.030904070039     IErMin= 3 ErrMin= 2.97D-03
 ErrMax= 2.97D-03  0.00D+00 EMaxC= 1.00D-01 BMatC= 1.68D-03 BMatP= 1.43D-02
 IDIUse=3 WtCom= 9.70D-01 WtEn= 2.97D-02
 Coeff-Com: -0.489D-01 0.226D+00 0.822D+00
 Coeff-En:   0.000D+00 0.000D+00 0.100D+01
 Coeff:     -0.474D-01 0.220D+00 0.828D+00
 Gap=     0.427 Goal=   None    Shift=    0.000
 RMSDP=1.69D-04 MaxDP=6.28D-03 DE=-1.46D-01 OVMax= 9.60D-03

 Cycle   4  Pass 0  IDiag  1:
 E= -237.032314989786     Delta-E=       -0.001410919747 Rises=F Damp=F
 DIIS: error= 1.23D-03 at cycle   4 NSaved=   4.
 NSaved= 4 IEnMin= 4 EnMin= -237.032314989786     IErMin= 4 ErrMin= 1.23D-03
 ErrMax= 1.23D-03  0.00D+00 EMaxC= 1.00D-01 BMatC= 3.10D-04 BMatP= 1.68D-03
 IDIUse=3 WtCom= 9.88D-01 WtEn= 1.23D-02
 Coeff-Com: -0.153D-01 0.459D-01 0.337D+00 0.632D+00
 Coeff-En:   0.000D+00 0.000D+00 0.798D-02 0.992D+00
 Coeff:     -0.151D-01 0.453D-01 0.333D+00 0.636D+00
 Gap=     0.430 Goal=   None    Shift=    0.000
 RMSDP=5.96D-05 MaxDP=1.94D-03 DE=-1.41D-03 OVMax= 4.28D-03

 Cycle   5  Pass 0  IDiag  1:
 E= -237.032602759456     Delta-E=       -0.000287769670 Rises=F Damp=F
 DIIS: error= 2.27D-04 at cycle   5 NSaved=   5.
 NSaved= 5 IEnMin= 5 EnMin= -237.032602759456     IErMin= 5 ErrMin= 2.27D-04
 ErrMax= 2.27D-04  0.00D+00 EMaxC= 1.00D-01 BMatC= 1.64D-05 BMatP= 3.10D-04
 IDIUse=3 WtCom= 9.98D-01 WtEn= 2.27D-03
 Coeff-Com: -0.148D-02 0.739D-03 0.603D-01 0.232D+00 0.709D+00
 Coeff-En:   0.000D+00 0.000D+00 0.000D+00 0.000D+00 0.100D+01
 Coeff:     -0.147D-02 0.737D-03 0.601D-01 0.231D+00 0.709D+00
 Gap=     0.429 Goal=   None    Shift=    0.000
 RMSDP=1.22D-05 MaxDP=4.39D-04 DE=-2.88D-04 OVMax= 7.53D-04

 Cycle   6  Pass 0  IDiag  1:
 E= -237.032618199756     Delta-E=       -0.000015440300 Rises=F Damp=F
 DIIS: error= 3.48D-05 at cycle   6 NSaved=   6.
 NSaved= 6 IEnMin= 6 EnMin= -237.032618199756     IErMin= 6 ErrMin= 3.48D-05
 ErrMax= 3.48D-05  0.00D+00 EMaxC= 1.00D-01 BMatC= 2.59D-07 BMatP= 1.64D-05
 IDIUse=1 WtCom= 1.00D+00 WtEn= 0.00D+00
 Coeff-Com:  0.927D-03-0.271D-02-0.151D-01-0.139D-01 0.631D-01 0.968D+00
 Coeff:      0.927D-03-0.271D-02-0.151D-01-0.139D-01 0.631D-01 0.968D+00
 Gap=     0.429 Goal=   None    Shift=    0.000
 RMSDP=3.98D-06 MaxDP=9.55D-05 DE=-1.54D-05 OVMax= 1.65D-04

 Initial convergence to 1.0D-05 achieved.  Increase integral accuracy.
 Cycle   7  Pass 1  IDiag  1:
 E= -237.032335633028     Delta-E=        0.000282566728 Rises=F Damp=F
 DIIS: error= 2.06D-04 at cycle   1 NSaved=   1.
 NSaved= 1 IEnMin= 1 EnMin= -237.032335633028     IErMin= 1 ErrMin= 2.06D-04
 ErrMax= 2.06D-04  0.00D+00 EMaxC= 1.00D-01 BMatC= 2.10D-05 BMatP= 2.10D-05
 IDIUse=3 WtCom= 9.98D-01 WtEn= 2.06D-03
 Coeff-Com:  0.100D+01
 Coeff-En:   0.100D+01
 Coeff:      0.100D+01
 Gap=     0.430 Goal=   None    Shift=    0.000
 RMSDP=3.98D-06 MaxDP=9.55D-05 DE= 2.83D-04 OVMax= 4.35D-04

 Cycle   8  Pass 1  IDiag  1:
 E= -237.032344833244     Delta-E=       -0.000009200217 Rises=F Damp=F
 DIIS: error= 5.68D-05 at cycle   2 NSaved=   2.
 NSaved= 2 IEnMin= 2 EnMin= -237.032344833244     IErMin= 2 ErrMin= 5.68D-05
 ErrMax= 5.68D-05  0.00D+00 EMaxC= 1.00D-01 BMatC= 1.05D-06 BMatP= 2.10D-05
 IDIUse=1 WtCom= 1.00D+00 WtEn= 0.00D+00
 Coeff-Com:  0.854D-01 0.915D+00
 Coeff:      0.854D-01 0.915D+00
 Gap=     0.429 Goal=   None    Shift=    0.000
 RMSDP=5.27D-06 MaxDP=1.16D-04 DE=-9.20D-06 OVMax= 2.97D-04

 Cycle   9  Pass 1  IDiag  1:
 E= -237.032345293589     Delta-E=       -0.000000460345 Rises=F Damp=F
 DIIS: error= 4.28D-05 at cycle   3 NSaved=   3.
 NSaved= 3 IEnMin= 3 EnMin= -237.032345293589     IErMin= 3 ErrMin= 4.28D-05
 ErrMax= 4.28D-05  0.00D+00 EMaxC= 1.00D-01 BMatC= 6.03D-07 BMatP= 1.05D-06
 IDIUse=1 WtCom= 1.00D+00 WtEn= 0.00D+00
 Coeff-Com: -0.147D-01 0.425D+00 0.590D+00
 Coeff:     -0.147D-01 0.425D+00 0.590D+00
 Gap=     0.429 Goal=   None    Shift=    0.000
 RMSDP=2.29D-06 MaxDP=4.92D-05 DE=-4.60D-07 OVMax= 1.34D-04

 Cycle  10  Pass 1  IDiag  1:
 E= -237.032345897542     Delta-E=       -0.000000603953 Rises=F Damp=F
 DIIS: error= 3.27D-06 at cycle   4 NSaved=   4.
 NSaved= 4 IEnMin= 4 EnMin= -237.032345897542     IErMin= 4 ErrMin= 3.27D-06
 ErrMax= 3.27D-06  0.00D+00 EMaxC= 1.00D-01 BMatC= 2.69D-09 BMatP= 6.03D-07
 IDIUse=1 WtCom= 1.00D+00 WtEn= 0.00D+00
 Coeff-Com: -0.393D-02 0.432D-01 0.899D-01 0.871D+00
 Coeff:     -0.393D-02 0.432D-01 0.899D-01 0.871D+00
 Gap=     0.429 Goal=   None    Shift=    0.000
 RMSDP=2.89D-07 MaxDP=6.73D-06 DE=-6.04D-07 OVMax= 1.51D-05

 Cycle  11  Pass 1  IDiag  1:
 E= -237.032345899867     Delta-E=       -0.000000002325 Rises=F Damp=F
 DIIS: error= 1.88D-06 at cycle   5 NSaved=   5.
 NSaved= 5 IEnMin= 5 EnMin= -237.032345899867     IErMin= 5 ErrMin= 1.88D-06
 ErrMax= 1.88D-06  0.00D+00 EMaxC= 1.00D-01 BMatC= 8.39D-10 BMatP= 2.69D-09
 IDIUse=1 WtCom= 1.00D+00 WtEn= 0.00D+00
 Coeff-Com: -0.558D-03-0.126D-01-0.576D-02 0.371D+00 0.648D+00
 Coeff:     -0.558D-03-0.126D-01-0.576D-02 0.371D+00 0.648D+00
 Gap=     0.429 Goal=   None    Shift=    0.000
 RMSDP=9.12D-08 MaxDP=3.16D-06 DE=-2.32D-09 OVMax= 6.46D-06

 Cycle  12  Pass 1  IDiag  1:
 E= -237.032345900693     Delta-E=       -0.000000000826 Rises=F Damp=F
 DIIS: error= 2.67D-07 at cycle   6 NSaved=   6.
 NSaved= 6 IEnMin= 6 EnMin= -237.032345900693     IErMin= 6 ErrMin= 2.67D-07
 ErrMax= 2.67D-07  0.00D+00 EMaxC= 1.00D-01 BMatC= 2.95D-11 BMatP= 8.39D-10
 IDIUse=1 WtCom= 1.00D+00 WtEn= 0.00D+00
 Coeff-Com:  0.222D-03-0.785D-02-0.114D-01 0.204D-01 0.172D+00 0.827D+00
 Coeff:      0.222D-03-0.785D-02-0.114D-01 0.204D-01 0.172D+00 0.827D+00
 Gap=     0.429 Goal=   None    Shift=    0.000
 RMSDP=2.69D-08 MaxDP=5.75D-07 DE=-8.26D-10 OVMax= 1.20D-06

 Cycle  13  Pass 1  IDiag  1:
 E= -237.032345900712     Delta-E=       -0.000000000019 Rises=F Damp=F
 DIIS: error= 4.74D-08 at cycle   7 NSaved=   7.
 NSaved= 7 IEnMin= 7 EnMin= -237.032345900712     IErMin= 7 ErrMin= 4.74D-08
 ErrMax= 4.74D-08  0.00D+00 EMaxC= 1.00D-01 BMatC= 5.78D-13 BMatP= 2.95D-11
 IDIUse=1 WtCom= 1.00D+00 WtEn= 0.00D+00
 Coeff-Com:  0.516D-04-0.617D-03-0.169D-02-0.117D-01 0.428D-02 0.134D+00
 Coeff-Com:  0.876D+00
 Coeff:      0.516D-04-0.617D-03-0.169D-02-0.117D-01 0.428D-02 0.134D+00
 Coeff:      0.876D+00
 Gap=     0.429 Goal=   None    Shift=    0.000
 RMSDP=5.44D-09 MaxDP=8.77D-08 DE=-1.95D-11 OVMax= 2.18D-07

 SCF Done:  E(RM062X) =  -237.032345901     A.U. after   13 cycles
            NFock= 13  Conv=0.54D-08     -V/T= 2.0064
 KE= 2.355352312495D+02 PE=-1.058325525516D+03 EE= 3.304574663085D+02
 Leave Link  502 at Mon Oct  5 16:20:12 2015, MaxMem=   805306368 cpu:       308.8
 (Enter /home/hetanjin/apps/g09D01/g09/l601.exe)
 Copying SCF densities to generalized density rwf, IOpCl= 0 IROHF=0.

 **********************************************************************

            Population analysis using the SCF density.

 **********************************************************************

 Orbital symmetries:
       Occupied  (A) (A) (A) (A) (A) (A) (A) (A) (A) (A) (A) (A)
                 (A) (A) (A) (A) (A) (A) (A) (A) (A) (A) (A) (A)
                 (A)
       Virtual   (A) (A) (A) (A) (A) (A) (A) (A) (A) (A) (A) (A)
                 (A) (A) (A) (A) (A) (A) (A) (A) (A) (A) (A) (A)
                 (A) (A) (A) (A) (A) (A) (A) (A) (A) (A) (A) (A)
                 (A) (A) (A) (A) (A) (A) (A) (A) (A) (A) (A) (A)
                 (A) (A) (A) (A) (A) (A) (A) (A) (A) (A) (A) (A)
                 (A) (A) (A) (A) (A) (A) (A) (A) (A) (A) (A) (A)
                 (A) (A) (A) (A) (A) (A) (A) (A) (A) (A) (A) (A)
                 (A) (A) (A) (A) (A) (A) (A) (A) (A) (A) (A) (A)
                 (A) (A) (A) (A) (A) (A) (A) (A) (A) (A) (A) (A)
                 (A) (A) (A) (A) (A) (A) (A) (A) (A) (A) (A) (A)
                 (A) (A) (A) (A) (A) (A) (A) (A) (A) (A) (A) (A)
                 (A) (A) (A) (A) (A) (A) (A) (A) (A) (A) (A) (A)
                 (A) (A) (A) (A) (A) (A) (A) (A) (A) (A) (A) (A)
                 (A) (A) (A) (A) (A) (A) (A) (A) (A) (A) (A) (A)
                 (A) (A) (A) (A) (A) (A) (A) (A) (A) (A) (A) (A)
                 (A) (A) (A) (A) (A) (A) (A) (A) (A) (A) (A) (A)
                 (A) (A) (A) (A) (A) (A) (A) (A) (A) (A) (A) (A)
                 (A) (A) (A) (A) (A) (A) (A) (A) (A) (A) (A) (A)
                 (A) (A) (A) (A) (A) (A) (A) (A) (A) (A) (A) (A)
                 (A) (A) (A) (A) (A) (A) (A) (A) (A) (A) (A) (A)
                 (A) (A) (A) (A) (A)
 The electronic state is 1-A.
 Alpha  occ. eigenvalues --  -10.53421 -10.52686 -10.52684 -10.52091 -10.52091
 Alpha  occ. eigenvalues --  -10.51914  -0.91129  -0.84304  -0.79928  -0.73882
 Alpha  occ. eigenvalues --   -0.67941  -0.63166  -0.53605  -0.52268  -0.49718
 Alpha  occ. eigenvalues --   -0.48102  -0.45918  -0.45120  -0.43488  -0.42311
 Alpha  occ. eigenvalues --   -0.40923  -0.39292  -0.37391  -0.36866  -0.36318
 Alpha virt. eigenvalues --    0.06616   0.08914   0.09596   0.10071   0.12358
 Alpha virt. eigenvalues --    0.13139   0.13363   0.14943   0.15082   0.15674
 Alpha virt. eigenvalues --    0.16509   0.16961   0.18451   0.18760   0.21210
 Alpha virt. eigenvalues --    0.22125   0.22846   0.23243   0.24034   0.24899
 Alpha virt. eigenvalues --    0.26538   0.29306   0.30006   0.30772   0.31724
 Alpha virt. eigenvalues --    0.32412   0.34742   0.36845   0.37518   0.41629
 Alpha virt. eigenvalues --    0.41900   0.43291   0.43815   0.44352   0.45041
 Alpha virt. eigenvalues --    0.45664   0.47537   0.47734   0.48592   0.48966
 Alpha virt. eigenvalues --    0.49535   0.50306   0.51595   0.51942   0.52010
 Alpha virt. eigenvalues --    0.53835   0.54036   0.54441   0.54848   0.57182
 Alpha virt. eigenvalues --    0.57335   0.63257   0.65961   0.67001   0.70201
 Alpha virt. eigenvalues --    0.72290   0.72577   0.76177   0.81189   0.81239
 Alpha virt. eigenvalues --    0.83917   0.87298   0.87924   0.89305   0.94280
 Alpha virt. eigenvalues --    0.94396   0.95600   0.98180   1.02399   1.02425
 Alpha virt. eigenvalues --    1.03142   1.06130   1.09050   1.09967   1.13606
 Alpha virt. eigenvalues --    1.14634   1.15892   1.16110   1.18610   1.19541
 Alpha virt. eigenvalues --    1.20797   1.25163   1.28537   1.30681   1.35236
 Alpha virt. eigenvalues --    1.36522   1.38655   1.48573   1.54108   1.56437
 Alpha virt. eigenvalues --    1.57140   1.57415   1.59881   1.60631   1.60998
 Alpha virt. eigenvalues --    1.61489   1.62485   1.63994   1.64592   1.65684
 Alpha virt. eigenvalues --    1.66589   1.67337   1.71013   1.71515   1.74984
 Alpha virt. eigenvalues --    1.75833   1.77773   1.82437   1.82805   1.85092
 Alpha virt. eigenvalues --    1.86656   1.88706   1.90902   1.92402   1.94296
 Alpha virt. eigenvalues --    1.99727   2.00993   2.01721   2.02538   2.09206
 Alpha virt. eigenvalues --    2.12868   2.13583   2.14678   2.15361   2.17384
 Alpha virt. eigenvalues --    2.21753   2.22829   2.28739   2.32800   2.35044
 Alpha virt. eigenvalues --    2.35402   2.36378   2.36450   2.37959   2.38758
 Alpha virt. eigenvalues --    2.39508   2.42762   2.44425   2.45012   2.46165
 Alpha virt. eigenvalues --    2.46595   2.49475   2.52118   2.53898   2.56507
 Alpha virt. eigenvalues --    2.56670   2.57576   2.58822   2.60094   2.61694
 Alpha virt. eigenvalues --    2.62358   2.63320   2.65166   2.65585   2.70091
 Alpha virt. eigenvalues --    2.71529   2.72101   2.72810   2.74383   2.76582
 Alpha virt. eigenvalues --    2.79744   2.80925   2.85308   2.88725   2.90698
 Alpha virt. eigenvalues --    2.91232   2.95827   2.99868   3.03432   3.03870
 Alpha virt. eigenvalues --    3.07748   3.11176   3.12324   3.13654   3.14432
 Alpha virt. eigenvalues --    3.20429   3.21102   3.22005   3.22893   3.24908
 Alpha virt. eigenvalues --    3.25301   3.29722   3.30998   3.32075   3.34422
 Alpha virt. eigenvalues --    3.34685   3.35529   3.38944   3.39903   3.43135
 Alpha virt. eigenvalues --    3.43301   3.44677   3.46899   3.48418   3.50928
 Alpha virt. eigenvalues --    3.50962   3.53600   3.54539   3.56730   3.58630
 Alpha virt. eigenvalues --    3.62899   3.64785   3.69145   3.69447   3.71736
 Alpha virt. eigenvalues --    3.73732   3.77728   3.85738   3.88933   3.89239
 Alpha virt. eigenvalues --    3.92394   3.95650   3.98174   4.01728   4.03102
 Alpha virt. eigenvalues --    4.04491   4.11677   4.15415   4.17742   4.23792
 Alpha virt. eigenvalues --    4.23976   4.32071   4.32508   4.37044   4.37252
 Alpha virt. eigenvalues --    4.42625   4.43407   4.46054   4.52098   4.56375
 Alpha virt. eigenvalues --    4.59540   4.62624   4.64477   4.67867   4.76187
 Alpha virt. eigenvalues --    4.78332   4.82674   5.00784   5.04196  22.40064
 Alpha virt. eigenvalues --   22.42497  22.47371  22.52589  22.61348  22.69627
          Condensed to atoms (all electrons):
               1          2          3          4          5          6
     1  C    5.059030   0.409455   0.424559   0.421189   0.252269  -0.046732
     2  H    0.409455   0.549595  -0.031553  -0.024102  -0.047881   0.007600
     3  H    0.424559  -0.031553   0.543884  -0.024296  -0.042012  -0.004368
     4  H    0.421189  -0.024102  -0.024296   0.530471  -0.048194  -0.003749
     5  C    0.252269  -0.047881  -0.042012  -0.048194   5.196980   0.417059
     6  H   -0.046732   0.007600  -0.004368  -0.003749   0.417059   0.553616
     7  H   -0.033989  -0.004286   0.006570  -0.005942   0.431442  -0.028471
     8  C   -0.055565   0.003415  -0.013508   0.011618   0.262747  -0.022486
     9  H   -0.010227   0.003212   0.000831  -0.000111  -0.043269   0.008659
    10  C    0.012765  -0.000249  -0.000539  -0.000685  -0.071348  -0.008472
    11  H   -0.000217   0.000153  -0.000032  -0.000038  -0.005990   0.000103
    12  H   -0.000274  -0.000018   0.000063   0.000010  -0.008473   0.004058
    13  C   -0.000805   0.000009  -0.000026   0.000031   0.012765  -0.000274
    14  H   -0.000026   0.000004  -0.000002   0.000000  -0.000539   0.000063
    15  H    0.000031   0.000000   0.000000  -0.000001  -0.000685   0.000010
    16  H    0.000009  -0.000012   0.000004   0.000000  -0.000249  -0.000018
    17  C    0.013557  -0.003853   0.004499  -0.000284  -0.055038  -0.019092
    18  H    0.001521   0.000088  -0.005348   0.000230  -0.009355   0.000498
    19  H   -0.002431   0.000279  -0.000083  -0.000073  -0.006067   0.005332
    20  H   -0.000382  -0.000105   0.000170   0.000025   0.009834  -0.000186
               7          8          9         10         11         12
     1  C   -0.033989  -0.055565  -0.010227   0.012765  -0.000217  -0.000274
     2  H   -0.004286   0.003415   0.003212  -0.000249   0.000153  -0.000018
     3  H    0.006570  -0.013508   0.000831  -0.000539  -0.000032   0.000063
     4  H   -0.005942   0.011618  -0.000111  -0.000685  -0.000038   0.000010
     5  C    0.431442   0.262747  -0.043269  -0.071348  -0.005990  -0.008473
     6  H   -0.028471  -0.022486   0.008659  -0.008472   0.000103   0.004058
     7  H    0.560615  -0.060906  -0.004287  -0.005990   0.002401   0.000103
     8  C   -0.060906   5.287791   0.451261   0.262747  -0.060906  -0.022486
     9  H   -0.004287   0.451261   0.588591  -0.043269  -0.004287   0.008659
    10  C   -0.005990   0.262747  -0.043269   5.196978   0.431443   0.417059
    11  H    0.002401  -0.060906  -0.004287   0.431443   0.560616  -0.028471
    12  H    0.000103  -0.022486   0.008659   0.417059  -0.028471   0.553616
    13  C   -0.000217  -0.055565  -0.010227   0.252270  -0.033990  -0.046732
    14  H   -0.000032  -0.013507   0.000831  -0.042012   0.006570  -0.004368
    15  H   -0.000038   0.011618  -0.000111  -0.048195  -0.005942  -0.003749
    16  H    0.000153   0.003415   0.003212  -0.047880  -0.004286   0.007600
    17  C    0.011216   0.241052  -0.080245  -0.055037   0.011216  -0.019092
    18  H   -0.000302  -0.043756  -0.003958   0.009834  -0.000320  -0.000186
    19  H   -0.000075  -0.027630   0.009578  -0.006067  -0.000075   0.005332
    20  H   -0.000320  -0.043756  -0.003958  -0.009354  -0.000302   0.000498
              13         14         15         16         17         18
     1  C   -0.000805  -0.000026   0.000031   0.000009   0.013557   0.001521
     2  H    0.000009   0.000004   0.000000  -0.000012  -0.003853   0.000088
     3  H   -0.000026  -0.000002   0.000000   0.000004   0.004499  -0.005348
     4  H    0.000031   0.000000  -0.000001   0.000000  -0.000284   0.000230
     5  C    0.012765  -0.000539  -0.000685  -0.000249  -0.055038  -0.009355
     6  H   -0.000274   0.000063   0.000010  -0.000018  -0.019092   0.000498
     7  H   -0.000217  -0.000032  -0.000038   0.000153   0.011216  -0.000302
     8  C   -0.055565  -0.013507   0.011618   0.003415   0.241052  -0.043756
     9  H   -0.010227   0.000831  -0.000111   0.003212  -0.080245  -0.003958
    10  C    0.252270  -0.042012  -0.048195  -0.047880  -0.055037   0.009834
    11  H   -0.033990   0.006570  -0.005942  -0.004286   0.011216  -0.000320
    12  H   -0.046732  -0.004368  -0.003749   0.007600  -0.019092  -0.000186
    13  C    5.059028   0.424558   0.421189   0.409455   0.013555  -0.000382
    14  H    0.424558   0.543884  -0.024297  -0.031553   0.004499   0.000170
    15  H    0.421189  -0.024297   0.530471  -0.024102  -0.000284   0.000025
    16  H    0.409455  -0.031553  -0.024102   0.549595  -0.003852  -0.000105
    17  C    0.013555   0.004499  -0.000284  -0.003852   5.163640   0.422524
    18  H   -0.000382   0.000170   0.000025  -0.000105   0.422524   0.530177
    19  H   -0.002431  -0.000083  -0.000073   0.000279   0.389549  -0.026133
    20  H    0.001520  -0.005347   0.000230   0.000088   0.422523  -0.022640
              19         20
     1  C   -0.002431  -0.000382
     2  H    0.000279  -0.000105
     3  H   -0.000083   0.000170
     4  H   -0.000073   0.000025
     5  C   -0.006067   0.009834
     6  H    0.005332  -0.000186
     7  H   -0.000075  -0.000320
     8  C   -0.027630  -0.043756
     9  H    0.009578  -0.003958
    10  C   -0.006067  -0.009354
    11  H   -0.000075  -0.000302
    12  H    0.005332   0.000498
    13  C   -0.002431   0.001520
    14  H   -0.000083  -0.005347
    15  H   -0.000073   0.000230
    16  H    0.000279   0.000088
    17  C    0.389549   0.422523
    18  H   -0.026133  -0.022640
    19  H    0.543934  -0.026133
    20  H   -0.026133   0.530178
 Mulliken charges:
               1
     1  C   -0.443735
     2  H    0.138249
     3  H    0.141188
     4  H    0.143902
     5  C   -0.243996
     6  H    0.136850
     7  H    0.132354
     8  C   -0.115594
     9  H    0.129114
    10  C   -0.243996
    11  H    0.132354
    12  H    0.136850
    13  C   -0.443734
    14  H    0.141187
    15  H    0.143902
    16  H    0.138248
    17  C   -0.461052
    18  H    0.147420
    19  H    0.143072
    20  H    0.147419
 Sum of Mulliken charges =   0.00000
 Mulliken charges with hydrogens summed into heavy atoms:
               1
     1  C   -0.020397
     5  C    0.025208
     8  C    0.013521
    10  C    0.025207
    13  C   -0.020397
    17  C   -0.023141
 Electronic spatial extent (au):  <R**2>=            858.9761
 Charge=              0.0000 electrons
 Dipole moment (field-independent basis, Debye):
    X=              0.0000    Y=             -0.1104    Z=             -0.0233  Tot=              0.1129
 Quadrupole moment (field-independent basis, Debye-Ang):
   XX=            -42.7510   YY=            -42.2908   ZZ=            -41.9849
   XY=              0.0000   XZ=              0.0000   YZ=              0.2060
 Traceless Quadrupole moment (field-independent basis, Debye-Ang):
   XX=             -0.4087   YY=              0.0514   ZZ=              0.3573
   XY=              0.0000   XZ=              0.0000   YZ=              0.2060
 Octapole moment (field-independent basis, Debye-Ang**2):
  XXX=              0.0000  YYY=             -1.4958  ZZZ=             -0.1733  XYY=              0.0000
  XXY=             -1.0719  XXZ=              1.4929  XZZ=              0.0000  YZZ=             -0.0820
  YYZ=             -0.6526  XYZ=              0.0000
 Hexadecapole moment (field-independent basis, Debye-Ang**3):
 XXXX=           -866.8320 YYYY=           -254.0266 ZZZZ=           -108.7017 XXXY=              0.0001
 XXXZ=              0.0001 YYYX=              0.0001 YYYZ=              0.0033 ZZZX=              0.0000
 ZZZY=              1.5314 XXYY=           -179.3972 XXZZ=           -163.6419 YYZZ=            -63.4838
 XXYZ=             -1.3670 YYXZ=              0.0000 ZZXY=             -0.0001
 N-N= 2.553004820573D+02 E-N=-1.058325531056D+03  KE= 2.355352312495D+02
 No NMR shielding tensors so no spin-rotation constants.
 Leave Link  601 at Mon Oct  5 16:20:12 2015, MaxMem=   805306368 cpu:         1.3
 (Enter /home/hetanjin/apps/g09D01/g09/l9999.exe)
 1\1\GINC-COMPUTE-0-7\SP\RM062X\def2TZVP\C6H14\HETANJIN\05-Oct-2015\0\\
 #p M062X/def2TZVP\\using B3LYP/6-31G(d) to do opt and freq calc.\\0,1\
 C,0,-2.585432,-0.173063,-0.291849\H,0,-2.569458,-0.210592,-1.388477\H,
 0,-2.798673,0.860561,0.001587\H,0,-3.426358,-0.788597,0.047878\C,0,-1.
 264298,-0.681121,0.297502\H,0,-1.305088,-0.618252,1.395357\H,0,-1.1619
 23,-1.749281,0.059899\C,0,0.000001,0.051166,-0.198829\H,0,0.000003,0.0
 01388,-1.300329\C,0,1.2643,-0.681115,0.297508\H,0,1.161927,-1.749278,0
 .059916\H,0,1.305092,-0.618234,1.395362\C,0,2.585433,-0.173062,-0.2918
 51\H,0,2.798671,0.860567,0.001568\H,0,3.426361,-0.788588,0.047886\H,0,
 2.569459,-0.210609,-1.388479\C,0,-0.000004,1.533363,0.207287\H,0,-0.88
 093,2.058937,-0.175897\H,0,-0.000012,1.636037,1.301012\H,0,0.880926,2.
 058939,-0.175885\\Version=ES64L-G09RevD.01\State=1-A\HF=-237.0323459\R
 MSD=5.438e-09\Dipole=0.,-0.0434462,-0.0091729\Quadrupole=-0.3038865,0.
 0382399,0.2656466,0.0000005,0.0000037,0.1531925\PG=C01 [X(C6H14)]\\@


 MEMORIES ARE LIKE AN ENGLISH GRAMMER LESSON -
 PRESENT TENSE, AND PAST PERFECT.
 Job cpu time:       0 days  0 hours  5 minutes 25.5 seconds.
 File lengths (MBytes):  RWF=     30 Int=      0 D2E=      0 Chk=      4 Scr=      1
 Normal termination of Gaussian 09 at Mon Oct  5 16:20:13 2015.
