 Entering Gaussian System, Link 0=/share/apps/g09/g09
 Input=C6H14_3_01_1_opt_PM6.gjf
 Output=C6H14_3_01_1_opt_PM6.log
 Initial command:
 /share/apps/g09/l1.exe /state/partition1/Gau-19939.inp -scrdir=/state/partition1/
 Entering Link 1 = /share/apps/g09/l1.exe PID=     19943.
  
 Copyright (c) 1988,1990,1992,1993,1995,1998,2003,2009, Gaussian, Inc.
                  All Rights Reserved.
  
 This is part of the Gaussian(R) 09 program.  It is based on
 the Gaussian(R) 03 system (copyright 2003, Gaussian, Inc.),
 the Gaussian(R) 98 system (copyright 1998, Gaussian, Inc.),
 the Gaussian(R) 94 system (copyright 1995, Gaussian, Inc.),
 the Gaussian 92(TM) system (copyright 1992, Gaussian, Inc.),
 the Gaussian 90(TM) system (copyright 1990, Gaussian, Inc.),
 the Gaussian 88(TM) system (copyright 1988, Gaussian, Inc.),
 the Gaussian 86(TM) system (copyright 1986, Carnegie Mellon
 University), and the Gaussian 82(TM) system (copyright 1983,
 Carnegie Mellon University). Gaussian is a federally registered
 trademark of Gaussian, Inc.
  
 This software contains proprietary and confidential information,
 including trade secrets, belonging to Gaussian, Inc.
  
 This software is provided under written license and may be
 used, copied, transmitted, or stored only in accord with that
 written license.
  
 The following legend is applicable only to US Government
 contracts under FAR:
  
                    RESTRICTED RIGHTS LEGEND
  
 Use, reproduction and disclosure by the US Government is
 subject to restrictions as set forth in subparagraphs (a)
 and (c) of the Commercial Computer Software - Restricted
 Rights clause in FAR 52.227-19.
  
 Gaussian, Inc.
 340 Quinnipiac St., Bldg. 40, Wallingford CT 06492
  
  
 ---------------------------------------------------------------
 Warning -- This program may not be used in any manner that
 competes with the business of Gaussian, Inc. or will provide
 assistance to any competitor of Gaussian, Inc.  The licensee
 of this program is prohibited from giving any competitor of
 Gaussian, Inc. access to this program.  By using this program,
 the user acknowledges that Gaussian, Inc. is engaged in the
 business of creating and licensing software in the field of
 computational chemistry and represents and warrants to the
 licensee that it is not a competitor of Gaussian, Inc. and that
 it will not use this program in any manner prohibited above.
 ---------------------------------------------------------------
  

 Cite this work as:
 Gaussian 09, Revision A.01,
 M. J. Frisch, G. W. Trucks, H. B. Schlegel, G. E. Scuseria, 
 M. A. Robb, J. R. Cheeseman, G. Scalmani, V. Barone, B. Mennucci, 
 G. A. Petersson, H. Nakatsuji, M. Caricato, X. Li, H. P. Hratchian, 
 A. F. Izmaylov, J. Bloino, G. Zheng, J. L. Sonnenberg, M. Hada, 
 M. Ehara, K. Toyota, R. Fukuda, J. Hasegawa, M. Ishida, T. Nakajima, 
 Y. Honda, O. Kitao, H. Nakai, T. Vreven, J. A. Montgomery, Jr., 
 J. E. Peralta, F. Ogliaro, M. Bearpark, J. J. Heyd, E. Brothers, 
 K. N. Kudin, V. N. Staroverov, R. Kobayashi, J. Normand, 
 K. Raghavachari, A. Rendell, J. C. Burant, S. S. Iyengar, J. Tomasi, 
 M. Cossi, N. Rega, J. M. Millam, M. Klene, J. E. Knox, J. B. Cross, 
 V. Bakken, C. Adamo, J. Jaramillo, R. Gomperts, R. E. Stratmann, 
 O. Yazyev, A. J. Austin, R. Cammi, C. Pomelli, J. W. Ochterski, 
 R. L. Martin, K. Morokuma, V. G. Zakrzewski, G. A. Voth, 
 P. Salvador, J. J. Dannenberg, S. Dapprich, A. D. Daniels, 
 O. Farkas, J. B. Foresman, J. V. Ortiz, J. Cioslowski, 
 and D. J. Fox, Gaussian, Inc., Wallingford CT, 2009.
 
 ******************************************
 Gaussian 09:  EM64L-G09RevA.01  8-May-2009
                14-Sep-2015 
 ******************************************
 %mem=3GB
 %nprocshared=2
 Will use up to    2 processors via shared memory.
 %chk=C6H14_3_01_1_opt_PM6.chk
 ----------
 #p PM6 opt
 ----------
 1/14=-1,18=20,19=15,26=1,38=1/1,3;
 2/9=110,12=2,17=6,18=5,40=1/2;
 3/5=2,16=1,25=1,41=3900000,71=1/1,2,3;
 4/35=1/1;
 5/5=2,35=1,38=5/2;
 6/7=2,8=2,9=2,10=2,28=1/1;
 7//1,2,3,16;
 1/14=-1,18=20,19=15/3(2);
 2/9=110/2;
 99//99;
 2/9=110/2;
 3/5=2,16=1,25=1,41=3900000,71=1,135=20/1,2,3;
 4/5=5,16=3,35=1/1;
 5/5=2,35=1,38=5/2;
 7//1,2,3,16;
 1/14=-1,18=20,19=15/3(-5);
 2/9=110/2;
 6/7=2,8=2,9=2,10=2,19=2,28=1/1;
 99/9=1/99;
 Leave Link    1 at Mon Sep 14 19:12:18 2015, MaxMem=  402653184 cpu:       0.8
 (Enter /share/apps/g09/l101.exe)
 ----------------------------------
 using PM6 to do opt and freq calc.
 ----------------------------------
 Symbolic Z-matrix:
 Charge =  0 Multiplicity = 1
 C                    -2.6113   -0.1515   -0.5436 
 H                    -2.4362   -0.119    -1.6429 
 H                    -2.8355    0.8747   -0.1765 
 H                    -3.4992   -0.7936   -0.3448 
 C                    -1.393    -0.7334    0.1747 
 H                    -1.5956   -0.7281    1.2707 
 H                    -1.2988   -1.7963   -0.1489 
 C                    -0.0665    0.0047   -0.1225 
 H                     0.0135    0.1141   -1.2304 
 C                     1.1722   -0.821     0.3 
 H                     2.0939   -0.2727   -0.0053 
 H                     1.1698   -1.7849   -0.2605 
 C                     1.2836   -1.143     1.7923 
 H                     0.4221   -1.7625    2.1278 
 H                     2.2188   -1.7193    1.9751 
 H                     1.3245   -0.2103    2.3975 
 C                    -0.0367    1.4276    0.4619 
 H                    -0.7999    2.0683   -0.0336 
 H                    -0.2433    1.4136    1.5559 
 H                     0.9586    1.8978    0.291 
 
 NAtoms=     20 NQM=     20 NQMF=      0 NMic=      0 NMicF=      0 NTot=     20.
                    Isotopes and Nuclear Properties:
 (Nuclear quadrupole moments (NQMom) in fm**2, nuclear magnetic moments (NMagM)
  in nuclear magnetons)

  Atom         1           2           3           4           5           6           7           8           9          10
 IAtWgt=          12           1           1           1          12           1           1          12           1          12
 AtmWgt=  12.0000000   1.0078250   1.0078250   1.0078250  12.0000000   1.0078250   1.0078250  12.0000000   1.0078250  12.0000000
 NucSpn=           0           1           1           1           0           1           1           0           1           0
 AtZEff=   0.0000000   0.0000000   0.0000000   0.0000000   0.0000000   0.0000000   0.0000000   0.0000000   0.0000000   0.0000000
 NQMom=    0.0000000   0.0000000   0.0000000   0.0000000   0.0000000   0.0000000   0.0000000   0.0000000   0.0000000   0.0000000
 NMagM=    0.0000000   2.7928460   2.7928460   2.7928460   0.0000000   2.7928460   2.7928460   0.0000000   2.7928460   0.0000000

  Atom        11          12          13          14          15          16          17          18          19          20
 IAtWgt=           1           1          12           1           1           1          12           1           1           1
 AtmWgt=   1.0078250   1.0078250  12.0000000   1.0078250   1.0078250   1.0078250  12.0000000   1.0078250   1.0078250   1.0078250
 NucSpn=           1           1           0           1           1           1           0           1           1           1
 AtZEff=   0.0000000   0.0000000   0.0000000   0.0000000   0.0000000   0.0000000   0.0000000   0.0000000   0.0000000   0.0000000
 NQMom=    0.0000000   0.0000000   0.0000000   0.0000000   0.0000000   0.0000000   0.0000000   0.0000000   0.0000000   0.0000000
 NMagM=    2.7928460   2.7928460   0.0000000   2.7928460   2.7928460   2.7928460   0.0000000   2.7928460   2.7928460   2.7928460
 Leave Link  101 at Mon Sep 14 19:12:20 2015, MaxMem=  402653184 cpu:       0.1
 (Enter /share/apps/g09/l103.exe)

 GradGradGradGradGradGradGradGradGradGradGradGradGradGradGradGradGradGrad
 Berny optimization.
 Initialization pass.
                           ----------------------------
                           !    Initial Parameters    !
                           ! (Angstroms and Degrees)  !
 --------------------------                            --------------------------
 ! Name  Definition              Value          Derivative Info.                !
 --------------------------------------------------------------------------------
 ! R1    R(1,2)                  1.1136         estimate D2E/DX2                !
 ! R2    R(1,3)                  1.1127         estimate D2E/DX2                !
 ! R3    R(1,4)                  1.1136         estimate D2E/DX2                !
 ! R4    R(1,5)                  1.5293         estimate D2E/DX2                !
 ! R5    R(5,6)                  1.1146         estimate D2E/DX2                !
 ! R6    R(5,7)                  1.1151         estimate D2E/DX2                !
 ! R7    R(5,8)                  1.5468         estimate D2E/DX2                !
 ! R8    R(8,9)                  1.1162         estimate D2E/DX2                !
 ! R9    R(8,10)                 1.5475         estimate D2E/DX2                !
 ! R10   R(8,17)                 1.5385         estimate D2E/DX2                !
 ! R11   R(10,11)                1.1151         estimate D2E/DX2                !
 ! R12   R(10,12)                1.115          estimate D2E/DX2                !
 ! R13   R(10,13)                1.5307         estimate D2E/DX2                !
 ! R14   R(13,14)                1.1129         estimate D2E/DX2                !
 ! R15   R(13,15)                1.1136         estimate D2E/DX2                !
 ! R16   R(13,16)                1.1126         estimate D2E/DX2                !
 ! R17   R(17,18)                1.1129         estimate D2E/DX2                !
 ! R18   R(17,19)                1.1134         estimate D2E/DX2                !
 ! R19   R(17,20)                1.114          estimate D2E/DX2                !
 ! A1    A(2,1,3)              109.2953         estimate D2E/DX2                !
 ! A2    A(2,1,4)              108.5666         estimate D2E/DX2                !
 ! A3    A(2,1,5)              110.4561         estimate D2E/DX2                !
 ! A4    A(3,1,4)              108.1926         estimate D2E/DX2                !
 ! A5    A(3,1,5)              110.8836         estimate D2E/DX2                !
 ! A6    A(4,1,5)              109.3853         estimate D2E/DX2                !
 ! A7    A(1,5,6)              108.3754         estimate D2E/DX2                !
 ! A8    A(1,5,7)              107.079          estimate D2E/DX2                !
 ! A9    A(1,5,8)              114.2897         estimate D2E/DX2                !
 ! A10   A(6,5,7)              107.7739         estimate D2E/DX2                !
 ! A11   A(6,5,8)              110.0317         estimate D2E/DX2                !
 ! A12   A(7,5,8)              109.0651         estimate D2E/DX2                !
 ! A13   A(5,8,9)              107.3943         estimate D2E/DX2                !
 ! A14   A(5,8,10)             112.2953         estimate D2E/DX2                !
 ! A15   A(5,8,17)             112.6397         estimate D2E/DX2                !
 ! A16   A(9,8,10)             105.4223         estimate D2E/DX2                !
 ! A17   A(9,8,17)             106.5587         estimate D2E/DX2                !
 ! A18   A(10,8,17)            111.9791         estimate D2E/DX2                !
 ! A19   A(8,10,11)            108.9372         estimate D2E/DX2                !
 ! A20   A(8,10,12)            108.8018         estimate D2E/DX2                !
 ! A21   A(8,10,13)            115.892          estimate D2E/DX2                !
 ! A22   A(11,10,12)           106.8115         estimate D2E/DX2                !
 ! A23   A(11,10,13)           108.0718         estimate D2E/DX2                !
 ! A24   A(12,10,13)           107.9614         estimate D2E/DX2                !
 ! A25   A(10,13,14)           110.773          estimate D2E/DX2                !
 ! A26   A(10,13,15)           109.2695         estimate D2E/DX2                !
 ! A27   A(10,13,16)           110.8936         estimate D2E/DX2                !
 ! A28   A(14,13,15)           108.2118         estimate D2E/DX2                !
 ! A29   A(14,13,16)           109.3371         estimate D2E/DX2                !
 ! A30   A(15,13,16)           108.2804         estimate D2E/DX2                !
 ! A31   A(8,17,18)            110.4899         estimate D2E/DX2                !
 ! A32   A(8,17,19)            110.9771         estimate D2E/DX2                !
 ! A33   A(8,17,20)            110.451          estimate D2E/DX2                !
 ! A34   A(18,17,19)           108.5096         estimate D2E/DX2                !
 ! A35   A(18,17,20)           107.5431         estimate D2E/DX2                !
 ! A36   A(19,17,20)           108.7739         estimate D2E/DX2                !
 ! D1    D(2,1,5,6)            178.7112         estimate D2E/DX2                !
 ! D2    D(2,1,5,7)            -65.2767         estimate D2E/DX2                !
 ! D3    D(2,1,5,8)             55.6242         estimate D2E/DX2                !
 ! D4    D(3,1,5,6)             57.393          estimate D2E/DX2                !
 ! D5    D(3,1,5,7)            173.405          estimate D2E/DX2                !
 ! D6    D(3,1,5,8)            -65.694          estimate D2E/DX2                !
 ! D7    D(4,1,5,6)            -61.8489         estimate D2E/DX2                !
 ! D8    D(4,1,5,7)             54.1632         estimate D2E/DX2                !
 ! D9    D(4,1,5,8)            175.0641         estimate D2E/DX2                !
 ! D10   D(1,5,8,9)            -49.1098         estimate D2E/DX2                !
 ! D11   D(1,5,8,10)          -164.5548         estimate D2E/DX2                !
 ! D12   D(1,5,8,17)            67.9066         estimate D2E/DX2                !
 ! D13   D(6,5,8,9)           -171.296          estimate D2E/DX2                !
 ! D14   D(6,5,8,10)            73.2591         estimate D2E/DX2                !
 ! D15   D(6,5,8,17)           -54.2795         estimate D2E/DX2                !
 ! D16   D(7,5,8,9)             70.6841         estimate D2E/DX2                !
 ! D17   D(7,5,8,10)           -44.7608         estimate D2E/DX2                !
 ! D18   D(7,5,8,17)          -172.2994         estimate D2E/DX2                !
 ! D19   D(5,8,10,11)          175.9341         estimate D2E/DX2                !
 ! D20   D(5,8,10,12)           59.8415         estimate D2E/DX2                !
 ! D21   D(5,8,10,13)          -61.9864         estimate D2E/DX2                !
 ! D22   D(9,8,10,11)           59.3005         estimate D2E/DX2                !
 ! D23   D(9,8,10,12)          -56.7921         estimate D2E/DX2                !
 ! D24   D(9,8,10,13)         -178.6199         estimate D2E/DX2                !
 ! D25   D(17,8,10,11)         -56.1768         estimate D2E/DX2                !
 ! D26   D(17,8,10,12)        -172.2694         estimate D2E/DX2                !
 ! D27   D(17,8,10,13)          65.9027         estimate D2E/DX2                !
 ! D28   D(5,8,17,18)          -65.2036         estimate D2E/DX2                !
 ! D29   D(5,8,17,19)           55.2096         estimate D2E/DX2                !
 ! D30   D(5,8,17,20)          175.9294         estimate D2E/DX2                !
 ! D31   D(9,8,17,18)           52.3078         estimate D2E/DX2                !
 ! D32   D(9,8,17,19)          172.721          estimate D2E/DX2                !
 ! D33   D(9,8,17,20)          -66.5592         estimate D2E/DX2                !
 ! D34   D(10,8,17,18)         167.0909         estimate D2E/DX2                !
 ! D35   D(10,8,17,19)         -72.4959         estimate D2E/DX2                !
 ! D36   D(10,8,17,20)          48.2239         estimate D2E/DX2                !
 ! D37   D(8,10,13,14)          61.9765         estimate D2E/DX2                !
 ! D38   D(8,10,13,15)        -178.8991         estimate D2E/DX2                !
 ! D39   D(8,10,13,16)         -59.616          estimate D2E/DX2                !
 ! D40   D(11,10,13,14)       -175.4859         estimate D2E/DX2                !
 ! D41   D(11,10,13,15)        -56.3615         estimate D2E/DX2                !
 ! D42   D(11,10,13,16)         62.9215         estimate D2E/DX2                !
 ! D43   D(12,10,13,14)        -60.2974         estimate D2E/DX2                !
 ! D44   D(12,10,13,15)         58.827          estimate D2E/DX2                !
 ! D45   D(12,10,13,16)        178.11           estimate D2E/DX2                !
 --------------------------------------------------------------------------------
 Trust Radius=3.00D-01 FncErr=1.00D-07 GrdErr=1.00D-07
 Number of steps in this run= 110 maximum allowed number of steps= 120.
 GradGradGradGradGradGradGradGradGradGradGradGradGradGradGradGradGradGrad

 Leave Link  103 at Mon Sep 14 19:12:20 2015, MaxMem=  402653184 cpu:       0.0
 (Enter /share/apps/g09/l202.exe)
                          Input orientation:                          
 ---------------------------------------------------------------------
 Center     Atomic      Atomic             Coordinates (Angstroms)
 Number     Number       Type             X           Y           Z
 ---------------------------------------------------------------------
      1          6           0       -2.611300   -0.151500   -0.543600
      2          1           0       -2.436200   -0.119000   -1.642900
      3          1           0       -2.835500    0.874700   -0.176500
      4          1           0       -3.499200   -0.793600   -0.344800
      5          6           0       -1.393000   -0.733400    0.174700
      6          1           0       -1.595600   -0.728100    1.270700
      7          1           0       -1.298800   -1.796300   -0.148900
      8          6           0       -0.066500    0.004700   -0.122500
      9          1           0        0.013500    0.114100   -1.230400
     10          6           0        1.172200   -0.821000    0.300000
     11          1           0        2.093900   -0.272700   -0.005300
     12          1           0        1.169800   -1.784900   -0.260500
     13          6           0        1.283600   -1.143000    1.792300
     14          1           0        0.422100   -1.762500    2.127800
     15          1           0        2.218800   -1.719300    1.975100
     16          1           0        1.324500   -0.210300    2.397500
     17          6           0       -0.036700    1.427600    0.461900
     18          1           0       -0.799900    2.068300   -0.033600
     19          1           0       -0.243300    1.413600    1.555900
     20          1           0        0.958600    1.897800    0.291000
 ---------------------------------------------------------------------
                    Distance matrix (angstroms):
                    1          2          3          4          5
     1  C    0.000000
     2  H    1.113632   0.000000
     3  H    1.112706   1.815822   0.000000
     4  H    1.113634   1.808347   1.803343   0.000000
     5  C    1.529319   2.183901   2.188637   2.170157   0.000000
     6  H    2.157730   3.093004   2.490122   2.497564   1.114581
     7  H    2.140984   2.517747   3.081631   2.426014   1.115055
     8  C    2.584131   2.818226   2.902960   3.531307   1.546842
     9  H    2.726135   2.495100   3.131456   3.734604   2.161204
    10  C    3.933798   4.157910   4.377683   4.715771   2.569752
    11  H    4.737443   4.819457   5.064072   5.627554   3.521806
    12  H    4.128542   4.205887   4.808634   4.773819   2.804103
    13  C    4.648629   5.165858   4.991420   5.250186   3.154138
    14  H    4.351231   5.008907   4.782947   4.735938   2.858012
    15  H    5.668484   6.109002   6.074880   6.239742   4.154340
    16  H    4.913659   5.520510   5.010818   5.579295   3.549546
    17  C    3.183261   3.546795   2.923446   4.192064   2.567480
    18  H    2.910117   3.170427   2.364058   3.946332   2.871355
    19  H    3.530561   4.170131   3.164036   4.368670   2.799845
    20  H    4.200044   4.396831   3.957333   5.245937   3.530830
                    6          7          8          9         10
     6  H    0.000000
     7  H    1.801223   0.000000
     8  C    2.194573   2.182398   0.000000
     9  H    3.090955   2.557616   1.116159   0.000000
    10  C    2.934554   2.694172   1.547470   2.135210   0.000000
    11  H    3.930391   3.721880   2.181287   2.445107   1.115066
    12  H    3.332992   2.471148   2.179484   2.425683   1.115020
    13  C    2.955334   3.296035   2.608916   3.511434   1.530704
    14  H    2.423988   2.854120   2.902684   3.868603   2.188590
    15  H    4.003536   4.109844   3.548901   4.301155   2.169856
    16  H    3.172504   3.985129   2.886435   3.871126   2.189899
    17  C    2.780534   3.515609   1.538524   2.142821   2.558096
    18  H    3.186564   3.898375   2.191854   2.431635   3.514046
    19  H    2.548908   3.784690   2.198473   3.085144   2.928201
    20  H    3.791978   4.351522   2.192177   2.527738   2.727193
                   11         12         13         14         15
    11  H    0.000000
    12  H    1.790485   0.000000
    13  C    2.155313   2.153828   0.000000
    14  H    3.092658   2.502705   1.112889   0.000000
    15  H    2.455654   2.470346   1.113614   1.803695   0.000000
    16  H    2.523751   3.093261   1.112596   1.815596   1.804238
    17  C    2.765638   3.506802   3.181374   3.628010   4.156926
    18  H    3.722252   4.333400   4.241147   4.565081   5.243409
    19  H    3.277721   3.940376   2.987225   3.295063   4.006586
    20  H    2.467341   3.729750   3.406757   4.130310   4.184221
                   16         17         18         19         20
    16  H    0.000000
    17  C    2.877869   0.000000
    18  H    3.951625   1.112875   0.000000
    19  H    2.409012   1.113425   1.806916   0.000000
    20  H    3.002551   1.113965   1.796318   1.810797   0.000000
 Stoichiometry    C6H14
 Framework group  C1[X(C6H14)]
 Deg. of freedom    54
 Full point group                 C1      NOp   1
 Largest Abelian subgroup         C1      NOp   1
 Largest concise Abelian subgroup C1      NOp   1
                         Standard orientation:                         
 ---------------------------------------------------------------------
 Center     Atomic      Atomic             Coordinates (Angstroms)
 Number     Number       Type             X           Y           Z
 ---------------------------------------------------------------------
      1          6           0        2.456128   -0.432511   -0.063742
      2          1           0        2.753690   -0.268587    0.996806
      3          1           0        2.707808    0.472410   -0.660308
      4          1           0        3.041565   -1.289304   -0.467906
      5          6           0        0.962841   -0.749055   -0.157070
      6          1           0        0.698562   -0.883073   -1.231541
      7          1           0        0.802248   -1.725272    0.357281
      8          6           0        0.044957    0.317516    0.485297
      9          1           0        0.445932    0.532687    1.504479
     10          6           0       -1.393909   -0.205311    0.711089
     11          1           0       -1.984534    0.577983    1.241167
     12          1           0       -1.352503   -1.090846    1.387390
     13          6           0       -2.163750   -0.609149   -0.548797
     14          1           0       -1.653074   -1.448624   -1.071306
     15          1           0       -3.185419   -0.947404   -0.262596
     16          1           0       -2.263809    0.252237   -1.245842
     17          6           0        0.059311    1.650938   -0.282059
     18          1           0        1.067414    2.119466   -0.230092
     19          1           0       -0.204366    1.497459   -1.352869
     20          1           0       -0.666981    2.366295    0.167032
 ---------------------------------------------------------------------
 Rotational constants (GHZ):      5.1280353      2.0885125      1.7712579
 Leave Link  202 at Mon Sep 14 19:12:20 2015, MaxMem=  402653184 cpu:       0.0
 (Enter /share/apps/g09/l301.exe)
 Standard basis: VSTO-6G (5D, 7F)
 Ernie: Thresh=  0.10000D-02 Tol=  0.10000D-05 Strict=F.
  NNHCO=     0 NNPyr=     0 NCTC=     0               EPep=         0.000000000
    EC=       129.988555872  ECS=         3.134050250   EG=         0.305408790
   EHC=         0.000407986  EAt=       -31.187935768  AtH=         2.796400831
 EPDDG=         0.000000000  ECC=       133.428422897 EAtT=        33.984336599
 There are    38 symmetry adapted basis functions of A   symmetry.
 Integral buffers will be    131072 words long.
 Regular integral format.
 Two-electron integral symmetry is turned off.
    38 basis functions,   228 primitive gaussians,    38 cartesian basis functions
    19 alpha electrons       19 beta electrons
       nuclear repulsion energy       167.4127594962 Hartrees.
 IExCor=    0 DFT=F Ex=HF Corr=None ExCW=0 ScaHFX=  1.000000
 ScaDFX=  1.000000  1.000000  1.000000  1.000000 ScalE2=  1.000000  1.000000
 IRadAn=      0 IRanWt=     -1 IRanGd=            0 ICorTp=0
 Leave Link  301 at Mon Sep 14 19:12:21 2015, MaxMem=  402653184 cpu:       0.1
 (Enter /share/apps/g09/l302.exe)
 Do NDO integrals.
 NPDir=0 NMtPBC=     1 NCelOv=     1 NCel=       1 NClECP=     1 NCelD=      1
         NCelK=      1 NCelE2=     1 NClLst=     1 CellRange=     0.0.
 One-electron integrals computed using PRISM.
 NBasis=    38 RedAO= F  NBF=    38
 NBsUse=    38 1.00D-04 NBFU=    38
 Leave Link  302 at Mon Sep 14 19:12:23 2015, MaxMem=  402653184 cpu:       0.1
 (Enter /share/apps/g09/l303.exe)
 DipDrv:  MaxL=1.
 Leave Link  303 at Mon Sep 14 19:12:23 2015, MaxMem=  402653184 cpu:       0.0
 (Enter /share/apps/g09/l401.exe)
 Simple Huckel Guess.
 Initial guess orbital symmetries:
       Occupied  (A) (A) (A) (A) (A) (A) (A) (A) (A) (A) (A) (A)
                 (A) (A) (A) (A) (A) (A) (A)
       Virtual   (A) (A) (A) (A) (A) (A) (A) (A) (A) (A) (A) (A)
                 (A) (A) (A) (A) (A) (A) (A)
 The electronic state of the initial guess is 1-A.
 Leave Link  401 at Mon Sep 14 19:12:23 2015, MaxMem=  402653184 cpu:       0.1
 (Enter /share/apps/g09/l502.exe)
 Closed shell SCF:
 Requested convergence on RMS density matrix=1.00D-08 within 128 cycles.
 Requested convergence on MAX density matrix=1.00D-06.
 Requested convergence on             energy=1.00D-06.
 No special actions if energy rises.
 Using DIIS extrapolation, IDIIS=  1040.
 Overlap will be assumed to be unity.
 Two-electron integral symmetry not used.
 Keep J ints in memory in canonical form, NReq=884654.
 IEnd=       81865 IEndB=       81865 NGot=   402653184 MDV=   402586639
 LenX=   402586639 LenY=   402584754
 Symmetry not used in FoFDir.
 MinBra= 0 MaxBra= 1 Meth=40.
 IRaf=       0 NMat=   1 IRICut=       1 DoRegI=T DoRafI=F ISym2E= 0 JSym2E=0.

 Cycle   1  Pass 1  IDiag  1:
 E= 0.733578846198952E-01
 DIIS: error= 2.19D-02 at cycle   1 NSaved=   1.
 NSaved= 1 IEnMin= 1 EnMin= 0.733578846198952E-01 IErMin= 1 ErrMin= 2.19D-02
 ErrMax= 2.19D-02 EMaxC= 1.00D-01 BMatC= 4.36D-02 BMatP= 4.36D-02
 IDIUse=3 WtCom= 7.81D-01 WtEn= 2.19D-01
 Coeff-Com:  0.100D+01
 Coeff-En:   0.100D+01
 Coeff:      0.100D+01
 GapD=    2.000 DampG=2.000 DampE=0.500 DampFc=1.0000 IDamp=-1.
 RMSDP=8.38D-03 MaxDP=6.93D-02              OVMax= 0.00D+00

 Cycle   2  Pass 1  IDiag  1:
 E=-0.420617251608348E-01 Delta-E=       -0.115419609781 Rises=F Damp=F
 DIIS: error= 5.39D-03 at cycle   2 NSaved=   2.
 NSaved= 2 IEnMin= 2 EnMin=-0.420617251608348E-01 IErMin= 2 ErrMin= 5.39D-03
 ErrMax= 5.39D-03 EMaxC= 1.00D-01 BMatC= 2.94D-03 BMatP= 4.36D-02
 IDIUse=3 WtCom= 9.46D-01 WtEn= 5.39D-02
 Coeff-Com: -0.314D+00 0.131D+01
 Coeff-En:   0.000D+00 0.100D+01
 Coeff:     -0.298D+00 0.130D+01
 RMSDP=3.03D-03 MaxDP=2.12D-02 DE=-1.15D-01 OVMax= 0.00D+00

 Cycle   3  Pass 1  IDiag  3:
 E=-0.518578133548147E-01 Delta-E=       -0.009796088194 Rises=F Damp=F
 DIIS: error= 1.55D-03 at cycle   3 NSaved=   3.
 NSaved= 3 IEnMin= 3 EnMin=-0.518578133548147E-01 IErMin= 3 ErrMin= 1.55D-03
 ErrMax= 1.55D-03 EMaxC= 1.00D-01 BMatC= 1.26D-04 BMatP= 2.94D-03
 IDIUse=3 WtCom= 9.85D-01 WtEn= 1.55D-02
 Coeff-Com:  0.226D+00-0.100D+01 0.178D+01
 Coeff-En:   0.000D+00 0.000D+00 0.100D+01
 Coeff:      0.222D+00-0.989D+00 0.177D+01
 Gap=     0.554 Goal=   None    Shift=    0.000
 RMSDP=1.09D-03 MaxDP=1.00D-02 DE=-9.80D-03 OVMax= 0.00D+00

 Cycle   4  Pass 1  IDiag  3:
 E=-0.526641457527148E-01 Delta-E=       -0.000806332398 Rises=F Damp=F
 DIIS: error= 4.54D-04 at cycle   4 NSaved=   4.
 NSaved= 4 IEnMin= 4 EnMin=-0.526641457527148E-01 IErMin= 4 ErrMin= 4.54D-04
 ErrMax= 4.54D-04 EMaxC= 1.00D-01 BMatC= 9.79D-06 BMatP= 1.26D-04
 IDIUse=3 WtCom= 9.95D-01 WtEn= 4.54D-03
 Coeff-Com: -0.113D+00 0.514D+00-0.114D+01 0.174D+01
 Coeff-En:   0.000D+00 0.000D+00 0.000D+00 0.100D+01
 Coeff:     -0.112D+00 0.512D+00-0.114D+01 0.174D+01
 Gap=     0.555 Goal=   None    Shift=    0.000
 RMSDP=3.86D-04 MaxDP=3.99D-03 DE=-8.06D-04 OVMax= 0.00D+00

 Cycle   5  Pass 1  IDiag  3:
 E=-0.527337407669108E-01 Delta-E=       -0.000069595014 Rises=F Damp=F
 DIIS: error= 1.11D-04 at cycle   5 NSaved=   5.
 NSaved= 5 IEnMin= 5 EnMin=-0.527337407669108E-01 IErMin= 5 ErrMin= 1.11D-04
 ErrMax= 1.11D-04 EMaxC= 1.00D-01 BMatC= 3.75D-07 BMatP= 9.79D-06
 IDIUse=3 WtCom= 9.99D-01 WtEn= 1.11D-03
 Coeff-Com:  0.538D-01-0.247D+00 0.576D+00-0.996D+00 0.161D+01
 Coeff-En:   0.000D+00 0.000D+00 0.000D+00 0.000D+00 0.100D+01
 Coeff:      0.537D-01-0.246D+00 0.575D+00-0.995D+00 0.161D+01
 Gap=     0.555 Goal=   None    Shift=    0.000
 RMSDP=6.37D-05 MaxDP=7.44D-04 DE=-6.96D-05 OVMax= 0.00D+00

 Cycle   6  Pass 1  IDiag  3:
 E=-0.527362646436416E-01 Delta-E=       -0.000002523877 Rises=F Damp=F
 DIIS: error= 3.39D-05 at cycle   6 NSaved=   6.
 NSaved= 6 IEnMin= 6 EnMin=-0.527362646436416E-01 IErMin= 6 ErrMin= 3.39D-05
 ErrMax= 3.39D-05 EMaxC= 1.00D-01 BMatC= 3.60D-08 BMatP= 3.75D-07
 IDIUse=1 WtCom= 1.00D+00 WtEn= 0.00D+00
 Coeff-Com: -0.693D-02 0.322D-01-0.821D-01 0.161D+00-0.488D+00 0.138D+01
 Coeff:     -0.693D-02 0.322D-01-0.821D-01 0.161D+00-0.488D+00 0.138D+01
 Gap=     0.555 Goal=   None    Shift=    0.000
 RMSDP=1.95D-05 MaxDP=2.43D-04 DE=-2.52D-06 OVMax= 0.00D+00

 Cycle   7  Pass 1  IDiag  3:
 E=-0.527365196054177E-01 Delta-E=       -0.000000254962 Rises=F Damp=F
 DIIS: error= 1.03D-05 at cycle   7 NSaved=   7.
 NSaved= 7 IEnMin= 7 EnMin=-0.527365196054177E-01 IErMin= 7 ErrMin= 1.03D-05
 ErrMax= 1.03D-05 EMaxC= 1.00D-01 BMatC= 6.09D-09 BMatP= 3.60D-08
 IDIUse=1 WtCom= 1.00D+00 WtEn= 0.00D+00
 Coeff-Com:  0.261D-02-0.123D-01 0.333D-01-0.677D-01 0.243D+00-0.105D+01
 Coeff-Com:  0.185D+01
 Coeff:      0.261D-02-0.123D-01 0.333D-01-0.677D-01 0.243D+00-0.105D+01
 Coeff:      0.185D+01
 Gap=     0.555 Goal=   None    Shift=    0.000
 RMSDP=1.02D-05 MaxDP=1.07D-04 DE=-2.55D-07 OVMax= 0.00D+00

 Cycle   8  Pass 1  IDiag  3:
 E=-0.527365707857257E-01 Delta-E=       -0.000000051180 Rises=F Damp=F
 DIIS: error= 3.84D-06 at cycle   8 NSaved=   8.
 NSaved= 8 IEnMin= 8 EnMin=-0.527365707857257E-01 IErMin= 8 ErrMin= 3.84D-06
 ErrMax= 3.84D-06 EMaxC= 1.00D-01 BMatC= 6.42D-10 BMatP= 6.09D-09
 IDIUse=1 WtCom= 1.00D+00 WtEn= 0.00D+00
 Coeff-Com: -0.859D-03 0.427D-02-0.140D-01 0.330D-01-0.153D+00 0.810D+00
 Coeff-Com: -0.173D+01 0.205D+01
 Coeff:     -0.859D-03 0.427D-02-0.140D-01 0.330D-01-0.153D+00 0.810D+00
 Coeff:     -0.173D+01 0.205D+01
 Gap=     0.555 Goal=   None    Shift=    0.000
 RMSDP=3.78D-06 MaxDP=3.71D-05 DE=-5.12D-08 OVMax= 0.00D+00

 Cycle   9  Pass 1  IDiag  3:
 E=-0.527365762042393E-01 Delta-E=       -0.000000005419 Rises=F Damp=F
 DIIS: error= 5.09D-07 at cycle   9 NSaved=   9.
 NSaved= 9 IEnMin= 9 EnMin=-0.527365762042393E-01 IErMin= 9 ErrMin= 5.09D-07
 ErrMax= 5.09D-07 EMaxC= 1.00D-01 BMatC= 1.64D-11 BMatP= 6.42D-10
 IDIUse=1 WtCom= 1.00D+00 WtEn= 0.00D+00
 Coeff-Com: -0.112D-03 0.406D-03 0.371D-03-0.354D-02 0.342D-01-0.230D+00
 Coeff-Com:  0.532D+00-0.752D+00 0.142D+01
 Coeff:     -0.112D-03 0.406D-03 0.371D-03-0.354D-02 0.342D-01-0.230D+00
 Coeff:      0.532D+00-0.752D+00 0.142D+01
 Gap=     0.555 Goal=   None    Shift=    0.000
 RMSDP=4.47D-07 MaxDP=4.43D-06 DE=-5.42D-09 OVMax= 0.00D+00

 Cycle  10  Pass 1  IDiag  3:
 E=-0.527365763041416E-01 Delta-E=       -0.000000000100 Rises=F Damp=F
 DIIS: error= 1.42D-07 at cycle  10 NSaved=  10.
 NSaved=10 IEnMin=10 EnMin=-0.527365763041416E-01 IErMin=10 ErrMin= 1.42D-07
 ErrMax= 1.42D-07 EMaxC= 1.00D-01 BMatC= 8.42D-13 BMatP= 1.64D-11
 IDIUse=1 WtCom= 1.00D+00 WtEn= 0.00D+00
 Coeff-Com:  0.162D-05 0.370D-04-0.625D-03 0.225D-02-0.155D-01 0.975D-01
 Coeff-Com: -0.223D+00 0.317D+00-0.700D+00 0.152D+01
 Coeff:      0.162D-05 0.370D-04-0.625D-03 0.225D-02-0.155D-01 0.975D-01
 Coeff:     -0.223D+00 0.317D+00-0.700D+00 0.152D+01
 Gap=     0.555 Goal=   None    Shift=    0.000
 RMSDP=8.53D-08 MaxDP=7.03D-07 DE=-9.99D-11 OVMax= 0.00D+00

 Cycle  11  Pass 1  IDiag  3:
 E=-0.527365763088312E-01 Delta-E=       -0.000000000005 Rises=F Damp=F
 DIIS: error= 4.06D-08 at cycle  11 NSaved=  11.
 NSaved=11 IEnMin=11 EnMin=-0.527365763088312E-01 IErMin=11 ErrMin= 4.06D-08
 ErrMax= 4.06D-08 EMaxC= 1.00D-01 BMatC= 5.49D-14 BMatP= 8.42D-13
 IDIUse=1 WtCom= 1.00D+00 WtEn= 0.00D+00
 Coeff-Com:  0.905D-05-0.604D-04 0.370D-03-0.113D-02 0.691D-02-0.419D-01
 Coeff-Com:  0.948D-01-0.134D+00 0.304D+00-0.854D+00 0.162D+01
 Coeff:      0.905D-05-0.604D-04 0.370D-03-0.113D-02 0.691D-02-0.419D-01
 Coeff:      0.948D-01-0.134D+00 0.304D+00-0.854D+00 0.162D+01
 Gap=     0.555 Goal=   None    Shift=    0.000
 RMSDP=2.47D-08 MaxDP=2.55D-07 DE=-4.69D-12 OVMax= 0.00D+00

 Cycle  12  Pass 1  IDiag  3:
 E=-0.527365763091154E-01 Delta-E=        0.000000000000 Rises=F Damp=F
 DIIS: error= 5.10D-09 at cycle  12 NSaved=  12.
 NSaved=12 IEnMin=12 EnMin=-0.527365763091154E-01 IErMin=12 ErrMin= 5.10D-09
 ErrMax= 5.10D-09 EMaxC= 1.00D-01 BMatC= 1.49D-15 BMatP= 5.49D-14
 IDIUse=1 WtCom= 1.00D+00 WtEn= 0.00D+00
 Coeff-Com: -0.160D-06 0.707D-05-0.931D-04 0.326D-03-0.220D-02 0.137D-01
 Coeff-Com: -0.313D-01 0.445D-01-0.103D+00 0.307D+00-0.680D+00 0.145D+01
 Coeff:     -0.160D-06 0.707D-05-0.931D-04 0.326D-03-0.220D-02 0.137D-01
 Coeff:     -0.313D-01 0.445D-01-0.103D+00 0.307D+00-0.680D+00 0.145D+01
 Gap=     0.555 Goal=   None    Shift=    0.000
 RMSDP=3.41D-09 MaxDP=3.20D-08 DE=-2.84D-13 OVMax= 0.00D+00

 Cycle  13  Pass 2  IDiag  1:
 RMSDP=3.41D-09 MaxDP=3.20D-08 DE=-2.84D-13 OVMax= 0.00D+00

 SCF Done:  E(RPM6) = -0.527365763091E-01 A.U. after   13 cycles
             Convg  =    0.3406D-08             -V/T =  0.9991
 KE=-5.615024917339D+01 PE=-2.559740709520D+02 EE= 1.446588240529D+02
 Leave Link  502 at Mon Sep 14 19:12:25 2015, MaxMem=  402653184 cpu:       1.6
 (Enter /share/apps/g09/l601.exe)
 Copying SCF densities to generalized density rwf, IOpCl= 0 IROHF=0.

 **********************************************************************

            Population analysis using the SCF density.

 **********************************************************************

 Orbital symmetries:
       Occupied  (A) (A) (A) (A) (A) (A) (A) (A) (A) (A) (A) (A)
                 (A) (A) (A) (A) (A) (A) (A)
       Virtual   (A) (A) (A) (A) (A) (A) (A) (A) (A) (A) (A) (A)
                 (A) (A) (A) (A) (A) (A) (A)
 The electronic state is 1-A.
 Alpha  occ. eigenvalues --   -1.05450  -0.96525  -0.90788  -0.82506  -0.76980
 Alpha  occ. eigenvalues --   -0.67684  -0.57889  -0.56009  -0.55146  -0.52382
 Alpha  occ. eigenvalues --   -0.48573  -0.47992  -0.47608  -0.46214  -0.44903
 Alpha  occ. eigenvalues --   -0.42484  -0.40698  -0.40482  -0.40020
 Alpha virt. eigenvalues --    0.15439   0.16242   0.16468   0.17684   0.18302
 Alpha virt. eigenvalues --    0.21161   0.21328   0.21778   0.21868   0.22321
 Alpha virt. eigenvalues --    0.22387   0.22990   0.23169   0.23683   0.24052
 Alpha virt. eigenvalues --    0.24576   0.25089   0.25322   0.25825
          Condensed to atoms (all electrons):
              1          2          3          4          5          6
     1  C    4.457812   0.000000   0.000000   0.000000   0.000000   0.000000
     2  H    0.000000   0.854676   0.000000   0.000000   0.000000   0.000000
     3  H    0.000000   0.000000   0.852780   0.000000   0.000000   0.000000
     4  H    0.000000   0.000000   0.000000   0.857769   0.000000   0.000000
     5  C    0.000000   0.000000   0.000000   0.000000   4.256610   0.000000
     6  H    0.000000   0.000000   0.000000   0.000000   0.000000   0.867082
     7  H    0.000000   0.000000   0.000000   0.000000   0.000000   0.000000
     8  C    0.000000   0.000000   0.000000   0.000000   0.000000   0.000000
     9  H    0.000000   0.000000   0.000000   0.000000   0.000000   0.000000
    10  C    0.000000   0.000000   0.000000   0.000000   0.000000   0.000000
    11  H    0.000000   0.000000   0.000000   0.000000   0.000000   0.000000
    12  H    0.000000   0.000000   0.000000   0.000000   0.000000   0.000000
    13  C    0.000000   0.000000   0.000000   0.000000   0.000000   0.000000
    14  H    0.000000   0.000000   0.000000   0.000000   0.000000   0.000000
    15  H    0.000000   0.000000   0.000000   0.000000   0.000000   0.000000
    16  H    0.000000   0.000000   0.000000   0.000000   0.000000   0.000000
    17  C    0.000000   0.000000   0.000000   0.000000   0.000000   0.000000
    18  H    0.000000   0.000000   0.000000   0.000000   0.000000   0.000000
    19  H    0.000000   0.000000   0.000000   0.000000   0.000000   0.000000
    20  H    0.000000   0.000000   0.000000   0.000000   0.000000   0.000000
              7          8          9         10         11         12
     1  C    0.000000   0.000000   0.000000   0.000000   0.000000   0.000000
     2  H    0.000000   0.000000   0.000000   0.000000   0.000000   0.000000
     3  H    0.000000   0.000000   0.000000   0.000000   0.000000   0.000000
     4  H    0.000000   0.000000   0.000000   0.000000   0.000000   0.000000
     5  C    0.000000   0.000000   0.000000   0.000000   0.000000   0.000000
     6  H    0.000000   0.000000   0.000000   0.000000   0.000000   0.000000
     7  H    0.872328   0.000000   0.000000   0.000000   0.000000   0.000000
     8  C    0.000000   4.023278   0.000000   0.000000   0.000000   0.000000
     9  H    0.000000   0.000000   0.891700   0.000000   0.000000   0.000000
    10  C    0.000000   0.000000   0.000000   4.263946   0.000000   0.000000
    11  H    0.000000   0.000000   0.000000   0.000000   0.871558   0.000000
    12  H    0.000000   0.000000   0.000000   0.000000   0.000000   0.873779
    13  C    0.000000   0.000000   0.000000   0.000000   0.000000   0.000000
    14  H    0.000000   0.000000   0.000000   0.000000   0.000000   0.000000
    15  H    0.000000   0.000000   0.000000   0.000000   0.000000   0.000000
    16  H    0.000000   0.000000   0.000000   0.000000   0.000000   0.000000
    17  C    0.000000   0.000000   0.000000   0.000000   0.000000   0.000000
    18  H    0.000000   0.000000   0.000000   0.000000   0.000000   0.000000
    19  H    0.000000   0.000000   0.000000   0.000000   0.000000   0.000000
    20  H    0.000000   0.000000   0.000000   0.000000   0.000000   0.000000
             13         14         15         16         17         18
     1  C    0.000000   0.000000   0.000000   0.000000   0.000000   0.000000
     2  H    0.000000   0.000000   0.000000   0.000000   0.000000   0.000000
     3  H    0.000000   0.000000   0.000000   0.000000   0.000000   0.000000
     4  H    0.000000   0.000000   0.000000   0.000000   0.000000   0.000000
     5  C    0.000000   0.000000   0.000000   0.000000   0.000000   0.000000
     6  H    0.000000   0.000000   0.000000   0.000000   0.000000   0.000000
     7  H    0.000000   0.000000   0.000000   0.000000   0.000000   0.000000
     8  C    0.000000   0.000000   0.000000   0.000000   0.000000   0.000000
     9  H    0.000000   0.000000   0.000000   0.000000   0.000000   0.000000
    10  C    0.000000   0.000000   0.000000   0.000000   0.000000   0.000000
    11  H    0.000000   0.000000   0.000000   0.000000   0.000000   0.000000
    12  H    0.000000   0.000000   0.000000   0.000000   0.000000   0.000000
    13  C    4.448619   0.000000   0.000000   0.000000   0.000000   0.000000
    14  H    0.000000   0.854398   0.000000   0.000000   0.000000   0.000000
    15  H    0.000000   0.000000   0.860823   0.000000   0.000000   0.000000
    16  H    0.000000   0.000000   0.000000   0.852458   0.000000   0.000000
    17  C    0.000000   0.000000   0.000000   0.000000   4.483154   0.000000
    18  H    0.000000   0.000000   0.000000   0.000000   0.000000   0.853751
    19  H    0.000000   0.000000   0.000000   0.000000   0.000000   0.000000
    20  H    0.000000   0.000000   0.000000   0.000000   0.000000   0.000000
             19         20
     1  C    0.000000   0.000000
     2  H    0.000000   0.000000
     3  H    0.000000   0.000000
     4  H    0.000000   0.000000
     5  C    0.000000   0.000000
     6  H    0.000000   0.000000
     7  H    0.000000   0.000000
     8  C    0.000000   0.000000
     9  H    0.000000   0.000000
    10  C    0.000000   0.000000
    11  H    0.000000   0.000000
    12  H    0.000000   0.000000
    13  C    0.000000   0.000000
    14  H    0.000000   0.000000
    15  H    0.000000   0.000000
    16  H    0.000000   0.000000
    17  C    0.000000   0.000000
    18  H    0.000000   0.000000
    19  H    0.849001   0.000000
    20  H    0.000000   0.854478
 Mulliken atomic charges:
              1
     1  C   -0.457812
     2  H    0.145324
     3  H    0.147220
     4  H    0.142231
     5  C   -0.256610
     6  H    0.132918
     7  H    0.127672
     8  C   -0.023278
     9  H    0.108300
    10  C   -0.263946
    11  H    0.128442
    12  H    0.126221
    13  C   -0.448619
    14  H    0.145602
    15  H    0.139177
    16  H    0.147542
    17  C   -0.483154
    18  H    0.146249
    19  H    0.150999
    20  H    0.145522
 Sum of Mulliken atomic charges =   0.00000
 Mulliken charges with hydrogens summed into heavy atoms:
              1
     1  C   -0.023037
     5  C    0.003980
     8  C    0.085022
    10  C   -0.009283
    13  C   -0.016298
    17  C   -0.040383
 Sum of Mulliken charges with hydrogens summed into heavy atoms =   0.00000
 Charge=              0.0000 electrons
 Dipole moment (field-independent basis, Debye):
    X=             -0.0130    Y=             -0.0095    Z=              0.0145  Tot=              0.0217
 N-N= 1.674127594962D+02 E-N=-2.559740708887D+02  KE=-5.615024917339D+01
 Leave Link  601 at Mon Sep 14 19:12:25 2015, MaxMem=  402653184 cpu:       0.0
 (Enter /share/apps/g09/l701.exe)
 Compute integral first derivatives.
 ... and contract with generalized density number  0.
 Leave Link  701 at Mon Sep 14 19:12:28 2015, MaxMem=  402653184 cpu:       0.1
 (Enter /share/apps/g09/l702.exe)
 L702 exits ... SP integral derivatives will be done elsewhere.
 Leave Link  702 at Mon Sep 14 19:12:30 2015, MaxMem=  402653184 cpu:       0.0
 (Enter /share/apps/g09/l703.exe)
 Compute integral first derivatives, UseDBF=F ICtDFT=           0.
 Integral derivatives from FoFDir, PRISM(SPDF).
 Calling FoFJK, ICntrl=      2127 FMM=F ISym2X=0 I1Cent= 0 IOpClX= 0 NMat=1 NMatS=1 NMatT=0.
 FoFCou: FMM=F IPFlag=           0 FMFlag=      100000 FMFlg1=         800
         NFxFlg=           0 DoJE=F BraDBF=F KetDBF=F FulRan=T
         Omega=  0.000000  0.000000  1.000000  0.000000  0.000000 ICntrl=    2127 IOpCl=  0
         NMat0=    1 NMatS0=    1 NMatT0=    0 NMatD0=    1 NMtDS0=    0 NMtDT0=    0
         I1Cent=           0 NGrid=           0.
 Symmetry not used in FoFCou.
 Leave Link  703 at Mon Sep 14 19:12:30 2015, MaxMem=  402653184 cpu:       0.1
 (Enter /share/apps/g09/l716.exe)
 Dipole        =-5.12289146D-03-3.75312509D-03 5.69653433D-03
 ***** Axes restored to original set *****
 -------------------------------------------------------------------
 Center     Atomic                   Forces (Hartrees/Bohr)
 Number     Number              X              Y              Z
 -------------------------------------------------------------------
      1        6          -0.001044505    0.002201429   -0.001819259
      2        1          -0.003963884    0.001482448    0.009546951
      3        1           0.000860171   -0.008375295   -0.005249433
      4        1           0.005975367    0.007146452   -0.003355917
      5        6           0.000780946   -0.001268965    0.002567907
      6        1           0.003030942   -0.001729067   -0.003856604
      7        1           0.002018872    0.002493737    0.004250827
      8        6          -0.000757278    0.002339203    0.000132352
      9        1          -0.000897072    0.000052854   -0.003599380
     10        6           0.000039808   -0.002091049    0.003057079
     11        1          -0.003695580   -0.001998612   -0.000838742
     12        1           0.000558077    0.004011144    0.000079635
     13        6          -0.000170908   -0.000371363    0.001160506
     14        1           0.007845694    0.006439385   -0.000733242
     15        1          -0.008409847    0.004755949    0.001237439
     16        1          -0.001354943   -0.009168629   -0.003695977
     17        6          -0.000025832    0.000889089    0.002345338
     18        1           0.006305412   -0.005086510    0.005774227
     19        1           0.002378705    0.001663801   -0.010181034
     20        1          -0.009474145   -0.003386004    0.003177326
 -------------------------------------------------------------------
 Cartesian Forces:  Max     0.010181034 RMS     0.004233773
 Leave Link  716 at Mon Sep 14 19:12:30 2015, MaxMem=  402653184 cpu:       0.1
 (Enter /share/apps/g09/l103.exe)

 GradGradGradGradGradGradGradGradGradGradGradGradGradGradGradGradGradGrad
 Berny optimization.
 Internal  Forces:  Max     0.010465710 RMS     0.003631429
 Search for a local minimum.
 Step number   1 out of a maximum of  110
 All quantities printed in internal units (Hartrees-Bohrs-Radians)
 RMS Force = .36314D-02 SwitMx=.10000D-02 MixMth= 1
 Mixed Optimization -- RFO/linear search
 Second derivative matrix not updated -- first step.
     Eigenvalues ---    0.00230   0.00230   0.00256   0.00360   0.00378
     Eigenvalues ---    0.03031   0.03205   0.03381   0.04727   0.04728
     Eigenvalues ---    0.04784   0.04933   0.05459   0.05527   0.05572
     Eigenvalues ---    0.05572   0.05759   0.05765   0.08533   0.08821
     Eigenvalues ---    0.12350   0.12556   0.16000   0.16000   0.16000
     Eigenvalues ---    0.16000   0.16000   0.16000   0.16000   0.16000
     Eigenvalues ---    0.16000   0.17396   0.17517   0.21992   0.21994
     Eigenvalues ---    0.27867   0.27921   0.28650   0.29359   0.29486
     Eigenvalues ---    0.31957   0.32070   0.32071   0.32074   0.32120
     Eigenvalues ---    0.32184   0.32218   0.32218   0.32220   0.32240
     Eigenvalues ---    0.32296   0.32298   0.32315   0.323271000.00000
     Eigenvalues --- 1000.000001000.000001000.000001000.000001000.00000
     Eigenvalues --- 1000.000001000.000001000.000001000.000001000.00000
     Eigenvalues --- 1000.000001000.000001000.000001000.000001000.00000
     Eigenvalues --- 1000.000001000.000001000.000001000.000001000.00000
     Eigenvalues --- 1000.000001000.000001000.000001000.000001000.00000
     Eigenvalues --- 1000.000001000.000001000.000001000.000001000.00000
     Eigenvalues --- 1000.000001000.000001000.000001000.000001000.00000
     Eigenvalues --- 1000.000001000.000001000.000001000.000001000.00000
     Eigenvalues --- 1000.000001000.000001000.000001000.000001000.00000
 RFO step:  Lambda=-5.54287886D-03 EMin= 2.30000000D-03
 Linear search not attempted -- first point.
 Iteration  1 RMS(Cart)=  0.04819252 RMS(Int)=  0.00079507
 Iteration  2 RMS(Cart)=  0.00116253 RMS(Int)=  0.00021662
 Iteration  3 RMS(Cart)=  0.00000050 RMS(Int)=  0.00021662
 Variable       Old X    -DE/DX   Delta X   Delta X   Delta X     New X
                                 (Linear)    (Quad)   (Total)
    R1        2.10446  -0.01000   0.00000  -0.03053  -0.03053   2.07393
    R2        2.10271  -0.00963   0.00000  -0.02930  -0.02930   2.07341
    R3        2.10446  -0.00948   0.00000  -0.02894  -0.02894   2.07552
    R4        2.88999  -0.00011   0.00000  -0.00036  -0.00036   2.88963
    R5        2.10625  -0.00435   0.00000  -0.01332  -0.01332   2.09294
    R6        2.10715  -0.00344   0.00000  -0.01054  -0.01054   2.09660
    R7        2.92311  -0.00710   0.00000  -0.02492  -0.02492   2.89818
    R8        2.10923   0.00351   0.00000   0.01081   0.01081   2.12004
    R9        2.92430  -0.00492   0.00000  -0.01731  -0.01731   2.90698
   R10        2.90739  -0.00507   0.00000  -0.01735  -0.01735   2.89004
   R11        2.10717  -0.00381   0.00000  -0.01167  -0.01167   2.09550
   R12        2.10708  -0.00351   0.00000  -0.01075  -0.01075   2.09633
   R13        2.89261  -0.00248   0.00000  -0.00829  -0.00829   2.88432
   R14        2.10306  -0.00988   0.00000  -0.03007  -0.03007   2.07298
   R15        2.10443  -0.00932   0.00000  -0.02844  -0.02844   2.07599
   R16        2.10250  -0.00975   0.00000  -0.02964  -0.02964   2.07286
   R17        2.10303  -0.00982   0.00000  -0.02990  -0.02990   2.07313
   R18        2.10407  -0.01047   0.00000  -0.03191  -0.03191   2.07216
   R19        2.10509  -0.01038   0.00000  -0.03171  -0.03171   2.07338
    A1        1.90756  -0.00318   0.00000  -0.02435  -0.02435   1.88321
    A2        1.89484  -0.00284   0.00000  -0.01410  -0.01437   1.88047
    A3        1.92782   0.00303   0.00000   0.01706   0.01692   1.94474
    A4        1.88832  -0.00230   0.00000  -0.01159  -0.01173   1.87658
    A5        1.93528   0.00173   0.00000   0.00886   0.00878   1.94406
    A6        1.90913   0.00336   0.00000   0.02303   0.02281   1.93194
    A7        1.89151   0.00322   0.00000   0.01949   0.01919   1.91070
    A8        1.86888   0.00409   0.00000   0.03652   0.03644   1.90532
    A9        1.99473  -0.00590   0.00000  -0.02302  -0.02290   1.97183
   A10        1.88101  -0.00211   0.00000  -0.01915  -0.01962   1.86139
   A11        1.92042   0.00044   0.00000  -0.01149  -0.01140   1.90902
   A12        1.90354   0.00048   0.00000  -0.00143  -0.00123   1.90232
   A13        1.87438   0.00052   0.00000   0.01354   0.01401   1.88839
   A14        1.95992  -0.00149   0.00000  -0.02526  -0.02605   1.93387
   A15        1.96593  -0.00092   0.00000  -0.02249  -0.02335   1.94259
   A16        1.83997   0.00119   0.00000   0.02987   0.03009   1.87006
   A17        1.85980   0.00079   0.00000   0.02596   0.02616   1.88596
   A18        1.95440   0.00022   0.00000  -0.01317  -0.01431   1.94009
   A19        1.90131   0.00074   0.00000  -0.00461  -0.00451   1.89681
   A20        1.89895   0.00110   0.00000   0.00150   0.00166   1.90061
   A21        2.02270  -0.00584   0.00000  -0.02527  -0.02520   1.99750
   A22        1.86421  -0.00153   0.00000  -0.00863  -0.00885   1.85537
   A23        1.88621   0.00290   0.00000   0.01737   0.01719   1.90340
   A24        1.88428   0.00288   0.00000   0.02068   0.02061   1.90489
   A25        1.93335   0.00193   0.00000   0.00980   0.00968   1.94304
   A26        1.90711   0.00371   0.00000   0.02665   0.02644   1.93355
   A27        1.93546   0.00131   0.00000   0.00540   0.00533   1.94079
   A28        1.88865  -0.00225   0.00000  -0.00877  -0.00902   1.87964
   A29        1.90829  -0.00272   0.00000  -0.02437  -0.02434   1.88395
   A30        1.88985  -0.00213   0.00000  -0.00940  -0.00956   1.88029
   A31        1.92841   0.00107   0.00000   0.00778   0.00772   1.93613
   A32        1.93692   0.00137   0.00000   0.00550   0.00549   1.94241
   A33        1.92773   0.00190   0.00000   0.01291   0.01284   1.94058
   A34        1.89385  -0.00163   0.00000  -0.01261  -0.01260   1.88124
   A35        1.87698  -0.00084   0.00000   0.00040   0.00027   1.87725
   A36        1.89846  -0.00205   0.00000  -0.01491  -0.01492   1.88354
    D1        3.11910  -0.00116   0.00000  -0.00877  -0.00902   3.11008
    D2       -1.13929   0.00012   0.00000  -0.00234  -0.00223  -1.14152
    D3        0.97083  -0.00008   0.00000   0.00731   0.00724   0.97807
    D4        1.00170  -0.00034   0.00000   0.00455   0.00441   1.00610
    D5        3.02649   0.00093   0.00000   0.01098   0.01120   3.03769
    D6       -1.14658   0.00073   0.00000   0.02063   0.02067  -1.12591
    D7       -1.07947  -0.00069   0.00000  -0.00121  -0.00136  -1.08083
    D8        0.94533   0.00058   0.00000   0.00522   0.00543   0.95076
    D9        3.05545   0.00039   0.00000   0.01487   0.01490   3.07035
   D10       -0.85713  -0.00037   0.00000  -0.00562  -0.00557  -0.86269
   D11       -2.87202  -0.00132   0.00000  -0.03622  -0.03593  -2.90796
   D12        1.18519   0.00041   0.00000   0.02190   0.02173   1.20692
   D13       -2.98968  -0.00070   0.00000  -0.00592  -0.00597  -2.99565
   D14        1.27861  -0.00165   0.00000  -0.03652  -0.03634   1.24227
   D15       -0.94736   0.00008   0.00000   0.02161   0.02133  -0.92603
   D16        1.23367   0.00132   0.00000   0.02493   0.02492   1.25859
   D17       -0.78122   0.00038   0.00000  -0.00567  -0.00545  -0.78667
   D18       -3.00719   0.00210   0.00000   0.05245   0.05222  -2.95498
   D19        3.07063   0.00058   0.00000   0.02098   0.02077   3.09140
   D20        1.04443   0.00139   0.00000   0.03295   0.03283   1.07726
   D21       -1.08187   0.00085   0.00000   0.02233   0.02220  -1.05966
   D22        1.03499   0.00001   0.00000  -0.00007  -0.00007   1.03492
   D23       -0.99121   0.00082   0.00000   0.01190   0.01198  -0.97923
   D24       -3.11751   0.00028   0.00000   0.00128   0.00136  -3.11614
   D25       -0.98047  -0.00173   0.00000  -0.04163  -0.04159  -1.02206
   D26       -3.00667  -0.00091   0.00000  -0.02966  -0.02953  -3.03620
   D27        1.15022  -0.00146   0.00000  -0.04028  -0.04016   1.11006
   D28       -1.13802  -0.00056   0.00000  -0.00933  -0.00918  -1.14720
   D29        0.96359  -0.00099   0.00000  -0.01639  -0.01628   0.94731
   D30        3.07055  -0.00139   0.00000  -0.02290  -0.02282   3.04773
   D31        0.91294   0.00006   0.00000   0.01094   0.01094   0.92388
   D32        3.01455  -0.00037   0.00000   0.00388   0.00384   3.01839
   D33       -1.16168  -0.00077   0.00000  -0.00263  -0.00270  -1.16438
   D34        2.91629   0.00205   0.00000   0.05496   0.05492   2.97120
   D35       -1.26529   0.00162   0.00000   0.04790   0.04782  -1.21747
   D36        0.84167   0.00122   0.00000   0.04139   0.04128   0.88294
   D37        1.08169  -0.00050   0.00000  -0.00710  -0.00717   1.07452
   D38       -3.12238   0.00023   0.00000   0.00486   0.00488  -3.11749
   D39       -1.04050   0.00075   0.00000   0.01346   0.01351  -1.02698
   D40       -3.06281  -0.00132   0.00000  -0.01714  -0.01733  -3.08014
   D41       -0.98369  -0.00059   0.00000  -0.00518  -0.00528  -0.98897
   D42        1.09819  -0.00007   0.00000   0.00342   0.00335   1.10154
   D43       -1.05239  -0.00015   0.00000  -0.00773  -0.00768  -1.06007
   D44        1.02673   0.00058   0.00000   0.00423   0.00437   1.03110
   D45        3.10861   0.00110   0.00000   0.01283   0.01300   3.12161
         Item               Value     Threshold  Converged?
 Maximum Force            0.010466     0.000450     NO 
 RMS     Force            0.003631     0.000300     NO 
 Maximum Displacement     0.159396     0.001800     NO 
 RMS     Displacement     0.048668     0.001200     NO 
 Predicted change in Energy=-2.881186D-03
 GradGradGradGradGradGradGradGradGradGradGradGradGradGradGradGradGradGrad

 Leave Link  103 at Mon Sep 14 19:12:32 2015, MaxMem=  402653184 cpu:       0.1
 (Enter /share/apps/g09/l202.exe)
                          Input orientation:                          
 ---------------------------------------------------------------------
 Center     Atomic      Atomic             Coordinates (Angstroms)
 Number     Number       Type             X           Y           Z
 ---------------------------------------------------------------------
      1          6           0       -2.580131   -0.147206   -0.519346
      2          1           0       -2.446230   -0.107244   -1.607893
      3          1           0       -2.779831    0.872333   -0.166480
      4          1           0       -3.475411   -0.749424   -0.314123
      5          6           0       -1.355354   -0.746831    0.172462
      6          1           0       -1.511251   -0.741823    1.268957
      7          1           0       -1.250602   -1.809449   -0.128876
      8          6           0       -0.055941   -0.003217   -0.160187
      9          1           0        0.004964    0.114574   -1.274201
     10          6           0        1.170018   -0.823225    0.276853
     11          1           0        2.087544   -0.279205   -0.026172
     12          1           0        1.178120   -1.782246   -0.280665
     13          6           0        1.234523   -1.113990    1.773827
     14          1           0        0.372143   -1.706911    2.102615
     15          1           0        2.142903   -1.679642    2.022280
     16          1           0        1.248794   -0.185655    2.357952
     17          6           0       -0.038459    1.392080    0.465696
     18          1           0       -0.812462    2.030432    0.021910
     19          1           0       -0.220899    1.346210    1.545977
     20          1           0        0.928561    1.885638    0.307312
 ---------------------------------------------------------------------
                    Distance matrix (angstroms):
                    1          2          3          4          5
     1  C    0.000000
     2  H    1.097479   0.000000
     3  H    1.097203   1.774410   0.000000
     4  H    1.098320   1.773541   1.770798   0.000000
     5  C    1.529127   2.183746   2.183051   2.175181   0.000000
     6  H    2.166588   3.090816   2.505050   2.522721   1.107534
     7  H    2.164062   2.552355   3.087379   2.471385   1.109475
     8  C    2.553677   2.796454   2.861155   3.503327   1.533653
     9  H    2.705744   2.483729   3.091332   3.712311   2.164559
    10  C    3.892885   4.140307   4.321200   4.683450   2.528682
    11  H    4.695512   4.804843   5.003705   5.590213   3.480183
    12  H    4.105457   4.207503   4.767096   4.766885   2.774148
    13  C    4.554657   5.098775   4.881118   5.164874   3.067024
    14  H    4.245384   4.926462   4.662214   4.643391   2.762515
    15  H    5.578107   6.058938   5.961255   6.155448   4.065681
    16  H    4.789676   5.421003   4.870515   5.456733   3.445703
    17  C    3.130465   3.513560   2.860928   4.123930   2.528861
    18  H    2.856523   3.145650   2.290683   3.864170   2.833830
    19  H    3.473015   4.124502   3.115318   4.294590   2.748518
    20  H    4.138447   4.362202   3.873427   5.169594   3.487742
                    6          7          8          9         10
     6  H    0.000000
     7  H    1.778117   0.000000
     8  C    2.169314   2.165795   0.000000
     9  H    3.082204   2.567115   1.121878   0.000000
    10  C    2.860088   2.645119   1.538308   2.154666   0.000000
    11  H    3.852622   3.673610   2.165330   2.459629   1.108889
    12  H    3.273610   2.433613   2.168493   2.441584   1.109329
    13  C    2.816501   3.206211   2.576727   3.508797   1.526315
    14  H    2.274545   2.761045   2.864629   3.854285   2.179659
    15  H    3.847056   4.019975   3.522567   4.319349   2.174045
    16  H    3.018789   3.881753   2.841943   3.850946   2.177998
    17  C    2.714386   3.474564   1.529343   2.158969   2.530544
    18  H    3.119108   3.867737   2.177433   2.453284   3.484047
    19  H    2.470148   3.718011   2.181550   3.085667   2.872590
    20  H    3.712277   4.311923   2.180728   2.547721   2.719774
                   11         12         13         14         15
    11  H    0.000000
    12  H    1.775091   0.000000
    13  C    2.159747   2.161176   0.000000
    14  H    3.084263   2.517001   1.096975   0.000000
    15  H    2.482024   2.498978   1.098565   1.772791   0.000000
    16  H    2.529090   3.084865   1.096910   1.774242   1.773162
    17  C    2.748639   3.480440   3.100335   3.528717   4.076367
    18  H    3.707664   4.311668   4.140864   4.438509   5.147846
    19  H    3.231490   3.883440   2.867534   3.159603   3.869135
    20  H    2.478104   3.723086   3.352917   4.054519   4.138474
                   16         17         18         19         20
    16  H    0.000000
    17  C    2.779730   0.000000
    18  H    3.823207   1.097051   0.000000
    19  H    2.272864   1.096537   1.772255   0.000000
    20  H    2.932222   1.097184   1.770193   1.773846   0.000000
 Stoichiometry    C6H14
 Framework group  C1[X(C6H14)]
 Deg. of freedom    54
 Full point group                 C1      NOp   1
 Largest Abelian subgroup         C1      NOp   1
 Largest concise Abelian subgroup C1      NOp   1
                         Standard orientation:                         
 ---------------------------------------------------------------------
 Center     Atomic      Atomic             Coordinates (Angstroms)
 Number     Number       Type             X           Y           Z
 ---------------------------------------------------------------------
      1          6           0        2.420422   -0.419217   -0.077687
      2          1           0        2.750330   -0.258364    0.956598
      3          1           0        2.654739    0.486398   -0.651109
      4          1           0        3.018873   -1.239614   -0.496151
      5          6           0        0.929023   -0.750380   -0.143178
      6          1           0        0.624315   -0.873940   -1.200777
      7          1           0        0.750160   -1.725370    0.355157
      8          6           0        0.049057    0.317284    0.518521
      9          1           0        0.469679    0.537212    1.535044
     10          6           0       -1.383083   -0.205466    0.723696
     11          1           0       -1.973086    0.572282    1.249662
     12          1           0       -1.351472   -1.083514    1.400928
     13          6           0       -2.104852   -0.592524   -0.564277
     14          1           0       -1.584093   -1.405883   -1.084481
     15          1           0       -3.127229   -0.933216   -0.350924
     16          1           0       -2.173230    0.259288   -1.251993
     17          6           0        0.052097    1.617195   -0.287156
     18          1           0        1.047949    2.077406   -0.284849
     19          1           0       -0.232273    1.439261   -1.331123
     20          1           0       -0.650641    2.346699    0.134501
 ---------------------------------------------------------------------
 Rotational constants (GHZ):      5.2083399      2.1511149      1.8379895
 Leave Link  202 at Mon Sep 14 19:12:33 2015, MaxMem=  402653184 cpu:       0.0
 (Enter /share/apps/g09/l301.exe)
 Standard basis: VSTO-6G (5D, 7F)
 Ernie: Thresh=  0.10000D-02 Tol=  0.10000D-05 Strict=F.
  NNHCO=     0 NNPyr=     0 NCTC=     0               EPep=         0.000000000
    EC=       131.192204723  ECS=         3.233801181   EG=         0.308855459
   EHC=         0.000459478  EAt=       -31.187935768  AtH=         2.796400831
 EPDDG=         0.000000000  ECC=       134.735320840 EAtT=        33.984336599
 There are    38 symmetry adapted basis functions of A   symmetry.
 Integral buffers will be    131072 words long.
 Regular integral format.
 Two-electron integral symmetry is turned off.
    38 basis functions,   228 primitive gaussians,    38 cartesian basis functions
    19 alpha electrons       19 beta electrons
       nuclear repulsion energy       168.7196574391 Hartrees.
 IExCor=    0 DFT=F Ex=HF Corr=None ExCW=0 ScaHFX=  1.000000
 ScaDFX=  1.000000  1.000000  1.000000  1.000000 ScalE2=  1.000000  1.000000
 IRadAn=      0 IRanWt=     -1 IRanGd=            0 ICorTp=0
 Leave Link  301 at Mon Sep 14 19:12:35 2015, MaxMem=  402653184 cpu:       0.1
 (Enter /share/apps/g09/l302.exe)
 Do NDO integrals.
 NPDir=0 NMtPBC=     1 NCelOv=     1 NCel=       1 NClECP=     1 NCelD=      1
         NCelK=      1 NCelE2=     1 NClLst=     1 CellRange=     0.0.
 One-electron integrals computed using PRISM.
 NBasis=    38 RedAO= F  NBF=    38
 NBsUse=    38 1.00D-04 NBFU=    38
 Leave Link  302 at Mon Sep 14 19:12:38 2015, MaxMem=  402653184 cpu:       0.2
 (Enter /share/apps/g09/l303.exe)
 DipDrv:  MaxL=1.
 Leave Link  303 at Mon Sep 14 19:12:38 2015, MaxMem=  402653184 cpu:       0.1
 (Enter /share/apps/g09/l401.exe)
 Initial guess read from the read-write file.
 B after Tr=     0.000000    0.000000    0.000000
         Rot=    1.000000    0.000000    0.000000    0.000000 Ang=   0.00 deg.
 Guess basis will be translated and rotated to current coordinates.
 Initial guess orbital symmetries:
       Occupied  (A) (A) (A) (A) (A) (A) (A) (A) (A) (A) (A) (A)
                 (A) (A) (A) (A) (A) (A) (A)
       Virtual   (A) (A) (A) (A) (A) (A) (A) (A) (A) (A) (A) (A)
                 (A) (A) (A) (A) (A) (A) (A)
 The electronic state of the initial guess is 1-A.
 Leave Link  401 at Mon Sep 14 19:12:39 2015, MaxMem=  402653184 cpu:       0.1
 (Enter /share/apps/g09/l502.exe)
 Closed shell SCF:
 Requested convergence on RMS density matrix=1.00D-08 within 128 cycles.
 Requested convergence on MAX density matrix=1.00D-06.
 Requested convergence on             energy=1.00D-06.
 No special actions if energy rises.
 Using DIIS extrapolation, IDIIS=  1040.
 Overlap will be assumed to be unity.
 Two-electron integral symmetry not used.
 Keep J ints in memory in canonical form, NReq=884654.
 IEnd=       81865 IEndB=       81865 NGot=   402653184 MDV=   402586639
 LenX=   402586639 LenY=   402584754
 Symmetry not used in FoFDir.
 MinBra= 0 MaxBra= 1 Meth=40.
 IRaf=       0 NMat=   1 IRICut=       1 DoRegI=T DoRafI=F ISym2E= 0 JSym2E=0.

 Cycle   1  Pass 1  IDiag  1:
 E=-0.521969460590412E-01
 DIIS: error= 4.69D-03 at cycle   1 NSaved=   1.
 NSaved= 1 IEnMin= 1 EnMin=-0.521969460590412E-01 IErMin= 1 ErrMin= 4.69D-03
 ErrMax= 4.69D-03 EMaxC= 1.00D-01 BMatC= 7.29D-04 BMatP= 7.29D-04
 IDIUse=3 WtCom= 9.53D-01 WtEn= 4.69D-02
 Coeff-Com:  0.100D+01
 Coeff-En:   0.100D+01
 Coeff:      0.100D+01
 GapD=    2.000 DampG=2.000 DampE=1.000 DampFc=2.0000 IDamp=-1.
 RMSDP=1.31D-03 MaxDP=1.19D-02              OVMax= 0.00D+00

 Cycle   2  Pass 1  IDiag  3:
 E=-0.548453188756355E-01 Delta-E=       -0.002648372817 Rises=F Damp=F
 DIIS: error= 2.06D-03 at cycle   2 NSaved=   2.
 NSaved= 2 IEnMin= 2 EnMin=-0.548453188756355E-01 IErMin= 2 ErrMin= 2.06D-03
 ErrMax= 2.06D-03 EMaxC= 1.00D-01 BMatC= 1.22D-04 BMatP= 7.29D-04
 IDIUse=3 WtCom= 9.79D-01 WtEn= 2.06D-02
 Coeff-Com: -0.626D+00 0.163D+01
 Coeff-En:   0.000D+00 0.100D+01
 Coeff:     -0.613D+00 0.161D+01
 Gap=     0.556 Goal=   None    Shift=    0.000
 RMSDP=9.20D-04 MaxDP=8.55D-03 DE=-2.65D-03 OVMax= 0.00D+00

 Cycle   3  Pass 1  IDiag  3:
 E=-0.554398262011944E-01 Delta-E=       -0.000594507326 Rises=F Damp=F
 DIIS: error= 2.15D-04 at cycle   3 NSaved=   3.
 NSaved= 3 IEnMin= 3 EnMin=-0.554398262011944E-01 IErMin= 3 ErrMin= 2.15D-04
 ErrMax= 2.15D-04 EMaxC= 1.00D-01 BMatC= 1.93D-06 BMatP= 1.22D-04
 IDIUse=3 WtCom= 9.98D-01 WtEn= 2.15D-03
 Coeff-Com:  0.213D+00-0.631D+00 0.142D+01
 Coeff-En:   0.000D+00 0.000D+00 0.100D+01
 Coeff:      0.213D+00-0.629D+00 0.142D+01
 Gap=     0.556 Goal=   None    Shift=    0.000
 RMSDP=1.27D-04 MaxDP=1.05D-03 DE=-5.95D-04 OVMax= 0.00D+00

 Cycle   4  Pass 1  IDiag  3:
 E=-0.554495040136089E-01 Delta-E=       -0.000009677812 Rises=F Damp=F
 DIIS: error= 1.70D-05 at cycle   4 NSaved=   4.
 NSaved= 4 IEnMin= 4 EnMin=-0.554495040136089E-01 IErMin= 4 ErrMin= 1.70D-05
 ErrMax= 1.70D-05 EMaxC= 1.00D-01 BMatC= 2.46D-08 BMatP= 1.93D-06
 IDIUse=1 WtCom= 1.00D+00 WtEn= 0.00D+00
 Coeff-Com: -0.775D-01 0.231D+00-0.557D+00 0.140D+01
 Coeff:     -0.775D-01 0.231D+00-0.557D+00 0.140D+01
 Gap=     0.556 Goal=   None    Shift=    0.000
 RMSDP=1.26D-05 MaxDP=9.64D-05 DE=-9.68D-06 OVMax= 0.00D+00

 Cycle   5  Pass 1  IDiag  3:
 E=-0.554496300914025E-01 Delta-E=       -0.000000126078 Rises=F Damp=F
 DIIS: error= 6.39D-06 at cycle   5 NSaved=   5.
 NSaved= 5 IEnMin= 5 EnMin=-0.554496300914025E-01 IErMin= 5 ErrMin= 6.39D-06
 ErrMax= 6.39D-06 EMaxC= 1.00D-01 BMatC= 2.00D-09 BMatP= 2.46D-08
 IDIUse=1 WtCom= 1.00D+00 WtEn= 0.00D+00
 Coeff-Com:  0.425D-01-0.127D+00 0.310D+00-0.934D+00 0.171D+01
 Coeff:      0.425D-01-0.127D+00 0.310D+00-0.934D+00 0.171D+01
 Gap=     0.556 Goal=   None    Shift=    0.000
 RMSDP=4.64D-06 MaxDP=4.10D-05 DE=-1.26D-07 OVMax= 0.00D+00

 Cycle   6  Pass 1  IDiag  3:
 E=-0.554496428781306E-01 Delta-E=       -0.000000012787 Rises=F Damp=F
 DIIS: error= 1.72D-06 at cycle   6 NSaved=   6.
 NSaved= 6 IEnMin= 6 EnMin=-0.554496428781306E-01 IErMin= 6 ErrMin= 1.72D-06
 ErrMax= 1.72D-06 EMaxC= 1.00D-01 BMatC= 1.22D-10 BMatP= 2.00D-09
 IDIUse=1 WtCom= 1.00D+00 WtEn= 0.00D+00
 Coeff-Com: -0.222D-01 0.662D-01-0.162D+00 0.506D+00-0.108D+01 0.169D+01
 Coeff:     -0.222D-01 0.662D-01-0.162D+00 0.506D+00-0.108D+01 0.169D+01
 Gap=     0.556 Goal=   None    Shift=    0.000
 RMSDP=1.21D-06 MaxDP=1.22D-05 DE=-1.28D-08 OVMax= 0.00D+00

 Cycle   7  Pass 1  IDiag  3:
 E=-0.554496436910199E-01 Delta-E=       -0.000000000813 Rises=F Damp=F
 DIIS: error= 3.35D-07 at cycle   7 NSaved=   7.
 NSaved= 7 IEnMin= 7 EnMin=-0.554496436910199E-01 IErMin= 7 ErrMin= 3.35D-07
 ErrMax= 3.35D-07 EMaxC= 1.00D-01 BMatC= 6.57D-12 BMatP= 1.22D-10
 IDIUse=1 WtCom= 1.00D+00 WtEn= 0.00D+00
 Coeff-Com:  0.714D-02-0.213D-01 0.522D-01-0.165D+00 0.369D+00-0.745D+00
 Coeff-Com:  0.150D+01
 Coeff:      0.714D-02-0.213D-01 0.522D-01-0.165D+00 0.369D+00-0.745D+00
 Coeff:      0.150D+01
 Gap=     0.556 Goal=   None    Shift=    0.000
 RMSDP=2.73D-07 MaxDP=2.79D-06 DE=-8.13D-10 OVMax= 0.00D+00

 Cycle   8  Pass 1  IDiag  3:
 E=-0.554496437339083E-01 Delta-E=       -0.000000000043 Rises=F Damp=F
 DIIS: error= 6.78D-08 at cycle   8 NSaved=   8.
 NSaved= 8 IEnMin= 8 EnMin=-0.554496437339083E-01 IErMin= 8 ErrMin= 6.78D-08
 ErrMax= 6.78D-08 EMaxC= 1.00D-01 BMatC= 3.21D-13 BMatP= 6.57D-12
 IDIUse=1 WtCom= 1.00D+00 WtEn= 0.00D+00
 Coeff-Com: -0.109D-02 0.325D-02-0.796D-02 0.256D-01-0.594D-01 0.142D+00
 Coeff-Com: -0.494D+00 0.139D+01
 Coeff:     -0.109D-02 0.325D-02-0.796D-02 0.256D-01-0.594D-01 0.142D+00
 Coeff:     -0.494D+00 0.139D+01
 Gap=     0.556 Goal=   None    Shift=    0.000
 RMSDP=5.98D-08 MaxDP=6.05D-07 DE=-4.29D-11 OVMax= 0.00D+00

 Cycle   9  Pass 1  IDiag  3:
 E=-0.554496437357841E-01 Delta-E=       -0.000000000002 Rises=F Damp=F
 DIIS: error= 1.45D-08 at cycle   9 NSaved=   9.
 NSaved= 9 IEnMin= 9 EnMin=-0.554496437357841E-01 IErMin= 9 ErrMin= 1.45D-08
 ErrMax= 1.45D-08 EMaxC= 1.00D-01 BMatC= 1.91D-14 BMatP= 3.21D-13
 IDIUse=1 WtCom= 1.00D+00 WtEn= 0.00D+00
 Coeff-Com:  0.144D-03-0.427D-03 0.104D-02-0.352D-02 0.897D-02-0.283D-01
 Coeff-Com:  0.156D+00-0.636D+00 0.150D+01
 Coeff:      0.144D-03-0.427D-03 0.104D-02-0.352D-02 0.897D-02-0.283D-01
 Coeff:      0.156D+00-0.636D+00 0.150D+01
 Gap=     0.556 Goal=   None    Shift=    0.000
 RMSDP=1.34D-08 MaxDP=1.14D-07 DE=-1.88D-12 OVMax= 0.00D+00

 Cycle  10  Pass 1  IDiag  3:
 E=-0.554496437360683E-01 Delta-E=        0.000000000000 Rises=F Damp=F
 DIIS: error= 7.46D-09 at cycle  10 NSaved=  10.
 NSaved=10 IEnMin=10 EnMin=-0.554496437360683E-01 IErMin=10 ErrMin= 7.46D-09
 ErrMax= 7.46D-09 EMaxC= 1.00D-01 BMatC= 2.62D-15 BMatP= 1.91D-14
 IDIUse=1 WtCom= 1.00D+00 WtEn= 0.00D+00
 Coeff-Com: -0.323D-04 0.941D-04-0.230D-03 0.859D-03-0.258D-02 0.112D-01
 Coeff-Com: -0.823D-01 0.382D+00-0.116D+01 0.185D+01
 Coeff:     -0.323D-04 0.941D-04-0.230D-03 0.859D-03-0.258D-02 0.112D-01
 Coeff:     -0.823D-01 0.382D+00-0.116D+01 0.185D+01
 Gap=     0.556 Goal=   None    Shift=    0.000
 RMSDP=6.35D-09 MaxDP=6.11D-08 DE=-2.84D-13 OVMax= 0.00D+00

 Cycle  11  Pass 2  IDiag  1:
 RMSDP=6.35D-09 MaxDP=6.11D-08 DE=-2.84D-13 OVMax= 0.00D+00

 SCF Done:  E(RPM6) = -0.554496437361E-01 A.U. after   11 cycles
             Convg  =    0.6354D-08             -V/T =  0.9990
 KE=-5.625585753944D+01 PE=-2.583255562429D+02 EE= 1.458063066995D+02
 Leave Link  502 at Mon Sep 14 19:12:40 2015, MaxMem=  402653184 cpu:       1.5
 (Enter /share/apps/g09/l701.exe)
 Compute integral first derivatives.
 ... and contract with generalized density number  0.
 Leave Link  701 at Mon Sep 14 19:12:40 2015, MaxMem=  402653184 cpu:       0.1
 (Enter /share/apps/g09/l702.exe)
 L702 exits ... SP integral derivatives will be done elsewhere.
 Leave Link  702 at Mon Sep 14 19:12:44 2015, MaxMem=  402653184 cpu:       0.0
 (Enter /share/apps/g09/l703.exe)
 Compute integral first derivatives, UseDBF=F ICtDFT=           0.
 Integral derivatives from FoFDir, PRISM(SPDF).
 Calling FoFJK, ICntrl=      2127 FMM=F ISym2X=0 I1Cent= 0 IOpClX= 0 NMat=1 NMatS=1 NMatT=0.
 FoFCou: FMM=F IPFlag=           0 FMFlag=      100000 FMFlg1=         800
         NFxFlg=           0 DoJE=F BraDBF=F KetDBF=F FulRan=T
         Omega=  0.000000  0.000000  1.000000  0.000000  0.000000 ICntrl=    2127 IOpCl=  0
         NMat0=    1 NMatS0=    1 NMatT0=    0 NMatD0=    1 NMtDS0=    0 NMtDT0=    0
         I1Cent=           0 NGrid=           0.
 Symmetry not used in FoFCou.
 Leave Link  703 at Mon Sep 14 19:12:46 2015, MaxMem=  402653184 cpu:       0.1
 (Enter /share/apps/g09/l716.exe)
 Dipole        =-3.55199197D-03 9.06076839D-03-2.45760132D-02
 ***** Axes restored to original set *****
 -------------------------------------------------------------------
 Center     Atomic                   Forces (Hartrees/Bohr)
 Number     Number              X              Y              Z
 -------------------------------------------------------------------
      1        6           0.000084798   -0.001175051    0.000326169
      2        1          -0.000657049    0.000315629    0.001158706
      3        1           0.000020603   -0.000716944   -0.000833621
      4        1           0.000873217    0.001127610   -0.000655448
      5        6          -0.005508065   -0.002468435   -0.000322046
      6        1          -0.000693029   -0.001327587   -0.000046541
      7        1          -0.000866793    0.000234171    0.001195258
      8        6           0.000876836    0.002653701   -0.003254101
      9        1           0.000106098    0.000192656    0.000360086
     10        6           0.003816395   -0.002490134    0.000109705
     11        1           0.000176246   -0.000939331   -0.000423726
     12        1           0.000970537    0.000595545   -0.000056005
     13        6           0.001213983   -0.000949420    0.000243773
     14        1           0.000910281    0.000584380    0.000675406
     15        1          -0.001423074    0.000805476    0.000224018
     16        1          -0.000159244   -0.000977136    0.000360818
     17        6           0.000496066    0.003600536   -0.000250164
     18        1           0.000567910   -0.000109836    0.001029876
     19        1           0.000349038    0.001033550   -0.000581028
     20        1          -0.001154754    0.000010621    0.000738866
 -------------------------------------------------------------------
 Cartesian Forces:  Max     0.005508065 RMS     0.001389097
 Leave Link  716 at Mon Sep 14 19:12:46 2015, MaxMem=  402653184 cpu:       0.0
 (Enter /share/apps/g09/l103.exe)

 GradGradGradGradGradGradGradGradGradGradGradGradGradGradGradGradGradGrad
 Berny optimization.
 Using GEDIIS/GDIIS optimizer.
 Internal  Forces:  Max     0.007838928 RMS     0.001262979
 Search for a local minimum.
 Step number   2 out of a maximum of  110
 All quantities printed in internal units (Hartrees-Bohrs-Radians)
 RMS Force = .12630D-02 SwitMx=.10000D-02 MixMth= 1
 Mixed Optimization -- RFO/linear search
 Update second derivatives using D2CorX and points    1    2
 DE= -2.71D-03 DEPred=-2.88D-03 R= 9.42D-01
 SS=  1.41D+00  RLast= 2.11D-01 DXNew= 5.0454D-01 6.3433D-01
 Trust test= 9.42D-01 RLast= 2.11D-01 DXMaxT set to 5.05D-01
 Use linear search instead of GDIIS.
     Eigenvalues ---    0.00230   0.00230   0.00256   0.00360   0.00378
     Eigenvalues ---    0.03307   0.03454   0.03694   0.04655   0.04712
     Eigenvalues ---    0.04768   0.04813   0.05396   0.05433   0.05451
     Eigenvalues ---    0.05470   0.05534   0.05549   0.08490   0.08667
     Eigenvalues ---    0.12227   0.12406   0.14602   0.16000   0.16000
     Eigenvalues ---    0.16000   0.16000   0.16000   0.16000   0.16000
     Eigenvalues ---    0.16044   0.16771   0.16882   0.21244   0.22023
     Eigenvalues ---    0.26654   0.27898   0.28549   0.29340   0.29486
     Eigenvalues ---    0.31940   0.32064   0.32072   0.32078   0.32112
     Eigenvalues ---    0.32190   0.32206   0.32219   0.32222   0.32267
     Eigenvalues ---    0.32297   0.32309   0.32321   0.373441000.00000
     Eigenvalues --- 1000.000001000.000001000.000001000.000001000.00000
     Eigenvalues --- 1000.000001000.000001000.000001000.000001000.00000
     Eigenvalues --- 1000.000001000.000001000.000001000.000001000.00000
     Eigenvalues --- 1000.000001000.000001000.000001000.000001000.00000
     Eigenvalues --- 1000.000001000.000001000.000001000.000001000.00000
     Eigenvalues --- 1000.000001000.000001000.000001000.000001000.00000
     Eigenvalues --- 1000.000001000.000001000.000001000.000001000.00000
     Eigenvalues --- 1000.000001000.000001000.000001000.000001000.00000
     Eigenvalues --- 1000.000001000.000001000.000001000.000001000.00000
 RFO step:  Lambda=-7.19125945D-04 EMin= 2.29798535D-03
 Quartic linear search produced a step of -0.03408.
 Iteration  1 RMS(Cart)=  0.02615802 RMS(Int)=  0.00021066
 Iteration  2 RMS(Cart)=  0.00027655 RMS(Int)=  0.00000938
 Iteration  3 RMS(Cart)=  0.00000004 RMS(Int)=  0.00000938
 Variable       Old X    -DE/DX   Delta X   Delta X   Delta X     New X
                                 (Linear)    (Quad)   (Total)
    R1        2.07393  -0.00122   0.00104  -0.00863  -0.00759   2.06634
    R2        2.07341  -0.00094   0.00100  -0.00759  -0.00659   2.06683
    R3        2.07552  -0.00145   0.00099  -0.00908  -0.00809   2.06744
    R4        2.88963  -0.00043   0.00001  -0.00147  -0.00146   2.88817
    R5        2.09294   0.00005   0.00045  -0.00204  -0.00159   2.09135
    R6        2.09660  -0.00063   0.00036  -0.00362  -0.00326   2.09334
    R7        2.89818   0.00784   0.00085   0.02298   0.02383   2.92201
    R8        2.12004  -0.00033  -0.00037   0.00077   0.00040   2.12044
    R9        2.90698   0.00651   0.00059   0.01967   0.02026   2.92724
   R10        2.89004   0.00452   0.00059   0.01238   0.01297   2.90301
   R11        2.09550  -0.00020   0.00040  -0.00251  -0.00211   2.09339
   R12        2.09633  -0.00048   0.00037  -0.00320  -0.00283   2.09350
   R13        2.88432   0.00160   0.00028   0.00390   0.00418   2.88850
   R14        2.07298  -0.00083   0.00102  -0.00739  -0.00636   2.06662
   R15        2.07599  -0.00154   0.00097  -0.00926  -0.00829   2.06770
   R16        2.07286  -0.00064   0.00101  -0.00674  -0.00573   2.06713
   R17        2.07313  -0.00088   0.00102  -0.00752  -0.00650   2.06663
   R18        2.07216  -0.00067   0.00109  -0.00723  -0.00614   2.06601
   R19        2.07338  -0.00112   0.00108  -0.00854  -0.00746   2.06592
    A1        1.88321  -0.00068   0.00083  -0.00969  -0.00886   1.87435
    A2        1.88047  -0.00061   0.00049  -0.00556  -0.00509   1.87538
    A3        1.94474   0.00058  -0.00058   0.00568   0.00510   1.94984
    A4        1.87658  -0.00042   0.00040  -0.00337  -0.00298   1.87360
    A5        1.94406   0.00035  -0.00030   0.00327   0.00296   1.94703
    A6        1.93194   0.00068  -0.00078   0.00866   0.00787   1.93981
    A7        1.91070   0.00008  -0.00065   0.00301   0.00236   1.91306
    A8        1.90532  -0.00008  -0.00124   0.00262   0.00139   1.90671
[...]
 ! D9    D(4,1,5,8)            179.9105         -DE/DX =    0.0                 !
 ! D10   D(1,5,8,9)            -44.6746         -DE/DX =    0.0                 !
 ! D11   D(1,5,8,10)          -161.6407         -DE/DX =    0.0                 !
 ! D12   D(1,5,8,17)            73.5437         -DE/DX =    0.0                 !
 ! D13   D(6,5,8,9)           -167.236          -DE/DX =    0.0                 !
 ! D14   D(6,5,8,10)            75.7979         -DE/DX =    0.0                 !
 ! D15   D(6,5,8,17)           -49.0177         -DE/DX =    0.0                 !
 ! D16   D(7,5,8,9)             77.1453         -DE/DX =    0.0                 !
 ! D17   D(7,5,8,10)           -39.8207         -DE/DX =    0.0                 !
 ! D18   D(7,5,8,17)          -164.6363         -DE/DX =    0.0                 !
 ! D19   D(5,8,10,11)          177.2352         -DE/DX =    0.0                 !
 ! D20   D(5,8,10,12)           62.5571         -DE/DX =    0.0                 !
 ! D21   D(5,8,10,13)          -60.2795         -DE/DX =    0.0                 !
 ! D22   D(9,8,10,11)           59.5962         -DE/DX =    0.0                 !
 ! D23   D(9,8,10,12)          -55.0819         -DE/DX =    0.0                 !
 ! D24   D(9,8,10,13)         -177.9185         -DE/DX =    0.0                 !
 ! D25   D(17,8,10,11)         -57.8915         -DE/DX =    0.0                 !
 ! D26   D(17,8,10,12)        -172.5696         -DE/DX =    0.0                 !
 ! D27   D(17,8,10,13)          64.5938         -DE/DX =    0.0                 !
 ! D28   D(5,8,17,18)          -59.4765         -DE/DX =    0.0                 !
 ! D29   D(5,8,17,19)           60.3653         -DE/DX =    0.0                 !
 ! D30   D(5,8,17,20)         -179.5464         -DE/DX =    0.0                 !
 ! D31   D(9,8,17,18)           58.8459         -DE/DX =    0.0                 !
 ! D32   D(9,8,17,19)          178.6876         -DE/DX =    0.0                 !
 ! D33   D(9,8,17,20)          -61.224          -DE/DX =    0.0                 !
 ! D34   D(10,8,17,18)         175.7667         -DE/DX =    0.0                 !
 ! D35   D(10,8,17,19)         -64.3916         -DE/DX =    0.0                 !
 ! D36   D(10,8,17,20)          55.6968         -DE/DX =    0.0                 !
 ! D37   D(8,10,13,14)          62.3804         -DE/DX =    0.0                 !
 ! D38   D(8,10,13,15)        -177.6128         -DE/DX =    0.0                 !
 ! D39   D(8,10,13,16)         -57.7303         -DE/DX =    0.0                 !
 ! D40   D(11,10,13,14)       -175.4071         -DE/DX =    0.0                 !
 ! D41   D(11,10,13,15)        -55.4003         -DE/DX =    0.0                 !
 ! D42   D(11,10,13,16)         64.4822         -DE/DX =    0.0                 !
 ! D43   D(12,10,13,14)        -60.2634         -DE/DX =    0.0                 !
 ! D44   D(12,10,13,15)         59.7434         -DE/DX =    0.0                 !
 ! D45   D(12,10,13,16)        179.6259         -DE/DX =    0.0                 !
 --------------------------------------------------------------------------------
 GradGradGradGradGradGradGradGradGradGradGradGradGradGradGradGradGradGrad

 Largest change from initial coordinates is atom    3       0.088 Angstoms.
 Leave Link  103 at Mon Sep 14 19:15:09 2015, MaxMem=  402653184 cpu:       0.0
 (Enter /share/apps/g09/l202.exe)
                          Input orientation:                          
 ---------------------------------------------------------------------
 Center     Atomic      Atomic             Coordinates (Angstroms)
 Number     Number       Type             X           Y           Z
 ---------------------------------------------------------------------
      1          6           0       -2.576126   -0.171167   -0.568148
      2          1           0       -2.435682   -0.253836   -1.651609
      3          1           0       -2.746709    0.887174   -0.339741
      4          1           0       -3.493006   -0.713708   -0.312898
      5          6           0       -1.377702   -0.724795    0.199550
      6          1           0       -1.571406   -0.667249    1.287770
      7          1           0       -1.262285   -1.802543   -0.027853
      8          6           0       -0.066046    0.015665   -0.137485
      9          1           0       -0.017285    0.144353   -1.249284
     10          6           0        1.168448   -0.819182    0.272267
     11          1           0        2.083795   -0.274051   -0.032445
     12          1           0        1.175228   -1.762108   -0.309203
     13          6           0        1.248339   -1.142916    1.761845
     14          1           0        0.399886   -1.753224    2.090164
     15          1           0        2.163286   -1.698200    1.995766
     16          1           0        1.250630   -0.231684    2.371075
     17          6           0       -0.031399    1.410611    0.498164
     18          1           0       -0.867073    2.025622    0.147668
     19          1           0       -0.099503    1.358245    1.590190
     20          1           0        0.895609    1.938192    0.252108
 ---------------------------------------------------------------------
                    Distance matrix (angstroms):
                    1          2          3          4          5
     1  C    0.000000
     2  H    1.095649   0.000000
     3  H    1.096062   1.766250   0.000000
     4  H    1.095524   1.766795   1.766494   0.000000
     5  C    1.527117   2.183555   2.182535   2.176519   0.000000
     6  H    2.167946   3.091574   2.538968   2.501367   1.106822
     7  H    2.163211   2.532180   3.087938   2.498585   1.107508
     8  C    2.553601   2.824956   2.826020   3.508106   1.543475
     9  H    2.666677   2.483760   2.971331   3.700503   2.169164
    10  C    3.892050   4.124398   4.314471   4.699222   2.548936
    11  H    4.691740   4.800809   4.977614   5.601130   3.498421
    12  H    4.082990   4.137101   4.732993   4.784513   2.802196
    13  C    4.582543   5.100406   4.949580   5.193181   3.084102
    14  H    4.292572   4.928435   4.772547   4.691472   2.791399
    15  H    5.600670   6.044835   6.020532   6.188117   4.088093
    16  H    4.825635   5.456315   4.957730   5.471575   3.444823
    17  C    3.180358   3.629392   2.889460   4.141651   2.541979
    18  H    2.873871   3.300585   2.250926   3.822509   2.797896
    19  H    3.623698   4.308805   3.309720   4.408015   2.811890
    20  H    4.144292   4.418894   3.836849   5.158657   3.501743
                    6          7          8          9         10
     6  H    0.000000
     7  H    1.765024   0.000000
     8  C    2.182621   2.179194   0.000000
     9  H    3.083932   2.613871   1.120284   0.000000
    10  C    2.925941   2.639230   1.545587   2.156265   0.000000
    11  H    3.906157   3.678663   2.171815   2.463797   1.108096
    12  H    3.360512   2.454030   2.175023   2.437300   1.107819
    13  C    2.898616   3.152993   2.584061   3.510807   1.526444
    14  H    2.389387   2.692813   2.882443   3.863515   2.183546
    15  H    3.938533   3.980007   3.529591   4.322065   2.175506
    16  H    3.054039   3.812767   2.843886   3.854350   2.181033
    17  C    2.704183   3.480823   1.533338   2.158051   2.542172
    18  H    3.007902   3.852511   2.182403   2.492547   3.500254
    19  H    2.522020   3.736402   2.188264   3.089160   2.843555
    20  H    3.734580   4.327584   2.184645   2.511059   2.770913
                   11         12         13         14         15
    11  H    0.000000
    12  H    1.765333   0.000000
    13  C    2.161572   2.162865   0.000000
    14  H    3.086903   2.521547   1.095510   0.000000
    15  H    2.479549   2.508630   1.095530   1.766781   0.000000
    16  H    2.544183   3.087357   1.096134   1.765718   1.767616
    17  C    2.755662   3.489117   3.123319   3.567958   4.089519
    18  H    3.745471   4.327427   4.137653   4.433751   5.144452
    19  H    3.172400   3.869009   2.846392   3.190705   3.824469
    20  H    2.527207   3.753063   3.449196   4.153402   4.227375
                   16         17         18         19         20
    16  H    0.000000
    17  C    2.801522   0.000000
    18  H    3.810989   1.095188   0.000000
    19  H    2.227221   1.095400   1.765057   0.000000
    20  H    3.053592   1.094637   1.767936   1.765517   0.000000
 Stoichiometry    C6H14
 Framework group  C1[X(C6H14)]
 Deg. of freedom    54
 Full point group                 C1      NOp   1
 Largest Abelian subgroup         C1      NOp   1
 Largest concise Abelian subgroup C1      NOp   1
                         Standard orientation:                         
 ---------------------------------------------------------------------
 Center     Atomic      Atomic             Coordinates (Angstroms)
 Number     Number       Type             X           Y           Z
 ---------------------------------------------------------------------
      1          6           0        2.432322   -0.432462   -0.045853
      2          1           0        2.735891   -0.406062    1.006572
      3          1           0        2.694374    0.536178   -0.486780
      4          1           0        3.040375   -1.195133   -0.544627
      5          6           0        0.942456   -0.732442   -0.195502
      6          1           0        0.679571   -0.796280   -1.268755
      7          1           0        0.725428   -1.733188    0.226374
      8          6           0        0.054188    0.322166    0.498109
      9          1           0        0.491798    0.533143    1.507576
     10          6           0       -1.375061   -0.217463    0.732392
     11          1           0       -1.960948    0.550669    1.275150
     12          1           0       -1.323987   -1.089952    1.413139
     13          6           0       -2.119939   -0.611806   -0.540274
     14          1           0       -1.615912   -1.428582   -1.068455
     15          1           0       -3.138377   -0.945609   -0.313238
     16          1           0       -2.196593    0.230304   -1.237758
     17          6           0        0.030972    1.638714   -0.287567
     18          1           0        1.038094    2.057216   -0.387563
     19          1           0       -0.366588    1.498333   -1.298577
     20          1           0       -0.592762    2.388712    0.209110
 ---------------------------------------------------------------------
 Rotational constants (GHZ):      5.1520903      2.1358300      1.8164137
 Leave Link  202 at Mon Sep 14 19:15:09 2015, MaxMem=  402653184 cpu:       0.0
 (Enter /share/apps/g09/l601.exe)
 Copying SCF densities to generalized density rwf, IOpCl= 0 IROHF=0.

 **********************************************************************

            Population analysis using the SCF density.

 **********************************************************************

 Orbital symmetries:
       Occupied  (A) (A) (A) (A) (A) (A) (A) (A) (A) (A) (A) (A)
                 (A) (A) (A) (A) (A) (A) (A)
       Virtual   (A) (A) (A) (A) (A) (A) (A) (A) (A) (A) (A) (A)
                 (A) (A) (A) (A) (A) (A) (A)
 The electronic state is 1-A.
 Alpha  occ. eigenvalues --   -1.06466  -0.97227  -0.91588  -0.83476  -0.78105
 Alpha  occ. eigenvalues --   -0.68325  -0.58067  -0.56160  -0.55501  -0.52572
 Alpha  occ. eigenvalues --   -0.48764  -0.48322  -0.47738  -0.46559  -0.45404
 Alpha  occ. eigenvalues --   -0.42533  -0.40809  -0.40687  -0.40184
 Alpha virt. eigenvalues --    0.15455   0.16218   0.16540   0.17748   0.18484
 Alpha virt. eigenvalues --    0.21223   0.21395   0.21956   0.22135   0.22549
 Alpha virt. eigenvalues --    0.22682   0.23105   0.23344   0.23606   0.24357
 Alpha virt. eigenvalues --    0.24887   0.25619   0.25875   0.26483
          Condensed to atoms (all electrons):
              1          2          3          4          5          6
     1  C    4.458750   0.000000   0.000000   0.000000   0.000000   0.000000
     2  H    0.000000   0.855982   0.000000   0.000000   0.000000   0.000000
     3  H    0.000000   0.000000   0.853846   0.000000   0.000000   0.000000
     4  H    0.000000   0.000000   0.000000   0.858170   0.000000   0.000000
     5  C    0.000000   0.000000   0.000000   0.000000   4.253861   0.000000
     6  H    0.000000   0.000000   0.000000   0.000000   0.000000   0.867673
     7  H    0.000000   0.000000   0.000000   0.000000   0.000000   0.000000
     8  C    0.000000   0.000000   0.000000   0.000000   0.000000   0.000000
     9  H    0.000000   0.000000   0.000000   0.000000   0.000000   0.000000
    10  C    0.000000   0.000000   0.000000   0.000000   0.000000   0.000000
    11  H    0.000000   0.000000   0.000000   0.000000   0.000000   0.000000
    12  H    0.000000   0.000000   0.000000   0.000000   0.000000   0.000000
    13  C    0.000000   0.000000   0.000000   0.000000   0.000000   0.000000
    14  H    0.000000   0.000000   0.000000   0.000000   0.000000   0.000000
    15  H    0.000000   0.000000   0.000000   0.000000   0.000000   0.000000
    16  H    0.000000   0.000000   0.000000   0.000000   0.000000   0.000000
    17  C    0.000000   0.000000   0.000000   0.000000   0.000000   0.000000
    18  H    0.000000   0.000000   0.000000   0.000000   0.000000   0.000000
    19  H    0.000000   0.000000   0.000000   0.000000   0.000000   0.000000
    20  H    0.000000   0.000000   0.000000   0.000000   0.000000   0.000000
              7          8          9         10         11         12
     1  C    0.000000   0.000000   0.000000   0.000000   0.000000   0.000000
     2  H    0.000000   0.000000   0.000000   0.000000   0.000000   0.000000
     3  H    0.000000   0.000000   0.000000   0.000000   0.000000   0.000000
     4  H    0.000000   0.000000   0.000000   0.000000   0.000000   0.000000
     5  C    0.000000   0.000000   0.000000   0.000000   0.000000   0.000000
     6  H    0.000000   0.000000   0.000000   0.000000   0.000000   0.000000
     7  H    0.871761   0.000000   0.000000   0.000000   0.000000   0.000000
     8  C    0.000000   4.019313   0.000000   0.000000   0.000000   0.000000
     9  H    0.000000   0.000000   0.889121   0.000000   0.000000   0.000000
    10  C    0.000000   0.000000   0.000000   4.261560   0.000000   0.000000
    11  H    0.000000   0.000000   0.000000   0.000000   0.871658   0.000000
    12  H    0.000000   0.000000   0.000000   0.000000   0.000000   0.873671
    13  C    0.000000   0.000000   0.000000   0.000000   0.000000   0.000000
    14  H    0.000000   0.000000   0.000000   0.000000   0.000000   0.000000
    15  H    0.000000   0.000000   0.000000   0.000000   0.000000   0.000000
    16  H    0.000000   0.000000   0.000000   0.000000   0.000000   0.000000
    17  C    0.000000   0.000000   0.000000   0.000000   0.000000   0.000000
    18  H    0.000000   0.000000   0.000000   0.000000   0.000000   0.000000
    19  H    0.000000   0.000000   0.000000   0.000000   0.000000   0.000000
    20  H    0.000000   0.000000   0.000000   0.000000   0.000000   0.000000
             13         14         15         16         17         18
     1  C    0.000000   0.000000   0.000000   0.000000   0.000000   0.000000
     2  H    0.000000   0.000000   0.000000   0.000000   0.000000   0.000000
     3  H    0.000000   0.000000   0.000000   0.000000   0.000000   0.000000
     4  H    0.000000   0.000000   0.000000   0.000000   0.000000   0.000000
     5  C    0.000000   0.000000   0.000000   0.000000   0.000000   0.000000
     6  H    0.000000   0.000000   0.000000   0.000000   0.000000   0.000000
     7  H    0.000000   0.000000   0.000000   0.000000   0.000000   0.000000
     8  C    0.000000   0.000000   0.000000   0.000000   0.000000   0.000000
     9  H    0.000000   0.000000   0.000000   0.000000   0.000000   0.000000
    10  C    0.000000   0.000000   0.000000   0.000000   0.000000   0.000000
    11  H    0.000000   0.000000   0.000000   0.000000   0.000000   0.000000
    12  H    0.000000   0.000000   0.000000   0.000000   0.000000   0.000000
    13  C    4.449734   0.000000   0.000000   0.000000   0.000000   0.000000
    14  H    0.000000   0.855495   0.000000   0.000000   0.000000   0.000000
    15  H    0.000000   0.000000   0.860619   0.000000   0.000000   0.000000
    16  H    0.000000   0.000000   0.000000   0.853461   0.000000   0.000000
    17  C    0.000000   0.000000   0.000000   0.000000   4.487239   0.000000
    18  H    0.000000   0.000000   0.000000   0.000000   0.000000   0.853273
    19  H    0.000000   0.000000   0.000000   0.000000   0.000000   0.000000
    20  H    0.000000   0.000000   0.000000   0.000000   0.000000   0.000000
             19         20
     1  C    0.000000   0.000000
     2  H    0.000000   0.000000
     3  H    0.000000   0.000000
     4  H    0.000000   0.000000
     5  C    0.000000   0.000000
     6  H    0.000000   0.000000
     7  H    0.000000   0.000000
     8  C    0.000000   0.000000
     9  H    0.000000   0.000000
    10  C    0.000000   0.000000
    11  H    0.000000   0.000000
    12  H    0.000000   0.000000
    13  C    0.000000   0.000000
    14  H    0.000000   0.000000
    15  H    0.000000   0.000000
    16  H    0.000000   0.000000
    17  C    0.000000   0.000000
    18  H    0.000000   0.000000
    19  H    0.849787   0.000000
    20  H    0.000000   0.855028
 Mulliken atomic charges:
              1
     1  C   -0.458750
     2  H    0.144018
     3  H    0.146154
     4  H    0.141830
     5  C   -0.253861
     6  H    0.132327
     7  H    0.128239
     8  C   -0.019313
     9  H    0.110879
    10  C   -0.261560
    11  H    0.128342
    12  H    0.126329
    13  C   -0.449734
    14  H    0.144505
    15  H    0.139381
    16  H    0.146539
    17  C   -0.487239
    18  H    0.146727
    19  H    0.150213
    20  H    0.144972
 Sum of Mulliken atomic charges =   0.00000
 Mulliken charges with hydrogens summed into heavy atoms:
              1
     1  C   -0.026748
     5  C    0.006706
     8  C    0.091566
    10  C   -0.006888
    13  C   -0.019309
    17  C   -0.045327
 Sum of Mulliken charges with hydrogens summed into heavy atoms =   0.00000
 Charge=              0.0000 electrons
 Dipole moment (field-independent basis, Debye):
    X=             -0.0034    Y=              0.0308    Z=             -0.0647  Tot=              0.0717
 N-N= 1.683648508117D+02 E-N=-2.576250038499D+02  KE=-5.624648566995D+01
 Leave Link  601 at Mon Sep 14 19:15:11 2015, MaxMem=  402653184 cpu:       0.0
 (Enter /share/apps/g09/l9999.exe)
 1\1\GINC-COMPUTE-0-7\FOpt\RPM6\ZDO\C6H14\HETANJIN\14-Sep-2015\0\\#p PM
 6 opt\\using PM6 to do opt and freq calc.\\0,1\C,-2.5761260366,-0.1711
 666262,-0.5681479099\H,-2.4356815705,-0.253836487,-1.6516091415\H,-2.7
 467091034,0.8871737151,-0.3397414296\H,-3.4930056116,-0.7137080264,-0.
 3128981813\C,-1.3777015715,-0.724794522,0.1995498396\H,-1.5714063986,-
 0.6672493587,1.2877695997\H,-1.2622851157,-1.8025425496,-0.0278530513\
 C,-0.0660457873,0.0156650842,-0.137484761\H,-0.0172849292,0.1443530084
 ,-1.2492844007\C,1.1684477836,-0.8191819898,0.2722668316\H,2.083794510
 6,-0.2740505036,-0.0324452102\H,1.1752284872,-1.7621076297,-0.30920313
 44\C,1.2483393174,-1.1429159253,1.7618454678\H,0.3998860914,-1.7532238
 546,2.0901639158\H,2.1632855322,-1.6982004215,1.995766208\H,1.25062978
 29,-0.231684277,2.3710750819\C,-0.0313989148,1.4106111878,0.4981640146
 \H,-0.867072615,2.0256219812,0.1476680568\H,-0.0995028388,1.3582447031
 ,1.5901899111\H,0.8956089875,1.9381924917,0.2521082932\\Version=EM64L-
 G09RevA.01\State=1-A\HF=-0.055777\RMSD=7.316e-09\RMSF=2.946e-06\Dipole
 =-0.005706,0.0155015,0.0228854\PG=C01 [X(C6H14)]\\@


 I WANT IT ALL - RICH, THIN, AND CHOCOLATE.
 Job cpu time:  0 days  0 hours  0 minutes 30.3 seconds.
 File lengths (MBytes):  RWF=      5 Int=      0 D2E=      0 Chk=      3 Scr=      1
 Normal termination of Gaussian 09 at Mon Sep 14 19:15:13 2015.
