using PM6 to do opt and freq calc.                                      
FOpt      RPM6                                                        ZDO                 
Number of atoms                            I               20
Info1-9                                    I   N=           9
          33          29           0           0           0         110
           2           8         302
Charge                                     I                0
Multiplicity                               I                1
Number of electrons                        I               38
Number of alpha electrons                  I               19
Number of beta electrons                   I               19
Number of basis functions                  I               38
Number of independent functions            I               38
Number of point charges in /Mol/           I                0
Number of translation vectors              I                0
Atomic numbers                             I   N=          20
           6           1           1           1           6           1
           1           6           1           6           1           1
           6           1           1           1           6           1
           1           1
Nuclear charges                            R   N=          20
  4.00000000E+00  1.00000000E+00  1.00000000E+00  1.00000000E+00  4.00000000E+00
  1.00000000E+00  1.00000000E+00  4.00000000E+00  1.00000000E+00  4.00000000E+00
  1.00000000E+00  1.00000000E+00  4.00000000E+00  1.00000000E+00  1.00000000E+00
  1.00000000E+00  4.00000000E+00  1.00000000E+00  1.00000000E+00  1.00000000E+00
Current cartesian coordinates              R   N=          60
  4.59642307E+00 -8.17234708E-01 -8.66487092E-02  5.17008394E+00 -7.67345224E-01
  1.90214465E+00  5.09162973E+00  1.01322994E+00 -9.19881443E-01  5.74547630E+00
 -2.25847415E+00 -1.02919669E+00  1.78098347E+00 -1.38411433E+00 -3.69444985E-01
  1.28420352E+00 -1.50475045E+00 -2.39759892E+00  1.37086067E+00 -3.27525152E+00
  4.27784063E-01  1.02400988E-01  6.08806185E-01  9.41289619E-01  9.29363714E-01
  1.00749518E+00  2.84890514E+00 -2.59848779E+00 -4.10945073E-01  1.38402106E+00
 -3.70565530E+00  1.04061452E+00  2.40968409E+00 -2.50197232E+00 -2.05971156E+00
  2.67044489E+00 -4.00610431E+00 -1.15614538E+00 -1.02097030E+00 -3.05363174E+00
 -2.69962920E+00 -2.01908719E+00 -5.93067377E+00 -1.78694132E+00 -5.91933957E-01
 -4.15095902E+00  4.35212367E-01 -2.33902361E+00  5.85293832E-02  3.09672110E+00
 -5.43423275E-01  1.96171276E+00  3.88757482E+00 -7.32388816E-01 -6.92750368E-01
  2.83143872E+00 -2.45395412E+00 -1.12015706E+00  4.51401107E+00  3.95161422E-01
Force Field                                I                0
Int Atom Types                             I   N=          20
           0           0           0           0           0           0
           0           0           0           0           0           0
           0           0           0           0           0           0
           0           0
MM charges                                 R   N=          20
  0.00000000E+00  0.00000000E+00  0.00000000E+00  0.00000000E+00  0.00000000E+00
  0.00000000E+00  0.00000000E+00  0.00000000E+00  0.00000000E+00  0.00000000E+00
  0.00000000E+00  0.00000000E+00  0.00000000E+00  0.00000000E+00  0.00000000E+00
  0.00000000E+00  0.00000000E+00  0.00000000E+00  0.00000000E+00  0.00000000E+00
Integer atomic weights                     I   N=          20
          12           1           1           1          12           1
           1          12           1          12           1           1
          12           1           1           1          12           1
           1           1
Real atomic weights                        R   N=          20
  1.20000000E+01  1.00782504E+00  1.00782504E+00  1.00782504E+00  1.20000000E+01
  1.00782504E+00  1.00782504E+00  1.20000000E+01  1.00782504E+00  1.20000000E+01
  1.00782504E+00  1.00782504E+00  1.20000000E+01  1.00782504E+00  1.00782504E+00
  1.00782504E+00  1.20000000E+01  1.00782504E+00  1.00782504E+00  1.00782504E+00
Atom fragment info                         I   N=          20
           0           0           0           0           0           0
           0           0           0           0           0           0
           0           0           0           0           0           0
           0           0
Atom residue num                           I   N=          20
           0           0           0           0           0           0
           0           0           0           0           0           0
           0           0           0           0           0           0
           0           0
Nuclear spins                              I   N=          20
           0           1           1           1           0           1
           1           0           1           0           1           1
           0           1           1           1           0           1
           1           1
Nuclear ZEff                               R   N=          20
 -3.90000000E+00 -1.00000000E+00 -1.00000000E+00 -1.00000000E+00 -3.90000000E+00
 -1.00000000E+00 -1.00000000E+00 -3.90000000E+00 -1.00000000E+00 -3.90000000E+00
 -1.00000000E+00 -1.00000000E+00 -3.90000000E+00 -1.00000000E+00 -1.00000000E+00
 -1.00000000E+00 -3.90000000E+00 -1.00000000E+00 -1.00000000E+00 -1.00000000E+00
Nuclear QMom                               R   N=          20
  0.00000000E+00  0.00000000E+00  0.00000000E+00  0.00000000E+00  0.00000000E+00
  0.00000000E+00  0.00000000E+00  0.00000000E+00  0.00000000E+00  0.00000000E+00
  0.00000000E+00  0.00000000E+00  0.00000000E+00  0.00000000E+00  0.00000000E+00
  0.00000000E+00  0.00000000E+00  0.00000000E+00  0.00000000E+00  0.00000000E+00
Nuclear GFac                               R   N=          20
  0.00000000E+00  2.79284600E+00  2.79284600E+00  2.79284600E+00  0.00000000E+00
  2.79284600E+00  2.79284600E+00  0.00000000E+00  2.79284600E+00  0.00000000E+00
  2.79284600E+00  2.79284600E+00  0.00000000E+00  2.79284600E+00  2.79284600E+00
  2.79284600E+00  0.00000000E+00  2.79284600E+00  2.79284600E+00  2.79284600E+00
MicOpt                                     I   N=          20
          -1          -1          -1          -1          -1          -1
          -1          -1          -1          -1          -1          -1
          -1          -1          -1          -1          -1          -1
          -1          -1
Number of contracted shells                I               20
Number of primitive shells                 I              120
Pure/Cartesian d shells                    I                0
Pure/Cartesian f shells                    I                0
Highest angular momentum                   I                1
Largest degree of contraction              I                6
Shell types                                I   N=          20
          -1           0           0           0          -1           0
           0          -1           0          -1           0           0
          -1           0           0           0          -1           0
           0           0
Number of primitives per shell             I   N=          20
           6           6           6           6           6           6
           6           6           6           6           6           6
           6           6           6           6           6           6
           6           6
Shell to atom map                          I   N=          20
           1           2           3           4           5           6
           7           8           9          10          11          12
          13          14          15          16          17          18
          19          20
Primitive exponents                        R   N=         120
  1.14476344E+01  3.29633588E+00  1.29653143E+00  5.92558930E-01  2.94896438E-01
  1.51447622E-01  4.39461478E+00  1.26542531E+00  4.97723458E-01  2.27476537E-01
  1.13207340E-01  5.81389949E-02  4.39461478E+00  1.26542531E+00  4.97723458E-01
  2.27476537E-01  1.13207340E-01  5.81389949E-02  4.39461478E+00  1.26542531E+00
  4.97723458E-01  2.27476537E-01  1.13207340E-01  5.81389949E-02  1.14476344E+01
  3.29633588E+00  1.29653143E+00  5.92558930E-01  2.94896438E-01  1.51447622E-01
  4.39461478E+00  1.26542531E+00  4.97723458E-01  2.27476537E-01  1.13207340E-01
  5.81389949E-02  4.39461478E+00  1.26542531E+00  4.97723458E-01  2.27476537E-01
  1.13207340E-01  5.81389949E-02  1.14476344E+01  3.29633588E+00  1.29653143E+00
  5.92558930E-01  2.94896438E-01  1.51447622E-01  4.39461478E+00  1.26542531E+00
  4.97723458E-01  2.27476537E-01  1.13207340E-01  5.81389949E-02  1.14476344E+01
  3.29633588E+00  1.29653143E+00  5.92558930E-01  2.94896438E-01  1.51447622E-01
  4.39461478E+00  1.26542531E+00  4.97723458E-01  2.27476537E-01  1.13207340E-01
  5.81389949E-02  4.39461478E+00  1.26542531E+00  4.97723458E-01  2.27476537E-01
  1.13207340E-01  5.81389949E-02  1.14476344E+01  3.29633588E+00  1.29653143E+00
  5.92558930E-01  2.94896438E-01  1.51447622E-01  4.39461478E+00  1.26542531E+00
  4.97723458E-01  2.27476537E-01  1.13207340E-01  5.81389949E-02  4.39461478E+00
  1.26542531E+00  4.97723458E-01  2.27476537E-01  1.13207340E-01  5.81389949E-02
  4.39461478E+00  1.26542531E+00  4.97723458E-01  2.27476537E-01  1.13207340E-01
  5.81389949E-02  1.14476344E+01  3.29633588E+00  1.29653143E+00  5.92558930E-01
  2.94896438E-01  1.51447622E-01  4.39461478E+00  1.26542531E+00  4.97723458E-01
  2.27476537E-01  1.13207340E-01  5.81389949E-02  4.39461478E+00  1.26542531E+00
  4.97723458E-01  2.27476537E-01  1.13207340E-01  5.81389949E-02  4.39461478E+00
  1.26542531E+00  4.97723458E-01  2.27476537E-01  1.13207340E-01  5.81389949E-02
Contraction coefficients                   R   N=         120
 -9.73739553E-03 -7.26587678E-02 -1.71615520E-01  1.28977624E-01  7.28861451E-01
  3.01331742E-01 -9.73739553E-03 -7.26587678E-02 -1.71615520E-01  1.28977624E-01
  7.28861451E-01  3.01331742E-01 -9.73739553E-03 -7.26587678E-02 -1.71615520E-01
  1.28977624E-01  7.28861451E-01  3.01331742E-01 -9.73739553E-03 -7.26587678E-02
 -1.71615520E-01  1.28977624E-01  7.28861451E-01  3.01331742E-01 -9.73739553E-03
 -7.26587678E-02 -1.71615520E-01  1.28977624E-01  7.28861451E-01  3.01331742E-01
 -9.73739553E-03 -7.26587678E-02 -1.71615520E-01  1.28977624E-01  7.28861451E-01
  3.01331742E-01 -9.73739553E-03 -7.26587678E-02 -1.71615520E-01  1.28977624E-01
  7.28861451E-01  3.01331742E-01 -9.73739553E-03 -7.26587678E-02 -1.71615520E-01
  1.28977624E-01  7.28861451E-01  3.01331742E-01 -9.73739553E-03 -7.26587678E-02
 -1.71615520E-01  1.28977624E-01  7.28861451E-01  3.01331742E-01 -9.73739553E-03
 -7.26587678E-02 -1.71615520E-01  1.28977624E-01  7.28861451E-01  3.01331742E-01
 -9.73739553E-03 -7.26587678E-02 -1.71615520E-01  1.28977624E-01  7.28861451E-01
  3.01331742E-01 -9.73739553E-03 -7.26587678E-02 -1.71615520E-01  1.28977624E-01
  7.28861451E-01  3.01331742E-01 -9.73739553E-03 -7.26587678E-02 -1.71615520E-01
  1.28977624E-01  7.28861451E-01  3.01331742E-01 -9.73739553E-03 -7.26587678E-02
 -1.71615520E-01  1.28977624E-01  7.28861451E-01  3.01331742E-01 -9.73739553E-03
 -7.26587678E-02 -1.71615520E-01  1.28977624E-01  7.28861451E-01  3.01331742E-01
 -9.73739553E-03 -7.26587678E-02 -1.71615520E-01  1.28977624E-01  7.28861451E-01
  3.01331742E-01 -9.73739553E-03 -7.26587678E-02 -1.71615520E-01  1.28977624E-01
  7.28861451E-01  3.01331742E-01 -9.73739553E-03 -7.26587678E-02 -1.71615520E-01
  1.28977624E-01  7.28861451E-01  3.01331742E-01 -9.73739553E-03 -7.26587678E-02
 -1.71615520E-01  1.28977624E-01  7.28861451E-01  3.01331742E-01 -9.73739553E-03
 -7.26587678E-02 -1.71615520E-01  1.28977624E-01  7.28861451E-01  3.01331742E-01
P(S=P) Contraction coefficients            R   N=         120
 -8.10494336E-03 -1.71547892E-02  7.36978576E-02  3.96514999E-01  4.97808488E-01
  1.17482582E-01  0.00000000E+00  0.00000000E+00  0.00000000E+00  0.00000000E+00
  0.00000000E+00  0.00000000E+00  0.00000000E+00  0.00000000E+00  0.00000000E+00
  0.00000000E+00  0.00000000E+00  0.00000000E+00  0.00000000E+00  0.00000000E+00
  0.00000000E+00  0.00000000E+00  0.00000000E+00  0.00000000E+00 -8.10494336E-03
 -1.71547892E-02  7.36978576E-02  3.96514999E-01  4.97808488E-01  1.17482582E-01
  0.00000000E+00  0.00000000E+00  0.00000000E+00  0.00000000E+00  0.00000000E+00
  0.00000000E+00  0.00000000E+00  0.00000000E+00  0.00000000E+00  0.00000000E+00
  0.00000000E+00  0.00000000E+00 -8.10494336E-03 -1.71547892E-02  7.36978576E-02
  3.96514999E-01  4.97808488E-01  1.17482582E-01  0.00000000E+00  0.00000000E+00
  0.00000000E+00  0.00000000E+00  0.00000000E+00  0.00000000E+00 -8.10494336E-03
 -1.71547892E-02  7.36978576E-02  3.96514999E-01  4.97808488E-01  1.17482582E-01
  0.00000000E+00  0.00000000E+00  0.00000000E+00  0.00000000E+00  0.00000000E+00
  0.00000000E+00  0.00000000E+00  0.00000000E+00  0.00000000E+00  0.00000000E+00
  0.00000000E+00  0.00000000E+00 -8.10494336E-03 -1.71547892E-02  7.36978576E-02
  3.96514999E-01  4.97808488E-01  1.17482582E-01  0.00000000E+00  0.00000000E+00
  0.00000000E+00  0.00000000E+00  0.00000000E+00  0.00000000E+00  0.00000000E+00
  0.00000000E+00  0.00000000E+00  0.00000000E+00  0.00000000E+00  0.00000000E+00
  0.00000000E+00  0.00000000E+00  0.00000000E+00  0.00000000E+00  0.00000000E+00
  0.00000000E+00 -8.10494336E-03 -1.71547892E-02  7.36978576E-02  3.96514999E-01
  4.97808488E-01  1.17482582E-01  0.00000000E+00  0.00000000E+00  0.00000000E+00
  0.00000000E+00  0.00000000E+00  0.00000000E+00  0.00000000E+00  0.00000000E+00
  0.00000000E+00  0.00000000E+00  0.00000000E+00  0.00000000E+00  0.00000000E+00
  0.00000000E+00  0.00000000E+00  0.00000000E+00  0.00000000E+00  0.00000000E+00
Coordinates of each shell                  R   N=          60
  4.59642307E+00 -8.17234708E-01 -8.66487092E-02  5.17008394E+00 -7.67345224E-01
  1.90214465E+00  5.09162973E+00  1.01322994E+00 -9.19881443E-01  5.74547630E+00
 -2.25847415E+00 -1.02919669E+00  1.78098347E+00 -1.38411433E+00 -3.69444985E-01
  1.28420352E+00 -1.50475045E+00 -2.39759892E+00  1.37086067E+00 -3.27525152E+00
  4.27784063E-01  1.02400988E-01  6.08806185E-01  9.41289619E-01  9.29363714E-01
  1.00749518E+00  2.84890514E+00 -2.59848779E+00 -4.10945073E-01  1.38402106E+00
 -3.70565530E+00  1.04061452E+00  2.40968409E+00 -2.50197232E+00 -2.05971156E+00
  2.67044489E+00 -4.00610431E+00 -1.15614538E+00 -1.02097030E+00 -3.05363174E+00
 -2.69962920E+00 -2.01908719E+00 -5.93067377E+00 -1.78694132E+00 -5.91933957E-01
 -4.15095902E+00  4.35212367E-01 -2.33902361E+00  5.85293832E-02  3.09672110E+00
 -5.43423275E-01  1.96171276E+00  3.88757482E+00 -7.32388816E-01 -6.92750368E-01
  2.83143872E+00 -2.45395412E+00 -1.12015706E+00  4.51401107E+00  3.95161422E-01
Constraint Structure                       R   N=          60
  4.64140903E+00 -8.17326632E-01 -1.20454437E-01  5.20372037E+00 -5.07556562E-01
  1.88369128E+00  5.11701462E+00  8.92725221E-01 -1.24780049E+00  5.74772475E+00
 -2.43643123E+00 -8.84214859E-01  1.81950506E+00 -1.41550867E+00 -2.96820095E-01
  1.32009120E+00 -1.66876580E+00 -2.32727517E+00  1.51602841E+00 -3.26029115E+00
  6.75163608E-01  8.49560033E-02  6.00019063E-01  9.17079366E-01  8.42688568E-01
  1.00663216E+00  2.84305398E+00 -2.63410565E+00 -3.87982236E-01  1.34376330E+00
 -3.75022585E+00  1.09223048E+00  2.34546564E+00 -2.55586048E+00 -2.06140056E+00
  2.62178670E+00 -4.08889398E+00 -1.15112456E+00 -1.03707685E+00 -3.12385767E+00
 -2.73750221E+00 -2.02447542E+00 -6.01957008E+00 -1.79033363E+00 -4.96235227E-01
 -4.27797978E+00  4.76659545E-01 -2.35429986E+00  1.12081585E-01  3.11982091E+00
 -5.33014660E-01  2.01712065E+00  4.00521004E+00 -4.34811433E-01 -3.86196189E-01
  2.82978788E+00 -2.55655235E+00 -1.26041086E+00  4.47164857E+00  3.15643891E-01
Num ILSW                                   I              100
ILSW                                       I   N=         100
           0           0           0           0           2           0
           0           0           0           0           0          -1
           0           0           0           0           0           0
           0           0           0           0           1           0
           1           0           0           0           0           0
           0           0      100000           0          -1           0
           0           0           0           0           0           0
           0           0           0          40           0           0
           0           0           1           0           0           0
           0           0           4          40           0           0
           0           0           0           0           0           0
           0           0           0           0           0           0
           0           0           0           0           0           0
           0           0           0           0           0           0
           0           0           0           0           0           0
           0           0           0           0           0           0
           0           0           0           0
Num RLSW                                   I               40
RLSW                                       R   N=          40
  1.00000000E+00  1.00000000E+00  1.00000000E+00  1.00000000E+00  1.00000000E+00
  0.00000000E+00  0.00000000E+00  1.00000000E+00  0.00000000E+00  0.00000000E+00
  0.00000000E+00  0.00000000E+00  1.00000000E+00  0.00000000E+00  0.00000000E+00
  0.00000000E+00  0.00000000E+00  1.00000000E+00  0.00000000E+00  0.00000000E+00
  0.00000000E+00  0.00000000E+00  1.00000000E+00  0.00000000E+00  0.00000000E+00
  0.00000000E+00  0.00000000E+00  1.00000000E+00  0.00000000E+00  0.00000000E+00
  0.00000000E+00  0.00000000E+00  0.00000000E+00  0.00000000E+00  0.00000000E+00
  0.00000000E+00  0.00000000E+00  0.00000000E+00  1.00000000E+00  1.00000000E+00
MxBond                                     I                4
NBond                                      I   N=          20
           4           1           1           1           4           1
           1           4           1           4           1           1
           4           1           1           1           4           1
           1           1
IBond                                      I   N=          80
           2           3           4           5           1           0
           0           0           1           0           0           0
           1           0           0           0           1           6
           7           8           5           0           0           0
           5           0           0           0           5           9
          10          17           8           0           0           0
           8          11          12          13          10           0
           0           0          10           0           0           0
          10          14          15          16          13           0
           0           0          13           0           0           0
          13           0           0           0           8          18
          19          20          17           0           0           0
          17           0           0           0          17           0
           0           0
RBond                                      R   N=          80
  1.00000000E+00  1.00000000E+00  1.00000000E+00  1.00000000E+00  1.00000000E+00
  0.00000000E+00  0.00000000E+00  0.00000000E+00  1.00000000E+00  0.00000000E+00
  0.00000000E+00  0.00000000E+00  1.00000000E+00  0.00000000E+00  0.00000000E+00
  0.00000000E+00  1.00000000E+00  1.00000000E+00  1.00000000E+00  1.00000000E+00
  1.00000000E+00  0.00000000E+00  0.00000000E+00  0.00000000E+00  1.00000000E+00
  0.00000000E+00  0.00000000E+00  0.00000000E+00  1.00000000E+00  1.00000000E+00
  1.00000000E+00  1.00000000E+00  1.00000000E+00  0.00000000E+00  0.00000000E+00
  0.00000000E+00  1.00000000E+00  1.00000000E+00  1.00000000E+00  1.00000000E+00
  1.00000000E+00  0.00000000E+00  0.00000000E+00  0.00000000E+00  1.00000000E+00
  0.00000000E+00  0.00000000E+00  0.00000000E+00  1.00000000E+00  1.00000000E+00
  1.00000000E+00  1.00000000E+00  1.00000000E+00  0.00000000E+00  0.00000000E+00
  0.00000000E+00  1.00000000E+00  0.00000000E+00  0.00000000E+00  0.00000000E+00
  1.00000000E+00  0.00000000E+00  0.00000000E+00  0.00000000E+00  1.00000000E+00
  1.00000000E+00  1.00000000E+00  1.00000000E+00  1.00000000E+00  0.00000000E+00
  0.00000000E+00  0.00000000E+00  1.00000000E+00  0.00000000E+00  0.00000000E+00
  0.00000000E+00  1.00000000E+00  0.00000000E+00  0.00000000E+00  0.00000000E+00
Virial Ratio                               R      9.990083471338467E-01
SCF Energy                                 R     -5.577698872565406E-02
Total Energy                               R     -5.577698872565406E-02
RMS Force                                  R      2.946202325544530E-06
RMS Density                                R      7.315748409930317E-09
External E-field                           R   N=          35
  0.00000000E+00  0.00000000E+00  0.00000000E+00  0.00000000E+00  0.00000000E+00
  0.00000000E+00  0.00000000E+00  0.00000000E+00  0.00000000E+00  0.00000000E+00
  0.00000000E+00  0.00000000E+00  0.00000000E+00  0.00000000E+00  0.00000000E+00
  0.00000000E+00  0.00000000E+00  0.00000000E+00  0.00000000E+00  0.00000000E+00
  0.00000000E+00  0.00000000E+00  0.00000000E+00  0.00000000E+00  0.00000000E+00
  0.00000000E+00  0.00000000E+00  0.00000000E+00  0.00000000E+00  0.00000000E+00
  0.00000000E+00  0.00000000E+00  0.00000000E+00  0.00000000E+00  0.00000000E+00
IOpCl                                      I                0
IROHF                                      I                0
Alpha Orbital Energies                     R   N=          38
 -1.06466333E+00 -9.72265428E-01 -9.15884806E-01 -8.34755289E-01 -7.81050406E-01
 -6.83250854E-01 -5.80669335E-01 -5.61599891E-01 -5.55010311E-01 -5.25723975E-01
 -4.87636494E-01 -4.83224910E-01 -4.77380009E-01 -4.65591211E-01 -4.54043350E-01
 -4.25332136E-01 -4.08094155E-01 -4.06866134E-01 -4.01841023E-01  1.54552352E-01
  1.62183906E-01  1.65397871E-01  1.77475597E-01  1.84842021E-01  2.12230308E-01
  2.13950507E-01  2.19561718E-01  2.21346896E-01  2.25489465E-01  2.26821008E-01
  2.31054119E-01  2.33439722E-01  2.36061661E-01  2.43572494E-01  2.48873970E-01
  2.56189272E-01  2.58747843E-01  2.64829603E-01
Alpha MO coefficients                      R   N=        1444
  2.35547782E-01 -8.14477323E-02  1.38875484E-03 -2.26533735E-04  1.01346306E-01
  1.06165448E-01  8.85579603E-02  3.73818797E-01 -3.29700384E-02  6.95736781E-02
  3.84340820E-02  1.61517274E-01  1.56455412E-01  4.66006785E-01 -1.81079155E-02
 -2.45748766E-02 -4.57665146E-02  1.88966839E-01  3.69543381E-01  7.00278861E-02
  2.00241035E-02 -5.33706227E-02  1.48878289E-01  1.51243587E-01  2.55134188E-01
  5.82868932E-02  2.59625954E-02  5.31689022E-02  1.16274574E-01  9.51020926E-02
  1.16193057E-01  3.08656400E-01 -2.31047219E-03 -9.43669650E-02  4.09477204E-02
  1.28540159E-01  1.37981747E-01  1.25136188E-01  4.58426774E-01 -6.45300176E-02
 -1.32762130E-02 -7.84884588E-03  1.98082097E-01  1.99611163E-01  1.99926489E-01
  3.44460051E-01  1.41986575E-01  1.75453853E-02  3.93340185E-03  1.32358201E-01
  1.30781030E-01  4.47051895E-03  1.78929192E-01 -1.96090142E-02 -3.81391664E-02
  2.21980389E-02 -3.67280400E-01  7.45505631E-02  1.44544596E-02  6.15213446E-02
 -1.67041512E-01 -1.50017144E-01 -4.05123694E-01 -2.14238913E-02 -2.16161133E-02
 -6.40580524E-02 -1.63486082E-01 -1.80813097E-01 -1.73682719E-01  2.79009189E-03
  5.43349249E-02 -4.06687645E-03 -6.62008289E-03  3.38620199E-02 -1.06323961E-02
 -1.97183748E-02 -2.90145433E-01  7.60838337E-03  3.91343542E-02  6.76291843E-03
 -1.27097408E-01 -1.06192207E-01 -1.47356174E-01 -1.68273028E-01 -1.00074456E-01
  8.29508608E-02  1.26002740E-02 -7.29225580E-02 -1.06340700E-01  2.37459649E-01
  4.76211872E-03  1.99431381E-01 -3.73242130E-02  1.06544655E-01 -1.36571766E-01
  1.14222808E-01  1.02329554E-01  5.37471039E-02 -3.89080377E-02 -8.61467907E-02
 -3.39781271E-01  1.04024774E-02  2.54948667E-02 -2.26271526E-02 -1.60256610E-01
 -1.67884012E-01 -1.28200928E-01  5.32389502E-01  3.28472592E-03 -4.52992554E-03
  3.05043276E-02  2.39215772E-01  2.22700997E-01  2.48744543E-01  2.44754497E-01
  9.41135262E-02  2.33097447E-02 -1.80854683E-02  1.14378360E-01  1.46242735E-01
  1.35836654E-01 -1.79766837E-01  1.57994006E-01  7.45638953E-03 -7.66791050E-02
 -5.12758251E-02 -1.19631074E-01 -2.92970659E-01  4.08176575E-02  1.90937383E-01
 -1.14376055E-01 -1.55679326E-01 -2.35278206E-01 -1.77816785E-01 -1.91852420E-02
 -1.38955900E-01 -9.54988499E-02 -1.50875597E-01  3.51961260E-01 -8.20543705E-02
 -1.12358122E-02 -1.02324588E-01  1.67159863E-01  1.93005846E-01  2.02496843E-01
  3.47272998E-01  7.69995051E-03  1.16110681E-01 -8.20517647E-02  1.96118679E-01
  1.97074723E-01  1.78623929E-01 -3.41748093E-01 -2.16149579E-01 -4.60325170E-02
 -3.61751549E-02 -2.12350005E-01 -2.00013310E-01 -1.97700922E-01  3.94324103E-01
 -1.63143377E-01 -4.83256717E-02 -6.22258832E-02  2.41537059E-01  2.05564186E-01
  1.42957610E-02  1.69816409E-01 -9.91297232E-02 -1.62827128E-01 -5.70198344E-02
 -3.38337689E-01  2.59411045E-02 -6.43500503E-02 -1.60233766E-01 -2.32187902E-01
 -1.76924745E-01  1.89098615E-01 -2.92726056E-02 -5.61906525E-02 -1.56807970E-01
  1.56931964E-01  9.32310584E-02  1.20761581E-01  1.25900152E-03  3.40403855E-02
 -3.85248248E-02 -5.65958072E-02  5.36777050E-03  3.43567686E-02 -4.28549422E-02
  5.56039749E-02  8.40811943E-02  1.13606197E-01  1.01498591E-01  1.05708376E-01
  7.12008917E-02 -2.16063441E-02 -2.05110528E-01 -3.48697159E-02  2.31488167E-01
  1.89640284E-01 -2.09614405E-01 -1.78910060E-01  3.94926986E-01  1.36259382E-01
  7.47074221E-02  1.44539714E-01  3.04692493E-01 -2.50250363E-01  1.65935666E-01
  6.89919864E-02 -1.07212598E-01 -1.74703623E-01 -1.87909246E-01  1.63806067E-01
 -7.29372561E-02 -3.55647988E-02 -1.96364721E-01  1.20362052E-01  1.00801801E-01
  1.30792578E-01 -1.60860798E-01  5.79651428E-02 -2.00829097E-01  1.86047982E-01
 -9.74766962E-02 -1.74189935E-01 -1.31487778E-01 -4.48844190E-02 -1.50601202E-01
 -5.02221981E-02  1.94078903E-01  7.79002165E-02 -1.18129165E-01 -1.13905991E-01
  5.05773419E-02  1.05903360E-01 -1.07101810E-01  2.68963410E-01 -1.67610817E-01
  1.51958433E-01 -8.29759637E-02  2.74281117E-01 -1.48620217E-02  2.76751454E-01
  2.08100814E-01 -4.08296538E-02 -1.30172102E-01 -2.29535389E-01  2.49357191E-01
  4.54251777E-03  2.07487176E-01  3.41459538E-02 -2.18382427E-01 -2.30142562E-01
  7.06286163E-02  3.75043332E-02  2.09284790E-01 -1.28057487E-01  6.10899431E-02
  1.97092315E-01  2.93218013E-01  8.54320650E-02  2.14809259E-01 -1.05104411E-01
  1.14483874E-01 -5.64490452E-03 -4.69576282E-02  3.71298364E-01 -1.25368720E-01
 -8.91713682E-02  2.54825516E-01 -1.58139803E-01 -1.86190802E-02 -6.93397126E-02
  3.73623365E-01 -1.21919732E-01  6.92801002E-02 -2.56842431E-01 -4.40495344E-03
  1.92153196E-01 -7.02107181E-02 -1.99998253E-01 -8.49686548E-02  6.60588137E-02
 -1.01447008E-01 -2.64646115E-01  2.01782772E-02 -5.68712348E-02  1.75286851E-01
 -1.49248744E-02  3.56727734E-02 -1.61535458E-01  1.86975811E-01  2.28478175E-02
  3.03626061E-02 -1.74563428E-01 -1.06639712E-02  3.06055837E-01 -1.22826448E-01
 -1.46525859E-01  1.75862792E-01  1.48365540E-02 -2.27601703E-01  2.59772639E-02
  2.43106761E-01 -4.08786161E-02  1.63180712E-01  1.63139056E-01 -1.73097636E-02
  7.40881550E-02 -1.05456809E-01 -1.98022359E-01 -1.02237723E-01  1.61578390E-01
 -1.11381588E-01  9.30739234E-02  5.50811918E-03 -1.31571983E-01 -2.29898371E-01
 -3.00895954E-02 -7.99709349E-02  1.10964390E-02  3.18519924E-01 -3.26715875E-01
 -1.16315674E-01 -3.08560831E-01  1.47980362E-01 -7.29317238E-03  3.30504734E-01
 -2.55337258E-01 -7.74814605E-02  2.54435258E-01 -1.72969187E-01 -1.12831264E-01
  4.82869869E-02 -6.52650905E-02  9.02467730E-02 -1.79458526E-01  1.46257502E-02
  1.39010738E-01  2.74379507E-02  7.97199030E-03 -1.23576291E-01  1.00697594E-01
  4.52959584E-01  2.84580923E-01 -8.21357020E-02 -2.41060072E-01  4.52960813E-02
 -1.54048007E-02  9.39823218E-02  3.27971722E-01 -2.03588347E-01  4.65895421E-02
 -4.32462733E-02  8.62455897E-02 -1.67638098E-01 -1.66492354E-01 -1.19664798E-01
  3.56791074E-02 -1.37521935E-01  8.71293980E-02 -1.24891762E-01  6.62019741E-02
 -8.93384166E-02 -6.34114394E-03 -1.80469932E-02  3.24372953E-01  9.92017288E-02
 -2.18329958E-01 -4.71712917E-02  1.36545502E-01 -8.73746266E-04 -1.64454085E-02
 -7.36950099E-02 -2.88193942E-01 -1.35359971E-02  1.97337939E-01 -1.19034924E-01
  6.90731944E-03 -1.61716517E-01  4.14923944E-01 -7.64389666E-02 -7.33237513E-02
  2.67669811E-01 -2.52020560E-01  3.90819724E-02  5.97519335E-02  2.71009158E-02
 -1.38269689E-02  2.45272693E-02 -9.69524037E-03 -1.05804531E-01 -3.74157474E-02
 -1.84250215E-01  2.30400688E-01  6.81502602E-02  2.40181368E-02  1.22380126E-01
  8.16013664E-02  1.25349891E-01  5.74172310E-02  2.68161624E-02 -2.81407191E-03
  1.86241820E-01  1.87881373E-01 -3.64170071E-01  8.82768349E-02 -2.29478451E-01
  2.62114226E-01 -5.92405285E-02 -3.59459283E-02  3.64250508E-01 -1.13487574E-02
  6.50600767E-02 -3.20306589E-02  1.66397439E-01  1.58836380E-02 -1.89395150E-01
  4.40859899E-02  1.48688085E-01  7.51314323E-02 -4.08148529E-02 -1.43568083E-01
  3.48514678E-02  1.43098241E-01  2.25081358E-02  4.32936897E-03 -1.61528717E-02
 -1.80302809E-02 -4.21986215E-02  4.94515538E-03  1.59697184E-01 -1.05334185E-01
 -6.85641262E-02  5.56922927E-02 -1.59242422E-01 -3.61059993E-02 -3.79382293E-01
 -6.08890114E-02 -1.32514909E-01  5.05125285E-02  4.03060289E-01 -2.01933996E-02
  2.59544561E-01  7.96395645E-02 -2.09901731E-01 -1.42673408E-01  1.01521652E-02
  1.75080336E-02  8.62059791E-02  4.50756499E-01  1.16281504E-02 -3.15979181E-01