 Entering Gaussian System, Link 0=/share/apps/g09/g09
 Input=C6H14_1_00_1_opt_B3L.gjf
 Output=C6H14_1_00_1_opt_B3L.log
 Initial command:
 /share/apps/g09/l1.exe /state/partition1/Gau-6283.inp -scrdir=/state/partition1/
 Entering Link 1 = /share/apps/g09/l1.exe PID=      6284.
  
 Copyright (c) 1988,1990,1992,1993,1995,1998,2003,2009, Gaussian, Inc.
                  All Rights Reserved.
  
 This is part of the Gaussian(R) 09 program.  It is based on
 the Gaussian(R) 03 system (copyright 2003, Gaussian, Inc.),
 the Gaussian(R) 98 system (copyright 1998, Gaussian, Inc.),
 the Gaussian(R) 94 system (copyright 1995, Gaussian, Inc.),
 the Gaussian 92(TM) system (copyright 1992, Gaussian, Inc.),
 the Gaussian 90(TM) system (copyright 1990, Gaussian, Inc.),
 the Gaussian 88(TM) system (copyright 1988, Gaussian, Inc.),
 the Gaussian 86(TM) system (copyright 1986, Carnegie Mellon
 University), and the Gaussian 82(TM) system (copyright 1983,
 Carnegie Mellon University). Gaussian is a federally registered
 trademark of Gaussian, Inc.
  
 This software contains proprietary and confidential information,
 including trade secrets, belonging to Gaussian, Inc.
  
 This software is provided under written license and may be
 used, copied, transmitted, or stored only in accord with that
 written license.
  
 The following legend is applicable only to US Government
 contracts under FAR:
  
                    RESTRICTED RIGHTS LEGEND
  
 Use, reproduction and disclosure by the US Government is
 subject to restrictions as set forth in subparagraphs (a)
 and (c) of the Commercial Computer Software - Restricted
 Rights clause in FAR 52.227-19.
  
 Gaussian, Inc.
 340 Quinnipiac St., Bldg. 40, Wallingford CT 06492
  
  
 ---------------------------------------------------------------
 Warning -- This program may not be used in any manner that
 competes with the business of Gaussian, Inc. or will provide
 assistance to any competitor of Gaussian, Inc.  The licensee
 of this program is prohibited from giving any competitor of
 Gaussian, Inc. access to this program.  By using this program,
 the user acknowledges that Gaussian, Inc. is engaged in the
 business of creating and licensing software in the field of
 computational chemistry and represents and warrants to the
 licensee that it is not a competitor of Gaussian, Inc. and that
 it will not use this program in any manner prohibited above.
 ---------------------------------------------------------------
  

 Cite this work as:
 Gaussian 09, Revision A.01,
 M. J. Frisch, G. W. Trucks, H. B. Schlegel, G. E. Scuseria, 
 M. A. Robb, J. R. Cheeseman, G. Scalmani, V. Barone, B. Mennucci, 
 G. A. Petersson, H. Nakatsuji, M. Caricato, X. Li, H. P. Hratchian, 
 A. F. Izmaylov, J. Bloino, G. Zheng, J. L. Sonnenberg, M. Hada, 
 M. Ehara, K. Toyota, R. Fukuda, J. Hasegawa, M. Ishida, T. Nakajima, 
 Y. Honda, O. Kitao, H. Nakai, T. Vreven, J. A. Montgomery, Jr., 
 J. E. Peralta, F. Ogliaro, M. Bearpark, J. J. Heyd, E. Brothers, 
 K. N. Kudin, V. N. Staroverov, R. Kobayashi, J. Normand, 
 K. Raghavachari, A. Rendell, J. C. Burant, S. S. Iyengar, J. Tomasi, 
 M. Cossi, N. Rega, J. M. Millam, M. Klene, J. E. Knox, J. B. Cross, 
 V. Bakken, C. Adamo, J. Jaramillo, R. Gomperts, R. E. Stratmann, 
 O. Yazyev, A. J. Austin, R. Cammi, C. Pomelli, J. W. Ochterski, 
 R. L. Martin, K. Morokuma, V. G. Zakrzewski, G. A. Voth, 
 P. Salvador, J. J. Dannenberg, S. Dapprich, A. D. Daniels, 
 O. Farkas, J. B. Foresman, J. V. Ortiz, J. Cioslowski, 
 and D. J. Fox, Gaussian, Inc., Wallingford CT, 2009.
 
 ******************************************
 Gaussian 09:  EM64L-G09RevA.01  8-May-2009
                18-Sep-2015 
 ******************************************
 %mem=3GB
 %nprocshared=2
 Will use up to    2 processors via shared memory.
 -----------------------------------------
 #p B3LYP/6-31G(d) opt=tight int=ultrafine
 -----------------------------------------
 1/7=10,14=-1,18=20,19=15,26=3,38=1/1,3;
 2/9=110,12=2,17=6,18=5,40=1/2;
 3/5=1,6=6,7=1,11=2,16=1,25=1,30=1,71=1,74=-5,75=-5/1,2,3;
 4//1;
 5/5=2,38=5/2;
 6/7=2,8=2,9=2,10=2,28=1/1;
 7//1,2,3,16;
 1/7=10,14=-1,18=20,19=15/3(2);
 2/9=110/2;
 99//99;
 2/9=110/2;
 3/5=1,6=6,7=1,11=2,16=1,25=1,30=1,71=1,74=-5,75=-5/1,2,3;
 4/5=5,16=3/1;
 5/5=2,38=5/2;
 7//1,2,3,16;
 1/7=10,14=-1,18=20,19=15/3(-5);
 2/9=110/2;
 6/7=2,8=2,9=2,10=2,19=2,28=1/1;
 99/9=1/99;
 Leave Link    1 at Fri Sep 18 13:20:01 2015, MaxMem=  402653184 cpu:       0.1
 (Enter /share/apps/g09/l101.exe)
 ---------------------------------------------
 using B3LYP/6-31G(d) to do opt and freq calc.
 ---------------------------------------------
 Symbolic Z-matrix:
 Charge =  0 Multiplicity = 1
 C                     1.42311   2.86263   0. 
 H                     0.91467   3.266     0.88297 
 H                     0.91467   3.266    -0.88297 
 H                     2.44465   3.25859   0. 
 C                     1.42311   1.33528   0. 
 H                     1.97653   0.96171  -0.88356 
 H                     1.97653   0.96171   0.88356 
 C                    -0.00319   0.76718   0. 
 H                    -0.55584   1.14279  -0.88228 
 H                    -0.55584   1.14279   0.88228 
 C                     0.00319  -0.76718   0. 
 H                     0.55584  -1.14279   0.88228 
 H                     0.55584  -1.14279  -0.88228 
 C                    -1.42311  -1.33528   0. 
 H                    -1.97653  -0.96171  -0.88356 
 H                    -1.97653  -0.96171   0.88356 
 C                    -1.42311  -2.86263   0. 
 H                    -0.91467  -3.266     0.88297 
 H                    -2.44465  -3.25859   0. 
 H                    -0.91467  -3.266    -0.88297 
 
 NAtoms=     20 NQM=     20 NQMF=      0 NMic=      0 NMicF=      0 NTot=     20.
                    Isotopes and Nuclear Properties:
 (Nuclear quadrupole moments (NQMom) in fm**2, nuclear magnetic moments (NMagM)
  in nuclear magnetons)

  Atom         1           2           3           4           5           6           7           8           9          10
 IAtWgt=          12           1           1           1          12           1           1          12           1           1
 AtmWgt=  12.0000000   1.0078250   1.0078250   1.0078250  12.0000000   1.0078250   1.0078250  12.0000000   1.0078250   1.0078250
 NucSpn=           0           1           1           1           0           1           1           0           1           1
 AtZEff=   0.0000000   0.0000000   0.0000000   0.0000000   0.0000000   0.0000000   0.0000000   0.0000000   0.0000000   0.0000000
 NQMom=    0.0000000   0.0000000   0.0000000   0.0000000   0.0000000   0.0000000   0.0000000   0.0000000   0.0000000   0.0000000
 NMagM=    0.0000000   2.7928460   2.7928460   2.7928460   0.0000000   2.7928460   2.7928460   0.0000000   2.7928460   2.7928460

  Atom        11          12          13          14          15          16          17          18          19          20
 IAtWgt=          12           1           1          12           1           1          12           1           1           1
 AtmWgt=  12.0000000   1.0078250   1.0078250  12.0000000   1.0078250   1.0078250  12.0000000   1.0078250   1.0078250   1.0078250
 NucSpn=           0           1           1           0           1           1           0           1           1           1
 AtZEff=   0.0000000   0.0000000   0.0000000   0.0000000   0.0000000   0.0000000   0.0000000   0.0000000   0.0000000   0.0000000
 NQMom=    0.0000000   0.0000000   0.0000000   0.0000000   0.0000000   0.0000000   0.0000000   0.0000000   0.0000000   0.0000000
 NMagM=    0.0000000   2.7928460   2.7928460   0.0000000   2.7928460   2.7928460   0.0000000   2.7928460   2.7928460   2.7928460
 Leave Link  101 at Fri Sep 18 13:20:01 2015, MaxMem=  402653184 cpu:       0.1
 (Enter /share/apps/g09/l103.exe)

 GradGradGradGradGradGradGradGradGradGradGradGradGradGradGradGradGradGrad
 Berny optimization.
 Initialization pass.
                           ----------------------------
                           !    Initial Parameters    !
                           ! (Angstroms and Degrees)  !
 --------------------------                            --------------------------
 ! Name  Definition              Value          Derivative Info.                !
 --------------------------------------------------------------------------------
 ! R1    R(1,2)                  1.0958         estimate D2E/DX2                !
 ! R2    R(1,3)                  1.0958         estimate D2E/DX2                !
 ! R3    R(1,4)                  1.0956         estimate D2E/DX2                !
 ! R4    R(1,5)                  1.5273         estimate D2E/DX2                !
 ! R5    R(5,6)                  1.1075         estimate D2E/DX2                !
 ! R6    R(5,7)                  1.1075         estimate D2E/DX2                !
 ! R7    R(5,8)                  1.5353         estimate D2E/DX2                !
 ! R8    R(8,9)                  1.1068         estimate D2E/DX2                !
 ! R9    R(8,10)                 1.1068         estimate D2E/DX2                !
 ! R10   R(8,11)                 1.5344         estimate D2E/DX2                !
 ! R11   R(11,12)                1.1068         estimate D2E/DX2                !
 ! R12   R(11,13)                1.1068         estimate D2E/DX2                !
 ! R13   R(11,14)                1.5353         estimate D2E/DX2                !
 ! R14   R(14,15)                1.1075         estimate D2E/DX2                !
 ! R15   R(14,16)                1.1075         estimate D2E/DX2                !
 ! R16   R(14,17)                1.5273         estimate D2E/DX2                !
 ! R17   R(17,18)                1.0958         estimate D2E/DX2                !
 ! R18   R(17,19)                1.0956         estimate D2E/DX2                !
 ! R19   R(17,20)                1.0958         estimate D2E/DX2                !
 ! A1    A(2,1,3)              107.3653         estimate D2E/DX2                !
 ! A2    A(2,1,4)              107.4327         estimate D2E/DX2                !
 ! A3    A(2,1,5)              111.5978         estimate D2E/DX2                !
 ! A4    A(3,1,4)              107.4327         estimate D2E/DX2                !
 ! A5    A(3,1,5)              111.5978         estimate D2E/DX2                !
 ! A6    A(4,1,5)              111.1872         estimate D2E/DX2                !
 ! A7    A(1,5,6)              109.7139         estimate D2E/DX2                !
 ! A8    A(1,5,7)              109.7139         estimate D2E/DX2                !
 ! A9    A(1,5,8)              111.7177         estimate D2E/DX2                !
 ! A10   A(6,5,7)              105.8433         estimate D2E/DX2                !
 ! A11   A(6,5,8)              109.8415         estimate D2E/DX2                !
 ! A12   A(7,5,8)              109.8415         estimate D2E/DX2                !
 ! A13   A(5,8,9)              109.7744         estimate D2E/DX2                !
 ! A14   A(5,8,10)             109.7744         estimate D2E/DX2                !
 ! A15   A(5,8,11)             111.4798         estimate D2E/DX2                !
 ! A16   A(9,8,10)             105.7217         estimate D2E/DX2                !
 ! A17   A(9,8,11)             109.965          estimate D2E/DX2                !
 ! A18   A(10,8,11)            109.965          estimate D2E/DX2                !
 ! A19   A(8,11,12)            109.965          estimate D2E/DX2                !
 ! A20   A(8,11,13)            109.965          estimate D2E/DX2                !
 ! A21   A(8,11,14)            111.4798         estimate D2E/DX2                !
 ! A22   A(12,11,13)           105.7217         estimate D2E/DX2                !
 ! A23   A(12,11,14)           109.7744         estimate D2E/DX2                !
 ! A24   A(13,11,14)           109.7744         estimate D2E/DX2                !
 ! A25   A(11,14,15)           109.8415         estimate D2E/DX2                !
 ! A26   A(11,14,16)           109.8415         estimate D2E/DX2                !
 ! A27   A(11,14,17)           111.7177         estimate D2E/DX2                !
 ! A28   A(15,14,16)           105.8433         estimate D2E/DX2                !
 ! A29   A(15,14,17)           109.7139         estimate D2E/DX2                !
 ! A30   A(16,14,17)           109.7139         estimate D2E/DX2                !
 ! A31   A(14,17,18)           111.5978         estimate D2E/DX2                !
 ! A32   A(14,17,19)           111.1872         estimate D2E/DX2                !
 ! A33   A(14,17,20)           111.5978         estimate D2E/DX2                !
 ! A34   A(18,17,19)           107.4327         estimate D2E/DX2                !
 ! A35   A(18,17,20)           107.3653         estimate D2E/DX2                !
 ! A36   A(19,17,20)           107.4327         estimate D2E/DX2                !
 ! D1    D(2,1,5,6)           -177.874          estimate D2E/DX2                !
 ! D2    D(2,1,5,7)            -61.996          estimate D2E/DX2                !
 ! D3    D(2,1,5,8)             60.065          estimate D2E/DX2                !
 ! D4    D(3,1,5,6)             61.996          estimate D2E/DX2                !
 ! D5    D(3,1,5,7)            177.874          estimate D2E/DX2                !
 ! D6    D(3,1,5,8)            -60.065          estimate D2E/DX2                !
 ! D7    D(4,1,5,6)            -57.939          estimate D2E/DX2                !
 ! D8    D(4,1,5,7)             57.939          estimate D2E/DX2                !
 ! D9    D(4,1,5,8)            180.0            estimate D2E/DX2                !
 ! D10   D(1,5,8,9)             57.9003         estimate D2E/DX2                !
 ! D11   D(1,5,8,10)           -57.9003         estimate D2E/DX2                !
 ! D12   D(1,5,8,11)           180.0            estimate D2E/DX2                !
 ! D13   D(6,5,8,9)            -64.0873         estimate D2E/DX2                !
 ! D14   D(6,5,8,10)          -179.8879         estimate D2E/DX2                !
 ! D15   D(6,5,8,11)            58.0124         estimate D2E/DX2                !
 ! D16   D(7,5,8,9)            179.8879         estimate D2E/DX2                !
 ! D17   D(7,5,8,10)            64.0873         estimate D2E/DX2                !
 ! D18   D(7,5,8,11)           -58.0124         estimate D2E/DX2                !
 ! D19   D(5,8,11,12)           58.0103         estimate D2E/DX2                !
 ! D20   D(5,8,11,13)          -58.0103         estimate D2E/DX2                !
 ! D21   D(5,8,11,14)          180.0            estimate D2E/DX2                !
 ! D22   D(9,8,11,12)          180.0            estimate D2E/DX2                !
 ! D23   D(9,8,11,13)           63.9794         estimate D2E/DX2                !
 ! D24   D(9,8,11,14)          -58.0103         estimate D2E/DX2                !
 ! D25   D(10,8,11,12)         -63.9794         estimate D2E/DX2                !
 ! D26   D(10,8,11,13)         180.0            estimate D2E/DX2                !
 ! D27   D(10,8,11,14)          58.0103         estimate D2E/DX2                !
 ! D28   D(8,11,14,15)          58.0124         estimate D2E/DX2                !
 ! D29   D(8,11,14,16)         -58.0124         estimate D2E/DX2                !
 ! D30   D(8,11,14,17)         180.0            estimate D2E/DX2                !
 ! D31   D(12,11,14,15)       -179.8879         estimate D2E/DX2                !
 ! D32   D(12,11,14,16)         64.0873         estimate D2E/DX2                !
 ! D33   D(12,11,14,17)        -57.9003         estimate D2E/DX2                !
 ! D34   D(13,11,14,15)        -64.0873         estimate D2E/DX2                !
 ! D35   D(13,11,14,16)        179.8879         estimate D2E/DX2                !
 ! D36   D(13,11,14,17)         57.9003         estimate D2E/DX2                !
 ! D37   D(11,14,17,18)         60.065          estimate D2E/DX2                !
 ! D38   D(11,14,17,19)        180.0            estimate D2E/DX2                !
 ! D39   D(11,14,17,20)        -60.065          estimate D2E/DX2                !
 ! D40   D(15,14,17,18)       -177.874          estimate D2E/DX2                !
 ! D41   D(15,14,17,19)        -57.939          estimate D2E/DX2                !
 ! D42   D(15,14,17,20)         61.996          estimate D2E/DX2                !
 ! D43   D(16,14,17,18)        -61.996          estimate D2E/DX2                !
 ! D44   D(16,14,17,19)         57.939          estimate D2E/DX2                !
 ! D45   D(16,14,17,20)        177.874          estimate D2E/DX2                !
 --------------------------------------------------------------------------------
 Trust Radius=3.00D-01 FncErr=1.00D-07 GrdErr=1.00D-06
 Number of steps in this run= 110 maximum allowed number of steps= 120.
 GradGradGradGradGradGradGradGradGradGradGradGradGradGradGradGradGradGrad

 Leave Link  103 at Fri Sep 18 13:20:01 2015, MaxMem=  402653184 cpu:       0.0
 (Enter /share/apps/g09/l202.exe)
                          Input orientation:                          
 ---------------------------------------------------------------------
 Center     Atomic      Atomic             Coordinates (Angstroms)
 Number     Number       Type             X           Y           Z
 ---------------------------------------------------------------------
      1          6           0        1.423114    2.862631    0.000000
      2          1           0        0.914667    3.265996    0.882967
      3          1           0        0.914667    3.265996   -0.882967
      4          1           0        2.444646    3.258594    0.000000
      5          6           0        1.423114    1.335282    0.000000
      6          1           0        1.976529    0.961706   -0.883555
      7          1           0        1.976529    0.961706    0.883555
      8          6           0       -0.003186    0.767178    0.000000
      9          1           0       -0.555842    1.142787   -0.882284
     10          1           0       -0.555842    1.142787    0.882284
     11          6           0        0.003186   -0.767178    0.000000
     12          1           0        0.555842   -1.142787    0.882284
     13          1           0        0.555842   -1.142787   -0.882284
     14          6           0       -1.423114   -1.335282    0.000000
     15          1           0       -1.976529   -0.961706   -0.883555
     16          1           0       -1.976529   -0.961706    0.883555
     17          6           0       -1.423114   -2.862631    0.000000
     18          1           0       -0.914667   -3.265996    0.882967
     19          1           0       -2.444646   -3.258594    0.000000
     20          1           0       -0.914667   -3.265996   -0.882967
 ---------------------------------------------------------------------
                    Distance matrix (angstroms):
                    1          2          3          4          5
     1  C    0.000000
     2  H    1.095834   0.000000
     3  H    1.095834   1.765934   0.000000
     4  H    1.095589   1.766500   1.766500   0.000000
     5  C    1.527349   2.183073   2.183073   2.177764   0.000000
     6  H    2.168053   3.091586   2.537184   2.505094   1.107473
     7  H    2.168053   2.537184   3.091586   2.505094   1.107473
     8  C    2.534809   2.804670   2.804670   3.492712   1.535276
     9  H    2.766325   3.128342   2.582714   3.775976   2.175258
    10  H    2.766325   2.582714   3.128342   3.775976   2.175258
    11  C    3.897654   4.228111   4.228111   4.708245   2.537032
    12  H    4.192131   4.423361   4.762587   4.870129   2.769731
    13  H    4.192131   4.762587   4.423361   4.870129   2.769731
    14  C    5.071833   5.236087   5.236087   6.005270   3.902938
    15  H    5.192667   5.417848   5.121765   6.175629   4.196951
    16  H    5.192667   5.121765   5.417848   6.175629   4.196951
    17  C    6.393719   6.618529   6.618529   7.240785   5.071833
    18  H    6.618529   6.783316   7.009415   7.391542   5.236087
    19  H    7.240785   7.391542   7.391542   8.147326   6.005270
    20  H    6.618529   7.009415   6.783316   7.391542   5.236087
                    6          7          8          9         10
     6  H    0.000000
     7  H    1.767110   0.000000
     8  C    2.176645   2.176645   0.000000
     9  H    2.538837   3.092552   1.106768   0.000000
    10  H    3.092552   2.538837   1.106768   1.764568   0.000000
    11  C    2.768355   2.768355   1.534369   2.176902   2.176902
    12  H    3.092803   2.539142   2.176902   3.094090   2.541592
    13  H    2.539142   3.092803   2.176902   2.541592   3.094090
    14  C    4.196951   4.196951   2.537032   2.769731   2.769731
    15  H    4.396155   4.738023   2.768355   2.539142   3.092803
    16  H    4.738023   4.396155   2.768355   3.092803   2.539142
    17  C    5.192667   5.192667   3.897654   4.192131   4.192131
    18  H    5.417848   5.121765   4.228111   4.762587   4.423361
    19  H    6.175629   6.175629   4.708245   4.870129   4.870129
    20  H    5.121765   5.417848   4.228111   4.423361   4.762587
                   11         12         13         14         15
    11  C    0.000000
    12  H    1.106768   0.000000
    13  H    1.106768   1.764568   0.000000
    14  C    1.535276   2.175258   2.175258   0.000000
    15  H    2.176645   3.092552   2.538837   1.107473   0.000000
    16  H    2.176645   2.538837   3.092552   1.107473   1.767110
    17  C    2.534809   2.766325   2.766325   1.527349   2.168053
    18  H    2.804670   2.582714   3.128342   2.183073   3.091586
    19  H    3.492712   3.775976   3.775976   2.177764   2.505094
    20  H    2.804670   3.128342   2.582714   2.183073   2.537184
                   16         17         18         19         20
    16  H    0.000000
    17  C    2.168053   0.000000
    18  H    2.537184   1.095834   0.000000
    19  H    2.505094   1.095589   1.766500   0.000000
    20  H    3.091586   1.095834   1.765934   1.766500   0.000000
 Stoichiometry    C6H14
 Framework group  C2H[SGH(C6H2),X(H12)]
 Deg. of freedom    16
 Full point group                 C2H     NOp   4
 Largest Abelian subgroup         C2H     NOp   4
 Largest concise Abelian subgroup C2H     NOp   4
                         Standard orientation:                         
 ---------------------------------------------------------------------
 Center     Atomic      Atomic             Coordinates (Angstroms)
 Number     Number       Type             X           Y           Z
 ---------------------------------------------------------------------
      1          6           0        1.423114    2.862631    0.000000
      2          1           0        0.914667    3.265996    0.882967
      3          1           0        0.914667    3.265996   -0.882967
      4          1           0        2.444646    3.258594    0.000000
      5          6           0        1.423114    1.335282    0.000000
      6          1           0        1.976529    0.961706   -0.883555
      7          1           0        1.976529    0.961706    0.883555
      8          6           0       -0.003186    0.767178    0.000000
      9          1           0       -0.555842    1.142787   -0.882284
     10          1           0       -0.555842    1.142787    0.882284
     11          6           0        0.003186   -0.767178    0.000000
     12          1           0        0.555842   -1.142787    0.882284
     13          1           0        0.555842   -1.142787   -0.882284
     14          6           0       -1.423114   -1.335282    0.000000
     15          1           0       -1.976529   -0.961706   -0.883555
     16          1           0       -1.976529   -0.961706    0.883555
     17          6           0       -1.423114   -2.862631    0.000000
     18          1           0       -0.914667   -3.265996    0.882967
     19          1           0       -2.444646   -3.258594    0.000000
     20          1           0       -0.914667   -3.265996   -0.882967
 ---------------------------------------------------------------------
 Rotational constants (GHZ):     14.2351831      1.1486788      1.1068034
 Leave Link  202 at Fri Sep 18 13:20:01 2015, MaxMem=  402653184 cpu:       0.0
 (Enter /share/apps/g09/l301.exe)
 Standard basis: 6-31G(d) (6D, 7F)
 Ernie: Thresh=  0.10000D-02 Tol=  0.10000D-05 Strict=F.
 There are    41 symmetry adapted basis functions of AG  symmetry.
 There are    18 symmetry adapted basis functions of BG  symmetry.
 There are    18 symmetry adapted basis functions of AU  symmetry.
 There are    41 symmetry adapted basis functions of BU  symmetry.
 Integral buffers will be    131072 words long.
 Raffenetti 2 integral format.
 Two-electron integral symmetry is turned on.
   118 basis functions,   224 primitive gaussians,   118 cartesian basis functions
    25 alpha electrons       25 beta electrons
       nuclear repulsion energy       243.8841594406 Hartrees.
 IExCor=  402 DFT=T Ex+Corr=B3LYP ExCW=0 ScaHFX=  0.200000
 ScaDFX=  0.800000  0.720000  1.000000  0.810000 ScalE2=  1.000000  1.000000
 IRadAn=      5 IRanWt=     -1 IRanGd=            0 ICorTp=0
 NAtoms=   20 NActive=   20 NUniq=    7 SFac= 3.00D+00 NAtFMM=   80 NAOKFM=F Big=F
 Leave Link  301 at Fri Sep 18 13:20:01 2015, MaxMem=  402653184 cpu:       0.1
 (Enter /share/apps/g09/l302.exe)
 NPDir=0 NMtPBC=     1 NCelOv=     1 NCel=       1 NClECP=     1 NCelD=      1
         NCelK=      1 NCelE2=     1 NClLst=     1 CellRange=     0.0.
 One-electron integrals computed using PRISM.
 One-electron integral symmetry used in STVInt
 NBasis=   118 RedAO= T  NBF=    41    18    18    41
 NBsUse=   118 1.00D-06 NBFU=    41    18    18    41
 Precomputing XC quadrature grid using
 IXCGrd= 2 IRadAn=           5 IRanWt=          -1 IRanGd=           0 AccXCQ= 1.00D-10.
 NRdTot=    1658 NPtTot=      444256 NUsed=      456135 NTot=      456167
 NSgBfM=   118   118   118   118   118 NAtAll=    20    20.
 Leave Link  302 at Fri Sep 18 13:20:02 2015, MaxMem=  402653184 cpu:       1.2
 (Enter /share/apps/g09/l303.exe)
 DipDrv:  MaxL=1.
 Leave Link  303 at Fri Sep 18 13:20:02 2015, MaxMem=  402653184 cpu:       0.1
 (Enter /share/apps/g09/l401.exe)
 Harris functional with IExCor=  402 diagonalized for initial guess.
 ExpMin= 1.61D-01 ExpMax= 3.05D+03 ExpMxC= 4.57D+02 IAcc=3 IRadAn=         5 AccDes= 0.00D+00
 HarFok:  IExCor=  402 AccDes= 0.00D+00 IRadAn=         5 IDoV= 1
 ScaDFX=  1.000000  1.000000  1.000000  1.000000
 FoFCou: FMM=F IPFlag=           0 FMFlag=      100000 FMFlg1=           0
         NFxFlg=           0 DoJE=T BraDBF=F KetDBF=T FulRan=T
         Omega=  0.000000  0.000000  1.000000  0.000000  0.000000 ICntrl=     500 IOpCl=  0
         NMat0=    1 NMatS0=    1 NMatT0=    0 NMatD0=    1 NMtDS0=    0 NMtDT0=    0
         I1Cent=           4 NGrid=           0.
 Petite list used in FoFCou.
 Harris En= -237.180465540183    
 Initial guess orbital symmetries:
       Occupied  (BU) (AG) (BU) (AG) (AG) (BU) (AG) (BU) (AG) (BU)
                 (AG) (BU) (AU) (AG) (BG) (BU) (AU) (BU) (AG) (BG)
                 (BU) (AG) (AG) (AU) (BG)
       Virtual   (AG) (BU) (AU) (BU) (AG) (BG) (BU) (AG) (BU) (AG)
                 (AU) (BU) (AU) (BG) (BG) (BU) (AG) (AG) (BU) (AG)
                 (BU) (AG) (BG) (AU) (BU) (AU) (AG) (BU) (BG) (AG)
                 (BU) (AG) (AU) (BU) (BG) (BU) (AU) (AG) (BG) (AG)
                 (BU) (AU) (BU) (BG) (BU) (AG) (AG) (AU) (BU) (AG)
                 (AG) (BG) (BU) (AU) (BU) (AG) (AG) (BU) (AG) (BU)
                 (BG) (AG) (AG) (AU) (BU) (AG) (BG) (BU) (BU) (AU)
                 (AG) (BU) (BG) (BG) (AG) (AU) (BU) (BG) (AU) (AU)
                 (BG) (AG) (AG) (BU) (BU) (AG) (BU) (AG) (BU) (AG)
                 (BU) (AG) (BU)
 The electronic state of the initial guess is 1-AG.
 Leave Link  401 at Fri Sep 18 13:20:03 2015, MaxMem=  402653184 cpu:       2.8
 (Enter /share/apps/g09/l502.exe)
 Closed shell SCF:
 Requested convergence on RMS density matrix=1.00D-08 within 128 cycles.
 Requested convergence on MAX density matrix=1.00D-06.
 Requested convergence on             energy=1.00D-06.
 No special actions if energy rises.
 Using DIIS extrapolation, IDIIS=  1040.
 Integral symmetry usage will be decided dynamically.
       455942 words used for storage of precomputed grid.
 Keep R1 ints in memory in canonical form, NReq=26110507.
 IEnd=      517996 IEndB=      517996 NGot=   402653184 MDV=   377515112
 LenX=   377515112 LenY=   377500747
 Symmetry not used in FoFDir.
 MinBra= 0 MaxBra= 2 Meth= 1.
 IRaf=       0 NMat=   1 IRICut=       1 DoRegI=T DoRafI=F ISym2E= 0 JSym2E=0.
 Integral accuracy reduced to 1.0D-05 until final iterations.

 Cycle   1  Pass 0  IDiag  1:
 E= -236.795303356375    
 DIIS: error= 5.97D-02 at cycle   1 NSaved=   1.
 NSaved= 1 IEnMin= 1 EnMin= -236.795303356375     IErMin= 1 ErrMin= 5.97D-02
 ErrMax= 5.97D-02 EMaxC= 1.00D-01 BMatC= 2.53D-01 BMatP= 2.53D-01
 IDIUse=3 WtCom= 4.03D-01 WtEn= 5.97D-01
 Coeff-Com:  0.100D+01
 Coeff-En:   0.100D+01
 Coeff:      0.100D+01
 Gap=     0.309 Goal=   None    Shift=    0.000
 GapD=    0.309 DampG=1.000 DampE=0.500 DampFc=0.5000 IDamp=-1.
 Damping current iteration by 5.00D-01
 RMSDP=1.00D-02 MaxDP=1.43D-01              OVMax= 1.92D-01

 Cycle   2  Pass 0  IDiag  1:
 E= -236.924364725970     Delta-E=       -0.129061369594 Rises=F Damp=T
 DIIS: error= 1.04D-02 at cycle   2 NSaved=   2.
 NSaved= 2 IEnMin= 2 EnMin= -236.924364725970     IErMin= 2 ErrMin= 1.04D-02
 ErrMax= 1.04D-02 EMaxC= 1.00D-01 BMatC= 8.97D-03 BMatP= 2.53D-01
 IDIUse=3 WtCom= 8.96D-01 WtEn= 1.04D-01
 Coeff-Com:  0.791D-01 0.921D+00
 Coeff-En:   0.127D+00 0.873D+00
 Coeff:      0.841D-01 0.916D+00
 Gap=     0.392 Goal=   None    Shift=    0.000
 RMSDP=1.39D-03 MaxDP=2.19D-02 DE=-1.29D-01 OVMax= 1.01D-01

 Cycle   3  Pass 0  IDiag  1:
 E= -237.083953795172     Delta-E=       -0.159589069202 Rises=F Damp=F
 DIIS: error= 2.11D-03 at cycle   3 NSaved=   3.
 NSaved= 3 IEnMin= 3 EnMin= -237.083953795172     IErMin= 3 ErrMin= 2.11D-03
 ErrMax= 2.11D-03 EMaxC= 1.00D-01 BMatC= 4.08D-04 BMatP= 8.97D-03
 IDIUse=3 WtCom= 9.79D-01 WtEn= 2.11D-02
 Coeff-Com:  0.403D-02 0.113D+00 0.883D+00
 Coeff-En:   0.000D+00 0.000D+00 0.100D+01
 Coeff:      0.394D-02 0.111D+00 0.885D+00
 Gap=     0.389 Goal=   None    Shift=    0.000
 RMSDP=3.06D-04 MaxDP=4.23D-03 DE=-1.60D-01 OVMax= 7.36D-03

 Cycle   4  Pass 0  IDiag  1:
 E= -237.084201766861     Delta-E=       -0.000247971690 Rises=F Damp=F
 DIIS: error= 1.10D-03 at cycle   4 NSaved=   4.
 NSaved= 4 IEnMin= 4 EnMin= -237.084201766861     IErMin= 4 ErrMin= 1.10D-03
 ErrMax= 1.10D-03 EMaxC= 1.00D-01 BMatC= 1.63D-04 BMatP= 4.08D-04
 IDIUse=3 WtCom= 9.89D-01 WtEn= 1.10D-02
 Coeff-Com:  0.459D-03 0.177D-01 0.387D+00 0.595D+00
 Coeff-En:   0.000D+00 0.000D+00 0.227D+00 0.773D+00
 Coeff:      0.454D-03 0.175D-01 0.386D+00 0.597D+00
 Gap=     0.390 Goal=   None    Shift=    0.000
 RMSDP=1.27D-04 MaxDP=2.25D-03 DE=-2.48D-04 OVMax= 3.10D-03

 Cycle   5  Pass 0  IDiag  1:
 E= -237.084352053242     Delta-E=       -0.000150286381 Rises=F Damp=F
 DIIS: error= 3.16D-04 at cycle   5 NSaved=   5.
 NSaved= 5 IEnMin= 5 EnMin= -237.084352053242     IErMin= 5 ErrMin= 3.16D-04
 ErrMax= 3.16D-04 EMaxC= 1.00D-01 BMatC= 1.34D-05 BMatP= 1.63D-04
 IDIUse=3 WtCom= 9.97D-01 WtEn= 3.16D-03
 Coeff-Com:  0.301D-03-0.190D-02 0.104D+00 0.275D+00 0.622D+00
 Coeff-En:   0.000D+00 0.000D+00 0.000D+00 0.000D+00 0.100D+01
 Coeff:      0.300D-03-0.189D-02 0.104D+00 0.274D+00 0.624D+00
 Gap=     0.389 Goal=   None    Shift=    0.000
 RMSDP=2.81D-05 MaxDP=5.43D-04 DE=-1.50D-04 OVMax= 7.08D-04

 Cycle   6  Pass 0  IDiag  1:
 E= -237.084364812874     Delta-E=       -0.000012759632 Rises=F Damp=F
 DIIS: error= 3.44D-05 at cycle   6 NSaved=   6.
 NSaved= 6 IEnMin= 6 EnMin= -237.084364812874     IErMin= 6 ErrMin= 3.44D-05
 ErrMax= 3.44D-05 EMaxC= 1.00D-01 BMatC= 1.43D-07 BMatP= 1.34D-05
 IDIUse=1 WtCom= 1.00D+00 WtEn= 0.00D+00
 Coeff-Com:  0.179D-03-0.106D-02 0.290D-01 0.839D-01 0.217D+00 0.671D+00
 Coeff:      0.179D-03-0.106D-02 0.290D-01 0.839D-01 0.217D+00 0.671D+00
 Gap=     0.389 Goal=   None    Shift=    0.000
 RMSDP=4.06D-06 MaxDP=7.24D-05 DE=-1.28D-05 OVMax= 8.61D-05

 Initial convergence to 1.0D-05 achieved.  Increase integral accuracy.
 Cycle   7  Pass 1  IDiag  1:
 E= -237.084337816502     Delta-E=        0.000026996372 Rises=F Damp=F
 DIIS: error= 1.41D-05 at cycle   1 NSaved=   1.
 NSaved= 1 IEnMin= 1 EnMin= -237.084337816502     IErMin= 1 ErrMin= 1.41D-05
 ErrMax= 1.41D-05 EMaxC= 1.00D-01 BMatC= 2.51D-08 BMatP= 2.51D-08
 IDIUse=1 WtCom= 1.00D+00 WtEn= 0.00D+00
 Coeff-Com:  0.100D+01
 Coeff:      0.100D+01
 Gap=     0.389 Goal=   None    Shift=    0.000
 RMSDP=4.06D-06 MaxDP=7.24D-05 DE= 2.70D-05 OVMax= 6.43D-05

 Cycle   8  Pass 1  IDiag  1:
 E= -237.084337814786     Delta-E=        0.000000001716 Rises=F Damp=F
 DIIS: error= 1.78D-05 at cycle   2 NSaved=   2.
 NSaved= 2 IEnMin= 1 EnMin= -237.084337816502     IErMin= 1 ErrMin= 1.41D-05
 ErrMax= 1.78D-05 EMaxC= 1.00D-01 BMatC= 3.16D-08 BMatP= 2.51D-08
 IDIUse=1 WtCom= 1.00D+00 WtEn= 0.00D+00
 Coeff-Com:  0.530D+00 0.470D+00
 Coeff:      0.530D+00 0.470D+00
 Gap=     0.389 Goal=   None    Shift=    0.000
 RMSDP=1.34D-06 MaxDP=2.91D-05 DE= 1.72D-09 OVMax= 3.39D-05

 Cycle   9  Pass 1  IDiag  1:
 E= -237.084337844889     Delta-E=       -0.000000030103 Rises=F Damp=F
 DIIS: error= 1.21D-06 at cycle   3 NSaved=   3.
 NSaved= 3 IEnMin= 3 EnMin= -237.084337844889     IErMin= 3 ErrMin= 1.21D-06
 ErrMax= 1.21D-06 EMaxC= 1.00D-01 BMatC= 1.55D-10 BMatP= 2.51D-08
 IDIUse=1 WtCom= 1.00D+00 WtEn= 0.00D+00
 Coeff-Com: -0.752D-02 0.526D-01 0.955D+00
 Coeff:     -0.752D-02 0.526D-01 0.955D+00
 Gap=     0.389 Goal=   None    Shift=    0.000
 RMSDP=1.40D-07 MaxDP=2.78D-06 DE=-3.01D-08 OVMax= 2.90D-06

 Cycle  10  Pass 1  IDiag  1:
 E= -237.084337845014     Delta-E=       -0.000000000125 Rises=F Damp=F
 DIIS: error= 4.92D-07 at cycle   4 NSaved=   4.
 NSaved= 4 IEnMin= 4 EnMin= -237.084337845014     IErMin= 4 ErrMin= 4.92D-07
 ErrMax= 4.92D-07 EMaxC= 1.00D-01 BMatC= 3.43D-11 BMatP= 1.55D-10
 IDIUse=1 WtCom= 1.00D+00 WtEn= 0.00D+00
 Coeff-Com: -0.146D-01 0.171D-01 0.480D+00 0.518D+00
 Coeff:     -0.146D-01 0.171D-01 0.480D+00 0.518D+00
 Gap=     0.389 Goal=   None    Shift=    0.000
 RMSDP=5.05D-08 MaxDP=8.55D-07 DE=-1.25D-10 OVMax= 1.16D-06

 Cycle  11  Pass 1  IDiag  1:
 E= -237.084337845047     Delta-E=       -0.000000000033 Rises=F Damp=F
 DIIS: error= 9.36D-08 at cycle   5 NSaved=   5.
 NSaved= 5 IEnMin= 5 EnMin= -237.084337845047     IErMin= 5 ErrMin= 9.36D-08
 ErrMax= 9.36D-08 EMaxC= 1.00D-01 BMatC= 7.31D-13 BMatP= 3.43D-11
 IDIUse=1 WtCom= 1.00D+00 WtEn= 0.00D+00
 Coeff-Com: -0.446D-02 0.304D-02 0.109D+00 0.188D+00 0.704D+00
 Coeff:     -0.446D-02 0.304D-02 0.109D+00 0.188D+00 0.704D+00
 Gap=     0.389 Goal=   None    Shift=    0.000
 RMSDP=9.51D-09 MaxDP=1.18D-07 DE=-3.26D-11 OVMax= 2.37D-07

 SCF Done:  E(RB3LYP) =  -237.084337845     A.U. after   11 cycles
             Convg  =    0.9510D-08             -V/T =  2.0107
 KE= 2.345835609782D+02 PE=-1.034675684879D+03 EE= 3.191236266148D+02
 Leave Link  502 at Fri Sep 18 13:20:16 2015, MaxMem=  402653184 cpu:      25.1
 (Enter /share/apps/g09/l601.exe)
 Copying SCF densities to generalized density rwf, IOpCl= 0 IROHF=0.

 **********************************************************************

            Population analysis using the SCF density.

 **********************************************************************

 Orbital symmetries:
       Occupied  (BU) (AG) (AG) (BU) (BU) (AG) (AG) (BU) (AG) (BU)
                 (AG) (BU) (AU) (BG) (AG) (BU) (AU) (AG) (BU) (BG)
                 (BU) (AG) (AU) (BG) (AG)
       Virtual   (AG) (BU) (AU) (BU) (AG) (BG) (AG) (BU) (BU) (AG)
                 (AU) (BG) (AU) (BG) (BU) (AG) (BU) (AG) (BU) (AG)
                 (BU) (AG) (BG) (AU) (AU) (BU) (AG) (BU) (BG) (AG)
                 (BU) (AG) (AU) (BU) (BU) (BG) (AU) (AG) (BG) (BU)
                 (AG) (AU) (BG) (BU) (BU) (AU) (AG) (AG) (BU) (AG)
                 (AG) (BG) (BU) (AG) (AU) (BU) (BU) (AG) (AG) (BU)
                 (BG) (AG) (BU) (AU) (AG) (AG) (BG) (BU) (BU) (AU)
                 (AG) (BU) (BG) (BG) (AG) (AU) (BG) (BU) (AU) (AU)
                 (BG) (AG) (AG) (BU) (BU) (AG) (BU) (AG) (BU) (AG)
                 (BU) (AG) (BU)
 The electronic state is 1-AG.
 Alpha  occ. eigenvalues --  -10.17684 -10.17684 -10.17482 -10.17461 -10.16833
 Alpha  occ. eigenvalues --  -10.16833  -0.79921  -0.76113  -0.70204  -0.63106
 Alpha  occ. eigenvalues --   -0.57543  -0.57101  -0.47211  -0.43910  -0.42871
 Alpha  occ. eigenvalues --   -0.41627  -0.39331  -0.37429  -0.37335  -0.34886
 Alpha  occ. eigenvalues --   -0.33829  -0.32585  -0.32239  -0.31769  -0.29725
 Alpha virt. eigenvalues --    0.09214   0.10457   0.11907   0.12867   0.13682
 Alpha virt. eigenvalues --    0.16100   0.16797   0.17252   0.18537   0.19272
 Alpha virt. eigenvalues --    0.19293   0.20005   0.20499   0.20696   0.23287
 Alpha virt. eigenvalues --    0.24328   0.26605   0.28196   0.29536   0.49652
 Alpha virt. eigenvalues --    0.50059   0.51766   0.55091   0.55972   0.57677
 Alpha virt. eigenvalues --    0.58545   0.60704   0.63416   0.65668   0.69183
 Alpha virt. eigenvalues --    0.69427   0.72842   0.77758   0.79139   0.81658
 Alpha virt. eigenvalues --    0.81735   0.84529   0.87908   0.88473   0.90422
 Alpha virt. eigenvalues --    0.90481   0.92699   0.93472   0.93713   0.95499
 Alpha virt. eigenvalues --    0.95673   0.96087   0.96968   0.99166   1.00612
 Alpha virt. eigenvalues --    1.01856   1.16655   1.30703   1.41294   1.41516
 Alpha virt. eigenvalues --    1.45093   1.46505   1.52744   1.55347   1.64944
 Alpha virt. eigenvalues --    1.74375   1.84393   1.86942   1.86974   1.88708
 Alpha virt. eigenvalues --    1.93663   1.94124   1.95531   1.99796   2.01342
 Alpha virt. eigenvalues --    2.02921   2.08962   2.09447   2.22986   2.23849
 Alpha virt. eigenvalues --    2.24516   2.33418   2.33449   2.33570   2.42395
 Alpha virt. eigenvalues --    2.42975   2.46726   2.55276   2.59224   2.62687
 Alpha virt. eigenvalues --    2.77421   2.83902   4.12125   4.19123   4.28412
 Alpha virt. eigenvalues --    4.36047   4.44494   4.56928
          Condensed to atoms (all electrons):
              1          2          3          4          5          6
     1  C    5.069242   0.378088   0.378088   0.370093   0.369437  -0.038192
     2  H    0.378088   0.580158  -0.033409  -0.031603  -0.034330   0.005200
     3  H    0.378088  -0.033409   0.580158  -0.031603  -0.034330  -0.004536
     4  H    0.370093  -0.031603  -0.031603   0.583307  -0.027997  -0.002715
     5  C    0.369437  -0.034330  -0.034330  -0.027997   4.957202   0.376234
     6  H   -0.038192   0.005200  -0.004536  -0.002715   0.376234   0.613602
     7  H   -0.038192  -0.004536   0.005200  -0.002715   0.376234  -0.040413
     8  C   -0.045738  -0.004747  -0.004747   0.004398   0.383998  -0.038938
     9  H   -0.002900  -0.000393   0.004865  -0.000032  -0.039109  -0.005273
    10  H   -0.002900   0.004865  -0.000393  -0.000032  -0.039109   0.005632
    11  C    0.003928   0.000050   0.000050  -0.000150  -0.039435  -0.003642
    12  H    0.000047   0.000005   0.000005   0.000002  -0.003587  -0.000426
    13  H    0.000047   0.000005   0.000005   0.000002  -0.003587   0.004988
    14  C   -0.000140   0.000000   0.000000   0.000001   0.003764   0.000039
    15  H    0.000001   0.000001  -0.000002   0.000000   0.000039   0.000007
    16  H    0.000001  -0.000002   0.000001   0.000000   0.000039   0.000004
    17  C    0.000001   0.000000   0.000000   0.000000  -0.000140   0.000001
    18  H    0.000000   0.000000   0.000000   0.000000   0.000000   0.000001
    19  H    0.000000   0.000000   0.000000   0.000000   0.000001   0.000000
    20  H    0.000000   0.000000   0.000000   0.000000   0.000000  -0.000002
              7          8          9         10         11         12
     1  C   -0.038192  -0.045738  -0.002900  -0.002900   0.003928   0.000047
     2  H   -0.004536  -0.004747  -0.000393   0.004865   0.000050   0.000005
     3  H    0.005200  -0.004747   0.004865  -0.000393   0.000050   0.000005
     4  H   -0.002715   0.004398  -0.000032  -0.000032  -0.000150   0.000002
     5  C    0.376234   0.383998  -0.039109  -0.039109  -0.039435  -0.003587
     6  H   -0.040413  -0.038938  -0.005273   0.005632  -0.003642  -0.000426
     7  H    0.613602  -0.038938   0.005632  -0.005273  -0.003642   0.004988
     8  C   -0.038938   4.980656   0.372367   0.372367   0.380959  -0.037893
     9  H    0.005632   0.372367   0.616796  -0.041504  -0.037893   0.005571
    10  H   -0.005273   0.372367  -0.041504   0.616796  -0.037893  -0.005184
    11  C   -0.003642   0.380959  -0.037893  -0.037893   4.980656   0.372367
    12  H    0.004988  -0.037893   0.005571  -0.005184   0.372367   0.616796
    13  H   -0.000426  -0.037893  -0.005184   0.005571   0.372367  -0.041504
    14  C    0.000039  -0.039435  -0.003587  -0.003587   0.383998  -0.039109
    15  H    0.000004  -0.003642   0.004988  -0.000426  -0.038938   0.005632
    16  H    0.000007  -0.003642  -0.000426   0.004988  -0.038938  -0.005273
    17  C    0.000001   0.003928   0.000047   0.000047  -0.045738  -0.002900
    18  H   -0.000002   0.000050   0.000005   0.000005  -0.004747   0.004865
    19  H    0.000000  -0.000150   0.000002   0.000002   0.004398  -0.000032
    20  H    0.000001   0.000050   0.000005   0.000005  -0.004747  -0.000393
             13         14         15         16         17         18
     1  C    0.000047  -0.000140   0.000001   0.000001   0.000001   0.000000
     2  H    0.000005   0.000000   0.000001  -0.000002   0.000000   0.000000
     3  H    0.000005   0.000000  -0.000002   0.000001   0.000000   0.000000
     4  H    0.000002   0.000001   0.000000   0.000000   0.000000   0.000000
     5  C   -0.003587   0.003764   0.000039   0.000039  -0.000140   0.000000
     6  H    0.004988   0.000039   0.000007   0.000004   0.000001   0.000001
     7  H   -0.000426   0.000039   0.000004   0.000007   0.000001  -0.000002
     8  C   -0.037893  -0.039435  -0.003642  -0.003642   0.003928   0.000050
     9  H   -0.005184  -0.003587   0.004988  -0.000426   0.000047   0.000005
    10  H    0.005571  -0.003587  -0.000426   0.004988   0.000047   0.000005
    11  C    0.372367   0.383998  -0.038938  -0.038938  -0.045738  -0.004747
    12  H   -0.041504  -0.039109   0.005632  -0.005273  -0.002900   0.004865
    13  H    0.616796  -0.039109  -0.005273   0.005632  -0.002900  -0.000393
    14  C   -0.039109   4.957202   0.376234   0.376234   0.369437  -0.034330
    15  H   -0.005273   0.376234   0.613602  -0.040413  -0.038192   0.005200
    16  H    0.005632   0.376234  -0.040413   0.613602  -0.038192  -0.004536
    17  C   -0.002900   0.369437  -0.038192  -0.038192   5.069242   0.378088
    18  H   -0.000393  -0.034330   0.005200  -0.004536   0.378088   0.580158
    19  H   -0.000032  -0.027997  -0.002715  -0.002715   0.370093  -0.031603
    20  H    0.004865  -0.034330  -0.004536   0.005200   0.378088  -0.033409
             19         20
     1  C    0.000000   0.000000
     2  H    0.000000   0.000000
     3  H    0.000000   0.000000
     4  H    0.000000   0.000000
     5  C    0.000001   0.000000
     6  H    0.000000  -0.000002
     7  H    0.000000   0.000001
     8  C   -0.000150   0.000050
     9  H    0.000002   0.000005
    10  H    0.000002   0.000005
    11  C    0.004398  -0.004747
    12  H   -0.000032  -0.000393
    13  H   -0.000032   0.004865
    14  C   -0.027997  -0.034330
    15  H   -0.002715  -0.004536
    16  H   -0.002715   0.005200
    17  C    0.370093   0.378088
    18  H   -0.031603  -0.033409
    19  H    0.583307  -0.031603
    20  H   -0.031603   0.580158
 Mulliken atomic charges:
              1
     1  C   -0.440911
     2  H    0.140648
     3  H    0.140648
     4  H    0.139042
     5  C   -0.245326
     6  H    0.128431
     7  H    0.128431
     8  C   -0.243011
     9  H    0.126025
    10  H    0.126025
    11  C   -0.243011
    12  H    0.126025
    13  H    0.126025
    14  C   -0.245326
    15  H    0.128431
    16  H    0.128431
    17  C   -0.440911
    18  H    0.140648
    19  H    0.139042
    20  H    0.140648
 Sum of Mulliken atomic charges =   0.00000
 Mulliken charges with hydrogens summed into heavy atoms:
              1
     1  C   -0.020574
     5  C    0.011535
     8  C    0.009039
    11  C    0.009039
    14  C    0.011535
    17  C   -0.020574
 Sum of Mulliken charges with hydrogens summed into heavy atoms =   0.00000
 Electronic spatial extent (au):  <R**2>=           1127.7720
 Charge=              0.0000 electrons
 Dipole moment (field-independent basis, Debye):
    X=              0.0000    Y=              0.0000    Z=              0.0000  Tot=              0.0000
 Quadrupole moment (field-independent basis, Debye-Ang):
   XX=            -41.6484   YY=            -42.7379   ZZ=            -40.8051
   XY=             -0.3738   XZ=              0.0000   YZ=              0.0000
 Traceless Quadrupole moment (field-independent basis, Debye-Ang):
   XX=              0.0821   YY=             -1.0075   ZZ=              0.9254
   XY=             -0.3738   XZ=              0.0000   YZ=              0.0000
 Octapole moment (field-independent basis, Debye-Ang**2):
  XXX=              0.0000  YYY=              0.0000  ZZZ=              0.0000  XYY=              0.0000
  XXY=              0.0000  XXZ=              0.0000  XZZ=              0.0000  YZZ=              0.0000
  YYZ=              0.0000  XYZ=              0.0000
 Hexadecapole moment (field-independent basis, Debye-Ang**3):
 XXXX=           -438.6711 YYYY=          -1066.7952 ZZZZ=            -84.3780 XXXY=           -255.9955
 XXXZ=              0.0000 YYYX=           -269.9451 YYYZ=              0.0000 ZZZX=              0.0000
 ZZZY=              0.0000 XXYY=           -247.2063 XXZZ=            -87.3222 YYZZ=           -183.3672
 XXYZ=              0.0000 YYXZ=              0.0000 ZZXY=            -88.7927
 N-N= 2.438841594406D+02 E-N=-1.034675679126D+03  KE= 2.345835609782D+02
 Symmetry AG   KE= 1.129275867233D+02
 Symmetry BG   KE= 5.943630799131D+00
 Symmetry AU   KE= 5.771834009942D+00
 Symmetry BU   KE= 1.099405094458D+02
 No NMR shielding tensors so no spin-rotation constants.
 Leave Link  601 at Fri Sep 18 13:20:16 2015, MaxMem=  402653184 cpu:       0.3
 (Enter /share/apps/g09/l701.exe)
 Compute integral first derivatives.
 ... and contract with generalized density number  0.
 Leave Link  701 at Fri Sep 18 13:20:16 2015, MaxMem=  402653184 cpu:       0.3
 (Enter /share/apps/g09/l702.exe)
 L702 exits ... SP integral derivatives will be done elsewhere.
 Leave Link  702 at Fri Sep 18 13:20:16 2015, MaxMem=  402653184 cpu:       0.0
 (Enter /share/apps/g09/l703.exe)
 Compute integral first derivatives, UseDBF=F ICtDFT=           0.
 Integral derivatives from FoFDir, PRISM(SPDF).
 Calling FoFJK, ICntrl=      2127 FMM=F ISym2X=1 I1Cent= 0 IOpClX= 0 NMat=1 NMatS=1 NMatT=0.
 FoFCou: FMM=F IPFlag=           0 FMFlag=      100000 FMFlg1=         800
         NFxFlg=           0 DoJE=F BraDBF=F KetDBF=F FulRan=T
         Omega=  0.000000  0.000000  1.000000  0.000000  0.000000 ICntrl=    2127 IOpCl=  0
         NMat0=    1 NMatS0=    1 NMatT0=    0 NMatD0=    1 NMtDS0=    0 NMtDT0=    0
         I1Cent=           0 NGrid=           0.
 Petite list used in FoFCou.
 Leave Link  703 at Fri Sep 18 13:20:20 2015, MaxMem=  402653184 cpu:       6.7
 (Enter /share/apps/g09/l716.exe)
 Dipole        =-7.99360578D-15-8.88178420D-15-2.22044605D-16
 ***** Axes restored to original set *****
 -------------------------------------------------------------------
 Center     Atomic                   Forces (Hartrees/Bohr)
 Number     Number              X              Y              Z
 -------------------------------------------------------------------
      1        6           0.005146142    0.003059352    0.000000000
      2        1          -0.000580347   -0.000450017    0.000836042
      3        1          -0.000580347   -0.000450017   -0.000836042
      4        1           0.000495237    0.001154424    0.000000000
      5        6          -0.000111667    0.001790882    0.000000000
      6        1          -0.003445670    0.001515350    0.003780134
      7        1          -0.003445670    0.001515350   -0.003780134
      8        6           0.006192283   -0.002620655    0.000000000
      9        1           0.002932650   -0.002080592    0.002828564
     10        1           0.002932650   -0.002080592   -0.002828564
     11        6          -0.006192283    0.002620655    0.000000000
     12        1          -0.002932650    0.002080592   -0.002828564
     13        1          -0.002932650    0.002080592    0.002828564
     14        6           0.000111667   -0.001790882    0.000000000
     15        1           0.003445670   -0.001515350    0.003780134
     16        1           0.003445670   -0.001515350   -0.003780134
     17        6          -0.005146142   -0.003059352    0.000000000
     18        1           0.000580347    0.000450017    0.000836042
     19        1          -0.000495237   -0.001154424    0.000000000
     20        1           0.000580347    0.000450017   -0.000836042
 -------------------------------------------------------------------
 Cartesian Forces:  Max     0.006192283 RMS     0.002497370
 Leave Link  716 at Fri Sep 18 13:20:20 2015, MaxMem=  402653184 cpu:       0.1
 (Enter /share/apps/g09/l103.exe)

 GradGradGradGradGradGradGradGradGradGradGradGradGradGradGradGradGradGrad
 Berny optimization.
 Internal  Forces:  Max     0.009616016 RMS     0.002563325
 Search for a local minimum.
 Step number   1 out of a maximum of  110
 All quantities printed in internal units (Hartrees-Bohrs-Radians)
 RMS Force = .25633D-02 SwitMx=.10000D-02 MixMth= 1
 Mixed Optimization -- RFO/linear search
 Second derivative matrix not updated -- first step.
     Eigenvalues ---    0.00299   0.00299   0.00311   0.00404   0.00404
     Eigenvalues ---    0.03552   0.03552   0.03572   0.03572   0.04788
     Eigenvalues ---    0.04788   0.04820   0.04820   0.05443   0.05443
     Eigenvalues ---    0.05486   0.05486   0.08153   0.08153   0.08210
     Eigenvalues ---    0.08210   0.12076   0.12076   0.12113   0.12113
     Eigenvalues ---    0.16000   0.16000   0.16000   0.16000   0.16000
     Eigenvalues ---    0.16000   0.21844   0.21844   0.21855   0.21855
     Eigenvalues ---    0.28941   0.28941   0.29024   0.29670   0.29670
     Eigenvalues ---    0.32869   0.32869   0.32869   0.32869   0.32945
     Eigenvalues ---    0.32945   0.32945   0.32945   0.34147   0.34147
     Eigenvalues ---    0.34147   0.34147   0.34175   0.341751000.00000
     Eigenvalues --- 1000.000001000.000001000.000001000.000001000.00000
     Eigenvalues --- 1000.000001000.000001000.000001000.000001000.00000
     Eigenvalues --- 1000.000001000.000001000.000001000.000001000.00000
     Eigenvalues --- 1000.000001000.000001000.000001000.000001000.00000
     Eigenvalues --- 1000.000001000.000001000.000001000.000001000.00000
     Eigenvalues --- 1000.000001000.000001000.000001000.000001000.00000
     Eigenvalues --- 1000.000001000.000001000.000001000.000001000.00000
     Eigenvalues --- 1000.000001000.000001000.000001000.000001000.00000
     Eigenvalues --- 1000.000001000.000001000.000001000.000001000.00000
 RFO step:  Lambda=-2.75195929D-03 EMin= 2.99307344D-03
 Linear search not attempted -- first point.
 Iteration  1 RMS(Cart)=  0.03046597 RMS(Int)=  0.00017369
 Iteration  2 RMS(Cart)=  0.00033371 RMS(Int)=  0.00006301
 Iteration  3 RMS(Cart)=  0.00000003 RMS(Int)=  0.00006301
 ClnCor:  largest displacement from symmetrization is 2.96D-09 for atom    12.
 Variable       Old X    -DE/DX   Delta X   Delta X   Delta X     New X
                                 (Linear)    (Quad)   (Total)
    R1        2.07083   0.00078   0.00000   0.00226   0.00226   2.07309
    R2        2.07083   0.00078   0.00000   0.00226   0.00226   2.07309
    R3        2.07036   0.00088   0.00000   0.00255   0.00255   2.07291
    R4        2.88627   0.00332   0.00000   0.01107   0.01107   2.89734
    R5        2.09282  -0.00525   0.00000  -0.01584  -0.01584   2.07698
    R6        2.09282  -0.00525   0.00000  -0.01584  -0.01584   2.07698
    R7        2.90125   0.00066   0.00000   0.00227   0.00227   2.90353
    R8        2.09149  -0.00443   0.00000  -0.01332  -0.01332   2.07817
    R9        2.09149  -0.00443   0.00000  -0.01332  -0.01332   2.07817
   R10        2.89954   0.00132   0.00000   0.00449   0.00449   2.90403
   R11        2.09149  -0.00443   0.00000  -0.01332  -0.01332   2.07817
   R12        2.09149  -0.00443   0.00000  -0.01332  -0.01332   2.07817
   R13        2.90125   0.00066   0.00000   0.00227   0.00227   2.90353
   R14        2.09282  -0.00525   0.00000  -0.01584  -0.01584   2.07698
   R15        2.09282  -0.00525   0.00000  -0.01584  -0.01584   2.07698
   R16        2.88627   0.00332   0.00000   0.01107   0.01107   2.89734
   R17        2.07083   0.00078   0.00000   0.00226   0.00226   2.07309
   R18        2.07036   0.00088   0.00000   0.00255   0.00255   2.07291
   R19        2.07083   0.00078   0.00000   0.00226   0.00226   2.07309
    A1        1.87388   0.00085   0.00000   0.00114   0.00106   1.87493
    A2        1.87505  -0.00007   0.00000   0.00161   0.00164   1.87669
    A3        1.94775  -0.00122   0.00000  -0.00860  -0.00863   1.93912
    A4        1.87505  -0.00007   0.00000   0.00161   0.00164   1.87669
    A5        1.94775  -0.00122   0.00000  -0.00860  -0.00863   1.93912
    A6        1.94058   0.00178   0.00000   0.01315   0.01318   1.95376
    A7        1.91487  -0.00183   0.00000  -0.00440  -0.00432   1.91055
    A8        1.91487  -0.00183   0.00000  -0.00440  -0.00432   1.91055
    A9        1.94984   0.00708   0.00000   0.03374   0.03377   1.98361
   A10        1.84731   0.00148   0.00000   0.00093   0.00077   1.84808
   A11        1.91710  -0.00263   0.00000  -0.01392  -0.01403   1.90307
   A12        1.91710  -0.00263   0.00000  -0.01392  -0.01403   1.90307
   A13        1.91593  -0.00303   0.00000  -0.01236  -0.01235   1.90358
   A14        1.91593  -0.00303   0.00000  -0.01236  -0.01235   1.90358
   A15        1.94569   0.00962   0.00000   0.04531   0.04538   1.99107
   A16        1.84519   0.00214   0.00000   0.00363   0.00341   1.84860
   A17        1.91925  -0.00310   0.00000  -0.01341  -0.01342   1.90583
   A18        1.91925  -0.00310   0.00000  -0.01341  -0.01342   1.90583
   A19        1.91925  -0.00310   0.00000  -0.01341  -0.01342   1.90583
   A20        1.91925  -0.00310   0.00000  -0.01341  -0.01342   1.90583
   A21        1.94569   0.00962   0.00000   0.04531   0.04538   1.99107
   A22        1.84519   0.00214   0.00000   0.00363   0.00341   1.84860
   A23        1.91593  -0.00303   0.00000  -0.01236  -0.01235   1.90358
   A24        1.91593  -0.00303   0.00000  -0.01236  -0.01235   1.90358
   A25        1.91710  -0.00263   0.00000  -0.01392  -0.01403   1.90307
   A26        1.91710  -0.00263   0.00000  -0.01392  -0.01403   1.90307
   A27        1.94984   0.00708   0.00000   0.03374   0.03377   1.98361
   A28        1.84731   0.00148   0.00000   0.00093   0.00077   1.84808
   A29        1.91487  -0.00183   0.00000  -0.00440  -0.00432   1.91055
   A30        1.91487  -0.00183   0.00000  -0.00440  -0.00432   1.91055
   A31        1.94775  -0.00122   0.00000  -0.00860  -0.00863   1.93912
   A32        1.94058   0.00178   0.00000   0.01315   0.01318   1.95376
   A33        1.94775  -0.00122   0.00000  -0.00860  -0.00863   1.93912
   A34        1.87505  -0.00007   0.00000   0.00161   0.00164   1.87669
   A35        1.87388   0.00085   0.00000   0.00114   0.00106   1.87493
   A36        1.87505  -0.00007   0.00000   0.00161   0.00164   1.87669
    D1       -3.10449  -0.00014   0.00000  -0.00323  -0.00317  -3.10766
    D2       -1.08203  -0.00045   0.00000  -0.00714  -0.00714  -1.08918
    D3        1.04833  -0.00030   0.00000  -0.00518  -0.00516   1.04318
    D4        1.08203   0.00045   0.00000   0.00714   0.00714   1.08918
    D5        3.10449   0.00014   0.00000   0.00323   0.00317   3.10766
    D6       -1.04833   0.00030   0.00000   0.00518   0.00516  -1.04318
    D7       -1.01123   0.00016   0.00000   0.00196   0.00199  -1.00924
    D8        1.01123  -0.00016   0.00000  -0.00196  -0.00199   1.00924
    D9        3.14159   0.00000   0.00000   0.00000   0.00000   3.14159
   D10        1.01055  -0.00044   0.00000  -0.00489  -0.00486   1.00569
   D11       -1.01055   0.00044   0.00000   0.00489   0.00486  -1.00569
   D12        3.14159   0.00000   0.00000   0.00000   0.00000   3.14159
   D13       -1.11853  -0.00106   0.00000  -0.01237  -0.01226  -1.13079
   D14       -3.13964  -0.00018   0.00000  -0.00259  -0.00254   3.14101
   D15        1.01251  -0.00062   0.00000  -0.00748  -0.00740   1.00511
   D16        3.13964   0.00018   0.00000   0.00259   0.00254  -3.14101
   D17        1.11853   0.00106   0.00000   0.01237   0.01226   1.13079
   D18       -1.01251   0.00062   0.00000   0.00748   0.00740  -1.00511
   D19        1.01247  -0.00050   0.00000  -0.00560  -0.00555   1.00692
   D20       -1.01247   0.00050   0.00000   0.00560   0.00555  -1.00692
   D21        3.14159   0.00000   0.00000   0.00000   0.00000   3.14159
   D22        3.14159   0.00000   0.00000   0.00000   0.00000  -3.14159
   D23        1.11665   0.00100   0.00000   0.01119   0.01110   1.12775
   D24       -1.01247   0.00050   0.00000   0.00560   0.00555  -1.00692
   D25       -1.11665  -0.00100   0.00000  -0.01119  -0.01110  -1.12775
   D26        3.14159   0.00000   0.00000   0.00000   0.00000   3.14159
   D27        1.01247  -0.00050   0.00000  -0.00560  -0.00555   1.00692
   D28        1.01251  -0.00062   0.00000  -0.00748  -0.00740   1.00511
   D29       -1.01251   0.00062   0.00000   0.00748   0.00740  -1.00511
   D30        3.14159   0.00000   0.00000   0.00000   0.00000   3.14159
   D31       -3.13964  -0.00018   0.00000  -0.00259  -0.00254   3.14101
   D32        1.11853   0.00106   0.00000   0.01237   0.01226   1.13079
   D33       -1.01055   0.00044   0.00000   0.00489   0.00486  -1.00569
   D34       -1.11853  -0.00106   0.00000  -0.01237  -0.01226  -1.13079
   D35        3.13964   0.00018   0.00000   0.00259   0.00254  -3.14101
   D36        1.01055  -0.00044   0.00000  -0.00489  -0.00486   1.00569
   D37        1.04833  -0.00030   0.00000  -0.00518  -0.00516   1.04318
   D38        3.14159   0.00000   0.00000   0.00000   0.00000   3.14159
   D39       -1.04833   0.00030   0.00000   0.00518   0.00516  -1.04318
   D40       -3.10449  -0.00014   0.00000  -0.00323  -0.00317  -3.10766
   D41       -1.01123   0.00016   0.00000   0.00196   0.00199  -1.00924
   D42        1.08203   0.00045   0.00000   0.00714   0.00714   1.08918
   D43       -1.08203  -0.00045   0.00000  -0.00714  -0.00714  -1.08918
   D44        1.01123  -0.00016   0.00000  -0.00196  -0.00199   1.00924
   D45        3.10449   0.00014   0.00000   0.00323   0.00317   3.10766
         Item               Value     Threshold  Converged?
 Maximum Force            0.009616     0.000015     NO 
 RMS     Force            0.002563     0.000010     NO 
 Maximum Displacement     0.074193     0.000060     NO 
 RMS     Displacement     0.030190     0.000040     NO 
 Predicted change in Energy=-1.390904D-03
 GradGradGradGradGradGradGradGradGradGradGradGradGradGradGradGradGradGrad

 Leave Link  103 at Fri Sep 18 13:20:20 2015, MaxMem=  402653184 cpu:       0.1
 (Enter /share/apps/g09/l202.exe)
                          Input orientation:                          
 ---------------------------------------------------------------------
 Center     Atomic      Atomic             Coordinates (Angstroms)
 Number     Number       Type             X           Y           Z
 ---------------------------------------------------------------------
      1          6           0        1.448768    2.900453    0.000000
      2          1           0        0.938357    3.301719    0.884274
      3          1           0        0.938357    3.301719   -0.884274
      4          1           0        2.471189    3.297855    0.000000
      5          6           0        1.429990    1.367360    0.000000
      6          1           0        1.977278    0.994355   -0.877124
      7          1           0        1.977278    0.994355    0.877124
      8          6           0        0.015138    0.768224    0.000000
      9          1           0       -0.532712    1.140676   -0.877794
     10          1           0       -0.532712    1.140676    0.877794
     11          6           0       -0.015138   -0.768224    0.000000
     12          1           0        0.532712   -1.140676    0.877794
     13          1           0        0.532712   -1.140676   -0.877794
     14          6           0       -1.429990   -1.367360    0.000000
     15          1           0       -1.977278   -0.994355   -0.877124
     16          1           0       -1.977278   -0.994355    0.877124
     17          6           0       -1.448768   -2.900453    0.000000
     18          1           0       -0.938357   -3.301719    0.884274
     19          1           0       -2.471189   -3.297855    0.000000
     20          1           0       -0.938357   -3.301719   -0.884274
 ---------------------------------------------------------------------
                    Distance matrix (angstroms):
                    1          2          3          4          5
     1  C    0.000000
     2  H    1.097030   0.000000
     3  H    1.097030   1.768547   0.000000
     4  H    1.096938   1.769612   1.769612   0.000000
     5  C    1.533208   2.182977   2.182977   2.193378   0.000000
     6  H    2.163764   3.083149   2.530482   2.513843   1.099092
     7  H    2.163764   2.530482   3.083149   2.513843   1.099092
     8  C    2.569376   2.837758   2.837758   3.525793   1.536479
     9  H    2.791702   3.152624   2.614230   3.800969   2.161968
    10  H    2.791702   2.614230   3.152624   3.800969   2.161968
    11  C    3.949964   4.272650   4.272650   4.766008   2.578588
    12  H    4.235611   4.460882   4.796280   4.922273   2.804616
    13  H    4.235611   4.796280   4.460882   4.922273   2.804616
    14  C    5.147958   5.309549   5.309549   6.081400   3.957041
    15  H    5.260862   5.482674   5.192036   6.243499   4.237514
    16  H    5.260862   5.192036   5.482674   6.243499   4.237514
    17  C    6.484306   6.704271   6.704271   7.333832   5.147958
    18  H    6.704271   6.864945   7.089092   7.480731   5.309549
    19  H    7.333832   7.480731   7.480731   8.241996   6.081400
    20  H    6.704271   7.089092   6.864945   7.480731   5.309549
                    6          7          8          9         10
     6  H    0.000000
     7  H    1.754248   0.000000
     8  C    2.161129   2.161129   0.000000
     9  H    2.514252   3.066137   1.099719   0.000000
    10  H    3.066137   2.514252   1.099719   1.755588   0.000000
    11  C    2.801028   2.801028   1.536747   2.163864   2.163864
    12  H    3.118472   2.577815   2.163864   3.069492   2.517875
    13  H    2.577815   3.118472   2.163864   2.517875   3.069492
    14  C    4.237514   4.237514   2.578588   2.804616   2.804616
    15  H    4.426453   4.761394   2.801028   2.577815   3.118472
    16  H    4.761394   4.426453   2.801028   3.118472   2.577815
    17  C    5.260862   5.260862   3.949964   4.235611   4.235611
    18  H    5.482674   5.192036   4.272650   4.796280   4.460882
    19  H    6.243499   6.243499   4.766008   4.922273   4.922273
    20  H    5.192036   5.482674   4.272650   4.460882   4.796280
                   11         12         13         14         15
    11  C    0.000000
    12  H    1.099719   0.000000
    13  H    1.099719   1.755588   0.000000
    14  C    1.536479   2.161968   2.161968   0.000000
    15  H    2.161129   3.066137   2.514252   1.099092   0.000000
    16  H    2.161129   2.514252   3.066137   1.099092   1.754248
    17  C    2.569376   2.791702   2.791702   1.533208   2.163764
    18  H    2.837758   2.614230   3.152624   2.182977   3.083149
    19  H    3.525793   3.800969   3.800969   2.193378   2.513843
    20  H    2.837758   3.152624   2.614230   2.182977   2.530482
                   16         17         18         19         20
    16  H    0.000000
    17  C    2.163764   0.000000
    18  H    2.530482   1.097030   0.000000
    19  H    2.513843   1.096938   1.769612   0.000000
    20  H    3.083149   1.097030   1.768547   1.769612   0.000000
 Stoichiometry    C6H14
 Framework group  C2H[SGH(C6H2),X(H12)]
 Deg. of freedom    16
 Full point group                 C2H     NOp   4
 Largest Abelian subgroup         C2H     NOp   4
 Largest concise Abelian subgroup C2H     NOp   4
                         Standard orientation:                         
 ---------------------------------------------------------------------
 Center     Atomic      Atomic             Coordinates (Angstroms)
 Number     Number       Type             X           Y           Z
 ---------------------------------------------------------------------
      1          6           0        1.413135    2.917980    0.000000
      2          1           0        0.897847    3.312965    0.884274
      3          1           0        0.897847    3.312965   -0.884274
      4          1           0        2.430611    3.327875    0.000000
      5          6           0        1.413135    1.384772    0.000000
      6          1           0        1.964951    1.018499   -0.877124
      7          1           0        1.964951    1.018499    0.877124
      8          6           0        0.005728    0.768352    0.000000
      9          1           0       -0.546643    1.134066   -0.877794
     10          1           0       -0.546643    1.134066    0.877794
     11          6           0       -0.005728   -0.768352    0.000000
     12          1           0        0.546643   -1.134066    0.877794
     13          1           0        0.546643   -1.134066   -0.877794
     14          6           0       -1.413135   -1.384772    0.000000
     15          1           0       -1.964951   -1.018499   -0.877124
     16          1           0       -1.964951   -1.018499    0.877124
     17          6           0       -1.413135   -2.917980    0.000000
     18          1           0       -0.897847   -3.312965    0.884274
     19          1           0       -2.430611   -3.327875    0.000000
     20          1           0       -0.897847   -3.312965   -0.884274
 ---------------------------------------------------------------------
 Rotational constants (GHZ):     14.6453031      1.1169307      1.0792716
 Leave Link  202 at Fri Sep 18 13:20:20 2015, MaxMem=  402653184 cpu:       0.0
 (Enter /share/apps/g09/l301.exe)
 Standard basis: 6-31G(d) (6D, 7F)
 Ernie: Thresh=  0.10000D-02 Tol=  0.10000D-05 Strict=F.
 There are    41 symmetry adapted basis functions of AG  symmetry.
 There are    18 symmetry adapted basis functions of BG  symmetry.
 There are    18 symmetry adapted basis functions of AU  symmetry.
 There are    41 symmetry adapted basis functions of BU  symmetry.
 Integral buffers will be    131072 words long.
 Raffenetti 2 integral format.
 Two-electron integral symmetry is turned on.
   118 basis functions,   224 primitive gaussians,   118 cartesian basis functions
    25 alpha electrons       25 beta electrons
       nuclear repulsion energy       242.7115545870 Hartrees.
 IExCor=  402 DFT=T Ex+Corr=B3LYP ExCW=0 ScaHFX=  0.200000
 ScaDFX=  0.800000  0.720000  1.000000  0.810000 ScalE2=  1.000000  1.000000
 IRadAn=      5 IRanWt=     -1 IRanGd=            0 ICorTp=0
 NAtoms=   20 NActive=   20 NUniq=    7 SFac= 3.00D+00 NAtFMM=   80 NAOKFM=F Big=F
 Leave Link  301 at Fri Sep 18 13:20:20 2015, MaxMem=  402653184 cpu:       0.1
 (Enter /share/apps/g09/l302.exe)
 NPDir=0 NMtPBC=     1 NCelOv=     1 NCel=       1 NClECP=     1 NCelD=      1
         NCelK=      1 NCelE2=     1 NClLst=     1 CellRange=     0.0.
 One-electron integrals computed using PRISM.
 One-electron integral symmetry used in STVInt
 NBasis=   118 RedAO= T  NBF=    41    18    18    41
 NBsUse=   118 1.00D-06 NBFU=    41    18    18    41
 Precomputing XC quadrature grid using
 IXCGrd= 2 IRadAn=           5 IRanWt=          -1 IRanGd=           0 AccXCQ= 1.00D-10.
 NRdTot=    1658 NPtTot=      444860 NUsed=      456739 NTot=      456771
 NSgBfM=   118   118   118   118   118 NAtAll=    20    20.
 Leave Link  302 at Fri Sep 18 13:20:21 2015, MaxMem=  402653184 cpu:       1.2
 (Enter /share/apps/g09/l303.exe)
 DipDrv:  MaxL=1.
 Leave Link  303 at Fri Sep 18 13:20:21 2015, MaxMem=  402653184 cpu:       0.1
 (Enter /share/apps/g09/l401.exe)
 Initial guess read from the read-write file.
 B after Tr=     0.000000    0.000000    0.000000
         Rot=    1.000000    0.000000    0.000000    0.000000 Ang=   0.00 deg.
 Guess basis will be translated and rotated to current coordinates.
 Initial guess orbital symmetries:
       Occupied  (BU) (AG) (AG) (BU) (BU) (AG) (AG) (BU) (AG) (BU)
                 (AG) (BU) (AU) (BG) (AG) (BU) (AU) (AG) (BU) (BG)
                 (BU) (AG) (AU) (BG) (AG)
       Virtual   (AG) (BU) (AU) (BU) (AG) (BG) (AG) (BU) (BU) (AG)
                 (AU) (BG) (AU) (BG) (BU) (AG) (BU) (AG) (BU) (AG)
                 (BU) (AG) (BG) (AU) (AU) (BU) (AG) (BU) (BG) (AG)
                 (BU) (AG) (AU) (BU) (BU) (BG) (AU) (AG) (BG) (BU)
                 (AG) (AU) (BG) (BU) (BU) (AU) (AG) (AG) (BU) (AG)
                 (AG) (BG) (BU) (AG) (AU) (BU) (BU) (AG) (AG) (BU)
                 (BG) (AG) (BU) (AU) (AG) (AG) (BG) (BU) (BU) (AU)
                 (AG) (BU) (BG) (BG) (AG) (AU) (BG) (BU) (AU) (AU)
                 (BG) (AG) (AG) (BU) (BU) (AG) (BU) (AG) (BU) (AG)
                 (BU) (AG) (BU)
 The electronic state of the initial guess is 1-AG.
 Generating alternative initial guess.
 Harris functional with IExCor=  402 diagonalized for initial guess.
 ExpMin= 1.61D-01 ExpMax= 3.05D+03 ExpMxC= 4.57D+02 IAcc=3 IRadAn=         5 AccDes= 0.00D+00
 HarFok:  IExCor=  402 AccDes= 0.00D+00 IRadAn=         5 IDoV= 1
 ScaDFX=  1.000000  1.000000  1.000000  1.000000
 FoFCou: FMM=F IPFlag=           0 FMFlag=      100000 FMFlg1=           0
         NFxFlg=           0 DoJE=T BraDBF=F KetDBF=T FulRan=T
         Omega=  0.000000  0.000000  1.000000  0.000000  0.000000 ICntrl=     500 IOpCl=  0
         NMat0=    1 NMatS0=    1 NMatT0=    0 NMatD0=    1 NMtDS0=    0 NMtDT0=    0
         I1Cent=           4 NGrid=           0.
 Petite list used in FoFCou.
 Harris En= -237.183653699000    
 Leave Link  401 at Fri Sep 18 13:20:22 2015, MaxMem=  402653184 cpu:       2.9
 (Enter /share/apps/g09/l502.exe)
 Closed shell SCF:
 Requested convergence on RMS density matrix=1.00D-08 within 128 cycles.
 Requested convergence on MAX density matrix=1.00D-06.
 Requested convergence on             energy=1.00D-06.
 No special actions if energy rises.
 Using DIIS extrapolation, IDIIS=  1040.
 Integral symmetry usage will be decided dynamically.
       456546 words used for storage of precomputed grid.
 Keep R1 ints in memory in canonical form, NReq=26111111.
 IEnd=      518600 IEndB=      518600 NGot=   402653184 MDV=   377514508
 LenX=   377514508 LenY=   377500143
 Symmetry not used in FoFDir.
 MinBra= 0 MaxBra= 2 Meth= 1.
 IRaf=       0 NMat=   1 IRICut=       1 DoRegI=T DoRafI=F ISym2E= 0 JSym2E=0.
 Integral accuracy reduced to 1.0D-05 until final iterations.

 Cycle   1  Pass 0  IDiag  1:
 E= -237.084940642949    
 DIIS: error= 1.83D-03 at cycle   1 NSaved=   1.
 NSaved= 1 IEnMin= 1 EnMin= -237.084940642949     IErMin= 1 ErrMin= 1.83D-03
 ErrMax= 1.83D-03 EMaxC= 1.00D-01 BMatC= 2.97D-04 BMatP= 2.97D-04
 IDIUse=3 WtCom= 9.82D-01 WtEn= 1.83D-02
 Coeff-Com:  0.100D+01
 Coeff-En:   0.100D+01
 Coeff:      0.100D+01
 Gap=     0.399 Goal=   None    Shift=    0.000
 GapD=    0.399 DampG=1.000 DampE=1.000 DampFc=1.0000 IDamp=-1.
 RMSDP=2.42D-04 MaxDP=2.60D-03              OVMax= 6.37D-03

 Cycle   2  Pass 0  IDiag  1:
 E= -237.085394003776     Delta-E=       -0.000453360827 Rises=F Damp=F
 DIIS: error= 5.27D-04 at cycle   2 NSaved=   2.
 NSaved= 2 IEnMin= 2 EnMin= -237.085394003776     IErMin= 2 ErrMin= 5.27D-04
 ErrMax= 5.27D-04 EMaxC= 1.00D-01 BMatC= 2.51D-05 BMatP= 2.97D-04
 IDIUse=3 WtCom= 9.95D-01 WtEn= 5.27D-03
 Coeff-Com:  0.988D-01 0.901D+00
 Coeff-En:   0.000D+00 0.100D+01
 Coeff:      0.983D-01 0.902D+00
 Gap=     0.398 Goal=   None    Shift=    0.000
 RMSDP=9.41D-05 MaxDP=1.30D-03 DE=-4.53D-04 OVMax= 2.18D-03

 Cycle   3  Pass 0  IDiag  1:
 E= -237.085397422368     Delta-E=       -0.000003418592 Rises=F Damp=F
 DIIS: error= 5.52D-04 at cycle   3 NSaved=   3.
 NSaved= 3 IEnMin= 3 EnMin= -237.085397422368     IErMin= 2 ErrMin= 5.27D-04
 ErrMax= 5.52D-04 EMaxC= 1.00D-01 BMatC= 2.41D-05 BMatP= 2.51D-05
 IDIUse=3 WtCom= 9.94D-01 WtEn= 5.52D-03
 Coeff-Com: -0.177D-01 0.498D+00 0.520D+00
 Coeff-En:   0.000D+00 0.468D+00 0.532D+00
 Coeff:     -0.176D-01 0.498D+00 0.520D+00
 Gap=     0.399 Goal=   None    Shift=    0.000
 RMSDP=4.42D-05 MaxDP=7.43D-04 DE=-3.42D-06 OVMax= 9.31D-04

 Cycle   4  Pass 0  IDiag  1:
 E= -237.085422245696     Delta-E=       -0.000024823328 Rises=F Damp=F
 DIIS: error= 3.21D-05 at cycle   4 NSaved=   4.
 NSaved= 4 IEnMin= 4 EnMin= -237.085422245696     IErMin= 4 ErrMin= 3.21D-05
 ErrMax= 3.21D-05 EMaxC= 1.00D-01 BMatC= 1.23D-07 BMatP= 2.41D-05
 IDIUse=1 WtCom= 1.00D+00 WtEn= 0.00D+00
 Coeff-Com: -0.905D-02 0.102D+00 0.134D+00 0.772D+00
 Coeff:     -0.905D-02 0.102D+00 0.134D+00 0.772D+00
 Gap=     0.399 Goal=   None    Shift=    0.000
 RMSDP=3.42D-06 MaxDP=5.50D-05 DE=-2.48D-05 OVMax= 6.98D-05

 Initial convergence to 1.0D-05 achieved.  Increase integral accuracy.
 Cycle   5  Pass 1  IDiag  1:
 E= -237.085404003226     Delta-E=        0.000018242470 Rises=F Damp=F
 DIIS: error= 1.33D-05 at cycle   1 NSaved=   1.
 NSaved= 1 IEnMin= 1 EnMin= -237.085404003226     IErMin= 1 ErrMin= 1.33D-05
 ErrMax= 1.33D-05 EMaxC= 1.00D-01 BMatC= 2.12D-08 BMatP= 2.12D-08
 IDIUse=1 WtCom= 1.00D+00 WtEn= 0.00D+00
 Coeff-Com:  0.100D+01
 Coeff:      0.100D+01
 Gap=     0.399 Goal=   None    Shift=    0.000
 RMSDP=3.42D-06 MaxDP=5.50D-05 DE= 1.82D-05 OVMax= 5.78D-05

 Cycle   6  Pass 1  IDiag  1:
 E= -237.085403999114     Delta-E=        0.000000004112 Rises=F Damp=F
 DIIS: error= 1.59D-05 at cycle   2 NSaved=   2.
 NSaved= 2 IEnMin= 1 EnMin= -237.085404003226     IErMin= 1 ErrMin= 1.33D-05
 ErrMax= 1.59D-05 EMaxC= 1.00D-01 BMatC= 2.76D-08 BMatP= 2.12D-08
 IDIUse=1 WtCom= 1.00D+00 WtEn= 0.00D+00
 Coeff-Com:  0.535D+00 0.465D+00
 Coeff:      0.535D+00 0.465D+00
 Gap=     0.399 Goal=   None    Shift=    0.000
 RMSDP=1.28D-06 MaxDP=2.50D-05 DE= 4.11D-09 OVMax= 2.96D-05

 Cycle   7  Pass 1  IDiag  1:
 E= -237.085404025951     Delta-E=       -0.000000026837 Rises=F Damp=F
 DIIS: error= 1.05D-06 at cycle   3 NSaved=   3.
 NSaved= 3 IEnMin= 3 EnMin= -237.085404025951     IErMin= 3 ErrMin= 1.05D-06
 ErrMax= 1.05D-06 EMaxC= 1.00D-01 BMatC= 1.24D-10 BMatP= 2.12D-08
 IDIUse=1 WtCom= 1.00D+00 WtEn= 0.00D+00
 Coeff-Com: -0.675D-02 0.515D-01 0.955D+00
 Coeff:     -0.675D-02 0.515D-01 0.955D+00
 Gap=     0.399 Goal=   None    Shift=    0.000
 RMSDP=1.53D-07 MaxDP=2.13D-06 DE=-2.68D-08 OVMax= 3.33D-06

 Cycle   8  Pass 1  IDiag  1:
 E= -237.085404026048     Delta-E=       -0.000000000098 Rises=F Damp=F
 DIIS: error= 6.13D-07 at cycle   4 NSaved=   4.
 NSaved= 4 IEnMin= 4 EnMin= -237.085404026048     IErMin= 4 ErrMin= 6.13D-07
 ErrMax= 6.13D-07 EMaxC= 1.00D-01 BMatC= 2.97D-11 BMatP= 1.24D-10
 IDIUse=1 WtCom= 1.00D+00 WtEn= 0.00D+00
 Coeff-Com: -0.153D-01 0.169D-01 0.502D+00 0.496D+00
 Coeff:     -0.153D-01 0.169D-01 0.502D+00 0.496D+00
 Gap=     0.399 Goal=   None    Shift=    0.000
 RMSDP=5.29D-08 MaxDP=8.68D-07 DE=-9.78D-11 OVMax= 1.07D-06

 Cycle   9  Pass 1  IDiag  1:
 E= -237.085404026080     Delta-E=       -0.000000000032 Rises=F Damp=F
 DIIS: error= 5.41D-08 at cycle   5 NSaved=   5.
 NSaved= 5 IEnMin= 5 EnMin= -237.085404026080     IErMin= 5 ErrMin= 5.41D-08
 ErrMax= 5.41D-08 EMaxC= 1.00D-01 BMatC= 2.95D-13 BMatP= 2.97D-11
 IDIUse=1 WtCom= 1.00D+00 WtEn= 0.00D+00
 Coeff-Com: -0.423D-02 0.302D-02 0.112D+00 0.150D+00 0.739D+00
 Coeff:     -0.423D-02 0.302D-02 0.112D+00 0.150D+00 0.739D+00
 Gap=     0.399 Goal=   None    Shift=    0.000
 RMSDP=5.27D-09 MaxDP=6.83D-08 DE=-3.16D-11 OVMax= 9.80D-08

 SCF Done:  E(RB3LYP) =  -237.085404026     A.U. after    9 cycles
             Convg  =    0.5274D-08             -V/T =  2.0106
 KE= 2.346068381568D+02 PE=-1.032326080580D+03 EE= 3.179222838103D+02
 Leave Link  502 at Fri Sep 18 13:20:33 2015, MaxMem=  402653184 cpu:      22.3
 (Enter /share/apps/g09/l701.exe)
 Compute integral first derivatives.
 ... and contract with generalized density number  0.
 Leave Link  701 at Fri Sep 18 13:20:33 2015, MaxMem=  402653184 cpu:       0.3
 (Enter /share/apps/g09/l702.exe)
 L702 exits ... SP integral derivatives will be done elsewhere.
 Leave Link  702 at Fri Sep 18 13:20:34 2015, MaxMem=  402653184 cpu:       0.0
 (Enter /share/apps/g09/l703.exe)
 Compute integral first derivatives, UseDBF=F ICtDFT=           0.
 Integral derivatives from FoFDir, PRISM(SPDF).
 Calling FoFJK, ICntrl=      2127 FMM=F ISym2X=1 I1Cent= 0 IOpClX= 0 NMat=1 NMatS=1 NMatT=0.
 FoFCou: FMM=F IPFlag=           0 FMFlag=      100000 FMFlg1=         800
         NFxFlg=           0 DoJE=F BraDBF=F KetDBF=F FulRan=T
         Omega=  0.000000  0.000000  1.000000  0.000000  0.000000 ICntrl=    2127 IOpCl=  0
         NMat0=    1 NMatS0=    1 NMatT0=    0 NMatD0=    1 NMtDS0=    0 NMtDT0=    0
         I1Cent=           0 NGrid=           0.
 Petite list used in FoFCou.
 Leave Link  703 at Fri Sep 18 13:20:37 2015, MaxMem=  402653184 cpu:       6.6
 (Enter /share/apps/g09/l716.exe)
 Dipole        = 3.99680289D-15 3.55271368D-15-4.44089210D-16
 ***** Axes restored to original set *****
 -------------------------------------------------------------------
 Center     Atomic                   Forces (Hartrees/Bohr)
 Number     Number              X              Y              Z
 -------------------------------------------------------------------
      1        6          -0.001008048   -0.000097951    0.000000000
      2        1          -0.000111508    0.000047374    0.000046052
      3        1          -0.000111508    0.000047374   -0.000046052
      4        1          -0.000253713   -0.001119891    0.000000000
      5        6           0.000440177   -0.001555189    0.000000000
      6        1           0.000202762    0.000093377   -0.000234901
      7        1           0.000202762    0.000093377    0.000234901
      8        6          -0.000779056    0.000173931    0.000000000
      9        1          -0.000331703    0.000163412   -0.000350539
     10        1          -0.000331703    0.000163412    0.000350539
     11        6           0.000779056   -0.000173931    0.000000000
     12        1           0.000331703   -0.000163412    0.000350539
     13        1           0.000331703   -0.000163412   -0.000350539
     14        6          -0.000440177    0.001555189    0.000000000
     15        1          -0.000202762   -0.000093377   -0.000234901
     16        1          -0.000202762   -0.000093377    0.000234901
     17        6           0.001008048    0.000097951    0.000000000
     18        1           0.000111508   -0.000047374    0.000046052
     19        1           0.000253713    0.001119891    0.000000000
     20        1           0.000111508   -0.000047374   -0.000046052
 -------------------------------------------------------------------
 Cartesian Forces:  Max     0.001555189 RMS     0.000460314
 Leave Link  716 at Fri Sep 18 13:20:37 2015, MaxMem=  402653184 cpu:       0.0
 (Enter /share/apps/g09/l103.exe)

[...]
                          Input orientation:                          
 ---------------------------------------------------------------------
 Center     Atomic      Atomic             Coordinates (Angstroms)
 Number     Number       Type             X           Y           Z
 ---------------------------------------------------------------------
      1          6           0        1.441764    2.891513    0.000000
      2          1           0        0.931809    3.292799    0.884598
      3          1           0        0.931809    3.292799   -0.884598
      4          1           0        2.465537    3.283035    0.000000
      5          6           0        1.427221    1.359463    0.000000
      6          1           0        1.974866    0.988155   -0.878004
      7          1           0        1.974866    0.988155    0.878004
      8          6           0        0.012156    0.766831    0.000000
      9          1           0       -0.536032    1.139255   -0.878485
     10          1           0       -0.536032    1.139255    0.878485
     11          6           0       -0.012156   -0.766831    0.000000
     12          1           0        0.536032   -1.139255    0.878485
     13          1           0        0.536032   -1.139255   -0.878485
     14          6           0       -1.427221   -1.359463    0.000000
     15          1           0       -1.974866   -0.988155   -0.878004
     16          1           0       -1.974866   -0.988155    0.878004
     17          6           0       -1.441764   -2.891513    0.000000
     18          1           0       -0.931809   -3.292799    0.884598
     19          1           0       -2.465537   -3.283035    0.000000
     20          1           0       -0.931809   -3.292799   -0.884598
 ---------------------------------------------------------------------
                    Distance matrix (angstroms):
                    1          2          3          4          5
     1  C    0.000000
     2  H    1.097086   0.000000
     3  H    1.097086   1.769197   0.000000
     4  H    1.096085   1.770574   1.770574   0.000000
     5  C    1.532118   2.183056   2.183056   2.185916   0.000000
     6  H    2.162836   3.083200   2.529703   2.505619   1.099399
     7  H    2.162836   2.529703   3.083200   2.505619   1.099399
     8  C    2.560870   2.829981   2.829981   3.514309   1.534152
     9  H    2.784567   3.146549   2.606213   3.791694   2.162079
    10  H    2.784567   2.606213   3.146549   3.791694   2.162079
    11  C    3.936668   4.260772   4.260772   4.747670   2.567670
    12  H    4.223645   4.449694   4.786251   4.904220   2.794557
    13  H    4.223645   4.786251   4.449694   4.904220   2.794557
    14  C    5.128534   5.290659   5.290659   6.058577   3.942131
    15  H    5.243669   5.466451   5.174492   6.223434   4.225683
    16  H    5.243669   5.174492   5.466451   6.223434   4.225683
    17  C    6.462052   6.682969   6.682969   7.306985   5.128534
    18  H    6.682969   6.844207   7.069174   7.454265   5.290659
    19  H    7.306985   7.454265   7.454265   8.211502   6.058577
    20  H    6.682969   7.069174   6.844207   7.454265   5.290659
                    6          7          8          9         10
     6  H    0.000000
     7  H    1.756009   0.000000
     8  C    2.161506   2.161506   0.000000
     9  H    2.515440   3.068011   1.100429   0.000000
    10  H    3.068011   2.515440   1.100429   1.756969   0.000000
    11  C    2.792690   2.792690   1.533854   2.163179   2.163179
    12  H    3.111490   2.568291   2.163179   3.070484   2.518120
    13  H    2.568291   3.111490   2.163179   2.518120   3.070484
    14  C    4.225683   4.225683   2.567670   2.794557   2.794557
    15  H    4.416580   4.752867   2.792690   2.568291   3.111490
    16  H    4.752867   4.416580   2.792690   3.111490   2.568291
    17  C    5.243669   5.243669   3.936668   4.223645   4.223645
    18  H    5.466451   5.174492   4.260772   4.786251   4.449694
    19  H    6.223434   6.223434   4.747670   4.904220   4.904220
    20  H    5.174492   5.466451   4.260772   4.449694   4.786251
                   11         12         13         14         15
    11  C    0.000000
    12  H    1.100429   0.000000
    13  H    1.100429   1.756969   0.000000
    14  C    1.534152   2.162079   2.162079   0.000000
    15  H    2.161506   3.068011   2.515440   1.099399   0.000000
    16  H    2.161506   2.515440   3.068011   1.099399   1.756009
    17  C    2.560870   2.784567   2.784567   1.532118   2.162836
    18  H    2.829981   2.606213   3.146549   2.183056   3.083200
    19  H    3.514309   3.791694   3.791694   2.185916   2.505619
    20  H    2.829981   3.146549   2.606213   2.183056   2.529703
                   16         17         18         19         20
    16  H    0.000000
    17  C    2.162836   0.000000
    18  H    2.529703   1.097086   0.000000
    19  H    2.505619   1.096085   1.770574   0.000000
    20  H    3.083200   1.097086   1.769197   1.770574   0.000000
 Stoichiometry    C6H14
 Framework group  C2H[SGH(C6H2),X(H12)]
 Deg. of freedom    16
 Full point group                 C2H     NOp   4
 Largest Abelian subgroup         C2H     NOp   4
 Largest concise Abelian subgroup C2H     NOp   4
                         Standard orientation:                         
 ---------------------------------------------------------------------
 Center     Atomic      Atomic             Coordinates (Angstroms)
 Number     Number       Type             X           Y           Z
 ---------------------------------------------------------------------
      1          6           0        1.414252    2.905068    0.000000
      2          1           0        0.900511    3.301495    0.884598
      3          1           0        0.900511    3.301495   -0.884598
      4          1           0        2.434263    3.306290    0.000000
      5          6           0        1.414252    1.372949    0.000000
      6          1           0        1.965397    1.006856   -0.878004
      7          1           0        1.965397    1.006856    0.878004
      8          6           0        0.004876    0.766911    0.000000
      9          1           0       -0.546821    1.134116   -0.878485
     10          1           0       -0.546821    1.134116    0.878485
     11          6           0       -0.004876   -0.766911    0.000000
     12          1           0        0.546821   -1.134116    0.878485
     13          1           0        0.546821   -1.134116   -0.878485
     14          6           0       -1.414252   -1.372949    0.000000
     15          1           0       -1.965397   -1.006856   -0.878004
     16          1           0       -1.965397   -1.006856    0.878004
     17          6           0       -1.414252   -2.905068    0.000000
     18          1           0       -0.900511   -3.301495    0.884598
     19          1           0       -2.434263   -3.306290    0.000000
     20          1           0       -0.900511   -3.301495   -0.884598
 ---------------------------------------------------------------------
 Rotational constants (GHZ):     14.5836190      1.1249710      1.0864988
 Leave Link  202 at Fri Sep 18 13:21:22 2015, MaxMem=  402653184 cpu:       0.0
 (Enter /share/apps/g09/l601.exe)
 Copying SCF densities to generalized density rwf, IOpCl= 0 IROHF=0.

 **********************************************************************

            Population analysis using the SCF density.

 **********************************************************************

 Orbital symmetries:
       Occupied  (BU) (AG) (AG) (BU) (BU) (AG) (AG) (BU) (AG) (BU)
                 (AG) (BU) (AU) (BG) (AG) (BU) (AU) (BU) (AG) (BG)
                 (BU) (AU) (AG) (BG) (AG)
       Virtual   (AG) (BU) (AU) (BU) (AG) (BG) (AG) (BU) (BU) (AU)
                 (AG) (BG) (AU) (BG) (BU) (AG) (BU) (AG) (BU) (AG)
                 (BU) (AG) (BG) (AU) (AU) (BU) (AG) (BU) (BG) (AG)
                 (BU) (AG) (AU) (BU) (BU) (BG) (AU) (AG) (BG) (BU)
                 (AG) (AU) (BG) (BU) (BU) (AU) (AG) (AG) (BU) (AG)
                 (AG) (BG) (BU) (AG) (AU) (BU) (BU) (AG) (AG) (BU)
                 (BG) (AG) (BU) (AU) (AG) (AG) (BG) (BU) (BU) (AU)
                 (AG) (BU) (BG) (AG) (BG) (AU) (BU) (AU) (BG) (AU)
                 (BG) (AG) (AG) (BU) (BU) (AG) (BU) (AG) (BU) (AG)
                 (BU) (AG) (BU)
 The electronic state is 1-AG.
 Alpha  occ. eigenvalues --  -10.17591 -10.17591 -10.17369 -10.17348 -10.16989
 Alpha  occ. eigenvalues --  -10.16989  -0.79888  -0.76125  -0.70301  -0.63362
 Alpha  occ. eigenvalues --   -0.57765  -0.57014  -0.47316  -0.44030  -0.42895
 Alpha  occ. eigenvalues --   -0.41548  -0.39476  -0.37566  -0.37363  -0.35093
 Alpha  occ. eigenvalues --   -0.33674  -0.32372  -0.32022  -0.31661  -0.30428
 Alpha virt. eigenvalues --    0.09278   0.10458   0.12310   0.13238   0.13694
 Alpha virt. eigenvalues --    0.16287   0.16860   0.16942   0.18623   0.19181
 Alpha virt. eigenvalues --    0.19436   0.20005   0.20559   0.20671   0.22951
 Alpha virt. eigenvalues --    0.24335   0.26529   0.28153   0.29358   0.49406
 Alpha virt. eigenvalues --    0.49783   0.51194   0.55113   0.56039   0.57723
 Alpha virt. eigenvalues --    0.58638   0.60588   0.62915   0.65311   0.69032
 Alpha virt. eigenvalues --    0.69289   0.72656   0.76963   0.79511   0.82020
 Alpha virt. eigenvalues --    0.82091   0.84918   0.88250   0.88654   0.90541
 Alpha virt. eigenvalues --    0.90611   0.92597   0.93664   0.94184   0.95383
 Alpha virt. eigenvalues --    0.95569   0.96363   0.96977   0.99192   1.00646
 Alpha virt. eigenvalues --    1.01873   1.15021   1.29622   1.40633   1.40682
 Alpha virt. eigenvalues --    1.45696   1.46014   1.52508   1.55172   1.64070
 Alpha virt. eigenvalues --    1.75863   1.82585   1.87301   1.87583   1.90062
 Alpha virt. eigenvalues --    1.93844   1.94753   1.95431   2.00327   2.02096
 Alpha virt. eigenvalues --    2.03129   2.07193   2.10570   2.22878   2.23349
 Alpha virt. eigenvalues --    2.25567   2.32630   2.33577   2.33913   2.42607
 Alpha virt. eigenvalues --    2.42888   2.45092   2.56718   2.60692   2.63340
 Alpha virt. eigenvalues --    2.77669   2.82271   4.11688   4.18824   4.28533
 Alpha virt. eigenvalues --    4.36634   4.44778   4.56169
          Condensed to atoms (all electrons):
              1          2          3          4          5          6
     1  C    5.065570   0.377430   0.377430   0.371456   0.370858  -0.038621
     2  H    0.377430   0.580048  -0.032937  -0.031417  -0.034730   0.005273
     3  H    0.377430  -0.032937   0.580048  -0.031417  -0.034730  -0.004513
     4  H    0.371456  -0.031417  -0.031417   0.579190  -0.027187  -0.002711
     5  C    0.370858  -0.034730  -0.034730  -0.027187   4.953561   0.376488
     6  H   -0.038621   0.005273  -0.004513  -0.002711   0.376488   0.613394
     7  H   -0.038621  -0.004513   0.005273  -0.002711   0.376488  -0.040256
     8  C   -0.041973  -0.004492  -0.004492   0.004071   0.386219  -0.040274
     9  H   -0.002903  -0.000394   0.004887  -0.000034  -0.040529  -0.005510
    10  H   -0.002903   0.004887  -0.000394  -0.000034  -0.040529   0.005999
    11  C    0.003554   0.000031   0.000031  -0.000129  -0.035440  -0.003549
    12  H    0.000034   0.000003   0.000006   0.000002  -0.003542  -0.000455
    13  H    0.000034   0.000006   0.000003   0.000002  -0.003542   0.005134
    14  C   -0.000118   0.000001   0.000001   0.000001   0.003404   0.000023
    15  H    0.000001   0.000000  -0.000001   0.000000   0.000023   0.000005
    16  H    0.000001  -0.000001   0.000000   0.000000   0.000023   0.000006
    17  C    0.000001   0.000000   0.000000   0.000000  -0.000118   0.000001
    18  H    0.000000   0.000000   0.000000   0.000000   0.000001   0.000000
    19  H    0.000000   0.000000   0.000000   0.000000   0.000001   0.000000
    20  H    0.000000   0.000000   0.000000   0.000000   0.000001  -0.000001
              7          8          9         10         11         12
     1  C   -0.038621  -0.041973  -0.002903  -0.002903   0.003554   0.000034
     2  H   -0.004513  -0.004492  -0.000394   0.004887   0.000031   0.000003
     3  H    0.005273  -0.004492   0.004887  -0.000394   0.000031   0.000006
     4  H   -0.002711   0.004071  -0.000034  -0.000034  -0.000129   0.000002
     5  C    0.376488   0.386219  -0.040529  -0.040529  -0.035440  -0.003542
     6  H   -0.040256  -0.040274  -0.005510   0.005999  -0.003549  -0.000455
     7  H    0.613394  -0.040274   0.005999  -0.005510  -0.003549   0.005134
     8  C   -0.040274   4.976597   0.372256   0.372256   0.383315  -0.039437
     9  H    0.005999   0.372256   0.619171  -0.041005  -0.039437   0.005955
    10  H   -0.005510   0.372256  -0.041005   0.619171  -0.039437  -0.005418
    11  C   -0.003549   0.383315  -0.039437  -0.039437   4.976597   0.372256
    12  H    0.005134  -0.039437   0.005955  -0.005418   0.372256   0.619171
    13  H   -0.000455  -0.039437  -0.005418   0.005955   0.372256  -0.041005
    14  C    0.000023  -0.035440  -0.003542  -0.003542   0.386219  -0.040529
    15  H    0.000006  -0.003549   0.005134  -0.000455  -0.040274   0.005999
    16  H    0.000005  -0.003549  -0.000455   0.005134  -0.040274  -0.005510
    17  C    0.000001   0.003554   0.000034   0.000034  -0.041973  -0.002903
    18  H   -0.000001   0.000031   0.000006   0.000003  -0.004492   0.004887
    19  H    0.000000  -0.000129   0.000002   0.000002   0.004071  -0.000034
    20  H    0.000000   0.000031   0.000003   0.000006  -0.004492  -0.000394
             13         14         15         16         17         18
     1  C    0.000034  -0.000118   0.000001   0.000001   0.000001   0.000000
     2  H    0.000006   0.000001   0.000000  -0.000001   0.000000   0.000000
     3  H    0.000003   0.000001  -0.000001   0.000000   0.000000   0.000000
     4  H    0.000002   0.000001   0.000000   0.000000   0.000000   0.000000
     5  C   -0.003542   0.003404   0.000023   0.000023  -0.000118   0.000001
     6  H    0.005134   0.000023   0.000005   0.000006   0.000001   0.000000
     7  H   -0.000455   0.000023   0.000006   0.000005   0.000001  -0.000001
     8  C   -0.039437  -0.035440  -0.003549  -0.003549   0.003554   0.000031
     9  H   -0.005418  -0.003542   0.005134  -0.000455   0.000034   0.000006
    10  H    0.005955  -0.003542  -0.000455   0.005134   0.000034   0.000003
    11  C    0.372256   0.386219  -0.040274  -0.040274  -0.041973  -0.004492
    12  H   -0.041005  -0.040529   0.005999  -0.005510  -0.002903   0.004887
    13  H    0.619171  -0.040529  -0.005510   0.005999  -0.002903  -0.000394
    14  C   -0.040529   4.953561   0.376488   0.376488   0.370858  -0.034730
    15  H   -0.005510   0.376488   0.613394  -0.040256  -0.038621   0.005273
    16  H    0.005999   0.376488  -0.040256   0.613394  -0.038621  -0.004513
    17  C   -0.002903   0.370858  -0.038621  -0.038621   5.065570   0.377430
    18  H   -0.000394  -0.034730   0.005273  -0.004513   0.377430   0.580048
    19  H   -0.000034  -0.027187  -0.002711  -0.002711   0.371456  -0.031417
    20  H    0.004887  -0.034730  -0.004513   0.005273   0.377430  -0.032937
             19         20
     1  C    0.000000   0.000000
     2  H    0.000000   0.000000
     3  H    0.000000   0.000000
     4  H    0.000000   0.000000
     5  C    0.000001   0.000001
     6  H    0.000000  -0.000001
     7  H    0.000000   0.000000
     8  C   -0.000129   0.000031
     9  H    0.000002   0.000003
    10  H    0.000002   0.000006
    11  C    0.004071  -0.004492
    12  H   -0.000034  -0.000394
    13  H   -0.000034   0.004887
    14  C   -0.027187  -0.034730
    15  H   -0.002711  -0.004513
    16  H   -0.002711   0.005273
    17  C    0.371456   0.377430
    18  H   -0.031417  -0.032937
    19  H    0.579190  -0.031417
    20  H   -0.031417   0.580048
 Mulliken atomic charges:
              1
     1  C   -0.441229
     2  H    0.140805
     3  H    0.140805
     4  H    0.140918
     5  C   -0.246718
     6  H    0.129569
     7  H    0.129569
     8  C   -0.245280
     9  H    0.125781
    10  H    0.125781
    11  C   -0.245280
    12  H    0.125781
    13  H    0.125781
    14  C   -0.246718
    15  H    0.129569
    16  H    0.129569
    17  C   -0.441229
    18  H    0.140805
    19  H    0.140918
    20  H    0.140805
 Sum of Mulliken atomic charges =   0.00000
 Mulliken charges with hydrogens summed into heavy atoms:
              1
     1  C   -0.018700
     5  C    0.012419
     8  C    0.006281
    11  C    0.006281
    14  C    0.012419
    17  C   -0.018700
 Sum of Mulliken charges with hydrogens summed into heavy atoms =   0.00000
 Electronic spatial extent (au):  <R**2>=           1145.0884
 Charge=              0.0000 electrons
 Dipole moment (field-independent basis, Debye):
    X=              0.0000    Y=              0.0000    Z=              0.0000  Tot=              0.0000
 Quadrupole moment (field-independent basis, Debye-Ang):
   XX=            -41.5786   YY=            -42.5258   ZZ=            -40.7720
   XY=             -0.1100   XZ=              0.0000   YZ=              0.0000
 Traceless Quadrupole moment (field-independent basis, Debye-Ang):
   XX=              0.0469   YY=             -0.9004   ZZ=              0.8535
   XY=             -0.1100   XZ=              0.0000   YZ=              0.0000
 Octapole moment (field-independent basis, Debye-Ang**2):
  XXX=              0.0000  YYY=              0.0000  ZZZ=              0.0000  XYY=              0.0000
  XXY=              0.0000  XXZ=              0.0000  XZZ=              0.0000  YZZ=              0.0000
  YYZ=              0.0000  XYZ=              0.0000
 Hexadecapole moment (field-independent basis, Debye-Ang**3):
 XXXX=           -432.6531 YYYY=          -1095.1487 ZZZZ=            -83.9414 XXXY=           -258.0037
 XXXZ=              0.0000 YYYX=           -270.7263 YYYZ=              0.0000 ZZZX=              0.0000
 ZZZY=              0.0000 XXYY=           -249.0406 XXZZ=            -86.4377 YYZZ=           -188.1798
 XXYZ=              0.0000 YYXZ=              0.0000 ZZXY=            -89.9038
 N-N= 2.431370100819D+02 E-N=-1.033195263506D+03  KE= 2.346237367708D+02
 Symmetry AG   KE= 1.129212392832D+02
 Symmetry BG   KE= 5.970484266268D+00
 Symmetry AU   KE= 5.789398441777D+00
 Symmetry BU   KE= 1.099426147796D+02
 No NMR shielding tensors so no spin-rotation constants.
 Leave Link  601 at Fri Sep 18 13:21:22 2015, MaxMem=  402653184 cpu:       0.3
 (Enter /share/apps/g09/l9999.exe)
 1\1\GINC-COMPUTE-0-3\FOpt\RB3LYP\6-31G(d)\C6H14\HETANJIN\18-Sep-2015\0
 \\#p B3LYP/6-31G(d) opt=tight int=ultrafine\\using B3LYP/6-31G(d) to d
 o opt and freq calc.\\0,1\C,1.4417637581,2.891512523,0.\H,0.9318094308
 ,3.2927986525,0.8845984251\H,0.9318094308,3.2927986525,-0.8845984251\H
 ,2.4655372947,3.2830347529,0.\C,1.4272205009,1.3594631038,0.\H,1.97486
 61019,0.9881545019,-0.8780044349\H,1.9748661019,0.9881545019,0.8780044
 349\C,0.0121557196,0.7668305513,0.\H,-0.5360315099,1.1392552057,-0.878
 4845602\H,-0.5360315099,1.1392552057,0.8784845602\C,-0.0121557196,-0.7
 668305513,0.\H,0.5360315099,-1.1392552057,0.8784845602\H,0.5360315099,
 -1.1392552057,-0.8784845602\C,-1.4272205009,-1.3594631038,0.\H,-1.9748
 661019,-0.9881545019,-0.8780044349\H,-1.9748661019,-0.9881545019,0.878
 0044349\C,-1.4417637581,-2.891512523,0.\H,-0.9318094308,-3.2927986525,
 0.8845984251\H,-2.4655372947,-3.2830347529,0.\H,-0.9318094308,-3.29279
 86525,-0.8845984251\\Version=EM64L-G09RevA.01\State=1-AG\HF=-237.08548
 03\RMSD=3.886e-09\RMSF=3.024e-06\Dipole=0.,0.,0.\Quadrupole=0.0332348,
 -0.6677762,0.6345414,-0.0884816,0.,0.\PG=C02H [SGH(C6H2),X(H12)]\\@


 THE REASON MAN'S BEST FRIEND IS A DOG IS BECAUSE
 HE WAGS HIS TAIL INSTEAD OF HIS TONGUE.
 Job cpu time:  0 days  0 hours  2 minutes 41.2 seconds.
 File lengths (MBytes):  RWF=     15 Int=      0 D2E=      0 Chk=      2 Scr=      1
 Normal termination of Gaussian 09 at Fri Sep 18 13:21:22 2015.
