 Entering Gaussian System, Link 0=/share/apps/g09/g09
 Input=C6H14_1_04_1_opt_B3L.gjf
 Output=C6H14_1_04_1_opt_B3L.log
 Initial command:
 /share/apps/g09/l1.exe /state/partition1/Gau-16166.inp -scrdir=/state/partition1/
 Entering Link 1 = /share/apps/g09/l1.exe PID=     16167.
  
 Copyright (c) 1988,1990,1992,1993,1995,1998,2003,2009, Gaussian, Inc.
                  All Rights Reserved.
  
 This is part of the Gaussian(R) 09 program.  It is based on
 the Gaussian(R) 03 system (copyright 2003, Gaussian, Inc.),
 the Gaussian(R) 98 system (copyright 1998, Gaussian, Inc.),
 the Gaussian(R) 94 system (copyright 1995, Gaussian, Inc.),
 the Gaussian 92(TM) system (copyright 1992, Gaussian, Inc.),
 the Gaussian 90(TM) system (copyright 1990, Gaussian, Inc.),
 the Gaussian 88(TM) system (copyright 1988, Gaussian, Inc.),
 the Gaussian 86(TM) system (copyright 1986, Carnegie Mellon
 University), and the Gaussian 82(TM) system (copyright 1983,
 Carnegie Mellon University). Gaussian is a federally registered
 trademark of Gaussian, Inc.
  
 This software contains proprietary and confidential information,
 including trade secrets, belonging to Gaussian, Inc.
  
 This software is provided under written license and may be
 used, copied, transmitted, or stored only in accord with that
 written license.
  
 The following legend is applicable only to US Government
 contracts under FAR:
  
                    RESTRICTED RIGHTS LEGEND
  
 Use, reproduction and disclosure by the US Government is
 subject to restrictions as set forth in subparagraphs (a)
 and (c) of the Commercial Computer Software - Restricted
 Rights clause in FAR 52.227-19.
  
 Gaussian, Inc.
 340 Quinnipiac St., Bldg. 40, Wallingford CT 06492
  
  
 ---------------------------------------------------------------
 Warning -- This program may not be used in any manner that
 competes with the business of Gaussian, Inc. or will provide
 assistance to any competitor of Gaussian, Inc.  The licensee
 of this program is prohibited from giving any competitor of
 Gaussian, Inc. access to this program.  By using this program,
 the user acknowledges that Gaussian, Inc. is engaged in the
 business of creating and licensing software in the field of
 computational chemistry and represents and warrants to the
 licensee that it is not a competitor of Gaussian, Inc. and that
 it will not use this program in any manner prohibited above.
 ---------------------------------------------------------------
  

 Cite this work as:
 Gaussian 09, Revision A.01,
 M. J. Frisch, G. W. Trucks, H. B. Schlegel, G. E. Scuseria, 
 M. A. Robb, J. R. Cheeseman, G. Scalmani, V. Barone, B. Mennucci, 
 G. A. Petersson, H. Nakatsuji, M. Caricato, X. Li, H. P. Hratchian, 
 A. F. Izmaylov, J. Bloino, G. Zheng, J. L. Sonnenberg, M. Hada, 
 M. Ehara, K. Toyota, R. Fukuda, J. Hasegawa, M. Ishida, T. Nakajima, 
 Y. Honda, O. Kitao, H. Nakai, T. Vreven, J. A. Montgomery, Jr., 
 J. E. Peralta, F. Ogliaro, M. Bearpark, J. J. Heyd, E. Brothers, 
 K. N. Kudin, V. N. Staroverov, R. Kobayashi, J. Normand, 
 K. Raghavachari, A. Rendell, J. C. Burant, S. S. Iyengar, J. Tomasi, 
 M. Cossi, N. Rega, J. M. Millam, M. Klene, J. E. Knox, J. B. Cross, 
 V. Bakken, C. Adamo, J. Jaramillo, R. Gomperts, R. E. Stratmann, 
 O. Yazyev, A. J. Austin, R. Cammi, C. Pomelli, J. W. Ochterski, 
 R. L. Martin, K. Morokuma, V. G. Zakrzewski, G. A. Voth, 
 P. Salvador, J. J. Dannenberg, S. Dapprich, A. D. Daniels, 
 O. Farkas, J. B. Foresman, J. V. Ortiz, J. Cioslowski, 
 and D. J. Fox, Gaussian, Inc., Wallingford CT, 2009.
 
 ******************************************
 Gaussian 09:  EM64L-G09RevA.01  8-May-2009
                18-Sep-2015 
 ******************************************
 %mem=3GB
 %nprocshared=2
 Will use up to    2 processors via shared memory.
 -----------------------------------------
 #p B3LYP/6-31G(d) opt=tight int=ultrafine
 -----------------------------------------
 1/7=10,14=-1,18=20,19=15,26=3,38=1/1,3;
 2/9=110,12=2,17=6,18=5,40=1/2;
 3/5=1,6=6,7=1,11=2,16=1,25=1,30=1,71=1,74=-5,75=-5/1,2,3;
 4//1;
 5/5=2,38=5/2;
 6/7=2,8=2,9=2,10=2,28=1/1;
 7//1,2,3,16;
 1/7=10,14=-1,18=20,19=15/3(2);
 2/9=110/2;
 99//99;
 2/9=110/2;
 3/5=1,6=6,7=1,11=2,16=1,25=1,30=1,71=1,74=-5,75=-5/1,2,3;
 4/5=5,16=3/1;
 5/5=2,38=5/2;
 7//1,2,3,16;
 1/7=10,14=-1,18=20,19=15/3(-5);
 2/9=110/2;
 6/7=2,8=2,9=2,10=2,19=2,28=1/1;
 99/9=1/99;
 Leave Link    1 at Fri Sep 18 13:21:01 2015, MaxMem=  402653184 cpu:       0.1
 (Enter /share/apps/g09/l101.exe)
 ---------------------------------------------
 using B3LYP/6-31G(d) to do opt and freq calc.
 ---------------------------------------------
 Symbolic Z-matrix:
 Charge =  0 Multiplicity = 1
 C                     2.96247   0.52278   0.12184 
 H                     3.06934   0.53416   1.21242 
 H                     2.80667   1.55796  -0.20226 
 H                     3.91709   0.18732  -0.29819 
 C                     1.81549  -0.38324  -0.32098 
 H                     1.75958  -0.40129  -1.42693 
 H                     2.02305  -1.42626  -0.01191 
 C                     0.4714    0.07611   0.2614 
 H                     0.26432   1.11865  -0.04805 
 H                     0.52804   0.09814   1.36636 
 C                    -0.67799  -0.83702  -0.18519 
 H                    -0.46524  -1.87944   0.12221 
 H                    -0.7358   -0.85584  -1.29051 
 C                    -2.03146  -0.40532   0.39818 
 H                    -1.93721  -0.2478    1.49051 
 H                    -2.7586   -1.23272   0.2764 
 C                    -2.58623   0.85708  -0.2584 
 H                    -2.73153   0.71964  -1.33576 
 H                    -3.55353   1.13665   0.1727 
 H                    -1.9083    1.70853  -0.12806 
 
 NAtoms=     20 NQM=     20 NQMF=      0 NMic=      0 NMicF=      0 NTot=     20.
                    Isotopes and Nuclear Properties:
 (Nuclear quadrupole moments (NQMom) in fm**2, nuclear magnetic moments (NMagM)
  in nuclear magnetons)

  Atom         1           2           3           4           5           6           7           8           9          10
 IAtWgt=          12           1           1           1          12           1           1          12           1           1
 AtmWgt=  12.0000000   1.0078250   1.0078250   1.0078250  12.0000000   1.0078250   1.0078250  12.0000000   1.0078250   1.0078250
 NucSpn=           0           1           1           1           0           1           1           0           1           1
 AtZEff=   0.0000000   0.0000000   0.0000000   0.0000000   0.0000000   0.0000000   0.0000000   0.0000000   0.0000000   0.0000000
 NQMom=    0.0000000   0.0000000   0.0000000   0.0000000   0.0000000   0.0000000   0.0000000   0.0000000   0.0000000   0.0000000
 NMagM=    0.0000000   2.7928460   2.7928460   2.7928460   0.0000000   2.7928460   2.7928460   0.0000000   2.7928460   2.7928460

  Atom        11          12          13          14          15          16          17          18          19          20
 IAtWgt=          12           1           1          12           1           1          12           1           1           1
 AtmWgt=  12.0000000   1.0078250   1.0078250  12.0000000   1.0078250   1.0078250  12.0000000   1.0078250   1.0078250   1.0078250
 NucSpn=           0           1           1           0           1           1           0           1           1           1
 AtZEff=   0.0000000   0.0000000   0.0000000   0.0000000   0.0000000   0.0000000   0.0000000   0.0000000   0.0000000   0.0000000
 NQMom=    0.0000000   0.0000000   0.0000000   0.0000000   0.0000000   0.0000000   0.0000000   0.0000000   0.0000000   0.0000000
 NMagM=    0.0000000   2.7928460   2.7928460   0.0000000   2.7928460   2.7928460   0.0000000   2.7928460   2.7928460   2.7928460
 Leave Link  101 at Fri Sep 18 13:21:01 2015, MaxMem=  402653184 cpu:       0.2
 (Enter /share/apps/g09/l103.exe)

 GradGradGradGradGradGradGradGradGradGradGradGradGradGradGradGradGradGrad
 Berny optimization.
 Initialization pass.
                           ----------------------------
                           !    Initial Parameters    !
                           ! (Angstroms and Degrees)  !
 --------------------------                            --------------------------
 ! Name  Definition              Value          Derivative Info.                !
 --------------------------------------------------------------------------------
 ! R1    R(1,2)                  1.0959         estimate D2E/DX2                !
 ! R2    R(1,3)                  1.0959         estimate D2E/DX2                !
 ! R3    R(1,4)                  1.0956         estimate D2E/DX2                !
 ! R4    R(1,5)                  1.5273         estimate D2E/DX2                !
 ! R5    R(5,6)                  1.1075         estimate D2E/DX2                !
 ! R6    R(5,7)                  1.1075         estimate D2E/DX2                !
 ! R7    R(5,8)                  1.5352         estimate D2E/DX2                !
 ! R8    R(8,9)                  1.107          estimate D2E/DX2                !
 ! R9    R(8,10)                 1.1066         estimate D2E/DX2                !
 ! R10   R(8,11)                 1.5344         estimate D2E/DX2                !
 ! R11   R(11,12)                1.1074         estimate D2E/DX2                !
 ! R12   R(11,13)                1.107          estimate D2E/DX2                !
 ! R13   R(11,14)                1.5358         estimate D2E/DX2                !
 ! R14   R(14,15)                1.1077         estimate D2E/DX2                !
 ! R15   R(14,16)                1.1082         estimate D2E/DX2                !
 ! R16   R(14,17)                1.5273         estimate D2E/DX2                !
 ! R17   R(17,18)                1.0958         estimate D2E/DX2                !
 ! R18   R(17,19)                1.0953         estimate D2E/DX2                !
 ! R19   R(17,20)                1.0961         estimate D2E/DX2                !
 ! A1    A(2,1,3)              107.3596         estimate D2E/DX2                !
 ! A2    A(2,1,4)              107.4425         estimate D2E/DX2                !
 ! A3    A(2,1,5)              111.5886         estimate D2E/DX2                !
 ! A4    A(3,1,4)              107.4417         estimate D2E/DX2                !
 ! A5    A(3,1,5)              111.5841         estimate D2E/DX2                !
 ! A6    A(4,1,5)              111.1979         estimate D2E/DX2                !
 ! A7    A(1,5,6)              109.7009         estimate D2E/DX2                !
 ! A8    A(1,5,7)              109.6967         estimate D2E/DX2                !
 ! A9    A(1,5,8)              111.718          estimate D2E/DX2                !
 ! A10   A(6,5,7)              105.8304         estimate D2E/DX2                !
 ! A11   A(6,5,8)              109.8464         estimate D2E/DX2                !
 ! A12   A(7,5,8)              109.8784         estimate D2E/DX2                !
 ! A13   A(5,8,9)              109.8478         estimate D2E/DX2                !
 ! A14   A(5,8,10)             109.8724         estimate D2E/DX2                !
 ! A15   A(5,8,11)             111.5537         estimate D2E/DX2                !
 ! A16   A(9,8,10)             105.66           estimate D2E/DX2                !
 ! A17   A(9,8,11)             109.8137         estimate D2E/DX2                !
 ! A18   A(10,8,11)            109.9255         estimate D2E/DX2                !
 ! A19   A(8,11,12)            109.602          estimate D2E/DX2                !
 ! A20   A(8,11,13)            109.8678         estimate D2E/DX2                !
 ! A21   A(8,11,14)            112.4782         estimate D2E/DX2                !
 ! A22   A(12,11,13)           105.7349         estimate D2E/DX2                !
 ! A23   A(12,11,14)           109.1756         estimate D2E/DX2                !
 ! A24   A(13,11,14)           109.7571         estimate D2E/DX2                !
 ! A25   A(11,14,15)           109.8514         estimate D2E/DX2                !
 ! A26   A(11,14,16)           109.0652         estimate D2E/DX2                !
 ! A27   A(11,14,17)           112.9031         estimate D2E/DX2                !
 ! A28   A(15,14,16)           105.6868         estimate D2E/DX2                !
 ! A29   A(15,14,17)           109.7138         estimate D2E/DX2                !
 ! A30   A(16,14,17)           109.3628         estimate D2E/DX2                !
 ! A31   A(14,17,18)           111.5413         estimate D2E/DX2                !
 ! A32   A(14,17,19)           111.2573         estimate D2E/DX2                !
 ! A33   A(14,17,20)           111.4865         estimate D2E/DX2                !
 ! A34   A(18,17,19)           107.5716         estimate D2E/DX2                !
 ! A35   A(18,17,20)           107.2386         estimate D2E/DX2                !
 ! A36   A(19,17,20)           107.5255         estimate D2E/DX2                !
 ! D1    D(2,1,5,6)           -177.902          estimate D2E/DX2                !
 ! D2    D(2,1,5,7)            -62.0566         estimate D2E/DX2                !
 ! D3    D(2,1,5,8)             60.0396         estimate D2E/DX2                !
 ! D4    D(3,1,5,6)             61.9911         estimate D2E/DX2                !
 ! D5    D(3,1,5,7)            177.8364         estimate D2E/DX2                !
 ! D6    D(3,1,5,8)            -60.0674         estimate D2E/DX2                !
 ! D7    D(4,1,5,6)            -57.9534         estimate D2E/DX2                !
 ! D8    D(4,1,5,7)             57.892          estimate D2E/DX2                !
 ! D9    D(4,1,5,8)            179.9882         estimate D2E/DX2                !
 ! D10   D(1,5,8,9)             58.0216         estimate D2E/DX2                !
 ! D11   D(1,5,8,10)           -57.8029         estimate D2E/DX2                !
 ! D12   D(1,5,8,11)          -179.9701         estimate D2E/DX2                !
 ! D13   D(6,5,8,9)            -63.9532         estimate D2E/DX2                !
 ! D14   D(6,5,8,10)          -179.7777         estimate D2E/DX2                !
 ! D15   D(6,5,8,11)            58.055          estimate D2E/DX2                !
 ! D16   D(7,5,8,9)           -179.9867         estimate D2E/DX2                !
 ! D17   D(7,5,8,10)            64.1889         estimate D2E/DX2                !
 ! D18   D(7,5,8,11)           -57.9784         estimate D2E/DX2                !
 ! D19   D(5,8,11,12)           57.73           estimate D2E/DX2                !
 ! D20   D(5,8,11,13)          -58.041          estimate D2E/DX2                !
 ! D21   D(5,8,11,14)          179.3775         estimate D2E/DX2                !
 ! D22   D(9,8,11,12)          179.758          estimate D2E/DX2                !
 ! D23   D(9,8,11,13)           63.9869         estimate D2E/DX2                !
 ! D24   D(9,8,11,14)          -58.5946         estimate D2E/DX2                !
 ! D25   D(10,8,11,12)         -64.4066         estimate D2E/DX2                !
 ! D26   D(10,8,11,13)         179.8223         estimate D2E/DX2                !
 ! D27   D(10,8,11,14)          57.2409         estimate D2E/DX2                !
 ! D28   D(8,11,14,15)         -49.4315         estimate D2E/DX2                !
 ! D29   D(8,11,14,16)        -164.8304         estimate D2E/DX2                !
 ! D30   D(8,11,14,17)          73.3786         estimate D2E/DX2                !
 ! D31   D(12,11,14,15)         72.4583         estimate D2E/DX2                !
 ! D32   D(12,11,14,16)        -42.9406         estimate D2E/DX2                !
 ! D33   D(12,11,14,17)       -164.7315         estimate D2E/DX2                !
 ! D34   D(13,11,14,15)       -172.0753         estimate D2E/DX2                !
 ! D35   D(13,11,14,16)         72.5258         estimate D2E/DX2                !
 ! D36   D(13,11,14,17)        -49.2651         estimate D2E/DX2                !
 ! D37   D(11,14,17,18)         59.5083         estimate D2E/DX2                !
 ! D38   D(11,14,17,19)        179.6293         estimate D2E/DX2                !
 ! D39   D(11,14,17,20)        -60.3454         estimate D2E/DX2                !
 ! D40   D(15,14,17,18)       -177.605          estimate D2E/DX2                !
 ! D41   D(15,14,17,19)        -57.4839         estimate D2E/DX2                !
 ! D42   D(15,14,17,20)         62.5414         estimate D2E/DX2                !
 ! D43   D(16,14,17,18)        -62.1148         estimate D2E/DX2                !
 ! D44   D(16,14,17,19)         58.0063         estimate D2E/DX2                !
 ! D45   D(16,14,17,20)        178.0316         estimate D2E/DX2                !
 --------------------------------------------------------------------------------
 Trust Radius=3.00D-01 FncErr=1.00D-07 GrdErr=1.00D-06
 Number of steps in this run= 110 maximum allowed number of steps= 120.
 GradGradGradGradGradGradGradGradGradGradGradGradGradGradGradGradGradGrad

 Leave Link  103 at Fri Sep 18 13:21:01 2015, MaxMem=  402653184 cpu:       0.0
 (Enter /share/apps/g09/l202.exe)
                          Input orientation:                          
 ---------------------------------------------------------------------
 Center     Atomic      Atomic             Coordinates (Angstroms)
 Number     Number       Type             X           Y           Z
 ---------------------------------------------------------------------
      1          6           0        2.962469    0.522776    0.121835
      2          1           0        3.069335    0.534160    1.212421
      3          1           0        2.806670    1.557961   -0.202259
      4          1           0        3.917088    0.187324   -0.298189
      5          6           0        1.815490   -0.383240   -0.320975
      6          1           0        1.759582   -0.401291   -1.426931
      7          1           0        2.023049   -1.426260   -0.011909
      8          6           0        0.471402    0.076106    0.261396
      9          1           0        0.264322    1.118647   -0.048045
     10          1           0        0.528042    0.098135    1.366362
     11          6           0       -0.677985   -0.837022   -0.185187
     12          1           0       -0.465242   -1.879435    0.122207
     13          1           0       -0.735798   -0.855844   -1.290513
     14          6           0       -2.031463   -0.405320    0.398179
     15          1           0       -1.937207   -0.247796    1.490514
     16          1           0       -2.758604   -1.232719    0.276399
     17          6           0       -2.586228    0.857084   -0.258404
     18          1           0       -2.731526    0.719639   -1.335764
     19          1           0       -3.553529    1.136647    0.172704
     20          1           0       -1.908295    1.708530   -0.128062
 ---------------------------------------------------------------------
                    Distance matrix (angstroms):
                    1          2          3          4          5
     1  C    0.000000
     2  H    1.095868   0.000000
     3  H    1.095864   1.765922   0.000000
     4  H    1.095557   1.766613   1.766600   0.000000
     5  C    1.527255   2.182900   2.182840   2.177792   0.000000
     6  H    2.167836   3.091391   2.536707   2.505067   1.107515
     7  H    2.167750   2.537114   3.091257   2.504594   1.107472
     8  C    2.534641   2.804196   2.804344   3.492600   1.535164
     9  H    2.768378   3.130255   2.584630   3.777914   2.176299
    10  H    2.766876   2.583019   3.127908   3.776813   2.176316
    11  C    3.898233   4.227985   4.228363   4.709220   2.538065
    12  H    4.185668   4.416700   4.756719   4.863439   2.763467
    13  H    4.191956   4.761914   4.422650   4.870550   2.769915
    14  C    5.086952   5.250119   5.255714   6.018423   3.913658
    15  H    5.145278   5.074865   5.350758   6.136901   4.169241
    16  H    5.986345   6.161402   6.244140   6.849200   4.690502
    17  C    5.571749   5.852606   5.438541   6.537835   4.573559
    18  H    5.880895   6.338583   5.714826   6.750110   4.787640
    19  H    6.545048   6.730998   6.385157   7.545401   5.601798
    20  H    5.019243   5.287045   4.717952   6.023130   4.275429
                    6          7          8          9         10
     6  H    0.000000
     7  H    1.766993   0.000000
     8  C    2.176640   2.177018   0.000000
     9  H    2.539161   3.093700   1.107035   0.000000
    10  H    3.093316   2.541349   1.106636   1.763956   0.000000
    11  C    2.770112   2.769984   1.534382   2.175176   2.176310
    12  H    3.087812   2.532775   2.172744   3.090266   2.538763
    13  H    2.540108   3.093774   2.175841   2.538224   3.092952
    14  C    4.207501   4.201138   2.552413   2.791455   2.782429
    15  H    4.711825   4.396553   2.723424   3.013480   2.492496
    16  H    4.899654   4.794245   3.485138   3.843471   3.709614
    17  C    4.672797   5.149743   3.198315   2.870244   3.593681
    18  H    4.629778   5.381771   3.636455   3.285199   4.279315
    19  H    5.757885   6.140097   4.163254   3.824270   4.377505
    20  H    4.426254   5.029500   2.911948   2.252694   3.280612
                   11         12         13         14         15
    11  C    0.000000
    12  H    1.107418   0.000000
    13  H    1.106997   1.765423   0.000000
    14  C    1.535769   2.168461   2.175638   0.000000
    15  H    2.177338   2.588666   3.089857   1.107652   0.000000
    16  H    2.167628   2.387787   2.586309   1.108221   1.766024
    17  C    2.552792   3.483100   2.724603   1.527262   2.168110
    18  H    2.822065   3.743916   2.543054   2.182242   3.091071
    19  H    3.506025   4.317038   3.748417   2.178345   2.503158
    20  H    2.827854   3.875375   3.049927   2.181848   2.539259
                   16         17         18         19         20
    16  H    0.000000
    17  C    2.164025   0.000000
    18  H    2.532095   1.095768   0.000000
    19  H    2.501310   1.095299   1.767784   0.000000
    20  H    3.088294   1.096149   1.764698   1.767570   0.000000
 Stoichiometry    C6H14
 Framework group  C1[X(C6H14)]
 Deg. of freedom    54
 Full point group                 C1      NOp   1
 Largest Abelian subgroup         C1      NOp   1
 Largest concise Abelian subgroup C1      NOp   1
                         Standard orientation:                         
 ---------------------------------------------------------------------
 Center     Atomic      Atomic             Coordinates (Angstroms)
 Number     Number       Type             X           Y           Z
 ---------------------------------------------------------------------
      1          6           0        2.962469    0.522776    0.121835
      2          1           0        3.069335    0.534160    1.212421
      3          1           0        2.806670    1.557961   -0.202259
      4          1           0        3.917088    0.187324   -0.298189
      5          6           0        1.815490   -0.383240   -0.320975
      6          1           0        1.759582   -0.401291   -1.426931
      7          1           0        2.023049   -1.426260   -0.011909
      8          6           0        0.471402    0.076106    0.261396
      9          1           0        0.264322    1.118647   -0.048045
     10          1           0        0.528042    0.098135    1.366362
     11          6           0       -0.677985   -0.837022   -0.185187
     12          1           0       -0.465242   -1.879435    0.122207
     13          1           0       -0.735798   -0.855844   -1.290513
     14          6           0       -2.031463   -0.405320    0.398179
     15          1           0       -1.937207   -0.247796    1.490514
     16          1           0       -2.758604   -1.232719    0.276399
     17          6           0       -2.586228    0.857084   -0.258404
     18          1           0       -2.731526    0.719639   -1.335764
     19          1           0       -3.553529    1.136647    0.172704
     20          1           0       -1.908295    1.708530   -0.128062
 ---------------------------------------------------------------------
 Rotational constants (GHZ):      8.7203609      1.3433401      1.2613538
 Leave Link  202 at Fri Sep 18 13:21:01 2015, MaxMem=  402653184 cpu:       0.0
 (Enter /share/apps/g09/l301.exe)
 Standard basis: 6-31G(d) (6D, 7F)
 Ernie: Thresh=  0.10000D-02 Tol=  0.10000D-05 Strict=F.
 There are   118 symmetry adapted basis functions of A   symmetry.
 Integral buffers will be    131072 words long.
 Raffenetti 2 integral format.
 Two-electron integral symmetry is turned on.
   118 basis functions,   224 primitive gaussians,   118 cartesian basis functions
    25 alpha electrons       25 beta electrons
       nuclear repulsion energy       247.0948691870 Hartrees.
 IExCor=  402 DFT=T Ex+Corr=B3LYP ExCW=0 ScaHFX=  0.200000
 ScaDFX=  0.800000  0.720000  1.000000  0.810000 ScalE2=  1.000000  1.000000
 IRadAn=      5 IRanWt=     -1 IRanGd=            0 ICorTp=0
 NAtoms=   20 NActive=   20 NUniq=   20 SFac= 7.50D-01 NAtFMM=   80 NAOKFM=F Big=F
 Leave Link  301 at Fri Sep 18 13:21:01 2015, MaxMem=  402653184 cpu:       0.1
 (Enter /share/apps/g09/l302.exe)
 NPDir=0 NMtPBC=     1 NCelOv=     1 NCel=       1 NClECP=     1 NCelD=      1
         NCelK=      1 NCelE2=     1 NClLst=     1 CellRange=     0.0.
 One-electron integrals computed using PRISM.
 NBasis=   118 RedAO= T  NBF=   118
 NBsUse=   118 1.00D-06 NBFU=   118
 Precomputing XC quadrature grid using
 IXCGrd= 2 IRadAn=           5 IRanWt=          -1 IRanGd=           0 AccXCQ= 1.00D-10.
 NRdTot=    1655 NPtTot=      442746 NUsed=      454604 NTot=      454636
 NSgBfM=   118   118   118   118   118 NAtAll=    20    20.
 Leave Link  302 at Fri Sep 18 13:21:02 2015, MaxMem=  402653184 cpu:       1.2
 (Enter /share/apps/g09/l303.exe)
 DipDrv:  MaxL=1.
 Leave Link  303 at Fri Sep 18 13:21:02 2015, MaxMem=  402653184 cpu:       0.1
 (Enter /share/apps/g09/l401.exe)
 Harris functional with IExCor=  402 diagonalized for initial guess.
 ExpMin= 1.61D-01 ExpMax= 3.05D+03 ExpMxC= 4.57D+02 IAcc=3 IRadAn=         5 AccDes= 0.00D+00
 HarFok:  IExCor=  402 AccDes= 0.00D+00 IRadAn=         5 IDoV= 1
 ScaDFX=  1.000000  1.000000  1.000000  1.000000
 FoFCou: FMM=F IPFlag=           0 FMFlag=      100000 FMFlg1=           0
         NFxFlg=           0 DoJE=T BraDBF=F KetDBF=T FulRan=T
         Omega=  0.000000  0.000000  1.000000  0.000000  0.000000 ICntrl=     500 IOpCl=  0
         NMat0=    1 NMatS0=    1 NMatT0=    0 NMatD0=    1 NMtDS0=    0 NMtDT0=    0
         I1Cent=           4 NGrid=           0.
 Petite list used in FoFCou.
 Harris En= -237.178909061706    
 Initial guess orbital symmetries:
       Occupied  (A) (A) (A) (A) (A) (A) (A) (A) (A) (A) (A) (A)
                 (A) (A) (A) (A) (A) (A) (A) (A) (A) (A) (A) (A)
                 (A)
       Virtual   (A) (A) (A) (A) (A) (A) (A) (A) (A) (A) (A) (A)
                 (A) (A) (A) (A) (A) (A) (A) (A) (A) (A) (A) (A)
                 (A) (A) (A) (A) (A) (A) (A) (A) (A) (A) (A) (A)
                 (A) (A) (A) (A) (A) (A) (A) (A) (A) (A) (A) (A)
                 (A) (A) (A) (A) (A) (A) (A) (A) (A) (A) (A) (A)
                 (A) (A) (A) (A) (A) (A) (A) (A) (A) (A) (A) (A)
                 (A) (A) (A) (A) (A) (A) (A) (A) (A) (A) (A) (A)
                 (A) (A) (A) (A) (A) (A) (A) (A) (A)
 The electronic state of the initial guess is 1-A.
 Leave Link  401 at Fri Sep 18 13:21:07 2015, MaxMem=  402653184 cpu:       9.8
 (Enter /share/apps/g09/l502.exe)
 Closed shell SCF:
 Requested convergence on RMS density matrix=1.00D-08 within 128 cycles.
 Requested convergence on MAX density matrix=1.00D-06.
 Requested convergence on             energy=1.00D-06.
 No special actions if energy rises.
 Using DIIS extrapolation, IDIIS=  1040.
 Integral symmetry usage will be decided dynamically.
       454411 words used for storage of precomputed grid.
 Keep R1 ints in memory in canonical form, NReq=26108466.
 IEnd=      515955 IEndB=      515955 NGot=   402653184 MDV=   377517153
 LenX=   377517153 LenY=   377502788
 Symmetry not used in FoFDir.
 MinBra= 0 MaxBra= 2 Meth= 1.
 IRaf=       0 NMat=   1 IRICut=       1 DoRegI=T DoRafI=F ISym2E= 0 JSym2E=0.
 Integral accuracy reduced to 1.0D-05 until final iterations.

 Cycle   1  Pass 0  IDiag  1:
 E= -236.793199386647    
 DIIS: error= 4.70D-02 at cycle   1 NSaved=   1.
 NSaved= 1 IEnMin= 1 EnMin= -236.793199386647     IErMin= 1 ErrMin= 4.70D-02
 ErrMax= 4.70D-02 EMaxC= 1.00D-01 BMatC= 2.54D-01 BMatP= 2.54D-01
 IDIUse=3 WtCom= 5.30D-01 WtEn= 4.70D-01
 Coeff-Com:  0.100D+01
 Coeff-En:   0.100D+01
 Coeff:      0.100D+01
 Gap=     0.359 Goal=   None    Shift=    0.000
 GapD=    0.359 DampG=1.000 DampE=0.500 DampFc=0.5000 IDamp=-1.
 Damping current iteration by 5.00D-01
 RMSDP=1.01D-02 MaxDP=1.48D-01              OVMax= 1.85D-01

 Cycle   2  Pass 0  IDiag  1:
 E= -236.920675351373     Delta-E=       -0.127475964726 Rises=F Damp=T
 DIIS: error= 8.80D-03 at cycle   2 NSaved=   2.
 NSaved= 2 IEnMin= 2 EnMin= -236.920675351373     IErMin= 2 ErrMin= 8.80D-03
 ErrMax= 8.80D-03 EMaxC= 1.00D-01 BMatC= 9.82D-03 BMatP= 2.54D-01
 IDIUse=3 WtCom= 9.12D-01 WtEn= 8.80D-02
 Coeff-Com:  0.865D-01 0.914D+00
 Coeff-En:   0.140D+00 0.860D+00
 Coeff:      0.912D-01 0.909D+00
 Gap=     0.397 Goal=   None    Shift=    0.000
 RMSDP=1.47D-03 MaxDP=2.48D-02 DE=-1.27D-01 OVMax= 9.80D-02

 Cycle   3  Pass 0  IDiag  1:
 E= -237.082226751675     Delta-E=       -0.161551400301 Rises=F Damp=F
 DIIS: error= 1.83D-03 at cycle   3 NSaved=   3.
 NSaved= 3 IEnMin= 3 EnMin= -237.082226751675     IErMin= 3 ErrMin= 1.83D-03
 ErrMax= 1.83D-03 EMaxC= 1.00D-01 BMatC= 6.51D-04 BMatP= 9.82D-03
 IDIUse=3 WtCom= 9.82D-01 WtEn= 1.83D-02
 Coeff-Com:  0.588D-02 0.149D+00 0.845D+00
 Coeff-En:   0.000D+00 0.000D+00 0.100D+01
 Coeff:      0.577D-02 0.146D+00 0.848D+00
 Gap=     0.390 Goal=   None    Shift=    0.000
 RMSDP=3.82D-04 MaxDP=6.08D-03 DE=-1.62D-01 OVMax= 7.04D-03

 Cycle   4  Pass 0  IDiag  1:
 E= -237.082678545664     Delta-E=       -0.000451793990 Rises=F Damp=F
 DIIS: error= 7.62D-04 at cycle   4 NSaved=   4.
 NSaved= 4 IEnMin= 4 EnMin= -237.082678545664     IErMin= 4 ErrMin= 7.62D-04
 ErrMax= 7.62D-04 EMaxC= 1.00D-01 BMatC= 2.04D-04 BMatP= 6.51D-04
 IDIUse=3 WtCom= 9.92D-01 WtEn= 7.62D-03
 Coeff-Com:  0.270D-03 0.209D-01 0.361D+00 0.618D+00
 Coeff-En:   0.000D+00 0.000D+00 0.169D+00 0.831D+00
 Coeff:      0.268D-03 0.207D-01 0.359D+00 0.620D+00
 Gap=     0.391 Goal=   None    Shift=    0.000
 RMSDP=1.49D-04 MaxDP=2.67D-03 DE=-4.52D-04 OVMax= 3.25D-03

 Cycle   5  Pass 0  IDiag  1:
 E= -237.082868076841     Delta-E=       -0.000189531176 Rises=F Damp=F
 DIIS: error= 2.20D-04 at cycle   5 NSaved=   5.
 NSaved= 5 IEnMin= 5 EnMin= -237.082868076841     IErMin= 5 ErrMin= 2.20D-04
 ErrMax= 2.20D-04 EMaxC= 1.00D-01 BMatC= 1.85D-05 BMatP= 2.04D-04
 IDIUse=3 WtCom= 9.98D-01 WtEn= 2.20D-03
 Coeff-Com:  0.135D-03-0.117D-02 0.110D+00 0.296D+00 0.595D+00
 Coeff-En:   0.000D+00 0.000D+00 0.000D+00 0.000D+00 0.100D+01
 Coeff:      0.135D-03-0.117D-02 0.110D+00 0.295D+00 0.596D+00
 Gap=     0.391 Goal=   None    Shift=    0.000
 RMSDP=3.45D-05 MaxDP=7.25D-04 DE=-1.90D-04 OVMax= 7.61D-04

 Cycle   6  Pass 0  IDiag  1:
 E= -237.082885863358     Delta-E=       -0.000017786517 Rises=F Damp=F
 DIIS: error= 3.37D-05 at cycle   6 NSaved=   6.
 NSaved= 6 IEnMin= 6 EnMin= -237.082885863358     IErMin= 6 ErrMin= 3.37D-05
 ErrMax= 3.37D-05 EMaxC= 1.00D-01 BMatC= 2.46D-07 BMatP= 1.85D-05
 IDIUse=1 WtCom= 1.00D+00 WtEn= 0.00D+00
 Coeff-Com:  0.141D-03-0.106D-02 0.289D-01 0.873D-01 0.212D+00 0.673D+00
 Coeff:      0.141D-03-0.106D-02 0.289D-01 0.873D-01 0.212D+00 0.673D+00
 Gap=     0.391 Goal=   None    Shift=    0.000
 RMSDP=6.18D-06 MaxDP=9.73D-05 DE=-1.78D-05 OVMax= 1.33D-04

 Initial convergence to 1.0D-05 achieved.  Increase integral accuracy.
 Cycle   7  Pass 1  IDiag  1:
 E= -237.082866893185     Delta-E=        0.000018970173 Rises=F Damp=F
 DIIS: error= 7.34D-06 at cycle   1 NSaved=   1.
 NSaved= 1 IEnMin= 1 EnMin= -237.082866893185     IErMin= 1 ErrMin= 7.34D-06
 ErrMax= 7.34D-06 EMaxC= 1.00D-01 BMatC= 1.90D-08 BMatP= 1.90D-08
 IDIUse=1 WtCom= 1.00D+00 WtEn= 0.00D+00
 Coeff-Com:  0.100D+01
 Coeff:      0.100D+01
 Gap=     0.391 Goal=   None    Shift=    0.000
 RMSDP=6.18D-06 MaxDP=9.73D-05 DE= 1.90D-05 OVMax= 4.88D-05

 Cycle   8  Pass 1  IDiag  1:
 E= -237.082866892747     Delta-E=        0.000000000438 Rises=F Damp=F
 DIIS: error= 9.39D-06 at cycle   2 NSaved=   2.
 NSaved= 2 IEnMin= 1 EnMin= -237.082866893185     IErMin= 1 ErrMin= 7.34D-06
 ErrMax= 9.39D-06 EMaxC= 1.00D-01 BMatC= 2.17D-08 BMatP= 1.90D-08
 IDIUse=1 WtCom= 1.00D+00 WtEn= 0.00D+00
 Coeff-Com:  0.518D+00 0.482D+00
 Coeff:      0.518D+00 0.482D+00
 Gap=     0.391 Goal=   None    Shift=    0.000
 RMSDP=1.13D-06 MaxDP=2.80D-05 DE= 4.38D-10 OVMax= 2.75D-05

 Cycle   9  Pass 1  IDiag  1:
 E= -237.082866913391     Delta-E=       -0.000000020644 Rises=F Damp=F
 DIIS: error= 8.50D-07 at cycle   3 NSaved=   3.
 NSaved= 3 IEnMin= 3 EnMin= -237.082866913391     IErMin= 3 ErrMin= 8.50D-07
 ErrMax= 8.50D-07 EMaxC= 1.00D-01 BMatC= 1.93D-10 BMatP= 1.90D-08
 IDIUse=1 WtCom= 1.00D+00 WtEn= 0.00D+00
 Coeff-Com:  0.248D-01 0.911D-01 0.884D+00
 Coeff:      0.248D-01 0.911D-01 0.884D+00
 Gap=     0.391 Goal=   None    Shift=    0.000
 RMSDP=1.53D-07 MaxDP=3.13D-06 DE=-2.06D-08 OVMax= 2.88D-06

 Cycle  10  Pass 1  IDiag  1:
 E= -237.082866913558     Delta-E=       -0.000000000167 Rises=F Damp=F
 DIIS: error= 3.04D-07 at cycle   4 NSaved=   4.
 NSaved= 4 IEnMin= 4 EnMin= -237.082866913558     IErMin= 4 ErrMin= 3.04D-07
 ErrMax= 3.04D-07 EMaxC= 1.00D-01 BMatC= 2.51D-11 BMatP= 1.93D-10
 IDIUse=1 WtCom= 1.00D+00 WtEn= 0.00D+00
 Coeff-Com: -0.994D-02 0.195D-01 0.369D+00 0.622D+00
 Coeff:     -0.994D-02 0.195D-01 0.369D+00 0.622D+00
 Gap=     0.391 Goal=   None    Shift=    0.000
 RMSDP=5.36D-08 MaxDP=8.32D-07 DE=-1.67D-10 OVMax= 1.06D-06

 Cycle  11  Pass 1  IDiag  1:
 E= -237.082866913581     Delta-E=       -0.000000000023 Rises=F Damp=F
 DIIS: error= 7.41D-08 at cycle   5 NSaved=   5.
 NSaved= 5 IEnMin= 5 EnMin= -237.082866913581     IErMin= 5 ErrMin= 7.41D-08
 ErrMax= 7.41D-08 EMaxC= 1.00D-01 BMatC= 2.04D-12 BMatP= 2.51D-11
 IDIUse=1 WtCom= 1.00D+00 WtEn= 0.00D+00
 Coeff-Com: -0.574D-02 0.560D-02 0.139D+00 0.309D+00 0.552D+00
 Coeff:     -0.574D-02 0.560D-02 0.139D+00 0.309D+00 0.552D+00
 Gap=     0.391 Goal=   None    Shift=    0.000
 RMSDP=1.29D-08 MaxDP=2.48D-07 DE=-2.31D-11 OVMax= 2.62D-07

 Cycle  12  Pass 1  IDiag  1:
 E= -237.082866913584     Delta-E=       -0.000000000004 Rises=F Damp=F
 DIIS: error= 1.27D-08 at cycle   6 NSaved=   6.
 NSaved= 6 IEnMin= 6 EnMin= -237.082866913584     IErMin= 6 ErrMin= 1.27D-08
 ErrMax= 1.27D-08 EMaxC= 1.00D-01 BMatC= 2.43D-14 BMatP= 2.04D-12
 IDIUse=1 WtCom= 1.00D+00 WtEn= 0.00D+00
 Coeff-Com: -0.112D-02 0.595D-03 0.203D-01 0.543D-01 0.144D+00 0.782D+00
 Coeff:     -0.112D-02 0.595D-03 0.203D-01 0.543D-01 0.144D+00 0.782D+00
 Gap=     0.391 Goal=   None    Shift=    0.000
 RMSDP=2.19D-09 MaxDP=3.05D-08 DE=-3.64D-12 OVMax= 3.79D-08

 SCF Done:  E(RB3LYP) =  -237.082866914     A.U. after   12 cycles
             Convg  =    0.2187D-08             -V/T =  2.0107
 KE= 2.345843653678D+02 PE=-1.041091265811D+03 EE= 3.223291643424D+02
 Leave Link  502 at Fri Sep 18 13:21:51 2015, MaxMem=  402653184 cpu:      87.7
 (Enter /share/apps/g09/l601.exe)
 Copying SCF densities to generalized density rwf, IOpCl= 0 IROHF=0.

 **********************************************************************

            Population analysis using the SCF density.

 **********************************************************************

 Orbital symmetries:
       Occupied  (A) (A) (A) (A) (A) (A) (A) (A) (A) (A) (A) (A)
                 (A) (A) (A) (A) (A) (A) (A) (A) (A) (A) (A) (A)
                 (A)
       Virtual   (A) (A) (A) (A) (A) (A) (A) (A) (A) (A) (A) (A)
                 (A) (A) (A) (A) (A) (A) (A) (A) (A) (A) (A) (A)
                 (A) (A) (A) (A) (A) (A) (A) (A) (A) (A) (A) (A)
                 (A) (A) (A) (A) (A) (A) (A) (A) (A) (A) (A) (A)
                 (A) (A) (A) (A) (A) (A) (A) (A) (A) (A) (A) (A)
                 (A) (A) (A) (A) (A) (A) (A) (A) (A) (A) (A) (A)
                 (A) (A) (A) (A) (A) (A) (A) (A) (A) (A) (A) (A)
                 (A) (A) (A) (A) (A) (A) (A) (A) (A)
 The electronic state is 1-A.
 Alpha  occ. eigenvalues --  -10.17720 -10.17674 -10.17483 -10.17457 -10.16870
 Alpha  occ. eigenvalues --  -10.16854  -0.79983  -0.76043  -0.69991  -0.63701
 Alpha  occ. eigenvalues --   -0.58065  -0.56221  -0.46614  -0.44586  -0.43027
 Alpha  occ. eigenvalues --   -0.40692  -0.40481  -0.38013  -0.36351  -0.35340
 Alpha  occ. eigenvalues --   -0.33745  -0.32747  -0.32085  -0.31249  -0.29882
 Alpha virt. eigenvalues --    0.09176   0.10594   0.11694   0.12390   0.14649
 Alpha virt. eigenvalues --    0.15993   0.16317   0.17318   0.17917   0.19063
 Alpha virt. eigenvalues --    0.19189   0.19802   0.20468   0.22398   0.23343
 Alpha virt. eigenvalues --    0.26149   0.26651   0.28100   0.29017   0.50463
 Alpha virt. eigenvalues --    0.50923   0.51503   0.53804   0.55228   0.55854
 Alpha virt. eigenvalues --    0.58736   0.62345   0.64483   0.65889   0.68425
 Alpha virt. eigenvalues --    0.69565   0.71327   0.77862   0.78359   0.80486
 Alpha virt. eigenvalues --    0.84350   0.85815   0.87247   0.88653   0.89860
 Alpha virt. eigenvalues --    0.90479   0.91583   0.93514   0.93794   0.94816
 Alpha virt. eigenvalues --    0.95541   0.97180   0.98175   1.00078   1.02251
 Alpha virt. eigenvalues --    1.04617   1.14014   1.23804   1.40018   1.42389
 Alpha virt. eigenvalues --    1.44435   1.50841   1.54439   1.59782   1.67504
 Alpha virt. eigenvalues --    1.72045   1.79967   1.80805   1.87492   1.91053
 Alpha virt. eigenvalues --    1.92841   1.94800   1.96899   1.99246   2.01682
 Alpha virt. eigenvalues --    2.03335   2.06226   2.14170   2.21947   2.24012
 Alpha virt. eigenvalues --    2.26868   2.32078   2.33472   2.36793   2.41296
 Alpha virt. eigenvalues --    2.42561   2.45746   2.56638   2.58226   2.64645
 Alpha virt. eigenvalues --    2.74297   2.81608   4.11708   4.19044   4.29202
 Alpha virt. eigenvalues --    4.38415   4.45681   4.56077
          Condensed to atoms (all electrons):
              1          2          3          4          5          6
     1  C    5.069231   0.378092   0.377891   0.370152   0.370353  -0.038160
     2  H    0.378092   0.580085  -0.033404  -0.031608  -0.034348   0.005202
     3  H    0.377891  -0.033404   0.580069  -0.031527  -0.034232  -0.004547
     4  H    0.370152  -0.031608  -0.031527   0.582965  -0.028061  -0.002748
     5  C    0.370353  -0.034348  -0.034232  -0.028061   4.952553   0.376277
     6  H   -0.038160   0.005202  -0.004547  -0.002748   0.376277   0.613024
     7  H   -0.038355  -0.004527   0.005207  -0.002662   0.376328  -0.040372
     8  C   -0.046296  -0.004770  -0.004789   0.004448   0.386045  -0.039058
     9  H   -0.002645  -0.000406   0.004922  -0.000031  -0.038329  -0.005256
    10  H   -0.002933   0.004863  -0.000398  -0.000033  -0.038777   0.005604
    11  C    0.003942   0.000050   0.000050  -0.000151  -0.039302  -0.003455
    12  H    0.000055   0.000004   0.000006   0.000002  -0.004213  -0.000436
    13  H    0.000043   0.000005   0.000004   0.000002  -0.003559   0.005033
    14  C   -0.000150   0.000001   0.000002   0.000002   0.003918   0.000065
    15  H   -0.000002  -0.000002   0.000001   0.000000   0.000104   0.000007
    16  H    0.000002   0.000000   0.000000   0.000000  -0.000152   0.000004
    17  C    0.000002   0.000000  -0.000003   0.000000   0.000126  -0.000007
    18  H    0.000000   0.000000   0.000000   0.000000  -0.000016  -0.000003
    19  H    0.000000   0.000000   0.000000   0.000000   0.000000   0.000000
    20  H    0.000008   0.000001  -0.000004   0.000000  -0.000152   0.000014
              7          8          9         10         11         12
     1  C   -0.038355  -0.046296  -0.002645  -0.002933   0.003942   0.000055
     2  H   -0.004527  -0.004770  -0.000406   0.004863   0.000050   0.000004
     3  H    0.005207  -0.004789   0.004922  -0.000398   0.000050   0.000006
     4  H   -0.002662   0.004448  -0.000031  -0.000033  -0.000151   0.000002
     5  C    0.376328   0.386045  -0.038329  -0.038777  -0.039302  -0.004213
     6  H   -0.040372  -0.039058  -0.005256   0.005604  -0.003455  -0.000436
     7  H    0.613197  -0.039232   0.005550  -0.005261  -0.003519   0.005244
     8  C   -0.039232   4.985473   0.373354   0.371997   0.384168  -0.038609
     9  H    0.005550   0.373354   0.611808  -0.041605  -0.040361   0.005659
    10  H   -0.005261   0.371997  -0.041605   0.616330  -0.038639  -0.005112
    11  C   -0.003519   0.384168  -0.040361  -0.038639   4.993084   0.369682
    12  H    0.005244  -0.038609   0.005659  -0.005112   0.369682   0.617813
    13  H   -0.000433  -0.040217  -0.005160   0.005653   0.371718  -0.039418
    14  C    0.000011  -0.041335  -0.003366  -0.003883   0.374331  -0.034169
    15  H    0.000008  -0.007989  -0.000152   0.006028  -0.039694  -0.001332
    16  H   -0.000004   0.004694  -0.000013   0.000048  -0.033636  -0.005083
    17  C   -0.000002  -0.005356   0.001963  -0.000259  -0.046934   0.005053
    18  H    0.000001  -0.000292   0.000230   0.000040  -0.004863   0.000044
    19  H    0.000000   0.000098  -0.000129  -0.000020   0.004533  -0.000175
    20  H    0.000000   0.002352   0.003764   0.000252  -0.004600  -0.000011
             13         14         15         16         17         18
     1  C    0.000043  -0.000150  -0.000002   0.000002   0.000002   0.000000
     2  H    0.000005   0.000001  -0.000002   0.000000   0.000000   0.000000
     3  H    0.000004   0.000002   0.000001   0.000000  -0.000003   0.000000
     4  H    0.000002   0.000002   0.000000   0.000000   0.000000   0.000000
     5  C   -0.003559   0.003918   0.000104  -0.000152   0.000126  -0.000016
     6  H    0.005033   0.000065   0.000007   0.000004  -0.000007  -0.000003
     7  H   -0.000433   0.000011   0.000008  -0.000004  -0.000002   0.000001
     8  C   -0.040217  -0.041335  -0.007989   0.004694  -0.005356  -0.000292
     9  H   -0.005160  -0.003366  -0.000152  -0.000013   0.001963   0.000230
    10  H    0.005653  -0.003883   0.006028   0.000048  -0.000259   0.000040
    11  C    0.371718   0.374331  -0.039694  -0.033636  -0.046934  -0.004863
    12  H   -0.039418  -0.034169  -0.001332  -0.005083   0.005053   0.000044
    13  H    0.617658  -0.039468   0.005612  -0.001263  -0.007425   0.005728
    14  C   -0.039468   4.966025   0.375842   0.370842   0.379392  -0.034981
    15  H    0.005612   0.375842   0.614553  -0.038786  -0.040225   0.005271
    16  H   -0.001263   0.370842  -0.038786   0.618291  -0.038946  -0.004510
    17  C   -0.007425   0.379392  -0.040225  -0.038946   5.066749   0.377618
    18  H    0.005728  -0.034981   0.005271  -0.004510   0.377618   0.579402
    19  H    0.000049  -0.029072  -0.002717  -0.003110   0.372474  -0.031255
    20  H   -0.000032  -0.037109  -0.004360   0.005326   0.378293  -0.033540
             19         20
     1  C    0.000000   0.000008
     2  H    0.000000   0.000001
     3  H    0.000000  -0.000004
     4  H    0.000000   0.000000
     5  C    0.000000  -0.000152
     6  H    0.000000   0.000014
     7  H    0.000000   0.000000
     8  C    0.000098   0.002352
     9  H   -0.000129   0.003764
    10  H   -0.000020   0.000252
    11  C    0.004533  -0.004600
    12  H   -0.000175  -0.000011
    13  H    0.000049  -0.000032
    14  C   -0.029072  -0.037109
    15  H   -0.002717  -0.004360
    16  H   -0.003110   0.005326
    17  C    0.372474   0.378293
    18  H   -0.031255  -0.033540
    19  H    0.579158  -0.030727
    20  H   -0.030727   0.575561
 Mulliken atomic charges:
              1
     1  C   -0.441230
     2  H    0.140762
     3  H    0.140753
     4  H    0.139250
     5  C   -0.244563
     6  H    0.128812
     7  H    0.128823
     8  C   -0.244685
     9  H    0.130204
    10  H    0.126107
    11  C   -0.246403
    12  H    0.124998
    13  H    0.125471
    14  C   -0.246896
    15  H    0.127833
    16  H    0.126295
    17  C   -0.442515
    18  H    0.141127
    19  H    0.140893
    20  H    0.144964
 Sum of Mulliken atomic charges =   0.00000
 Mulliken charges with hydrogens summed into heavy atoms:
              1
     1  C   -0.020465
     5  C    0.013071
     8  C    0.011627
    11  C    0.004066
    14  C    0.007232
    17  C   -0.015530
 Sum of Mulliken charges with hydrogens summed into heavy atoms =   0.00000
 Electronic spatial extent (au):  <R**2>=           1022.7253
 Charge=              0.0000 electrons
 Dipole moment (field-independent basis, Debye):
    X=             -0.0135    Y=             -0.0414    Z=              0.0009  Tot=              0.0436
 Quadrupole moment (field-independent basis, Debye-Ang):
   XX=            -42.2468   YY=            -41.5980   ZZ=            -41.1564
   XY=             -0.0739   XZ=             -0.0403   YZ=             -0.1080
 Traceless Quadrupole moment (field-independent basis, Debye-Ang):
   XX=             -0.5797   YY=              0.0690   ZZ=              0.5107
   XY=             -0.0739   XZ=             -0.0403   YZ=             -0.1080
 Octapole moment (field-independent basis, Debye-Ang**2):
  XXX=             -1.7296  YYY=             -0.2834  ZZZ=             -0.0030  XYY=              0.3785
  XXY=             -1.7353  XXZ=             -0.2047  XZZ=              0.1535  YZZ=             -0.0497
  YYZ=              0.1997  XYZ=             -0.7185
 Hexadecapole moment (field-independent basis, Debye-Ang**3):
 XXXX=          -1129.1423 YYYY=           -181.9568 ZZZZ=           -104.8746 XXXY=             -4.9255
 XXXZ=             -5.6048 YYYX=              1.8618 YYYZ=             -1.5766 ZZZX=              2.2340
 ZZZY=              0.4889 XXYY=           -220.9753 XXZZ=           -204.8839 YYZZ=            -50.7394
 XXYZ=              1.3677 YYXZ=             -0.8887 ZZXY=             -0.0760
 N-N= 2.470948691870D+02 E-N=-1.041091267234D+03  KE= 2.345843653678D+02
 No NMR shielding tensors so no spin-rotation constants.
 Leave Link  601 at Fri Sep 18 13:21:51 2015, MaxMem=  402653184 cpu:       0.3
 (Enter /share/apps/g09/l701.exe)
 Compute integral first derivatives.
 ... and contract with generalized density number  0.
 Leave Link  701 at Fri Sep 18 13:21:51 2015, MaxMem=  402653184 cpu:       0.3
 (Enter /share/apps/g09/l702.exe)
 L702 exits ... SP integral derivatives will be done elsewhere.
 Leave Link  702 at Fri Sep 18 13:21:51 2015, MaxMem=  402653184 cpu:       0.0
 (Enter /share/apps/g09/l703.exe)
 Compute integral first derivatives, UseDBF=F ICtDFT=           0.
 Integral derivatives from FoFDir, PRISM(SPDF).
 Calling FoFJK, ICntrl=      2127 FMM=F ISym2X=0 I1Cent= 0 IOpClX= 0 NMat=1 NMatS=1 NMatT=0.
 FoFCou: FMM=F IPFlag=           0 FMFlag=      100000 FMFlg1=         800
         NFxFlg=           0 DoJE=F BraDBF=F KetDBF=F FulRan=T
         Omega=  0.000000  0.000000  1.000000  0.000000  0.000000 ICntrl=    2127 IOpCl=  0
         NMat0=    1 NMatS0=    1 NMatT0=    0 NMatD0=    1 NMtDS0=    0 NMtDT0=    0
         I1Cent=           0 NGrid=           0.
 Symmetry not used in FoFCou.
 Leave Link  703 at Fri Sep 18 13:22:03 2015, MaxMem=  402653184 cpu:      23.0
 (Enter /share/apps/g09/l716.exe)
 Dipole        =-5.29903752D-03-1.62920877D-02 3.57875795D-04
 ***** Axes restored to original set *****
 -------------------------------------------------------------------
 Center     Atomic                   Forces (Hartrees/Bohr)
 Number     Number              X              Y              Z
 -------------------------------------------------------------------
      1        6           0.005482503   -0.000881897   -0.001702250
      2        1          -0.000558408   -0.000428863    0.000816781
      3        1          -0.000797561    0.000525671   -0.000490664
      4        1           0.001163030    0.000371672    0.000068939
      5        6           0.000929134    0.001077794    0.000191120
      6        1          -0.000509385    0.000609264    0.005296406
      7        1          -0.001797272    0.004988622   -0.000745494
      8        6           0.000412460   -0.002730426   -0.004298438
      9        1           0.002543209   -0.005047108    0.000458246
     10        1          -0.000085312   -0.001580414   -0.004254172
     11        6          -0.001748291   -0.002887842    0.004175774
     12        1           0.000522785    0.005296279   -0.000587990
     13        1          -0.000007474    0.000782448    0.004504033
     14        6          -0.005552754   -0.007486882    0.000745379
     15        1           0.000503194   -0.000996308   -0.005267323
     16        1           0.002959436    0.005007958    0.000225243
     17        6          -0.002144448    0.003407910    0.001291637
     18        1          -0.000008884   -0.001109744   -0.000768075
     19        1          -0.000550427    0.000665202    0.000123885
     20        1          -0.000755538    0.000416665    0.000216963
 -------------------------------------------------------------------
 Cartesian Forces:  Max     0.007486882 RMS     0.002663940
 Leave Link  716 at Fri Sep 18 13:22:03 2015, MaxMem=  402653184 cpu:       0.1
 (Enter /share/apps/g09/l103.exe)

 GradGradGradGradGradGradGradGradGradGradGradGradGradGradGradGradGradGrad
 Berny optimization.
 Internal  Forces:  Max     0.009022830 RMS     0.002490687
 Search for a local minimum.
 Step number   1 out of a maximum of  110
 All quantities printed in internal units (Hartrees-Bohrs-Radians)
 RMS Force = .24907D-02 SwitMx=.10000D-02 MixMth= 1
 Mixed Optimization -- RFO/linear search
 Second derivative matrix not updated -- first step.
     Eigenvalues ---    0.00293   0.00301   0.00311   0.00405   0.00405
     Eigenvalues ---    0.03459   0.03461   0.03543   0.03573   0.04768
     Eigenvalues ---    0.04785   0.04794   0.04821   0.05446   0.05464
     Eigenvalues ---    0.05479   0.05486   0.08167   0.08211   0.08311
     Eigenvalues ---    0.08405   0.12087   0.12114   0.12195   0.12258
     Eigenvalues ---    0.16000   0.16000   0.16000   0.16000   0.16000
     Eigenvalues ---    0.16000   0.21844   0.21855   0.21869   0.21878
     Eigenvalues ---    0.28897   0.28952   0.29022   0.29678   0.29678
     Eigenvalues ---    0.32789   0.32850   0.32865   0.32869   0.32875
     Eigenvalues ---    0.32916   0.32920   0.32959   0.34112   0.34143
     Eigenvalues ---    0.34144   0.34155   0.34178   0.342071000.00000
     Eigenvalues --- 1000.000001000.000001000.000001000.000001000.00000
     Eigenvalues --- 1000.000001000.000001000.000001000.000001000.00000
     Eigenvalues --- 1000.000001000.000001000.000001000.000001000.00000
     Eigenvalues --- 1000.000001000.000001000.000001000.000001000.00000
     Eigenvalues --- 1000.000001000.000001000.000001000.000001000.00000
     Eigenvalues --- 1000.000001000.000001000.000001000.000001000.00000
     Eigenvalues --- 1000.000001000.000001000.000001000.000001000.00000
     Eigenvalues --- 1000.000001000.000001000.000001000.000001000.00000
     Eigenvalues --- 1000.000001000.000001000.000001000.000001000.00000
 RFO step:  Lambda=-2.63978525D-03 EMin= 2.92797386D-03
 Linear search not attempted -- first point.
 Iteration  1 RMS(Cart)=  0.03955049 RMS(Int)=  0.00043525
 Iteration  2 RMS(Cart)=  0.00070711 RMS(Int)=  0.00008840
 Iteration  3 RMS(Cart)=  0.00000048 RMS(Int)=  0.00008840
 Variable       Old X    -DE/DX   Delta X   Delta X   Delta X     New X
                                 (Linear)    (Quad)   (Total)
    R1        2.07089   0.00075   0.00000   0.00219   0.00219   2.07308
    R2        2.07088   0.00076   0.00000   0.00220   0.00220   2.07308
    R3        2.07030   0.00087   0.00000   0.00253   0.00253   2.07284
    R4        2.88609   0.00335   0.00000   0.01119   0.01119   2.89728
    R5        2.09290  -0.00527   0.00000  -0.01592  -0.01592   2.07699
    R6        2.09282  -0.00524   0.00000  -0.01583  -0.01583   2.07699
    R7        2.90104   0.00025   0.00000   0.00084   0.00084   2.90188
    R8        2.09199  -0.00536   0.00000  -0.01615  -0.01615   2.07585
    R9        2.09124  -0.00428   0.00000  -0.01289  -0.01289   2.07835
   R10        2.89956   0.00189   0.00000   0.00644   0.00644   2.90600
   R11        2.09272  -0.00505   0.00000  -0.01523  -0.01523   2.07748
   R12        2.09192  -0.00451   0.00000  -0.01359  -0.01359   2.07833
   R13        2.90218   0.00356   0.00000   0.01221   0.01221   2.91439
   R14        2.09316  -0.00529   0.00000  -0.01599  -0.01599   2.07717
   R15        2.09423  -0.00570   0.00000  -0.01726  -0.01726   2.07698
   R16        2.88611   0.00367   0.00000   0.01227   0.01227   2.89838
   R17        2.07070   0.00089   0.00000   0.00260   0.00260   2.07330
   R18        2.06982   0.00071   0.00000   0.00205   0.00205   2.07186
   R19        2.07142  -0.00012   0.00000  -0.00035  -0.00035   2.07108
    A1        1.87378   0.00083   0.00000   0.00126   0.00118   1.87496
    A2        1.87523  -0.00007   0.00000   0.00145   0.00147   1.87670
    A3        1.94759  -0.00118   0.00000  -0.00833  -0.00836   1.93923
    A4        1.87521  -0.00007   0.00000   0.00157   0.00159   1.87680
    A5        1.94751  -0.00116   0.00000  -0.00817  -0.00820   1.93931
    A6        1.94077   0.00170   0.00000   0.01253   0.01256   1.95333
    A7        1.91464  -0.00180   0.00000  -0.00393  -0.00386   1.91079
    A8        1.91457  -0.00169   0.00000  -0.00347  -0.00337   1.91120
    A9        1.94985   0.00694   0.00000   0.03305   0.03308   1.98293
   A10        1.84709   0.00146   0.00000   0.00106   0.00090   1.84799
   A11        1.91718  -0.00254   0.00000  -0.01342  -0.01354   1.90364
   A12        1.91774  -0.00271   0.00000  -0.01521  -0.01532   1.90242
   A13        1.91721  -0.00373   0.00000  -0.01946  -0.01973   1.89747
   A14        1.91764  -0.00249   0.00000  -0.01389  -0.01384   1.90379
   A15        1.94698   0.00833   0.00000   0.03870   0.03876   1.98574
   A16        1.84411   0.00199   0.00000   0.00560   0.00542   1.84953
   A17        1.91661  -0.00138   0.00000   0.00286   0.00296   1.91957
   A18        1.91856  -0.00314   0.00000  -0.01596  -0.01581   1.90276
   A19        1.91292  -0.00375   0.00000  -0.01968  -0.01994   1.89298
   A20        1.91755  -0.00275   0.00000  -0.01364  -0.01367   1.90388
   A21        1.96312   0.00902   0.00000   0.04298   0.04302   2.00614
   A22        1.84542   0.00185   0.00000   0.00097   0.00074   1.84616
   A23        1.90547  -0.00174   0.00000  -0.00010   0.00002   1.90549
   A24        1.91562  -0.00311   0.00000  -0.01322  -0.01312   1.90250
   A25        1.91727  -0.00257   0.00000  -0.01523  -0.01520   1.90207
   A26        1.90355  -0.00084   0.00000   0.00244   0.00243   1.90598
   A27        1.97053   0.00567   0.00000   0.02718   0.02718   1.99772
   A28        1.84458   0.00109   0.00000  -0.00042  -0.00047   1.84411
   A29        1.91487  -0.00123   0.00000  -0.00500  -0.00493   1.90994
   A30        1.90874  -0.00243   0.00000  -0.01079  -0.01093   1.89781
   A31        1.94676  -0.00164   0.00000  -0.01042  -0.01041   1.93635
   A32        1.94181   0.00068   0.00000   0.00350   0.00348   1.94529
   A33        1.94581   0.00106   0.00000   0.00752   0.00752   1.95333
   A34        1.87748   0.00029   0.00000  -0.00015  -0.00015   1.87732
   A35        1.87167   0.00045   0.00000   0.00402   0.00405   1.87571
   A36        1.87667  -0.00085   0.00000  -0.00451  -0.00453   1.87214
    D1       -3.10498  -0.00014   0.00000  -0.00321  -0.00315  -3.10813
    D2       -1.08309  -0.00037   0.00000  -0.00616  -0.00617  -1.08926
    D3        1.04789  -0.00032   0.00000  -0.00566  -0.00563   1.04226
    D4        1.08195   0.00042   0.00000   0.00652   0.00652   1.08847
    D5        3.10383   0.00018   0.00000   0.00357   0.00351   3.10734
    D6       -1.04837   0.00024   0.00000   0.00407   0.00405  -1.04433
    D7       -1.01148   0.00013   0.00000   0.00152   0.00155  -1.00993
    D8        1.01041  -0.00010   0.00000  -0.00143  -0.00147   1.00894
    D9        3.14139  -0.00005   0.00000  -0.00093  -0.00093   3.14046
   D10        1.01267  -0.00083   0.00000  -0.00878  -0.00864   1.00403
   D11       -1.00885   0.00036   0.00000   0.00365   0.00358  -1.00527
   D12       -3.14107   0.00045   0.00000   0.00741   0.00737  -3.13370
   D13       -1.11619  -0.00145   0.00000  -0.01675  -0.01653  -1.13272
   D14       -3.13771  -0.00026   0.00000  -0.00431  -0.00430   3.14117
   D15        1.01325  -0.00018   0.00000  -0.00055  -0.00052   1.01274
   D16       -3.14136  -0.00017   0.00000  -0.00146  -0.00142   3.14040
   D17        1.12031   0.00101   0.00000   0.01098   0.01080   1.13111
   D18       -1.01191   0.00110   0.00000   0.01474   0.01459  -0.99732
   D19        1.00758  -0.00079   0.00000  -0.01589  -0.01586   0.99172
   D20       -1.01301   0.00070   0.00000   0.00199   0.00179  -1.01121
   D21        3.13073   0.00042   0.00000  -0.00096  -0.00113   3.12960
   D22        3.13737  -0.00088   0.00000  -0.01258  -0.01234   3.12503
   D23        1.11678   0.00061   0.00000   0.00531   0.00532   1.12210
   D24       -1.02267   0.00033   0.00000   0.00235   0.00239  -1.02027
   D25       -1.12411  -0.00108   0.00000  -0.01334  -0.01318  -1.13729
   D26        3.13849   0.00041   0.00000   0.00454   0.00447  -3.14022
   D27        0.99904   0.00013   0.00000   0.00159   0.00155   1.00059
   D28       -0.86274  -0.00041   0.00000  -0.03800  -0.03805  -0.90079
   D29       -2.87683   0.00018   0.00000  -0.03043  -0.03048  -2.90731
   D30        1.28070   0.00009   0.00000  -0.03658  -0.03675   1.24395
   D31        1.26464  -0.00038   0.00000  -0.03441  -0.03429   1.23034
   D32       -0.74945   0.00020   0.00000  -0.02685  -0.02672  -0.77618
   D33       -2.87511   0.00011   0.00000  -0.03300  -0.03299  -2.90809
   D34       -3.00328  -0.00087   0.00000  -0.04066  -0.04063  -3.04391
   D35        1.26581  -0.00028   0.00000  -0.03310  -0.03305   1.23276
   D36       -0.85984  -0.00038   0.00000  -0.03925  -0.03932  -0.89916
   D37        1.03862   0.00053   0.00000   0.00235   0.00231   1.04093
   D38        3.13512   0.00025   0.00000  -0.00253  -0.00257   3.13255
   D39       -1.05323   0.00035   0.00000  -0.00079  -0.00082  -1.05404
   D40       -3.09979   0.00027   0.00000  -0.00197  -0.00198  -3.10177
   D41       -1.00328  -0.00001   0.00000  -0.00685  -0.00686  -1.01014
   D42        1.09155   0.00009   0.00000  -0.00512  -0.00511   1.08644
   D43       -1.08411  -0.00047   0.00000  -0.01136  -0.01133  -1.09544
   D44        1.01240  -0.00075   0.00000  -0.01624  -0.01621   0.99619
   D45        3.10724  -0.00065   0.00000  -0.01451  -0.01446   3.09278
         Item               Value     Threshold  Converged?
 Maximum Force            0.009023     0.000015     NO 
 RMS     Force            0.002491     0.000010     NO 
 Maximum Displacement     0.146461     0.000060     NO 
 RMS     Displacement     0.039846     0.000040     NO 
 Predicted change in Energy=-1.348240D-03
 GradGradGradGradGradGradGradGradGradGradGradGradGradGradGradGradGradGrad

 Leave Link  103 at Fri Sep 18 13:22:03 2015, MaxMem=  402653184 cpu:       0.1
 (Enter /share/apps/g09/l202.exe)
                          Input orientation:                          
 ---------------------------------------------------------------------
 Center     Atomic      Atomic             Coordinates (Angstroms)
 Number     Number       Type             X           Y           Z
 ---------------------------------------------------------------------
      1          6           0        3.012338    0.517436    0.116277
      2          1           0        3.111637    0.542556    1.208512
      3          1           0        2.863284    1.549680   -0.223908
      4          1           0        3.967893    0.168904   -0.294362
      5          6           0        1.844536   -0.379139   -0.311533
      6          1           0        1.790802   -0.412342   -1.408810
      7          1           0        2.037273   -1.411846    0.011547
      8          6           0        0.486225    0.073210    0.243866
      9          1           0        0.298906    1.105824   -0.080640
     10          1           0        0.539705    0.106064    1.341886
     11          6           0       -0.686238   -0.829859   -0.173985
     12          1           0       -0.465489   -1.857821    0.147184
     13          1           0       -0.739826   -0.864597   -1.271935
     14          6           0       -2.061581   -0.409434    0.382924
     15          1           0       -1.981383   -0.277204    1.471183
     16          1           0       -2.777495   -1.230292    0.235772
     17          6           0       -2.638166    0.865638   -0.244887
     18          1           0       -2.766769    0.746008   -1.327880
     19          1           0       -3.618281    1.113691    0.179256
     20          1           0       -1.985799    1.731603   -0.084690
 ---------------------------------------------------------------------
                    Distance matrix (angstroms):
                    1          2          3          4          5
     1  C    0.000000
     2  H    1.097028   0.000000
     3  H    1.097027   1.768560   0.000000
     4  H    1.096898   1.769583   1.769651   0.000000
     5  C    1.533176   2.183027   2.183087   2.193010   0.000000
     6  H    2.163914   3.083312   2.530561   2.513875   1.099093
     7  H    2.164220   2.531140   3.083564   2.513890   1.099095
     8  C    2.568046   2.836127   2.837108   3.524324   1.535609
     9  H    2.783467   3.144939   2.606447   3.792751   2.155783
    10  H    2.790207   2.612115   3.151945   3.799175   2.161435
    11  C    3.947014   4.268334   4.273617   4.761613   2.574273
    12  H    4.211660   4.436672   4.778023   4.894636   2.780852
    13  H    4.232715   4.792334   4.462006   4.917966   2.799459
    14  C    5.164769   5.324477   5.334854   6.094895   3.967485
    15  H    5.234928   5.165255   5.448086   6.221740   4.222100
    16  H    6.049049   6.226643   6.305389   6.909345   4.731508
    17  C    5.672731   5.939443   5.543853   6.642883   4.652798
    18  H    5.961200   6.405493   5.793284   6.837901   4.854179
    19  H    6.657671   6.832083   6.508710   7.659437   5.684345
    20  H    5.147422   5.391665   4.854491   6.158931   4.379287
                    6          7          8          9         10
     6  H    0.000000
     7  H    1.754186   0.000000
     8  C    2.160791   2.159887   0.000000
     9  H    2.508907   3.060896   1.098492   0.000000
    10  H    3.065994   2.513277   1.099813   1.755303   0.000000
    11  C    2.799078   2.791173   1.537791   2.173957   2.162580
    12  H    3.098609   2.545803   2.154992   3.069104   2.508899
    13  H    2.574364   3.107908   2.163408   2.526006   3.067808
    14  C    4.248667   4.235960   2.596844   2.843026   2.819935
    15  H    4.747842   4.423522   2.778163   3.085554   2.553331
    16  H    4.923721   4.823405   3.514406   3.875796   3.743415
    17  C    4.754335   5.206959   3.260160   2.951450   3.632309
    18  H    4.703167   5.434080   3.674917   3.329180   4.297668
    19  H    5.840283   6.196108   4.234825   3.925807   4.433494
    20  H    4.540100   5.106431   2.994848   2.368859   3.325006
                   11         12         13         14         15
    11  C    0.000000
    12  H    1.099357   0.000000
    13  H    1.099806   1.753754   0.000000
    14  C    1.542229   2.168157   2.166279   0.000000
    15  H    2.165504   2.559152   3.067767   1.099193   0.000000
    16  H    2.168318   2.397292   2.561056   1.099088   1.751688
    17  C    2.586456   3.505919   2.766267   1.533755   2.163874
    18  H    2.853671   3.775133   2.589532   2.181556   3.081972
    19  H    3.535398   4.332552   3.782206   2.187397   2.506611
    20  H    2.873659   3.905006   3.114844   2.192816   2.540879
                   16         17         18         19         20
    16  H    0.000000
    17  C    2.154847   0.000000
    18  H    2.520096   1.097143   0.000000
    19  H    2.490858   1.096382   1.769667   0.000000
    20  H    3.082580   1.095966   1.768286   1.765355   0.000000
 Stoichiometry    C6H14
 Framework group  C1[X(C6H14)]
 Deg. of freedom    54
 Full point group                 C1      NOp   1
 Largest Abelian subgroup         C1      NOp   1
 Largest concise Abelian subgroup C1      NOp   1
                         Standard orientation:                         
 ---------------------------------------------------------------------
 Center     Atomic      Atomic             Coordinates (Angstroms)
 Number     Number       Type             X           Y           Z
 ---------------------------------------------------------------------
      1          6           0        3.011011    0.521172    0.122023
      2          1           0        3.109593    0.539193    1.214464
      3          1           0        2.860356    1.555396   -0.211375
      4          1           0        3.967429    0.177056   -0.290327
      5          6           0        1.845048   -0.374578   -0.312479
      6          1           0        1.792048   -0.400567   -1.409986
      7          1           0        2.039398   -1.409073    0.003839
      8          6           0        0.485604    0.071685    0.245066
      9          1           0        0.296673    1.106108   -0.072676
     10          1           0        0.538350    0.097321    1.343314
     11          6           0       -0.685015   -0.830632   -0.179524
     12          1           0       -0.462661   -1.860322    0.134933
     13          1           0       -0.737866   -0.858152   -1.277714
     14          6           0       -2.061436   -0.416333    0.379308
     15          1           0       -1.982142   -0.291212    1.468474
     16          1           0       -2.775819   -1.237444    0.226245
     17          6           0       -2.639871    0.861880   -0.240362
     18          1           0       -2.767597    0.749239   -1.324207
     19          1           0       -3.620681    1.105388    0.184808
     20          1           0       -1.989123    1.727900   -0.073993
 ---------------------------------------------------------------------
 Rotational constants (GHZ):      8.8483820      1.3031437      1.2239756
 Leave Link  202 at Fri Sep 18 13:22:03 2015, MaxMem=  402653184 cpu:       0.0
 (Enter /share/apps/g09/l301.exe)
 Standard basis: 6-31G(d) (6D, 7F)
 Ernie: Thresh=  0.10000D-02 Tol=  0.10000D-05 Strict=F.
 There are   118 symmetry adapted basis functions of A   symmetry.
 Integral buffers will be    131072 words long.
 Raffenetti 2 integral format.
 Two-electron integral symmetry is turned on.
   118 basis functions,   224 primitive gaussians,   118 cartesian basis functions
    25 alpha electrons       25 beta electrons
       nuclear repulsion energy       245.6992693864 Hartrees.
 IExCor=  402 DFT=T Ex+Corr=B3LYP ExCW=0 ScaHFX=  0.200000
 ScaDFX=  0.800000  0.720000  1.000000  0.810000 ScalE2=  1.000000  1.000000
 IRadAn=      5 IRanWt=     -1 IRanGd=            0 ICorTp=0
 NAtoms=   20 NActive=   20 NUniq=   20 SFac= 7.50D-01 NAtFMM=   80 NAOKFM=F Big=F
 Leave Link  301 at Fri Sep 18 13:22:03 2015, MaxMem=  402653184 cpu:       0.1
 (Enter /share/apps/g09/l302.exe)
 NPDir=0 NMtPBC=     1 NCelOv=     1 NCel=       1 NClECP=     1 NCelD=      1
         NCelK=      1 NCelE2=     1 NClLst=     1 CellRange=     0.0.
 One-electron integrals computed using PRISM.
 NBasis=   118 RedAO= T  NBF=   118
 NBsUse=   118 1.00D-06 NBFU=   118
 Precomputing XC quadrature grid using
 IXCGrd= 2 IRadAn=           5 IRanWt=          -1 IRanGd=           0 AccXCQ= 1.00D-10.
 NRdTot=    1655 NPtTot=      443048 NUsed=      454906 NTot=      454938
 NSgBfM=   118   118   118   118   118 NAtAll=    20    20.
 Leave Link  302 at Fri Sep 18 13:22:03 2015, MaxMem=  402653184 cpu:       1.2
 (Enter /share/apps/g09/l303.exe)
 DipDrv:  MaxL=1.
 Leave Link  303 at Fri Sep 18 13:22:03 2015, MaxMem=  402653184 cpu:       0.1
 (Enter /share/apps/g09/l401.exe)
 Initial guess read from the read-write file.
 B after Tr=     0.000000    0.000000    0.000000
         Rot=    1.000000    0.000000    0.000000    0.000000 Ang=   0.00 deg.
 Guess basis will be translated and rotated to current coordinates.
 Initial guess orbital symmetries:
       Occupied  (A) (A) (A) (A) (A) (A) (A) (A) (A) (A) (A) (A)
                 (A) (A) (A) (A) (A) (A) (A) (A) (A) (A) (A) (A)
                 (A)
       Virtual   (A) (A) (A) (A) (A) (A) (A) (A) (A) (A) (A) (A)
                 (A) (A) (A) (A) (A) (A) (A) (A) (A) (A) (A) (A)
                 (A) (A) (A) (A) (A) (A) (A) (A) (A) (A) (A) (A)
                 (A) (A) (A) (A) (A) (A) (A) (A) (A) (A) (A) (A)
                 (A) (A) (A) (A) (A) (A) (A) (A) (A) (A) (A) (A)
                 (A) (A) (A) (A) (A) (A) (A) (A) (A) (A) (A) (A)
                 (A) (A) (A) (A) (A) (A) (A) (A) (A) (A) (A) (A)
                 (A) (A) (A) (A) (A) (A) (A) (A) (A)
 The electronic state of the initial guess is 1-A.
 Generating alternative initial guess.
 Harris functional with IExCor=  402 diagonalized for initial guess.
 ExpMin= 1.61D-01 ExpMax= 3.05D+03 ExpMxC= 4.57D+02 IAcc=3 IRadAn=         5 AccDes= 0.00D+00
 HarFok:  IExCor=  402 AccDes= 0.00D+00 IRadAn=         5 IDoV= 1
 ScaDFX=  1.000000  1.000000  1.000000  1.000000
 FoFCou: FMM=F IPFlag=           0 FMFlag=      100000 FMFlg1=           0
         NFxFlg=           0 DoJE=T BraDBF=F KetDBF=T FulRan=T
         Omega=  0.000000  0.000000  1.000000  0.000000  0.000000 ICntrl=     500 IOpCl=  0
         NMat0=    1 NMatS0=    1 NMatT0=    0 NMatD0=    1 NMtDS0=    0 NMtDT0=    0
         I1Cent=           4 NGrid=           0.
 Petite list used in FoFCou.
 Harris En= -237.182666241178    
 Leave Link  401 at Fri Sep 18 13:22:08 2015, MaxMem=  402653184 cpu:      10.0
 (Enter /share/apps/g09/l502.exe)
 Closed shell SCF:
 Requested convergence on RMS density matrix=1.00D-08 within 128 cycles.
 Requested convergence on MAX density matrix=1.00D-06.
 Requested convergence on             energy=1.00D-06.
 No special actions if energy rises.
 Using DIIS extrapolation, IDIIS=  1040.
 Integral symmetry usage will be decided dynamically.
       454713 words used for storage of precomputed grid.
 Keep R1 ints in memory in canonical form, NReq=26108768.
 IEnd=      516257 IEndB=      516257 NGot=   402653184 MDV=   377516851
 LenX=   377516851 LenY=   377502486
 Symmetry not used in FoFDir.
 MinBra= 0 MaxBra= 2 Meth= 1.
 IRaf=       0 NMat=   1 IRICut=       1 DoRegI=T DoRafI=F ISym2E= 0 JSym2E=0.
 Integral accuracy reduced to 1.0D-05 until final iterations.

 Cycle   1  Pass 0  IDiag  1:
 E= -237.082883377139    
 DIIS: error= 1.67D-03 at cycle   1 NSaved=   1.
 NSaved= 1 IEnMin= 1 EnMin= -237.082883377139     IErMin= 1 ErrMin= 1.67D-03
 ErrMax= 1.67D-03 EMaxC= 1.00D-01 BMatC= 5.67D-04 BMatP= 5.67D-04
 IDIUse=3 WtCom= 9.83D-01 WtEn= 1.67D-02
 Coeff-Com:  0.100D+01
 Coeff-En:   0.100D+01
 Coeff:      0.100D+01
 Gap=     0.398 Goal=   None    Shift=    0.000
 GapD=    0.398 DampG=1.000 DampE=1.000 DampFc=1.0000 IDamp=-1.
 RMSDP=3.12D-04 MaxDP=4.30D-03              OVMax= 8.58D-03

 Cycle   2  Pass 0  IDiag  1:
 E= -237.083929145021     Delta-E=       -0.001045767883 Rises=F Damp=F
 DIIS: error= 3.97D-04 at cycle   2 NSaved=   2.
 NSaved= 2 IEnMin= 2 EnMin= -237.083929145021     IErMin= 2 ErrMin= 3.97D-04
 ErrMax= 3.97D-04 EMaxC= 1.00D-01 BMatC= 2.93D-05 BMatP= 5.67D-04
 IDIUse=3 WtCom= 9.96D-01 WtEn= 3.97D-03
 Coeff-Com:  0.279D-01 0.972D+00
 Coeff-En:   0.000D+00 0.100D+01
 Coeff:      0.278D-01 0.972D+00
 Gap=     0.396 Goal=   None    Shift=    0.000
 RMSDP=1.03D-04 MaxDP=1.65D-03 DE=-1.05D-03 OVMax= 2.11D-03

 Cycle   3  Pass 0  IDiag  1:
 E= -237.083933358820     Delta-E=       -0.000004213799 Rises=F Damp=F
 DIIS: error= 4.38D-04 at cycle   3 NSaved=   3.
 NSaved= 3 IEnMin= 3 EnMin= -237.083933358820     IErMin= 2 ErrMin= 3.97D-04
 ErrMax= 4.38D-04 EMaxC= 1.00D-01 BMatC= 3.12D-05 BMatP= 2.93D-05
 IDIUse=3 WtCom= 9.96D-01 WtEn= 4.38D-03
 Coeff-Com: -0.334D-01 0.522D+00 0.512D+00
 Coeff-En:   0.000D+00 0.465D+00 0.535D+00
 Coeff:     -0.333D-01 0.522D+00 0.512D+00
 Gap=     0.397 Goal=   None    Shift=    0.000
 RMSDP=5.13D-05 MaxDP=8.55D-04 DE=-4.21D-06 OVMax= 1.01D-03

 Cycle   4  Pass 0  IDiag  1:
 E= -237.083965330909     Delta-E=       -0.000031972088 Rises=F Damp=F
 DIIS: error= 3.80D-05 at cycle   4 NSaved=   4.
 NSaved= 4 IEnMin= 4 EnMin= -237.083965330909     IErMin= 4 ErrMin= 3.80D-05
 ErrMax= 3.80D-05 EMaxC= 1.00D-01 BMatC= 3.19D-07 BMatP= 2.93D-05
 IDIUse=1 WtCom= 1.00D+00 WtEn= 0.00D+00
 Coeff-Com: -0.130D-01 0.130D+00 0.164D+00 0.719D+00
 Coeff:     -0.130D-01 0.130D+00 0.164D+00 0.719D+00
 Gap=     0.397 Goal=   None    Shift=    0.000
 RMSDP=6.09D-06 MaxDP=7.49D-05 DE=-3.20D-05 OVMax= 1.15D-04

 Initial convergence to 1.0D-05 achieved.  Increase integral accuracy.
 Cycle   5  Pass 1  IDiag  1:
 E= -237.083953155027     Delta-E=        0.000012175882 Rises=F Damp=F
 DIIS: error= 1.05D-05 at cycle   1 NSaved=   1.
 NSaved= 1 IEnMin= 1 EnMin= -237.083953155027     IErMin= 1 ErrMin= 1.05D-05
 ErrMax= 1.05D-05 EMaxC= 1.00D-01 BMatC= 1.90D-08 BMatP= 1.90D-08
 IDIUse=1 WtCom= 1.00D+00 WtEn= 0.00D+00
 Coeff-Com:  0.100D+01
 Coeff:      0.100D+01
 Gap=     0.397 Goal=   None    Shift=    0.000
 RMSDP=6.09D-06 MaxDP=7.49D-05 DE= 1.22D-05 OVMax= 5.50D-05

 Cycle   6  Pass 1  IDiag  1:
 E= -237.083953154398     Delta-E=        0.000000000628 Rises=F Damp=F
 DIIS: error= 1.08D-05 at cycle   2 NSaved=   2.
 NSaved= 2 IEnMin= 1 EnMin= -237.083953155027     IErMin= 1 ErrMin= 1.05D-05
 ErrMax= 1.08D-05 EMaxC= 1.00D-01 BMatC= 2.18D-08 BMatP= 1.90D-08
 IDIUse=1 WtCom= 1.00D+00 WtEn= 0.00D+00
 Coeff-Com:  0.518D+00 0.482D+00
 Coeff:      0.518D+00 0.482D+00
 Gap=     0.397 Goal=   None    Shift=    0.000
 RMSDP=1.26D-06 MaxDP=2.43D-05 DE= 6.28D-10 OVMax= 2.73D-05

 Cycle   7  Pass 1  IDiag  1:
 E= -237.083953175696     Delta-E=       -0.000000021297 Rises=F Damp=F
 DIIS: error= 1.12D-06 at cycle   3 NSaved=   3.
 NSaved= 3 IEnMin= 3 EnMin= -237.083953175696     IErMin= 3 ErrMin= 1.12D-06
 ErrMax= 1.12D-06 EMaxC= 1.00D-01 BMatC= 3.02D-10 BMatP= 1.90D-08
 IDIUse=1 WtCom= 1.00D+00 WtEn= 0.00D+00
 Coeff-Com:  0.987D-01 0.145D+00 0.756D+00
 Coeff:      0.987D-01 0.145D+00 0.756D+00
 Gap=     0.397 Goal=   None    Shift=    0.000
 RMSDP=2.03D-07 MaxDP=3.32D-06 DE=-2.13D-08 OVMax= 4.38D-06

 Cycle   8  Pass 1  IDiag  1:
 E= -237.083953175977     Delta-E=       -0.000000000281 Rises=F Damp=F
 DIIS: error= 3.30D-07 at cycle   4 NSaved=   4.
 NSaved= 4 IEnMin= 4 EnMin= -237.083953175977     IErMin= 4 ErrMin= 3.30D-07
 ErrMax= 3.30D-07 EMaxC= 1.00D-01 BMatC= 2.42D-11 BMatP= 3.02D-10
 IDIUse=1 WtCom= 1.00D+00 WtEn= 0.00D+00
 Coeff-Com: -0.103D-01 0.884D-02 0.251D+00 0.750D+00
 Coeff:     -0.103D-01 0.884D-02 0.251D+00 0.750D+00
 Gap=     0.397 Goal=   None    Shift=    0.000
 RMSDP=6.39D-08 MaxDP=1.17D-06 DE=-2.81D-10 OVMax= 1.44D-06

 Cycle   9  Pass 1  IDiag  1:
 E= -237.083953176002     Delta-E=       -0.000000000025 Rises=F Damp=F
 DIIS: error= 8.04D-08 at cycle   5 NSaved=   5.
 NSaved= 5 IEnMin= 5 EnMin= -237.083953176002     IErMin= 5 ErrMin= 8.04D-08
 ErrMax= 8.04D-08 EMaxC= 1.00D-01 BMatC= 1.55D-12 BMatP= 2.42D-11
 IDIUse=1 WtCom= 1.00D+00 WtEn= 0.00D+00
 Coeff-Com: -0.710D-02 0.147D-02 0.108D+00 0.369D+00 0.529D+00
 Coeff:     -0.710D-02 0.147D-02 0.108D+00 0.369D+00 0.529D+00
 Gap=     0.397 Goal=   None    Shift=    0.000
 RMSDP=1.20D-08 MaxDP=2.09D-07 DE=-2.51D-11 OVMax= 2.39D-07

 Cycle  10  Pass 1  IDiag  1:
 E= -237.083953176003     Delta-E=       -0.000000000001 Rises=F Damp=F
 DIIS: error= 1.10D-08 at cycle   6 NSaved=   6.
 NSaved= 6 IEnMin= 6 EnMin= -237.083953176003     IErMin= 6 ErrMin= 1.10D-08
 ErrMax= 1.10D-08 EMaxC= 1.00D-01 BMatC= 3.26D-14 BMatP= 1.55D-12
 IDIUse=1 WtCom= 1.00D+00 WtEn= 0.00D+00
 Coeff-Com: -0.129D-02-0.134D-03 0.137D-01 0.564D-01 0.160D+00 0.772D+00
 Coeff:     -0.129D-02-0.134D-03 0.137D-01 0.564D-01 0.160D+00 0.772D+00
 Gap=     0.397 Goal=   None    Shift=    0.000
 RMSDP=1.94D-09 MaxDP=3.21D-08 DE=-1.36D-12 OVMax= 4.11D-08

 SCF Done:  E(RB3LYP) =  -237.083953176     A.U. after   10 cycles
             Convg  =    0.1939D-08             -V/T =  2.0106
 KE= 2.346045928691D+02 PE=-1.038304556180D+03 EE= 3.209167407481D+02
 Leave Link  502 at Fri Sep 18 13:22:44 2015, MaxMem=  402653184 cpu:      72.0
 (Enter /share/apps/g09/l701.exe)
 Compute integral first derivatives.
 ... and contract with generalized density number  0.
 Leave Link  701 at Fri Sep 18 13:22:45 2015, MaxMem=  402653184 cpu:       0.3
 (Enter /share/apps/g09/l702.exe)
 L702 exits ... SP integral derivatives will be done elsewhere.
 Leave Link  702 at Fri Sep 18 13:22:45 2015, MaxMem=  402653184 cpu:       0.0
 (Enter /share/apps/g09/l703.exe)
 Compute integral first derivatives, UseDBF=F ICtDFT=           0.
 Integral derivatives from FoFDir, PRISM(SPDF).
 Calling FoFJK, ICntrl=      2127 FMM=F ISym2X=0 I1Cent= 0 IOpClX= 0 NMat=1 NMatS=1 NMatT=0.
 FoFCou: FMM=F IPFlag=           0 FMFlag=      100000 FMFlg1=         800
         NFxFlg=           0 DoJE=F BraDBF=F KetDBF=F FulRan=T
         Omega=  0.000000  0.000000  1.000000  0.000000  0.000000 ICntrl=    2127 IOpCl=  0
         NMat0=    1 NMatS0=    1 NMatT0=    0 NMatD0=    1 NMtDS0=    0 NMtDT0=    0
         I1Cent=           0 NGrid=           0.
 Symmetry not used in FoFCou.
 Leave Link  703 at Fri Sep 18 13:22:56 2015, MaxMem=  402653184 cpu:      22.3
 (Enter /share/apps/g09/l716.exe)
 Dipole        =-8.39910488D-03-2.00407432D-02 2.39859409D-03
 ***** Axes restored to original set *****
 -------------------------------------------------------------------
 Center     Atomic                   Forces (Hartrees/Bohr)
 Number     Number              X              Y              Z
 -------------------------------------------------------------------
      1        6          -0.000617977    0.000398626    0.000422015
      2        1          -0.000040013    0.000053282    0.000102054
      3        1          -0.000050274    0.000116264    0.000018157
      4        1          -0.000946889   -0.000473724   -0.000185806
      5        6          -0.000529748   -0.001284461   -0.000605571
      6        1           0.000163265    0.000096944   -0.000272722
      7        1           0.000371147   -0.000248795    0.000095264
      8        6          -0.000585876    0.000984442    0.000323122
      9        1          -0.000357174    0.000511013   -0.000114787
     10        1          -0.000056975    0.000062831    0.000558199
     11        6           0.000256677    0.000162051   -0.000620456
     12        1          -0.000489511    0.000071178    0.000598972
     13        1          -0.000163776   -0.000209902   -0.000566975
     14        6           0.000948454   -0.000221960    0.000832771
     15        1           0.000073430    0.000117557    0.000347710
     16        1           0.000933587    0.000018024   -0.000792054
     17        6           0.000718241    0.000482783   -0.000289089
     18        1           0.000036801   -0.000027139   -0.000144688
     19        1           0.000148844   -0.000604304    0.000214919
     20        1           0.000187768   -0.000004710    0.000078965
 -------------------------------------------------------------------
 Cartesian Forces:  Max     0.001284461 RMS     0.000460881
 Leave Link  716 at Fri Sep 18 13:22:56 2015, MaxMem=  402653184 cpu:       0.0
 (Enter /share/apps/g09/l103.exe)

 GradGradGradGradGradGradGradGradGradGradGradGradGradGradGradGradGradGrad
 Berny optimization.
 Using GEDIIS/GDIIS optimizer.
[...]

 Largest change from initial coordinates is atom   20       0.171 Angstoms.
 Leave Link  103 at Fri Sep 18 13:28:29 2015, MaxMem=  402653184 cpu:       0.1
 (Enter /share/apps/g09/l202.exe)
                          Input orientation:                          
 ---------------------------------------------------------------------
 Center     Atomic      Atomic             Coordinates (Angstroms)
 Number     Number       Type             X           Y           Z
 ---------------------------------------------------------------------
      1          6           0        2.989514    0.532742    0.101054
      2          1           0        3.071131    0.620720    1.191560
      3          1           0        2.841206    1.542760   -0.300807
      4          1           0        3.950021    0.162660   -0.275622
      5          6           0        1.836667   -0.395511   -0.294698
      6          1           0        1.802582   -0.490362   -1.389511
      7          1           0        2.031491   -1.406501    0.090909
      8          6           0        0.470363    0.084187    0.212881
      9          1           0        0.284685    1.097481   -0.169750
     10          1           0        0.503006    0.174299    1.309468
     11          6           0       -0.684567   -0.846484   -0.182530
     12          1           0       -0.455071   -1.861909    0.171353
     13          1           0       -0.737240   -0.912855   -1.279841
     14          6           0       -2.061335   -0.433185    0.364226
     15          1           0       -2.009832   -0.369874    1.460786
     16          1           0       -2.781402   -1.231988    0.140575
     17          6           0       -2.597863    0.888864   -0.197799
     18          1           0       -2.662703    0.853981   -1.292773
     19          1           0       -3.601674    1.102053    0.187415
     20          1           0       -1.957408    1.737002    0.068883
 ---------------------------------------------------------------------
                    Distance matrix (angstroms):
                    1          2          3          4          5
     1  C    0.000000
     2  H    1.097090   0.000000
     3  H    1.097098   1.769232   0.000000
     4  H    1.096093   1.770562   1.770532   0.000000
     5  C    1.532099   2.183023   2.183124   2.185906   0.000000
     6  H    2.162714   3.083123   2.529348   2.505730   1.099443
     7  H    2.163000   2.530199   3.083378   2.505468   1.099432
     8  C    2.561216   2.830137   2.830584   3.514658   1.534449
     9  H    2.776394   3.137634   2.598316   3.784150   2.157147
    10  H    2.787735   2.609303   3.151643   3.794017   2.162565
    11  C    3.934661   4.259822   4.260699   4.744097   2.563705
    12  H    4.195766   4.431521   4.762368   4.868625   2.760361
    13  H    4.229103   4.792011   4.449025   4.912800   2.804131
    14  C    5.149112   5.304471   5.327433   6.074607   3.953483
    15  H    5.258996   5.183623   5.503994   6.230454   4.228231
    16  H    6.034841   6.228101   6.285520   6.886968   4.713356
    17  C    5.606684   5.842920   5.479202   6.588491   4.617799
    18  H    5.830395   6.253254   5.634841   6.726117   4.775115
    19  H    6.616293   6.765081   6.476364   7.623973   5.661333
    20  H    5.091494   5.271878   4.816751   6.123312   4.367471
                    6          7          8          9         10
     6  H    0.000000
     7  H    1.755949   0.000000
     8  C    2.161614   2.161979   0.000000
     9  H    2.512583   3.064180   1.098930   0.000000
    10  H    3.068414   2.513978   1.100768   1.757275   0.000000
    11  C    2.787389   2.786640   1.535045   2.172238   2.162958
    12  H    3.068295   2.529201   2.155329   3.069460   2.521778
    13  H    2.577057   3.128660   2.163473   2.513580   3.069957
    14  C    4.243668   4.215836   2.588450   2.851646   2.799708
    15  H    4.761639   4.391292   2.813326   3.174364   2.575534
    16  H    4.889180   4.816313   3.508778   3.863110   3.759161
    17  C    4.763019   5.175227   3.198464   2.890223   3.521057
    18  H    4.664267   5.390716   3.560292   3.163475   4.153955
    19  H    5.850510   6.167229   4.197402   3.902740   4.355241
    20  H    4.607123   5.078721   2.940510   2.343696   3.167763
                   11         12         13         14         15
    11  C    0.000000
    12  H    1.099541   0.000000
    13  H    1.100577   1.756783   0.000000
    14  C    1.537937   2.158365   2.164779   0.000000
    15  H    2.164248   2.511193   3.070073   1.099592   0.000000
    16  H    2.156322   2.410304   2.509587   1.098454   1.755425
    17  C    2.583092   3.506364   2.806942   1.533476   2.163586
    18  H    2.835004   3.793859   2.613290   2.182679   3.083205
    19  H    3.527488   4.322782   3.797061   2.181940   2.514360
    20  H    2.890975   3.901241   3.213970   2.192656   2.525682
                   16         17         18         19         20
    16  H    0.000000
    17  C    2.155504   0.000000
    18  H    2.533741   1.097447   0.000000
    19  H    2.474427   1.096119   1.770357   0.000000
    20  H    3.082046   1.095737   1.769541   1.766585   0.000000
 Stoichiometry    C6H14
 Framework group  C1[X(C6H14)]
 Deg. of freedom    54
 Full point group                 C1      NOp   1
 Largest Abelian subgroup         C1      NOp   1
 Largest concise Abelian subgroup C1      NOp   1
                         Standard orientation:                         
 ---------------------------------------------------------------------
 Center     Atomic      Atomic             Coordinates (Angstroms)
 Number     Number       Type             X           Y           Z
 ---------------------------------------------------------------------
      1          6           0        2.989033    0.533567    0.114030
      2          1           0        3.063719    0.636784    1.203697
      3          1           0        2.843561    1.537889   -0.302863
      4          1           0        3.951824    0.158078   -0.251294
      5          6           0        1.838485   -0.399928   -0.276040
      6          1           0        1.811356   -0.510085   -1.369614
      7          1           0        2.030576   -1.405457    0.124912
      8          6           0        0.469100    0.087071    0.216050
      9          1           0        0.286138    1.094944   -0.181900
     10          1           0        0.494774    0.192515    1.311455
     11          6           0       -0.683534   -0.848838   -0.173659
     12          1           0       -0.456570   -1.859252    0.195856
     13          1           0       -0.729226   -0.930549   -1.270247
     14          6           0       -2.063650   -0.427682    0.358466
     15          1           0       -2.019122   -0.349040    1.454339
     16          1           0       -2.782490   -1.229407    0.141426
     17          6           0       -2.596228    0.886469   -0.225415
     18          1           0       -2.654095    0.836276   -1.320186
     19          1           0       -3.602419    1.105207    0.150366
     20          1           0       -1.957260    1.738141    0.033453
 ---------------------------------------------------------------------
 Rotational constants (GHZ):      8.7112859      1.3268931      1.2361592
 Leave Link  202 at Fri Sep 18 13:28:29 2015, MaxMem=  402653184 cpu:       0.0
 (Enter /share/apps/g09/l601.exe)
 Copying SCF densities to generalized density rwf, IOpCl= 0 IROHF=0.

 **********************************************************************

            Population analysis using the SCF density.

 **********************************************************************

 Orbital symmetries:
       Occupied  (A) (A) (A) (A) (A) (A) (A) (A) (A) (A) (A) (A)
                 (A) (A) (A) (A) (A) (A) (A) (A) (A) (A) (A) (A)
                 (A)
       Virtual   (A) (A) (A) (A) (A) (A) (A) (A) (A) (A) (A) (A)
                 (A) (A) (A) (A) (A) (A) (A) (A) (A) (A) (A) (A)
                 (A) (A) (A) (A) (A) (A) (A) (A) (A) (A) (A) (A)
                 (A) (A) (A) (A) (A) (A) (A) (A) (A) (A) (A) (A)
                 (A) (A) (A) (A) (A) (A) (A) (A) (A) (A) (A) (A)
                 (A) (A) (A) (A) (A) (A) (A) (A) (A) (A) (A) (A)
                 (A) (A) (A) (A) (A) (A) (A) (A) (A) (A) (A) (A)
                 (A) (A) (A) (A) (A) (A) (A) (A) (A)
 The electronic state is 1-A.
 Alpha  occ. eigenvalues --  -10.17623 -10.17586 -10.17383 -10.17306 -10.16986
 Alpha  occ. eigenvalues --  -10.16944  -0.79880  -0.76005  -0.70066  -0.63962
 Alpha  occ. eigenvalues --   -0.58260  -0.56080  -0.46748  -0.44528  -0.43085
 Alpha  occ. eigenvalues --   -0.40884  -0.40331  -0.38125  -0.36361  -0.35374
 Alpha  occ. eigenvalues --   -0.33725  -0.32748  -0.31655  -0.31313  -0.30412
 Alpha virt. eigenvalues --    0.09123   0.10653   0.12220   0.12886   0.14746
 Alpha virt. eigenvalues --    0.16002   0.16330   0.17165   0.18182   0.19168
 Alpha virt. eigenvalues --    0.19259   0.19940   0.20431   0.22263   0.22612
 Alpha virt. eigenvalues --    0.25394   0.26332   0.27871   0.29246   0.50194
 Alpha virt. eigenvalues --    0.50577   0.51504   0.53607   0.55283   0.55808
 Alpha virt. eigenvalues --    0.58646   0.62186   0.64311   0.65740   0.68172
 Alpha virt. eigenvalues --    0.68972   0.71339   0.77559   0.78371   0.80911
 Alpha virt. eigenvalues --    0.84620   0.86371   0.87592   0.88925   0.90071
 Alpha virt. eigenvalues --    0.90291   0.91640   0.93782   0.94128   0.94869
 Alpha virt. eigenvalues --    0.95517   0.97487   0.98362   1.00168   1.02012
 Alpha virt. eigenvalues --    1.03856   1.13141   1.23578   1.39058   1.41743
 Alpha virt. eigenvalues --    1.44862   1.50241   1.53486   1.59108   1.67055
 Alpha virt. eigenvalues --    1.69730   1.79828   1.81101   1.88122   1.91697
 Alpha virt. eigenvalues --    1.92478   1.95570   1.97079   1.99589   2.01614
 Alpha virt. eigenvalues --    2.02922   2.06248   2.14505   2.21943   2.25222
 Alpha virt. eigenvalues --    2.27388   2.32111   2.33636   2.36125   2.40515
 Alpha virt. eigenvalues --    2.42010   2.44834   2.58032   2.59828   2.64190
 Alpha virt. eigenvalues --    2.74751   2.80194   4.11207   4.18765   4.29151
 Alpha virt. eigenvalues --    4.38419   4.45532   4.55425
          Condensed to atoms (all electrons):
              1          2          3          4          5          6
     1  C    5.066116   0.377419   0.377245   0.371327   0.371580  -0.038712
     2  H    0.377419   0.580127  -0.032946  -0.031442  -0.034712   0.005275
     3  H    0.377245  -0.032946   0.580188  -0.031380  -0.034642  -0.004517
     4  H    0.371327  -0.031442  -0.031380   0.579223  -0.027194  -0.002720
     5  C    0.371580  -0.034712  -0.034642  -0.027194   4.951102   0.376560
     6  H   -0.038712   0.005275  -0.004517  -0.002720   0.376560   0.613314
     7  H   -0.038625  -0.004495   0.005274  -0.002678   0.376288  -0.040242
     8  C   -0.042745  -0.004494  -0.004547   0.004130   0.388503  -0.040529
     9  H   -0.002666  -0.000416   0.005007  -0.000037  -0.040470  -0.005519
    10  H   -0.002929   0.004848  -0.000393  -0.000035  -0.040450   0.006002
    11  C    0.003590   0.000032   0.000032  -0.000130  -0.035638  -0.003330
    12  H    0.000053   0.000003   0.000008   0.000002  -0.004336  -0.000471
    13  H    0.000016   0.000006   0.000003   0.000002  -0.003585   0.005066
    14  C   -0.000128   0.000001   0.000001   0.000001   0.003571   0.000057
    15  H   -0.000001  -0.000001   0.000000   0.000000   0.000026   0.000008
    16  H    0.000002   0.000000   0.000000   0.000000  -0.000129   0.000004
    17  C    0.000002   0.000000  -0.000002   0.000000   0.000124  -0.000012
    18  H    0.000000   0.000000   0.000000   0.000000  -0.000024   0.000001
    19  H    0.000000   0.000000   0.000000   0.000000  -0.000001   0.000000
    20  H    0.000006   0.000001  -0.000002   0.000000  -0.000093   0.000009
              7          8          9         10         11         12
     1  C   -0.038625  -0.042745  -0.002666  -0.002929   0.003590   0.000053
     2  H   -0.004495  -0.004494  -0.000416   0.004848   0.000032   0.000003
     3  H    0.005274  -0.004547   0.005007  -0.000393   0.000032   0.000008
     4  H   -0.002678   0.004130  -0.000037  -0.000035  -0.000130   0.000002
     5  C    0.376288   0.388503  -0.040470  -0.040450  -0.035638  -0.004336
     6  H   -0.040242  -0.040529  -0.005519   0.006002  -0.003330  -0.000471
     7  H    0.613647  -0.040487   0.005965  -0.005554  -0.003636   0.005674
     8  C   -0.040487   4.980649   0.373615   0.372118   0.385725  -0.041203
     9  H    0.005965   0.373615   0.612083  -0.041173  -0.038620   0.005890
    10  H   -0.005554   0.372118  -0.041173   0.620420  -0.041282  -0.005050
    11  C   -0.003636   0.385725  -0.038620  -0.041282   4.984882   0.370720
    12  H    0.005674  -0.041203   0.005890  -0.005050   0.370720   0.617946
    13  H   -0.000447  -0.041161  -0.005481   0.006056   0.370551  -0.039017
    14  C   -0.000016  -0.038985  -0.004079  -0.002975   0.378781  -0.034483
    15  H    0.000004  -0.006954  -0.000197   0.005732  -0.039570  -0.002807
    16  H   -0.000004   0.004594  -0.000031   0.000017  -0.033494  -0.003981
    17  C    0.000001  -0.004615   0.002855  -0.000563  -0.045338   0.005040
    18  H    0.000000  -0.000531   0.000296   0.000074  -0.004140   0.000011
    19  H    0.000000   0.000108  -0.000085  -0.000025   0.004316  -0.000161
    20  H    0.000000   0.002832   0.002388   0.000354  -0.004785  -0.000027
             13         14         15         16         17         18
     1  C    0.000016  -0.000128  -0.000001   0.000002   0.000002   0.000000
     2  H    0.000006   0.000001  -0.000001   0.000000   0.000000   0.000000
     3  H    0.000003   0.000001   0.000000   0.000000  -0.000002   0.000000
     4  H    0.000002   0.000001   0.000000   0.000000   0.000000   0.000000
     5  C   -0.003585   0.003571   0.000026  -0.000129   0.000124  -0.000024
     6  H    0.005066   0.000057   0.000008   0.000004  -0.000012   0.000001
     7  H   -0.000447  -0.000016   0.000004  -0.000004   0.000001   0.000000
     8  C   -0.041161  -0.038985  -0.006954   0.004594  -0.004615  -0.000531
     9  H   -0.005481  -0.004079  -0.000197  -0.000031   0.002855   0.000296
    10  H    0.006056  -0.002975   0.005732   0.000017  -0.000563   0.000074
    11  C    0.370551   0.378781  -0.039570  -0.033494  -0.045338  -0.004140
    12  H   -0.039017  -0.034483  -0.002807  -0.003981   0.005040   0.000011
    13  H    0.620034  -0.039297   0.005990  -0.002782  -0.006494   0.005487
    14  C   -0.039297   4.958547   0.375236   0.373236   0.378207  -0.036225
    15  H    0.005990   0.375236   0.614449  -0.038569  -0.040615   0.005378
    16  H   -0.002782   0.373236  -0.038569   0.613894  -0.039952  -0.004094
    17  C   -0.006494   0.378207  -0.040615  -0.039952   5.065866   0.376833
    18  H    0.005487  -0.036225   0.005378  -0.004094   0.376833   0.581322
    19  H   -0.000017  -0.028516  -0.002463  -0.003563   0.373009  -0.031320
    20  H   -0.000106  -0.034500  -0.004544   0.005209   0.378496  -0.033016
             19         20
     1  C    0.000000   0.000006
     2  H    0.000000   0.000001
     3  H    0.000000  -0.000002
     4  H    0.000000   0.000000
     5  C   -0.000001  -0.000093
     6  H    0.000000   0.000009
     7  H    0.000000   0.000000
     8  C    0.000108   0.002832
     9  H   -0.000085   0.002388
    10  H   -0.000025   0.000354
    11  C    0.004316  -0.004785
    12  H   -0.000161  -0.000027
    13  H   -0.000017  -0.000106
    14  C   -0.028516  -0.034500
    15  H   -0.002463  -0.004544
    16  H   -0.003563   0.005209
    17  C    0.373009   0.378496
    18  H   -0.031320  -0.033016
    19  H    0.578871  -0.031309
    20  H   -0.031309   0.573071
 Mulliken atomic charges:
              1
     1  C   -0.441549
     2  H    0.140794
     3  H    0.140671
     4  H    0.140932
     5  C   -0.246480
     6  H    0.129755
     7  H    0.129331
     8  C   -0.246023
     9  H    0.130676
    10  H    0.124806
    11  C   -0.248665
    12  H    0.126189
    13  H    0.125177
    14  C   -0.248433
    15  H    0.128899
    16  H    0.129642
    17  C   -0.442841
    18  H    0.139948
    19  H    0.141156
    20  H    0.146015
 Sum of Mulliken atomic charges =   0.00000
 Mulliken charges with hydrogens summed into heavy atoms:
              1
     1  C   -0.019153
     5  C    0.012606
     8  C    0.009460
    11  C    0.002702
    14  C    0.010109
    17  C   -0.015723
 Sum of Mulliken charges with hydrogens summed into heavy atoms =   0.00000
 Electronic spatial extent (au):  <R**2>=           1035.9088
 Charge=              0.0000 electrons
 Dipole moment (field-independent basis, Debye):
    X=             -0.0238    Y=             -0.0531    Z=              0.0044  Tot=              0.0583
 Quadrupole moment (field-independent basis, Debye-Ang):
   XX=            -41.9302   YY=            -41.6392   ZZ=            -41.1231
   XY=             -0.0272   XZ=             -0.0488   YZ=             -0.1478
 Traceless Quadrupole moment (field-independent basis, Debye-Ang):
   XX=             -0.3660   YY=             -0.0751   ZZ=              0.4411
   XY=             -0.0272   XZ=             -0.0488   YZ=             -0.1478
 Octapole moment (field-independent basis, Debye-Ang**2):
  XXX=             -1.7257  YYY=             -0.2606  ZZZ=             -0.0016  XYY=              0.2675
  XXY=             -1.8104  XXZ=             -0.2242  XZZ=              0.1740  YZZ=             -0.0337
  YYZ=              0.2458  XYZ=             -0.7396
 Hexadecapole moment (field-independent basis, Debye-Ang**3):
 XXXX=          -1141.5475 YYYY=           -188.0821 ZZZZ=            -99.4076 XXXY=             -4.8353
 XXXZ=             -5.5077 YYYX=              1.8231 YYYZ=             -1.6622 ZZZX=              1.9477
 ZZZY=              0.4565 XXYY=           -225.2210 XXZZ=           -207.4550 YYZZ=            -50.1228
 XXYZ=              1.2942 YYXZ=             -0.8168 ZZXY=              0.1316
 N-N= 2.463230418937D+02 E-N=-1.039569889665D+03  KE= 2.346209379845D+02
 No NMR shielding tensors so no spin-rotation constants.
 Leave Link  601 at Fri Sep 18 13:28:29 2015, MaxMem=  402653184 cpu:       0.3
 (Enter /share/apps/g09/l9999.exe)
 1\1\GINC-COMPUTE-0-11\FOpt\RB3LYP\6-31G(d)\C6H14\HETANJIN\18-Sep-2015\
 0\\#p B3LYP/6-31G(d) opt=tight int=ultrafine\\using B3LYP/6-31G(d) to 
 do opt and freq calc.\\0,1\C,2.9895136084,0.5327415534,0.1010535976\H,
 3.0711314404,0.6207201205,1.1915598682\H,2.8412059691,1.5427602845,-0.
 3008068985\H,3.9500214824,0.162659963,-0.2756222169\C,1.8366673241,-0.
 3955106114,-0.2946981656\H,1.8025817356,-0.4903617195,-1.3895114515\H,
 2.031491492,-1.4065006637,0.0909092983\C,0.4703627646,0.0841874664,0.2
 128810163\H,0.2846853118,1.0974813491,-0.1697498266\H,0.5030056034,0.1
 742994872,1.3094682606\C,-0.6845673441,-0.8464844662,-0.1825302291\H,-
 0.4550706632,-1.8619094961,0.1713525203\H,-0.7372400198,-0.912854603,-
 1.2798406369\C,-2.061335412,-0.4331852267,0.364226467\H,-2.0098316981,
 -0.3698743515,1.4607859477\H,-2.7814022035,-1.2319877189,0.1405747063\
 C,-2.5978625072,0.8888642225,-0.1977986919\H,-2.6627033354,0.853981182
 2,-1.29277329\H,-3.6016739237,1.1020531938,0.1874153174\H,-1.957407624
 8,1.7370020343,0.068883407\\Version=EM64L-G09RevA.01\State=1-A\HF=-237
 .084132\RMSD=6.176e-09\RMSF=7.791e-07\Dipole=-0.0093552,-0.0209104,0.0
 014918\Quadrupole=-0.2725788,-0.0526631,0.3252419,-0.0204984,-0.032728
 9,-0.1151286\PG=C01 [X(C6H14)]\\@


 IF GOD HAD MEANT MAN TO SEE THE SUN RISE, HE
 WOULD HAVE SCHEDULED IT FOR A LATER HOUR.
 Job cpu time:  0 days  0 hours 14 minutes 54.2 seconds.
 File lengths (MBytes):  RWF=     15 Int=      0 D2E=      0 Chk=      2 Scr=      1
 Normal termination of Gaussian 09 at Fri Sep 18 13:28:29 2015.
