 Entering Gaussian System, Link 0=/share/apps/g09/g09
 Input=C6H14_1_09_1_opt_B3L.gjf
 Output=C6H14_1_09_1_opt_B3L.log
 Initial command:
 /share/apps/g09/l1.exe /state/partition1/Gau-11351.inp -scrdir=/state/partition1/
 Entering Link 1 = /share/apps/g09/l1.exe PID=     11352.
  
 Copyright (c) 1988,1990,1992,1993,1995,1998,2003,2009, Gaussian, Inc.
                  All Rights Reserved.
  
 This is part of the Gaussian(R) 09 program.  It is based on
 the Gaussian(R) 03 system (copyright 2003, Gaussian, Inc.),
 the Gaussian(R) 98 system (copyright 1998, Gaussian, Inc.),
 the Gaussian(R) 94 system (copyright 1995, Gaussian, Inc.),
 the Gaussian 92(TM) system (copyright 1992, Gaussian, Inc.),
 the Gaussian 90(TM) system (copyright 1990, Gaussian, Inc.),
 the Gaussian 88(TM) system (copyright 1988, Gaussian, Inc.),
 the Gaussian 86(TM) system (copyright 1986, Carnegie Mellon
 University), and the Gaussian 82(TM) system (copyright 1983,
 Carnegie Mellon University). Gaussian is a federally registered
 trademark of Gaussian, Inc.
  
 This software contains proprietary and confidential information,
 including trade secrets, belonging to Gaussian, Inc.
  
 This software is provided under written license and may be
 used, copied, transmitted, or stored only in accord with that
 written license.
  
 The following legend is applicable only to US Government
 contracts under FAR:
  
                    RESTRICTED RIGHTS LEGEND
  
 Use, reproduction and disclosure by the US Government is
 subject to restrictions as set forth in subparagraphs (a)
 and (c) of the Commercial Computer Software - Restricted
 Rights clause in FAR 52.227-19.
  
 Gaussian, Inc.
 340 Quinnipiac St., Bldg. 40, Wallingford CT 06492
  
  
 ---------------------------------------------------------------
 Warning -- This program may not be used in any manner that
 competes with the business of Gaussian, Inc. or will provide
 assistance to any competitor of Gaussian, Inc.  The licensee
 of this program is prohibited from giving any competitor of
 Gaussian, Inc. access to this program.  By using this program,
 the user acknowledges that Gaussian, Inc. is engaged in the
 business of creating and licensing software in the field of
 computational chemistry and represents and warrants to the
 licensee that it is not a competitor of Gaussian, Inc. and that
 it will not use this program in any manner prohibited above.
 ---------------------------------------------------------------
  

 Cite this work as:
 Gaussian 09, Revision A.01,
 M. J. Frisch, G. W. Trucks, H. B. Schlegel, G. E. Scuseria, 
 M. A. Robb, J. R. Cheeseman, G. Scalmani, V. Barone, B. Mennucci, 
 G. A. Petersson, H. Nakatsuji, M. Caricato, X. Li, H. P. Hratchian, 
 A. F. Izmaylov, J. Bloino, G. Zheng, J. L. Sonnenberg, M. Hada, 
 M. Ehara, K. Toyota, R. Fukuda, J. Hasegawa, M. Ishida, T. Nakajima, 
 Y. Honda, O. Kitao, H. Nakai, T. Vreven, J. A. Montgomery, Jr., 
 J. E. Peralta, F. Ogliaro, M. Bearpark, J. J. Heyd, E. Brothers, 
 K. N. Kudin, V. N. Staroverov, R. Kobayashi, J. Normand, 
 K. Raghavachari, A. Rendell, J. C. Burant, S. S. Iyengar, J. Tomasi, 
 M. Cossi, N. Rega, J. M. Millam, M. Klene, J. E. Knox, J. B. Cross, 
 V. Bakken, C. Adamo, J. Jaramillo, R. Gomperts, R. E. Stratmann, 
 O. Yazyev, A. J. Austin, R. Cammi, C. Pomelli, J. W. Ochterski, 
 R. L. Martin, K. Morokuma, V. G. Zakrzewski, G. A. Voth, 
 P. Salvador, J. J. Dannenberg, S. Dapprich, A. D. Daniels, 
 O. Farkas, J. B. Foresman, J. V. Ortiz, J. Cioslowski, 
 and D. J. Fox, Gaussian, Inc., Wallingford CT, 2009.
 
 ******************************************
 Gaussian 09:  EM64L-G09RevA.01  8-May-2009
                18-Sep-2015 
 ******************************************
 %mem=3GB
 %nprocshared=2
 Will use up to    2 processors via shared memory.
 -----------------------------------------
 #p B3LYP/6-31G(d) opt=tight int=ultrafine
 -----------------------------------------
 1/7=10,14=-1,18=20,19=15,26=3,38=1/1,3;
 2/9=110,12=2,17=6,18=5,40=1/2;
 3/5=1,6=6,7=1,11=2,16=1,25=1,30=1,71=1,74=-5,75=-5/1,2,3;
 4//1;
 5/5=2,38=5/2;
 6/7=2,8=2,9=2,10=2,28=1/1;
 7//1,2,3,16;
 1/7=10,14=-1,18=20,19=15/3(2);
 2/9=110/2;
 99//99;
 2/9=110/2;
 3/5=1,6=6,7=1,11=2,16=1,25=1,30=1,71=1,74=-5,75=-5/1,2,3;
 4/5=5,16=3/1;
 5/5=2,38=5/2;
 7//1,2,3,16;
 1/7=10,14=-1,18=20,19=15/3(-5);
 2/9=110/2;
 6/7=2,8=2,9=2,10=2,19=2,28=1/1;
 99/9=1/99;
 Leave Link    1 at Fri Sep 18 13:22:01 2015, MaxMem=  402653184 cpu:       0.1
 (Enter /share/apps/g09/l101.exe)
 ---------------------------------------------
 using B3LYP/6-31G(d) to do opt and freq calc.
 ---------------------------------------------
 Symbolic Z-matrix:
 Charge =  0 Multiplicity = 1
 C                    -2.74984  -0.4734    0.0805 
 H                    -2.87643  -0.62583   1.15819 
 H                    -2.35946  -1.40875  -0.33662 
 H                    -3.74401  -0.31024  -0.34929 
 C                    -1.81979   0.70185  -0.21382 
 H                    -1.74636   0.85517  -1.3083 
 H                    -2.26552   1.63277   0.18964 
 C                    -0.41671   0.51822   0.38268 
 H                    -0.49613   0.22448   1.44682 
 H                     0.11174   1.49162   0.37937 
 C                     0.41671  -0.51822  -0.38268 
 H                     0.49613  -0.22449  -1.44681 
 H                    -0.11174  -1.49163  -0.37936 
 C                     1.81979  -0.70185   0.21383 
 H                     2.26552  -1.63277  -0.18963 
 H                     1.74637  -0.85516   1.3083 
 C                     2.74984   0.4734   -0.0805 
 H                     2.35945   1.40875   0.33659 
 H                     3.74401   0.31025   0.3493 
 H                     2.87644   0.62582  -1.1582 
 
 NAtoms=     20 NQM=     20 NQMF=      0 NMic=      0 NMicF=      0 NTot=     20.
                    Isotopes and Nuclear Properties:
 (Nuclear quadrupole moments (NQMom) in fm**2, nuclear magnetic moments (NMagM)
  in nuclear magnetons)

  Atom         1           2           3           4           5           6           7           8           9          10
 IAtWgt=          12           1           1           1          12           1           1          12           1           1
 AtmWgt=  12.0000000   1.0078250   1.0078250   1.0078250  12.0000000   1.0078250   1.0078250  12.0000000   1.0078250   1.0078250
 NucSpn=           0           1           1           1           0           1           1           0           1           1
 AtZEff=   0.0000000   0.0000000   0.0000000   0.0000000   0.0000000   0.0000000   0.0000000   0.0000000   0.0000000   0.0000000
 NQMom=    0.0000000   0.0000000   0.0000000   0.0000000   0.0000000   0.0000000   0.0000000   0.0000000   0.0000000   0.0000000
 NMagM=    0.0000000   2.7928460   2.7928460   2.7928460   0.0000000   2.7928460   2.7928460   0.0000000   2.7928460   2.7928460

  Atom        11          12          13          14          15          16          17          18          19          20
 IAtWgt=          12           1           1          12           1           1          12           1           1           1
 AtmWgt=  12.0000000   1.0078250   1.0078250  12.0000000   1.0078250   1.0078250  12.0000000   1.0078250   1.0078250   1.0078250
 NucSpn=           0           1           1           0           1           1           0           1           1           1
 AtZEff=   0.0000000   0.0000000   0.0000000   0.0000000   0.0000000   0.0000000   0.0000000   0.0000000   0.0000000   0.0000000
 NQMom=    0.0000000   0.0000000   0.0000000   0.0000000   0.0000000   0.0000000   0.0000000   0.0000000   0.0000000   0.0000000
 NMagM=    0.0000000   2.7928460   2.7928460   0.0000000   2.7928460   2.7928460   0.0000000   2.7928460   2.7928460   2.7928460
 Leave Link  101 at Fri Sep 18 13:22:01 2015, MaxMem=  402653184 cpu:       0.1
 (Enter /share/apps/g09/l103.exe)

 GradGradGradGradGradGradGradGradGradGradGradGradGradGradGradGradGradGrad
 Berny optimization.
 Initialization pass.
                           ----------------------------
                           !    Initial Parameters    !
                           ! (Angstroms and Degrees)  !
 --------------------------                            --------------------------
 ! Name  Definition              Value          Derivative Info.                !
 --------------------------------------------------------------------------------
 ! R1    R(1,2)                  1.0958         estimate D2E/DX2                !
 ! R2    R(1,3)                  1.096          estimate D2E/DX2                !
 ! R3    R(1,4)                  1.0953         estimate D2E/DX2                !
 ! R4    R(1,5)                  1.5274         estimate D2E/DX2                !
 ! R5    R(5,6)                  1.1076         estimate D2E/DX2                !
 ! R6    R(5,7)                  1.1082         estimate D2E/DX2                !
 ! R7    R(5,8)                  1.5356         estimate D2E/DX2                !
 ! R8    R(8,9)                  1.1068         estimate D2E/DX2                !
 ! R9    R(8,10)                 1.1076         estimate D2E/DX2                !
 ! R10   R(8,11)                 1.5345         estimate D2E/DX2                !
 ! R11   R(11,12)                1.1068         estimate D2E/DX2                !
 ! R12   R(11,13)                1.1076         estimate D2E/DX2                !
 ! R13   R(11,14)                1.5356         estimate D2E/DX2                !
 ! R14   R(14,15)                1.1082         estimate D2E/DX2                !
 ! R15   R(14,16)                1.1076         estimate D2E/DX2                !
 ! R16   R(14,17)                1.5274         estimate D2E/DX2                !
 ! R17   R(17,18)                1.096          estimate D2E/DX2                !
 ! R18   R(17,19)                1.0953         estimate D2E/DX2                !
 ! R19   R(17,20)                1.0958         estimate D2E/DX2                !
 ! A1    A(2,1,3)              107.2611         estimate D2E/DX2                !
 ! A2    A(2,1,4)              107.565          estimate D2E/DX2                !
 ! A3    A(2,1,5)              111.5252         estimate D2E/DX2                !
 ! A4    A(3,1,4)              107.5225         estimate D2E/DX2                !
 ! A5    A(3,1,5)              111.4961         estimate D2E/DX2                !
 ! A6    A(4,1,5)              111.2517         estimate D2E/DX2                !
 ! A7    A(1,5,6)              109.712          estimate D2E/DX2                !
 ! A8    A(1,5,7)              109.3478         estimate D2E/DX2                !
 ! A9    A(1,5,8)              112.9235         estimate D2E/DX2                !
 ! A10   A(6,5,7)              105.673          estimate D2E/DX2                !
 ! A11   A(6,5,8)              109.866          estimate D2E/DX2                !
 ! A12   A(7,5,8)              109.0584         estimate D2E/DX2                !
 ! A13   A(5,8,9)              109.8552         estimate D2E/DX2                !
 ! A14   A(5,8,10)             109.2488         estimate D2E/DX2                !
 ! A15   A(5,8,11)             112.5366         estimate D2E/DX2                !
 ! A16   A(9,8,10)             105.6853         estimate D2E/DX2                !
 ! A17   A(9,8,11)             109.8328         estimate D2E/DX2                !
 ! A18   A(10,8,11)            109.4498         estimate D2E/DX2                !
 ! A19   A(8,11,12)            109.8328         estimate D2E/DX2                !
 ! A20   A(8,11,13)            109.4498         estimate D2E/DX2                !
 ! A21   A(8,11,14)            112.5365         estimate D2E/DX2                !
 ! A22   A(12,11,13)           105.6854         estimate D2E/DX2                !
 ! A23   A(12,11,14)           109.8552         estimate D2E/DX2                !
 ! A24   A(13,11,14)           109.2487         estimate D2E/DX2                !
 ! A25   A(11,14,15)           109.0584         estimate D2E/DX2                !
 ! A26   A(11,14,16)           109.8661         estimate D2E/DX2                !
 ! A27   A(11,14,17)           112.9234         estimate D2E/DX2                !
 ! A28   A(15,14,16)           105.6731         estimate D2E/DX2                !
 ! A29   A(15,14,17)           109.3478         estimate D2E/DX2                !
 ! A30   A(16,14,17)           109.712          estimate D2E/DX2                !
 ! A31   A(14,17,18)           111.4961         estimate D2E/DX2                !
 ! A32   A(14,17,19)           111.2517         estimate D2E/DX2                !
 ! A33   A(14,17,20)           111.5252         estimate D2E/DX2                !
 ! A34   A(18,17,19)           107.5226         estimate D2E/DX2                !
 ! A35   A(18,17,20)           107.2611         estimate D2E/DX2                !
 ! A36   A(19,17,20)           107.565          estimate D2E/DX2                !
 ! D1    D(2,1,5,6)           -177.6732         estimate D2E/DX2                !
 ! D2    D(2,1,5,7)            -62.2092         estimate D2E/DX2                !
 ! D3    D(2,1,5,8)             59.4082         estimate D2E/DX2                !
 ! D4    D(3,1,5,6)             62.4489         estimate D2E/DX2                !
 ! D5    D(3,1,5,7)            177.9129         estimate D2E/DX2                !
 ! D6    D(3,1,5,8)            -60.4697         estimate D2E/DX2                !
 ! D7    D(4,1,5,6)            -57.5753         estimate D2E/DX2                !
 ! D8    D(4,1,5,7)             57.8887         estimate D2E/DX2                !
 ! D9    D(4,1,5,8)            179.5061         estimate D2E/DX2                !
 ! D10   D(1,5,8,9)            -49.2495         estimate D2E/DX2                !
 ! D11   D(1,5,8,10)          -164.7525         estimate D2E/DX2                !
 ! D12   D(1,5,8,11)            73.4607         estimate D2E/DX2                !
 ! D13   D(6,5,8,9)           -172.0823         estimate D2E/DX2                !
 ! D14   D(6,5,8,10)            72.4147         estimate D2E/DX2                !
 ! D15   D(6,5,8,11)           -49.3722         estimate D2E/DX2                !
 ! D16   D(7,5,8,9)             72.5311         estimate D2E/DX2                !
 ! D17   D(7,5,8,10)           -42.9719         estimate D2E/DX2                !
 ! D18   D(7,5,8,11)          -164.7587         estimate D2E/DX2                !
 ! D19   D(5,8,11,12)           57.277          estimate D2E/DX2                !
 ! D20   D(5,8,11,13)          -58.3277         estimate D2E/DX2                !
 ! D21   D(5,8,11,14)          179.9998         estimate D2E/DX2                !
 ! D22   D(9,8,11,12)          179.9997         estimate D2E/DX2                !
 ! D23   D(9,8,11,13)           64.3951         estimate D2E/DX2                !
 ! D24   D(9,8,11,14)          -57.2775         estimate D2E/DX2                !
 ! D25   D(10,8,11,12)         -64.3957         estimate D2E/DX2                !
 ! D26   D(10,8,11,13)         179.9996         estimate D2E/DX2                !
 ! D27   D(10,8,11,14)          58.3271         estimate D2E/DX2                !
 ! D28   D(8,11,14,15)         164.7587         estimate D2E/DX2                !
 ! D29   D(8,11,14,16)          49.3719         estimate D2E/DX2                !
 ! D30   D(8,11,14,17)         -73.4609         estimate D2E/DX2                !
 ! D31   D(12,11,14,15)        -72.5311         estimate D2E/DX2                !
 ! D32   D(12,11,14,16)        172.0822         estimate D2E/DX2                !
 ! D33   D(12,11,14,17)         49.2493         estimate D2E/DX2                !
 ! D34   D(13,11,14,15)         42.972          estimate D2E/DX2                !
 ! D35   D(13,11,14,16)        -72.4148         estimate D2E/DX2                !
 ! D36   D(13,11,14,17)        164.7524         estimate D2E/DX2                !
 ! D37   D(11,14,17,18)         60.4685         estimate D2E/DX2                !
 ! D38   D(11,14,17,19)       -179.5072         estimate D2E/DX2                !
 ! D39   D(11,14,17,20)        -59.4095         estimate D2E/DX2                !
 ! D40   D(15,14,17,18)       -177.9143         estimate D2E/DX2                !
 ! D41   D(15,14,17,19)        -57.89           estimate D2E/DX2                !
 ! D42   D(15,14,17,20)         62.2078         estimate D2E/DX2                !
 ! D43   D(16,14,17,18)        -62.4501         estimate D2E/DX2                !
 ! D44   D(16,14,17,19)         57.5742         estimate D2E/DX2                !
 ! D45   D(16,14,17,20)        177.672          estimate D2E/DX2                !
 --------------------------------------------------------------------------------
 Trust Radius=3.00D-01 FncErr=1.00D-07 GrdErr=1.00D-06
 Number of steps in this run= 110 maximum allowed number of steps= 120.
 GradGradGradGradGradGradGradGradGradGradGradGradGradGradGradGradGradGrad

 Leave Link  103 at Fri Sep 18 13:22:01 2015, MaxMem=  402653184 cpu:       0.0
 (Enter /share/apps/g09/l202.exe)
                          Input orientation:                          
 ---------------------------------------------------------------------
 Center     Atomic      Atomic             Coordinates (Angstroms)
 Number     Number       Type             X           Y           Z
 ---------------------------------------------------------------------
      1          6           0       -2.749844   -0.473397    0.080495
      2          1           0       -2.876429   -0.625833    1.158188
      3          1           0       -2.359463   -1.408746   -0.336623
      4          1           0       -3.744010   -0.310237   -0.349293
      5          6           0       -1.819788    0.701852   -0.213824
      6          1           0       -1.746360    0.855166   -1.308298
      7          1           0       -2.265521    1.632772    0.189636
      8          6           0       -0.416708    0.518218    0.382683
      9          1           0       -0.496133    0.224479    1.446819
     10          1           0        0.111739    1.491623    0.379373
     11          6           0        0.416708   -0.518221   -0.382677
     12          1           0        0.496129   -0.224485   -1.446813
     13          1           0       -0.111737   -1.491628   -0.379361
     14          6           0        1.819790   -0.701851    0.213827
     15          1           0        2.265523   -1.632772   -0.189632
     16          1           0        1.746367   -0.855159    1.308301
     17          6           0        2.749843    0.473399   -0.080502
     18          1           0        2.359451    1.408753    0.336594
     19          1           0        3.744005    0.310252    0.349300
     20          1           0        2.876441    0.625816   -1.158196
 ---------------------------------------------------------------------
                    Distance matrix (angstroms):
                    1          2          3          4          5
     1  C    0.000000
     2  H    1.095757   0.000000
     3  H    1.096021   1.764842   0.000000
     4  H    1.095310   1.767709   1.767442   0.000000
     5  C    1.527363   2.182122   2.181961   2.178372   0.000000
     6  H    2.168134   3.090949   2.538768   2.503689   1.107597
     7  H    2.163892   2.532311   3.088139   2.500332   1.108183
     8  C    2.553065   2.821434   2.829291   3.506147   1.535635
     9  H    2.726369   2.544042   3.052882   3.749753   2.176622
    10  H    3.484148   3.744238   3.877065   4.317922   2.169428
    11  C    3.200561   3.637389   2.915867   4.166047   2.553234
    12  H    3.595965   4.280334   3.284722   4.380717   2.782415
    13  H    2.864938   3.279814   2.249660   3.819685   2.784995
    14  C    4.577283   4.790832   4.274208   5.605920   3.924257
    15  H    5.154709   5.410195   4.632741   6.155410   4.705403
    16  H    4.676448   4.630914   4.457586   5.760972   4.178350
    17  C    5.582911   5.864947   5.450970   6.546485   4.577280
    18  H    5.450961   5.677059   5.537118   6.377900   4.274191
    19  H    6.546483   6.735035   6.377912   7.546086   5.605912
    20  H    5.864956   6.326751   5.677069   6.735049   4.790844
                    6          7          8          9         10
     6  H    0.000000
     7  H    1.765788   0.000000
     8  C    2.177367   2.167396   0.000000
     9  H    3.090551   2.587379   1.106787   0.000000
    10  H    2.589564   2.388993   1.107603   1.764824   0.000000
    11  C    2.724303   3.485494   1.534459   2.175302   2.170990
    12  H    2.492707   3.708649   2.175301   3.091805   2.535298
    13  H    3.007051   3.837241   2.170990   2.535294   3.086326
    14  C    4.178348   4.705403   2.553234   2.782419   2.784990
    15  H    4.851438   5.598034   3.485494   3.708652   3.837238
    16  H    4.687317   4.851439   2.724303   2.492712   3.007042
    17  C    4.676438   5.154706   3.200562   3.595974   2.864936
    18  H    4.457557   4.632726   2.915859   3.284732   2.249646
    19  H    5.760961   6.155400   4.166041   4.380716   3.819673
    20  H    4.630920   5.410211   3.637405   4.280354   3.279835
                   11         12         13         14         15
    11  C    0.000000
    12  H    1.106785   0.000000
    13  H    1.107604   1.764825   0.000000
    14  C    1.535635   2.176622   2.169428   0.000000
    15  H    2.167396   2.587379   2.388992   1.108184   0.000000
    16  H    2.177367   3.090550   2.589565   1.107595   1.765788
    17  C    2.553065   2.726367   3.484148   1.527364   2.163893
    18  H    2.829281   3.052864   3.877057   2.181961   3.088140
    19  H    3.506146   3.749755   4.317924   2.178373   2.500340
    20  H    2.821442   2.544051   3.744244   2.182122   2.532303
                   16         17         18         19         20
    16  H    0.000000
    17  C    2.168134   0.000000
    18  H    2.538776   1.096021   0.000000
    19  H    2.503682   1.095310   1.767443   0.000000
    20  H    3.090948   1.095757   1.764842   1.767708   0.000000
 Stoichiometry    C6H14
 Framework group  C1[X(C6H14)]
 Deg. of freedom    54
 Full point group                 C1      NOp   1
 Largest Abelian subgroup         C1      NOp   1
 Largest concise Abelian subgroup C1      NOp   1
                         Standard orientation:                         
 ---------------------------------------------------------------------
 Center     Atomic      Atomic             Coordinates (Angstroms)
 Number     Number       Type             X           Y           Z
 ---------------------------------------------------------------------
      1          6           0       -2.749844   -0.473397    0.080495
      2          1           0       -2.876429   -0.625833    1.158188
      3          1           0       -2.359463   -1.408746   -0.336623
      4          1           0       -3.744010   -0.310237   -0.349293
      5          6           0       -1.819788    0.701852   -0.213824
      6          1           0       -1.746360    0.855166   -1.308298
      7          1           0       -2.265521    1.632772    0.189636
      8          6           0       -0.416708    0.518218    0.382683
      9          1           0       -0.496133    0.224479    1.446819
     10          1           0        0.111739    1.491623    0.379373
     11          6           0        0.416708   -0.518221   -0.382677
     12          1           0        0.496129   -0.224485   -1.446813
     13          1           0       -0.111737   -1.491628   -0.379361
     14          6           0        1.819790   -0.701851    0.213827
     15          1           0        2.265523   -1.632772   -0.189632
     16          1           0        1.746367   -0.855159    1.308301
     17          6           0        2.749843    0.473399   -0.080502
     18          1           0        2.359451    1.408753    0.336594
     19          1           0        3.744005    0.310252    0.349300
     20          1           0        2.876441    0.625816   -1.158196
 ---------------------------------------------------------------------
 Rotational constants (GHZ):      9.0207895      1.4264658      1.3357184
 Leave Link  202 at Fri Sep 18 13:22:01 2015, MaxMem=  402653184 cpu:       0.0
 (Enter /share/apps/g09/l301.exe)
 Standard basis: 6-31G(d) (6D, 7F)
 Ernie: Thresh=  0.10000D-02 Tol=  0.10000D-05 Strict=F.
 There are   118 symmetry adapted basis functions of A   symmetry.
 Integral buffers will be    131072 words long.
 Raffenetti 2 integral format.
 Two-electron integral symmetry is turned on.
   118 basis functions,   224 primitive gaussians,   118 cartesian basis functions
    25 alpha electrons       25 beta electrons
       nuclear repulsion energy       249.4115644288 Hartrees.
 IExCor=  402 DFT=T Ex+Corr=B3LYP ExCW=0 ScaHFX=  0.200000
 ScaDFX=  0.800000  0.720000  1.000000  0.810000 ScalE2=  1.000000  1.000000
 IRadAn=      5 IRanWt=     -1 IRanGd=            0 ICorTp=0
 NAtoms=   20 NActive=   20 NUniq=   20 SFac= 7.50D-01 NAtFMM=   80 NAOKFM=F Big=F
 Leave Link  301 at Fri Sep 18 13:22:01 2015, MaxMem=  402653184 cpu:       0.1
 (Enter /share/apps/g09/l302.exe)
 NPDir=0 NMtPBC=     1 NCelOv=     1 NCel=       1 NClECP=     1 NCelD=      1
         NCelK=      1 NCelE2=     1 NClLst=     1 CellRange=     0.0.
 One-electron integrals computed using PRISM.
 NBasis=   118 RedAO= T  NBF=   118
 NBsUse=   118 1.00D-06 NBFU=   118
 Precomputing XC quadrature grid using
 IXCGrd= 2 IRadAn=           5 IRanWt=          -1 IRanGd=           0 AccXCQ= 1.00D-10.
 NRdTot=    1652 NPtTot=      442444 NUsed=      454281 NTot=      454313
 NSgBfM=   118   118   118   118   118 NAtAll=    20    20.
 Leave Link  302 at Fri Sep 18 13:22:02 2015, MaxMem=  402653184 cpu:       1.2
 (Enter /share/apps/g09/l303.exe)
 DipDrv:  MaxL=1.
 Leave Link  303 at Fri Sep 18 13:22:02 2015, MaxMem=  402653184 cpu:       0.1
 (Enter /share/apps/g09/l401.exe)
 Harris functional with IExCor=  402 diagonalized for initial guess.
 ExpMin= 1.61D-01 ExpMax= 3.05D+03 ExpMxC= 4.57D+02 IAcc=3 IRadAn=         5 AccDes= 0.00D+00
 HarFok:  IExCor=  402 AccDes= 0.00D+00 IRadAn=         5 IDoV= 1
 ScaDFX=  1.000000  1.000000  1.000000  1.000000
 FoFCou: FMM=F IPFlag=           0 FMFlag=      100000 FMFlg1=           0
         NFxFlg=           0 DoJE=T BraDBF=F KetDBF=T FulRan=T
         Omega=  0.000000  0.000000  1.000000  0.000000  0.000000 ICntrl=     500 IOpCl=  0
         NMat0=    1 NMatS0=    1 NMatT0=    0 NMatD0=    1 NMtDS0=    0 NMtDT0=    0
         I1Cent=           4 NGrid=           0.
 Petite list used in FoFCou.
 Harris En= -237.177345500334    
 Initial guess orbital symmetries:
       Occupied  (A) (A) (A) (A) (A) (A) (A) (A) (A) (A) (A) (A)
                 (A) (A) (A) (A) (A) (A) (A) (A) (A) (A) (A) (A)
                 (A)
       Virtual   (A) (A) (A) (A) (A) (A) (A) (A) (A) (A) (A) (A)
                 (A) (A) (A) (A) (A) (A) (A) (A) (A) (A) (A) (A)
                 (A) (A) (A) (A) (A) (A) (A) (A) (A) (A) (A) (A)
                 (A) (A) (A) (A) (A) (A) (A) (A) (A) (A) (A) (A)
                 (A) (A) (A) (A) (A) (A) (A) (A) (A) (A) (A) (A)
                 (A) (A) (A) (A) (A) (A) (A) (A) (A) (A) (A) (A)
                 (A) (A) (A) (A) (A) (A) (A) (A) (A) (A) (A) (A)
                 (A) (A) (A) (A) (A) (A) (A) (A) (A)
 The electronic state of the initial guess is 1-A.
 Leave Link  401 at Fri Sep 18 13:22:07 2015, MaxMem=  402653184 cpu:       9.9
 (Enter /share/apps/g09/l502.exe)
 Closed shell SCF:
 Requested convergence on RMS density matrix=1.00D-08 within 128 cycles.
 Requested convergence on MAX density matrix=1.00D-06.
 Requested convergence on             energy=1.00D-06.
 No special actions if energy rises.
 Using DIIS extrapolation, IDIIS=  1040.
 Integral symmetry usage will be decided dynamically.
       454088 words used for storage of precomputed grid.
 Keep R1 ints in memory in canonical form, NReq=26108143.
 IEnd=      515632 IEndB=      515632 NGot=   402653184 MDV=   377517476
 LenX=   377517476 LenY=   377503111
 Symmetry not used in FoFDir.
 MinBra= 0 MaxBra= 2 Meth= 1.
 IRaf=       0 NMat=   1 IRICut=       1 DoRegI=T DoRafI=F ISym2E= 0 JSym2E=0.
 Integral accuracy reduced to 1.0D-05 until final iterations.

 Cycle   1  Pass 0  IDiag  1:
 E= -236.791141333567    
 DIIS: error= 4.59D-02 at cycle   1 NSaved=   1.
 NSaved= 1 IEnMin= 1 EnMin= -236.791141333567     IErMin= 1 ErrMin= 4.59D-02
 ErrMax= 4.59D-02 EMaxC= 1.00D-01 BMatC= 2.55D-01 BMatP= 2.55D-01
 IDIUse=3 WtCom= 5.41D-01 WtEn= 4.59D-01
 Coeff-Com:  0.100D+01
 Coeff-En:   0.100D+01
 Coeff:      0.100D+01
 Gap=     0.328 Goal=   None    Shift=    0.000
 GapD=    0.328 DampG=1.000 DampE=0.500 DampFc=0.5000 IDamp=-1.
 Damping current iteration by 5.00D-01
 RMSDP=1.01D-02 MaxDP=1.47D-01              OVMax= 1.91D-01

 Cycle   2  Pass 0  IDiag  1:
 E= -236.917329655335     Delta-E=       -0.126188321768 Rises=F Damp=T
 DIIS: error= 7.77D-03 at cycle   2 NSaved=   2.
 NSaved= 2 IEnMin= 2 EnMin= -236.917329655335     IErMin= 2 ErrMin= 7.77D-03
 ErrMax= 7.77D-03 EMaxC= 1.00D-01 BMatC= 1.05D-02 BMatP= 2.55D-01
 IDIUse=3 WtCom= 9.22D-01 WtEn= 7.77D-02
 Coeff-Com:  0.923D-01 0.908D+00
 Coeff-En:   0.150D+00 0.850D+00
 Coeff:      0.968D-01 0.903D+00
 Gap=     0.401 Goal=   None    Shift=    0.000
 RMSDP=1.51D-03 MaxDP=2.41D-02 DE=-1.26D-01 OVMax= 1.02D-01

 Cycle   3  Pass 0  IDiag  1:
 E= -237.080577367322     Delta-E=       -0.163247711987 Rises=F Damp=F
 DIIS: error= 2.41D-03 at cycle   3 NSaved=   3.
 NSaved= 3 IEnMin= 3 EnMin= -237.080577367322     IErMin= 3 ErrMin= 2.41D-03
 ErrMax= 2.41D-03 EMaxC= 1.00D-01 BMatC= 7.69D-04 BMatP= 1.05D-02
 IDIUse=3 WtCom= 9.76D-01 WtEn= 2.41D-02
 Coeff-Com:  0.665D-02 0.163D+00 0.831D+00
 Coeff-En:   0.000D+00 0.000D+00 0.100D+01
 Coeff:      0.649D-02 0.159D+00 0.835D+00
 Gap=     0.388 Goal=   None    Shift=    0.000
 RMSDP=3.94D-04 MaxDP=5.60D-03 DE=-1.63D-01 OVMax= 7.66D-03

 Cycle   4  Pass 0  IDiag  1:
 E= -237.081128429166     Delta-E=       -0.000551061844 Rises=F Damp=F
 DIIS: error= 1.07D-03 at cycle   4 NSaved=   4.
 NSaved= 4 IEnMin= 4 EnMin= -237.081128429166     IErMin= 4 ErrMin= 1.07D-03
 ErrMax= 1.07D-03 EMaxC= 1.00D-01 BMatC= 2.13D-04 BMatP= 7.69D-04
 IDIUse=3 WtCom= 9.89D-01 WtEn= 1.07D-02
 Coeff-Com:  0.283D-03 0.242D-01 0.348D+00 0.627D+00
 Coeff-En:   0.000D+00 0.000D+00 0.135D+00 0.865D+00
 Coeff:      0.280D-03 0.240D-01 0.346D+00 0.630D+00
 Gap=     0.390 Goal=   None    Shift=    0.000
 RMSDP=1.57D-04 MaxDP=2.18D-03 DE=-5.51D-04 OVMax= 3.26D-03

 Cycle   5  Pass 0  IDiag  1:
 E= -237.081320596739     Delta-E=       -0.000192167573 Rises=F Damp=F
 DIIS: error= 3.35D-04 at cycle   5 NSaved=   5.
 NSaved= 5 IEnMin= 5 EnMin= -237.081320596739     IErMin= 5 ErrMin= 3.35D-04
 ErrMax= 3.35D-04 EMaxC= 1.00D-01 BMatC= 2.36D-05 BMatP= 2.13D-04
 IDIUse=3 WtCom= 9.97D-01 WtEn= 3.35D-03
 Coeff-Com:  0.593D-04-0.140D-02 0.103D+00 0.310D+00 0.589D+00
 Coeff-En:   0.000D+00 0.000D+00 0.000D+00 0.000D+00 0.100D+01
 Coeff:      0.591D-04-0.140D-02 0.103D+00 0.309D+00 0.590D+00
 Gap=     0.389 Goal=   None    Shift=    0.000
 RMSDP=3.81D-05 MaxDP=6.26D-04 DE=-1.92D-04 OVMax= 8.06D-04

 Cycle   6  Pass 0  IDiag  1:
 E= -237.081343830809     Delta-E=       -0.000023234070 Rises=F Damp=F
 DIIS: error= 1.96D-05 at cycle   6 NSaved=   6.
 NSaved= 6 IEnMin= 6 EnMin= -237.081343830809     IErMin= 6 ErrMin= 1.96D-05
 ErrMax= 1.96D-05 EMaxC= 1.00D-01 BMatC= 1.03D-07 BMatP= 2.36D-05
 IDIUse=1 WtCom= 1.00D+00 WtEn= 0.00D+00
 Coeff-Com:  0.121D-03-0.902D-03 0.203D-01 0.681D-01 0.154D+00 0.759D+00
 Coeff:      0.121D-03-0.902D-03 0.203D-01 0.681D-01 0.154D+00 0.759D+00
 Gap=     0.389 Goal=   None    Shift=    0.000
 RMSDP=3.37D-06 MaxDP=5.31D-05 DE=-2.32D-05 OVMax= 7.82D-05

 Initial convergence to 1.0D-05 achieved.  Increase integral accuracy.
 Cycle   7  Pass 1  IDiag  1:
 E= -237.081322559014     Delta-E=        0.000021271795 Rises=F Damp=F
 DIIS: error= 9.30D-06 at cycle   1 NSaved=   1.
 NSaved= 1 IEnMin= 1 EnMin= -237.081322559014     IErMin= 1 ErrMin= 9.30D-06
 ErrMax= 9.30D-06 EMaxC= 1.00D-01 BMatC= 1.73D-08 BMatP= 1.73D-08
 IDIUse=1 WtCom= 1.00D+00 WtEn= 0.00D+00
 Coeff-Com:  0.100D+01
 Coeff:      0.100D+01
 Gap=     0.389 Goal=   None    Shift=    0.000
 RMSDP=3.37D-06 MaxDP=5.31D-05 DE= 2.13D-05 OVMax= 4.48D-05

 Cycle   8  Pass 1  IDiag  1:
 E= -237.081322558778     Delta-E=        0.000000000236 Rises=F Damp=F
 DIIS: error= 1.11D-05 at cycle   2 NSaved=   2.
 NSaved= 2 IEnMin= 1 EnMin= -237.081322559014     IErMin= 1 ErrMin= 9.30D-06
 ErrMax= 1.11D-05 EMaxC= 1.00D-01 BMatC= 2.03D-08 BMatP= 1.73D-08
 IDIUse=1 WtCom= 1.00D+00 WtEn= 0.00D+00
 Coeff-Com:  0.521D+00 0.479D+00
 Coeff:      0.521D+00 0.479D+00
 Gap=     0.389 Goal=   None    Shift=    0.000
 RMSDP=1.02D-06 MaxDP=2.50D-05 DE= 2.36D-10 OVMax= 2.44D-05

 Cycle   9  Pass 1  IDiag  1:
 E= -237.081322577905     Delta-E=       -0.000000019127 Rises=F Damp=F
 DIIS: error= 7.60D-07 at cycle   3 NSaved=   3.
 NSaved= 3 IEnMin= 3 EnMin= -237.081322577905     IErMin= 3 ErrMin= 7.60D-07
 ErrMax= 7.60D-07 EMaxC= 1.00D-01 BMatC= 9.39D-11 BMatP= 1.73D-08
 IDIUse=1 WtCom= 1.00D+00 WtEn= 0.00D+00
 Coeff-Com:  0.697D-02 0.593D-01 0.934D+00
 Coeff:      0.697D-02 0.593D-01 0.934D+00
 Gap=     0.389 Goal=   None    Shift=    0.000
 RMSDP=1.29D-07 MaxDP=2.05D-06 DE=-1.91D-08 OVMax= 2.30D-06

 Cycle  10  Pass 1  IDiag  1:
 E= -237.081322577995     Delta-E=       -0.000000000090 Rises=F Damp=F
 DIIS: error= 2.27D-07 at cycle   4 NSaved=   4.
 NSaved= 4 IEnMin= 4 EnMin= -237.081322577995     IErMin= 4 ErrMin= 2.27D-07
 ErrMax= 2.27D-07 EMaxC= 1.00D-01 BMatC= 1.01D-11 BMatP= 9.39D-11
 IDIUse=1 WtCom= 1.00D+00 WtEn= 0.00D+00
 Coeff-Com: -0.102D-01 0.974D-02 0.350D+00 0.650D+00
 Coeff:     -0.102D-01 0.974D-02 0.350D+00 0.650D+00
 Gap=     0.389 Goal=   None    Shift=    0.000
 RMSDP=3.64D-08 MaxDP=4.11D-07 DE=-9.02D-11 OVMax= 7.37D-07

 Cycle  11  Pass 1  IDiag  1:
 E= -237.081322578003     Delta-E=       -0.000000000008 Rises=F Damp=F
 DIIS: error= 7.76D-08 at cycle   5 NSaved=   5.
 NSaved= 5 IEnMin= 5 EnMin= -237.081322578003     IErMin= 5 ErrMin= 7.76D-08
 ErrMax= 7.76D-08 EMaxC= 1.00D-01 BMatC= 9.83D-13 BMatP= 1.01D-11
 IDIUse=1 WtCom= 1.00D+00 WtEn= 0.00D+00
 Coeff-Com: -0.545D-02 0.262D-02 0.143D+00 0.331D+00 0.529D+00
 Coeff:     -0.545D-02 0.262D-02 0.143D+00 0.331D+00 0.529D+00
 Gap=     0.389 Goal=   None    Shift=    0.000
 RMSDP=8.87D-09 MaxDP=1.27D-07 DE=-7.50D-12 OVMax= 1.93D-07

 SCF Done:  E(RB3LYP) =  -237.081322578     A.U. after   11 cycles
             Convg  =    0.8869D-08             -V/T =  2.0106
 KE= 2.345857526149D+02 PE=-1.045723303722D+03 EE= 3.246446641007D+02
 Leave Link  502 at Fri Sep 18 13:22:52 2015, MaxMem=  402653184 cpu:      89.5
 (Enter /share/apps/g09/l601.exe)
 Copying SCF densities to generalized density rwf, IOpCl= 0 IROHF=0.

 **********************************************************************

            Population analysis using the SCF density.

 **********************************************************************

 Orbital symmetries:
       Occupied  (A) (A) (A) (A) (A) (A) (A) (A) (A) (A) (A) (A)
                 (A) (A) (A) (A) (A) (A) (A) (A) (A) (A) (A) (A)
                 (A)
       Virtual   (A) (A) (A) (A) (A) (A) (A) (A) (A) (A) (A) (A)
                 (A) (A) (A) (A) (A) (A) (A) (A) (A) (A) (A) (A)
                 (A) (A) (A) (A) (A) (A) (A) (A) (A) (A) (A) (A)
                 (A) (A) (A) (A) (A) (A) (A) (A) (A) (A) (A) (A)
                 (A) (A) (A) (A) (A) (A) (A) (A) (A) (A) (A) (A)
                 (A) (A) (A) (A) (A) (A) (A) (A) (A) (A) (A) (A)
                 (A) (A) (A) (A) (A) (A) (A) (A) (A) (A) (A) (A)
                 (A) (A) (A) (A) (A) (A) (A) (A) (A)
 The electronic state is 1-A.
 Alpha  occ. eigenvalues --  -10.17710 -10.17709 -10.17475 -10.17454 -10.16870
 Alpha  occ. eigenvalues --  -10.16870  -0.80036  -0.75964  -0.69736  -0.64267
 Alpha  occ. eigenvalues --   -0.58288  -0.55686  -0.45965  -0.44486  -0.43846
 Alpha  occ. eigenvalues --   -0.40925  -0.40341  -0.38382  -0.36130  -0.34869
 Alpha  occ. eigenvalues --   -0.34097  -0.32922  -0.32057  -0.30886  -0.29860
 Alpha virt. eigenvalues --    0.09057   0.11028   0.11379   0.12249   0.15143
 Alpha virt. eigenvalues --    0.15697   0.16566   0.17202   0.18048   0.18124
 Alpha virt. eigenvalues --    0.18651   0.19086   0.22376   0.22929   0.24922
 Alpha virt. eigenvalues --    0.25947   0.26375   0.28508   0.28906   0.50420
 Alpha virt. eigenvalues --    0.51489   0.52741   0.53460   0.54432   0.55224
 Alpha virt. eigenvalues --    0.57603   0.61430   0.66617   0.66862   0.68077
 Alpha virt. eigenvalues --    0.69726   0.71138   0.73902   0.78621   0.83428
 Alpha virt. eigenvalues --    0.83767   0.86505   0.87588   0.88790   0.88849
 Alpha virt. eigenvalues --    0.90574   0.91040   0.92883   0.94034   0.96160
 Alpha virt. eigenvalues --    0.96906   0.98153   0.99649   1.01671   1.01820
 Alpha virt. eigenvalues --    1.05325   1.11667   1.19946   1.36777   1.43054
 Alpha virt. eigenvalues --    1.43823   1.55442   1.58797   1.62500   1.65999
 Alpha virt. eigenvalues --    1.71391   1.75986   1.81687   1.82331   1.90885
 Alpha virt. eigenvalues --    1.92436   1.95746   1.97457   1.98876   2.02155
 Alpha virt. eigenvalues --    2.02277   2.11500   2.16562   2.18889   2.25093
 Alpha virt. eigenvalues --    2.29264   2.30944   2.33145   2.36977   2.41269
 Alpha virt. eigenvalues --    2.42135   2.44468   2.57652   2.63148   2.63439
 Alpha virt. eigenvalues --    2.69833   2.80046   4.11334   4.19163   4.28936
 Alpha virt. eigenvalues --    4.42032   4.45988   4.55326
          Condensed to atoms (all electrons):
              1          2          3          4          5          6
     1  C    5.066975   0.377643   0.378288   0.372628   0.379315  -0.040095
     2  H    0.377643   0.579359  -0.033460  -0.031258  -0.035060   0.005267
     3  H    0.378288  -0.033460   0.574615  -0.030721  -0.036808  -0.004385
     4  H    0.372628  -0.031258  -0.030721   0.578967  -0.029089  -0.002714
     5  C    0.379315  -0.035060  -0.036808  -0.029089   4.962094   0.375765
     6  H   -0.040095   0.005267  -0.004385  -0.002714   0.375765   0.613721
     7  H   -0.039217  -0.004490   0.005309  -0.003101   0.371731  -0.038698
     8  C   -0.047036  -0.004863  -0.004761   0.004536   0.376478  -0.039632
     9  H   -0.007380   0.005715  -0.000057   0.000048  -0.039203   0.005577
    10  H    0.004932   0.000045   0.000003  -0.000169  -0.033347  -0.001351
    11  C   -0.005329  -0.000287   0.002280   0.000104  -0.041425  -0.007857
    12  H   -0.000269   0.000039   0.000244  -0.000019  -0.003868   0.006067
    13  H    0.002048   0.000237   0.004016  -0.000133  -0.003952  -0.000151
    14  C    0.000089  -0.000013  -0.000164   0.000001   0.004113   0.000139
    15  H    0.000001   0.000000   0.000008   0.000000  -0.000165   0.000000
    16  H   -0.000013  -0.000001   0.000012   0.000000   0.000139   0.000012
    17  C   -0.000005   0.000000   0.000001   0.000000   0.000089  -0.000013
    18  H    0.000001   0.000000   0.000000   0.000000  -0.000164   0.000012
    19  H    0.000000   0.000000   0.000000   0.000000   0.000001   0.000000
    20  H    0.000000   0.000000   0.000000   0.000000  -0.000013  -0.000001
              7          8          9         10         11         12
     1  C   -0.039217  -0.047036  -0.007380   0.004932  -0.005329  -0.000269
     2  H   -0.004490  -0.004863   0.005715   0.000045  -0.000287   0.000039
     3  H    0.005309  -0.004761  -0.000057   0.000003   0.002280   0.000244
     4  H   -0.003101   0.004536   0.000048  -0.000169   0.000104  -0.000019
     5  C    0.371731   0.376478  -0.039203  -0.033347  -0.041425  -0.003868
     6  H   -0.038698  -0.039632   0.005577  -0.001351  -0.007857   0.006067
     7  H    0.617876  -0.034468  -0.001243  -0.004881   0.004743   0.000043
     8  C   -0.034468   4.997103   0.371404   0.371079   0.387922  -0.040923
     9  H   -0.001243   0.371404   0.617115  -0.039512  -0.040922   0.005732
    10  H   -0.004881   0.371079  -0.039512   0.612441  -0.041067  -0.005075
    11  C    0.004743   0.387922  -0.040922  -0.041067   4.997103   0.371404
    12  H    0.000043  -0.040923   0.005732  -0.005075   0.371404   0.617114
    13  H   -0.000006  -0.041067  -0.005075   0.005724   0.371079  -0.039512
    14  C   -0.000165  -0.041425  -0.003868  -0.003952   0.376478  -0.039203
    15  H    0.000003   0.004743   0.000043  -0.000006  -0.034468  -0.001243
    16  H    0.000000  -0.007857   0.006066  -0.000151  -0.039632   0.005577
    17  C    0.000001  -0.005330  -0.000269   0.002048  -0.047036  -0.007380
    18  H    0.000008   0.002280   0.000244   0.004016  -0.004761  -0.000057
    19  H    0.000000   0.000104  -0.000019  -0.000133   0.004536   0.000048
    20  H    0.000000  -0.000287   0.000039   0.000237  -0.004863   0.005715
             13         14         15         16         17         18
     1  C    0.002048   0.000089   0.000001  -0.000013  -0.000005   0.000001
     2  H    0.000237  -0.000013   0.000000  -0.000001   0.000000   0.000000
     3  H    0.004016  -0.000164   0.000008   0.000012   0.000001   0.000000
     4  H   -0.000133   0.000001   0.000000   0.000000   0.000000   0.000000
     5  C   -0.003952   0.004113  -0.000165   0.000139   0.000089  -0.000164
     6  H   -0.000151   0.000139   0.000000   0.000012  -0.000013   0.000012
     7  H   -0.000006  -0.000165   0.000003   0.000000   0.000001   0.000008
     8  C   -0.041067  -0.041425   0.004743  -0.007857  -0.005330   0.002280
     9  H   -0.005075  -0.003868   0.000043   0.006066  -0.000269   0.000244
    10  H    0.005724  -0.003952  -0.000006  -0.000151   0.002048   0.004016
    11  C    0.371079   0.376478  -0.034468  -0.039632  -0.047036  -0.004761
    12  H   -0.039512  -0.039203  -0.001243   0.005577  -0.007380  -0.000057
    13  H    0.612442  -0.033347  -0.004881  -0.001351   0.004932   0.000003
    14  C   -0.033347   4.962094   0.371731   0.375766   0.379315  -0.036808
    15  H   -0.004881   0.371731   0.617876  -0.038698  -0.039217   0.005309
    16  H   -0.001351   0.375766  -0.038698   0.613720  -0.040096  -0.004385
    17  C    0.004932   0.379315  -0.039217  -0.040096   5.066975   0.378288
    18  H    0.000003  -0.036808   0.005309  -0.004385   0.378288   0.574615
    19  H   -0.000169  -0.029089  -0.003101  -0.002714   0.372628  -0.030721
    20  H    0.000045  -0.035060  -0.004490   0.005267   0.377643  -0.033460
             19         20
     1  C    0.000000   0.000000
     2  H    0.000000   0.000000
     3  H    0.000000   0.000000
     4  H    0.000000   0.000000
     5  C    0.000001  -0.000013
     6  H    0.000000  -0.000001
     7  H    0.000000   0.000000
     8  C    0.000104  -0.000287
     9  H   -0.000019   0.000039
    10  H   -0.000133   0.000237
    11  C    0.004536  -0.004863
    12  H    0.000048   0.005715
    13  H   -0.000169   0.000045
    14  C   -0.029089  -0.035060
    15  H   -0.003101  -0.004490
    16  H   -0.002714   0.005267
    17  C    0.372628   0.377643
    18  H   -0.030721  -0.033460
    19  H    0.578967  -0.031258
    20  H   -0.031258   0.579359
 Mulliken atomic charges:
              1
     1  C   -0.442574
     2  H    0.141127
     3  H    0.145580
     4  H    0.140920
     5  C   -0.246630
     6  H    0.128338
     7  H    0.126555
     8  C   -0.248000
     9  H    0.125566
    10  H    0.129119
    11  C   -0.248000
    12  H    0.125566
    13  H    0.129119
    14  C   -0.246630
    15  H    0.126555
    16  H    0.128338
    17  C   -0.442575
    18  H    0.145580
    19  H    0.140920
    20  H    0.141127
 Sum of Mulliken atomic charges =   0.00000
 Mulliken charges with hydrogens summed into heavy atoms:
              1
     1  C   -0.014947
     5  C    0.008262
     8  C    0.006684
    11  C    0.006685
    14  C    0.008263
    17  C   -0.014947
 Sum of Mulliken charges with hydrogens summed into heavy atoms =   0.00000
 Electronic spatial extent (au):  <R**2>=            974.1243
 Charge=              0.0000 electrons
 Dipole moment (field-independent basis, Debye):
    X=              0.0000    Y=              0.0000    Z=              0.0000  Tot=              0.0000
 Quadrupole moment (field-independent basis, Debye-Ang):
   XX=            -42.1175   YY=            -41.6128   ZZ=            -41.1559
   XY=             -0.2562   XZ=             -0.0272   YZ=              0.0452
 Traceless Quadrupole moment (field-independent basis, Debye-Ang):
   XX=             -0.4888   YY=              0.0159   ZZ=              0.4729
   XY=             -0.2562   XZ=             -0.0272   YZ=              0.0452
 Octapole moment (field-independent basis, Debye-Ang**2):
  XXX=              0.0000  YYY=              0.0000  ZZZ=              0.0000  XYY=              0.0000
  XXY=              0.0000  XXZ=              0.0000  XZZ=              0.0000  YZZ=              0.0000
  YYZ=              0.0000  XYZ=              0.0000
 Hexadecapole moment (field-independent basis, Debye-Ang**3):
 XXXX=          -1063.7224 YYYY=           -177.8836 ZZZZ=           -103.5016 XXXY=             -7.7697
 XXXZ=              5.1701 YYYX=             -1.1519 YYYZ=              2.4375 ZZZX=             -2.1897
 ZZZY=             -2.0452 XXYY=           -211.1321 XXZZ=           -193.4961 YYZZ=            -48.7980
 XXYZ=              0.6776 YYXZ=             -0.3476 ZZXY=              0.2002
 N-N= 2.494115644288D+02 E-N=-1.045723298111D+03  KE= 2.345857526149D+02
 No NMR shielding tensors so no spin-rotation constants.
 Leave Link  601 at Fri Sep 18 13:22:52 2015, MaxMem=  402653184 cpu:       0.3
 (Enter /share/apps/g09/l701.exe)
 Compute integral first derivatives.
 ... and contract with generalized density number  0.
 Leave Link  701 at Fri Sep 18 13:22:52 2015, MaxMem=  402653184 cpu:       0.3
 (Enter /share/apps/g09/l702.exe)
 L702 exits ... SP integral derivatives will be done elsewhere.
 Leave Link  702 at Fri Sep 18 13:22:52 2015, MaxMem=  402653184 cpu:       0.0
 (Enter /share/apps/g09/l703.exe)
 Compute integral first derivatives, UseDBF=F ICtDFT=           0.
 Integral derivatives from FoFDir, PRISM(SPDF).
 Calling FoFJK, ICntrl=      2127 FMM=F ISym2X=0 I1Cent= 0 IOpClX= 0 NMat=1 NMatS=1 NMatT=0.
 FoFCou: FMM=F IPFlag=           0 FMFlag=      100000 FMFlg1=         800
         NFxFlg=           0 DoJE=F BraDBF=F KetDBF=F FulRan=T
         Omega=  0.000000  0.000000  1.000000  0.000000  0.000000 ICntrl=    2127 IOpCl=  0
         NMat0=    1 NMatS0=    1 NMatT0=    0 NMatD0=    1 NMtDS0=    0 NMtDT0=    0
         I1Cent=           0 NGrid=           0.
 Symmetry not used in FoFCou.
 Leave Link  703 at Fri Sep 18 13:23:04 2015, MaxMem=  402653184 cpu:      23.6
 (Enter /share/apps/g09/l716.exe)
 Dipole        =-1.13768699D-07-8.77145807D-08-2.38377163D-07
 ***** Axes restored to original set *****
 -------------------------------------------------------------------
 Center     Atomic                   Forces (Hartrees/Bohr)
 Number     Number              X              Y              Z
 -------------------------------------------------------------------
      1        6          -0.002992905   -0.002061577   -0.002053126
      2        1           0.000304518    0.000750922    0.001052497
      3        1          -0.000806817   -0.000134399   -0.000255542
      4        1          -0.000697076   -0.000358392   -0.000291047
      5        6          -0.002732528    0.008683438    0.001555848
      6        1           0.000630078   -0.000820215    0.005261972
      7        1           0.001367758   -0.005346223   -0.001840447
      8        6           0.001609348    0.005943895   -0.002868926
      9        1          -0.000238004    0.000270815   -0.004458010
     10        1          -0.002995306   -0.005141419   -0.000711027
     11        6          -0.001609628   -0.005944638    0.002869875
     12        1           0.000238084   -0.000270713    0.004457418
     13        1           0.002995414    0.005141890    0.000710798
     14        6           0.002732950   -0.008682937   -0.001556931
     15        1          -0.001367806    0.005346430    0.001840759
     16        1          -0.000630267    0.000820030   -0.005261387
     17        6           0.002992871    0.002061054    0.002053024
     18        1           0.000806906    0.000134463    0.000255687
     19        1           0.000697097    0.000358456    0.000291164
     20        1          -0.000304686   -0.000750881   -0.001052600
 -------------------------------------------------------------------
 Cartesian Forces:  Max     0.008683438 RMS     0.003003209
 Leave Link  716 at Fri Sep 18 13:23:04 2015, MaxMem=  402653184 cpu:       0.0
 (Enter /share/apps/g09/l103.exe)

 GradGradGradGradGradGradGradGradGradGradGradGradGradGradGradGradGradGrad
 Berny optimization.
 Internal  Forces:  Max     0.007827467 RMS     0.002397890
 Search for a local minimum.
 Step number   1 out of a maximum of  110
 All quantities printed in internal units (Hartrees-Bohrs-Radians)
 RMS Force = .23979D-02 SwitMx=.10000D-02 MixMth= 1
 Mixed Optimization -- RFO/linear search
 Second derivative matrix not updated -- first step.
     Eigenvalues ---    0.00295   0.00295   0.00310   0.00404   0.00404
     Eigenvalues ---    0.03454   0.03454   0.03457   0.03457   0.04767
     Eigenvalues ---    0.04767   0.04794   0.04794   0.05463   0.05463
     Eigenvalues ---    0.05479   0.05479   0.08323   0.08323   0.08408
     Eigenvalues ---    0.08408   0.12203   0.12203   0.12261   0.12261
     Eigenvalues ---    0.16000   0.16000   0.16000   0.16000   0.16000
     Eigenvalues ---    0.16000   0.21869   0.21869   0.21878   0.21878
     Eigenvalues ---    0.28909   0.28909   0.29015   0.29668   0.29668
     Eigenvalues ---    0.32793   0.32793   0.32855   0.32855   0.32856
     Eigenvalues ---    0.32856   0.32943   0.32943   0.34126   0.34126
     Eigenvalues ---    0.34156   0.34156   0.34206   0.342061000.00000
     Eigenvalues --- 1000.000001000.000001000.000001000.000001000.00000
     Eigenvalues --- 1000.000001000.000001000.000001000.000001000.00000
     Eigenvalues --- 1000.000001000.000001000.000001000.000001000.00000
     Eigenvalues --- 1000.000001000.000001000.000001000.000001000.00000
     Eigenvalues --- 1000.000001000.000001000.000001000.000001000.00000
     Eigenvalues --- 1000.000001000.000001000.000001000.000001000.00000
     Eigenvalues --- 1000.000001000.000001000.000001000.000001000.00000
     Eigenvalues --- 1000.000001000.000001000.000001000.000001000.00000
     Eigenvalues --- 1000.000001000.000001000.000001000.000001000.00000
 RFO step:  Lambda=-2.41950564D-03 EMin= 2.94559343D-03
 Linear search not attempted -- first point.
 Iteration  1 RMS(Cart)=  0.03736054 RMS(Int)=  0.00043776
 Iteration  2 RMS(Cart)=  0.00089111 RMS(Int)=  0.00006091
 Iteration  3 RMS(Cart)=  0.00000063 RMS(Int)=  0.00006091
 Variable       Old X    -DE/DX   Delta X   Delta X   Delta X     New X
                                 (Linear)    (Quad)   (Total)
    R1        2.07068   0.00090   0.00000   0.00261   0.00261   2.07329
    R2        2.07118  -0.00007   0.00000  -0.00022  -0.00022   2.07096
    R3        2.06984   0.00069   0.00000   0.00201   0.00201   2.07185
    R4        2.88630   0.00365   0.00000   0.01219   0.01219   2.89849
    R5        2.09305  -0.00527   0.00000  -0.01593  -0.01593   2.07713
    R6        2.09416  -0.00571   0.00000  -0.01729  -0.01729   2.07687
    R7        2.90193   0.00325   0.00000   0.01116   0.01116   2.91309
    R8        2.09152  -0.00434   0.00000  -0.01308  -0.01308   2.07844
    R9        2.09307  -0.00595   0.00000  -0.01796  -0.01796   2.07510
   R10        2.89971   0.00246   0.00000   0.00842   0.00842   2.90813
   R11        2.09152  -0.00434   0.00000  -0.01308  -0.01308   2.07844
   R12        2.09307  -0.00595   0.00000  -0.01797  -0.01797   2.07510
   R13        2.90193   0.00325   0.00000   0.01116   0.01116   2.91309
   R14        2.09416  -0.00571   0.00000  -0.01729  -0.01729   2.07687
   R15        2.09305  -0.00527   0.00000  -0.01592  -0.01592   2.07713
   R16        2.88630   0.00365   0.00000   0.01219   0.01219   2.89849
   R17        2.07118  -0.00007   0.00000  -0.00022  -0.00022   2.07096
   R18        2.06984   0.00069   0.00000   0.00201   0.00201   2.07185
   R19        2.07068   0.00090   0.00000   0.00261   0.00261   2.07329
    A1        1.87206   0.00042   0.00000   0.00375   0.00377   1.87583
    A2        1.87736   0.00031   0.00000  -0.00004  -0.00004   1.87732
    A3        1.94648  -0.00159   0.00000  -0.01020  -0.01019   1.93629
    A4        1.87662  -0.00081   0.00000  -0.00425  -0.00427   1.87235
    A5        1.94597   0.00107   0.00000   0.00760   0.00760   1.95358
    A6        1.94171   0.00061   0.00000   0.00310   0.00309   1.94479
    A7        1.91484  -0.00120   0.00000  -0.00489  -0.00482   1.91001
    A8        1.90848  -0.00235   0.00000  -0.01030  -0.01043   1.89805
    A9        1.97089   0.00552   0.00000   0.02645   0.02645   1.99733
   A10        1.84434   0.00108   0.00000  -0.00016  -0.00021   1.84413
   A11        1.91752  -0.00252   0.00000  -0.01512  -0.01509   1.90243
   A12        1.90343  -0.00084   0.00000   0.00226   0.00225   1.90568
   A13        1.91733  -0.00260   0.00000  -0.01491  -0.01478   1.90255
   A14        1.90675  -0.00249   0.00000  -0.00721  -0.00740   1.89935
   A15        1.96413   0.00783   0.00000   0.03686   0.03688   2.00101
   A16        1.84456   0.00170   0.00000   0.00272   0.00259   1.84715
   A17        1.91694  -0.00281   0.00000  -0.01625  -0.01612   1.90082
   A18        1.91026  -0.00205   0.00000  -0.00339  -0.00351   1.90675
   A19        1.91694  -0.00281   0.00000  -0.01625  -0.01612   1.90082
   A20        1.91026  -0.00205   0.00000  -0.00339  -0.00351   1.90675
   A21        1.96413   0.00783   0.00000   0.03686   0.03688   2.00101
   A22        1.84456   0.00170   0.00000   0.00272   0.00259   1.84715
   A23        1.91734  -0.00260   0.00000  -0.01491  -0.01478   1.90255
   A24        1.90675  -0.00249   0.00000  -0.00721  -0.00740   1.89935
   A25        1.90343  -0.00084   0.00000   0.00226   0.00225   1.90568
   A26        1.91752  -0.00252   0.00000  -0.01512  -0.01509   1.90244
   A27        1.97088   0.00552   0.00000   0.02645   0.02645   1.99733
   A28        1.84434   0.00108   0.00000  -0.00016  -0.00021   1.84413
   A29        1.90848  -0.00235   0.00000  -0.01030  -0.01043   1.89805
   A30        1.91484  -0.00120   0.00000  -0.00489  -0.00482   1.91001
   A31        1.94597   0.00107   0.00000   0.00760   0.00760   1.95358
   A32        1.94171   0.00061   0.00000   0.00310   0.00309   1.94479
   A33        1.94648  -0.00159   0.00000  -0.01020  -0.01019   1.93629
   A34        1.87662  -0.00081   0.00000  -0.00425  -0.00427   1.87235
   A35        1.87206   0.00042   0.00000   0.00375   0.00377   1.87583
   A36        1.87736   0.00031   0.00000  -0.00003  -0.00004   1.87732
    D1       -3.10098   0.00026   0.00000  -0.00153  -0.00154  -3.10253
    D2       -1.08575  -0.00044   0.00000  -0.01027  -0.01024  -1.09599
    D3        1.03687   0.00053   0.00000   0.00307   0.00303   1.03990
    D4        1.08994   0.00009   0.00000  -0.00453  -0.00452   1.08541
    D5        3.10517  -0.00061   0.00000  -0.01327  -0.01322   3.09195
    D6       -1.05539   0.00036   0.00000   0.00007   0.00005  -1.05534
    D7       -1.00488  -0.00002   0.00000  -0.00638  -0.00639  -1.01127
    D8        1.01035  -0.00072   0.00000  -0.01512  -0.01509   0.99526
    D9        3.13297   0.00025   0.00000  -0.00178  -0.00181   3.13116
   D10       -0.85957  -0.00032   0.00000  -0.03762  -0.03765  -0.89721
   D11       -2.87547   0.00050   0.00000  -0.02847  -0.02855  -2.90403
   D12        1.28213  -0.00037   0.00000  -0.04370  -0.04380   1.23833
   D13       -3.00340  -0.00079   0.00000  -0.03875  -0.03867  -3.04207
   D14        1.26387   0.00002   0.00000  -0.02959  -0.02958   1.23430
   D15       -0.86171  -0.00084   0.00000  -0.04482  -0.04482  -0.90653
   D16        1.26591  -0.00022   0.00000  -0.03146  -0.03138   1.23453
   D17       -0.75000   0.00060   0.00000  -0.02231  -0.02229  -0.77229
   D18       -2.87558  -0.00027   0.00000  -0.03754  -0.03753  -2.91311
   D19        0.99967  -0.00007   0.00000   0.00533   0.00544   1.00511
   D20       -1.01801   0.00063   0.00000   0.01316   0.01324  -1.00477
   D21        3.14159   0.00000   0.00000   0.00000   0.00000   3.14159
   D22        3.14159   0.00000   0.00000   0.00000   0.00000   3.14159
   D23        1.12391   0.00070   0.00000   0.00783   0.00781   1.13171
   D24       -0.99968   0.00007   0.00000  -0.00533  -0.00543  -1.00511
   D25       -1.12392  -0.00070   0.00000  -0.00782  -0.00780  -1.13172
   D26        3.14159   0.00000   0.00000   0.00000   0.00000   3.14159
   D27        1.01800  -0.00063   0.00000  -0.01315  -0.01324   1.00476
   D28        2.87558   0.00027   0.00000   0.03754   0.03753   2.91311
   D29        0.86170   0.00084   0.00000   0.04482   0.04482   0.90652
   D30       -1.28213   0.00037   0.00000   0.04369   0.04379  -1.23834
   D31       -1.26591   0.00022   0.00000   0.03146   0.03138  -1.23453
   D32        3.00340   0.00079   0.00000   0.03874   0.03867   3.04207
   D33        0.85956   0.00032   0.00000   0.03762   0.03764   0.89721
   D34        0.75000  -0.00060   0.00000   0.02230   0.02228   0.77228
   D35       -1.26388  -0.00002   0.00000   0.02959   0.02957  -1.23430
   D36        2.87547  -0.00050   0.00000   0.02846   0.02855   2.90402
   D37        1.05537  -0.00036   0.00000  -0.00007  -0.00004   1.05533
   D38       -3.13299  -0.00025   0.00000   0.00178   0.00182  -3.13117
   D39       -1.03689  -0.00053   0.00000  -0.00306  -0.00303  -1.03992
   D40       -3.10519   0.00061   0.00000   0.01328   0.01323  -3.09196
   D41       -1.01037   0.00072   0.00000   0.01513   0.01509  -0.99528
   D42        1.08573   0.00044   0.00000   0.01028   0.01025   1.09598
   D43       -1.08996  -0.00009   0.00000   0.00454   0.00453  -1.08543
   D44        1.00486   0.00002   0.00000   0.00639   0.00640   1.01126
   D45        3.10096  -0.00026   0.00000   0.00154   0.00155   3.10251
         Item               Value     Threshold  Converged?
 Maximum Force            0.007827     0.000015     NO 
 RMS     Force            0.002398     0.000010     NO 
 Maximum Displacement     0.119000     0.000060     NO 
 RMS     Displacement     0.037945     0.000040     NO 
 Predicted change in Energy=-1.250540D-03
 GradGradGradGradGradGradGradGradGradGradGradGradGradGradGradGradGradGrad

 Leave Link  103 at Fri Sep 18 13:23:04 2015, MaxMem=  402653184 cpu:       0.1
 (Enter /share/apps/g09/l202.exe)
                          Input orientation:                          
 ---------------------------------------------------------------------
 Center     Atomic      Atomic             Coordinates (Angstroms)
 Number     Number       Type             X           Y           Z
 ---------------------------------------------------------------------
      1          6           0       -2.793706   -0.476257    0.071252
      2          1           0       -2.909241   -0.639960    1.149936
      3          1           0       -2.422425   -1.410292   -0.365487
      4          1           0       -3.791976   -0.296434   -0.344872
      5          6           0       -1.850395    0.700821   -0.206657
      6          1           0       -1.783976    0.868179   -1.290978
      7          1           0       -2.295764    1.615992    0.208052
      8          6           0       -0.428345    0.526587    0.362345
      9          1           0       -0.498756    0.257865    1.426549
     10          1           0        0.086845    1.495838    0.331524
     11          6           0        0.428343   -0.526587   -0.362338
     12          1           0        0.498752   -0.257867   -1.426543
     13          1           0       -0.086846   -1.495838   -0.331513
     14          6           0        1.850396   -0.700819    0.206661
     15          1           0        2.295762   -1.615993   -0.208043
     16          1           0        1.783980   -0.868169    1.290983
     17          6           0        2.793707    0.476256   -0.071260
     18          1           0        2.422423    1.410297    0.365460
     19          1           0        3.791975    0.296441    0.344873
     20          1           0        2.909250    0.639941   -1.149946
 ---------------------------------------------------------------------
                    Distance matrix (angstroms):
                    1          2          3          4          5
     1  C    0.000000
     2  H    1.097135   0.000000
     3  H    1.095906   1.768306   0.000000
     4  H    1.096375   1.769655   1.765438   0.000000
     5  C    1.533813   2.181557   2.192999   2.187088   0.000000
     6  H    2.163962   3.082006   2.540784   2.506692   1.099169
     7  H    2.155033   2.520480   3.082756   2.490331   1.099033
     8  C    2.585607   2.852364   2.873603   3.534336   1.541541
     9  H    2.764518   2.587092   3.113622   3.780274   2.165756
    10  H    3.500639   3.769345   3.902288   4.326084   2.162080
    11  C    3.251482   3.665965   2.984598   4.226626   2.592956
    12  H    3.623722   4.289365   3.314694   4.425138   2.815262
    13  H    2.920421   3.300475   2.337393   3.894450   2.819753
    14  C    4.651499   4.852589   4.368948   5.683667   3.978854
    15  H    5.222996   5.467066   4.725293   6.230611   4.749553
    16  H    4.753583   4.700883   4.553201   5.839023   4.232415
    17  C    5.669813   5.938087   5.554608   6.636500   4.651500
    18  H    5.554606   5.765900   5.653544   6.483537   4.368941
    19  H    6.636499   6.814049   6.483542   7.638295   5.683665
    20  H    5.938092   6.386114   5.765900   6.814057   4.852600
                    6          7          8          9         10
     6  H    0.000000
     7  H    1.751640   0.000000
     8  C    2.165155   2.167456   0.000000
     9  H    3.067446   2.560953   1.099864   0.000000
    10  H    2.554690   2.388830   1.098097   1.753450   0.000000
    11  C    2.775267   3.512371   1.538914   2.162173   2.165241
    12  H    2.548962   3.740664   2.162174   3.066127   2.517131
    13  H    3.064213   3.854081   2.165240   2.517127   3.069188
    14  C    4.232415   4.749553   2.592956   2.815264   2.819752
    15  H    4.897767   5.630362   3.512371   3.740663   3.854081
    16  H    4.734104   4.897765   2.775265   2.548963   3.064205
    17  C    4.753578   5.223000   3.251487   3.623733   2.920425
    18  H    4.553183   4.725291   2.984599   3.314709   2.337390
    19  H    5.839017   6.230610   4.226626   4.425142   3.894447
    20  H    4.700889   5.467084   3.665981   4.289384   3.300498
                   11         12         13         14         15
    11  C    0.000000
    12  H    1.099864   0.000000
    13  H    1.098097   1.753450   0.000000
    14  C    1.541541   2.165757   2.162080   0.000000
    15  H    2.167455   2.560955   2.388828   1.099033   0.000000
    16  H    2.165156   3.067446   2.554692   1.099169   1.751640
    17  C    2.585608   2.764516   3.500639   1.533813   2.155032
    18  H    2.873598   3.113608   3.902284   2.192999   3.082756
    19  H    3.534337   3.780276   4.326085   2.187089   2.490336
    20  H    2.852370   2.587097   3.769347   2.181557   2.520474
                   16         17         18         19         20
    16  H    0.000000
    17  C    2.163962   0.000000
    18  H    2.540789   1.095906   0.000000
    19  H    2.506687   1.096375   1.765438   0.000000
    20  H    3.082006   1.097135   1.768306   1.769655   0.000000
 Stoichiometry    C6H14
 Framework group  C1[X(C6H14)]
 Deg. of freedom    54
 Full point group                 C1      NOp   1
 Largest Abelian subgroup         C1      NOp   1
 Largest concise Abelian subgroup C1      NOp   1
                         Standard orientation:                         
 ---------------------------------------------------------------------
 Center     Atomic      Atomic             Coordinates (Angstroms)
 Number     Number       Type             X           Y           Z
 ---------------------------------------------------------------------
      1          6           0       -2.793556   -0.476112    0.077795
      2          1           0       -2.907354   -0.635130    1.157364
      3          1           0       -2.422912   -1.412015   -0.355471
      4          1           0       -3.792503   -0.298161   -0.337507
      5          6           0       -1.850771    0.699804   -0.206740
      6          1           0       -1.786100    0.862449   -1.291883
      7          1           0       -2.295537    1.616742    0.204699
      8          6           0       -0.427800    0.528132    0.360737
      9          1           0       -0.496489    0.264035    1.426211
     10          1           0        0.087275    1.497271    0.324876
     11          6           0        0.427798   -0.528132   -0.360730
     12          1           0        0.496485   -0.264038   -1.426205
     13          1           0       -0.087275   -1.497271   -0.324866
     14          6           0        1.850771   -0.699801    0.206743
     15          1           0        2.295535   -1.616743   -0.204690
     16          1           0        1.786103   -0.862438    1.291888
     17          6           0        2.793557    0.476111   -0.077804
     18          1           0        2.422909    1.412020    0.355444
     19          1           0        3.792502    0.298167    0.337508
     20          1           0        2.907362    0.635110   -1.157375
 ---------------------------------------------------------------------
 Rotational constants (GHZ):      9.0979098      1.3862046      1.2970137
 Leave Link  202 at Fri Sep 18 13:23:04 2015, MaxMem=  402653184 cpu:       0.0
 (Enter /share/apps/g09/l301.exe)
 Standard basis: 6-31G(d) (6D, 7F)
 Ernie: Thresh=  0.10000D-02 Tol=  0.10000D-05 Strict=F.
 There are   118 symmetry adapted basis functions of A   symmetry.
 Integral buffers will be    131072 words long.
 Raffenetti 2 integral format.
 Two-electron integral symmetry is turned on.
   118 basis functions,   224 primitive gaussians,   118 cartesian basis functions
    25 alpha electrons       25 beta electrons
       nuclear repulsion energy       247.9201527590 Hartrees.
 IExCor=  402 DFT=T Ex+Corr=B3LYP ExCW=0 ScaHFX=  0.200000
 ScaDFX=  0.800000  0.720000  1.000000  0.810000 ScalE2=  1.000000  1.000000
 IRadAn=      5 IRanWt=     -1 IRanGd=            0 ICorTp=0
 NAtoms=   20 NActive=   20 NUniq=   20 SFac= 7.50D-01 NAtFMM=   80 NAOKFM=F Big=F
 Leave Link  301 at Fri Sep 18 13:23:04 2015, MaxMem=  402653184 cpu:       0.1
 (Enter /share/apps/g09/l302.exe)
 NPDir=0 NMtPBC=     1 NCelOv=     1 NCel=       1 NClECP=     1 NCelD=      1
         NCelK=      1 NCelE2=     1 NClLst=     1 CellRange=     0.0.
 One-electron integrals computed using PRISM.
 NBasis=   118 RedAO= T  NBF=   118
 NBsUse=   118 1.00D-06 NBFU=   118
 Precomputing XC quadrature grid using
 IXCGrd= 2 IRadAn=           5 IRanWt=          -1 IRanGd=           0 AccXCQ= 1.00D-10.
 NRdTot=    1652 NPtTot=      442444 NUsed=      454281 NTot=      454313
 NSgBfM=   118   118   118   118   118 NAtAll=    20    20.
 Leave Link  302 at Fri Sep 18 13:23:05 2015, MaxMem=  402653184 cpu:       1.2
 (Enter /share/apps/g09/l303.exe)
 DipDrv:  MaxL=1.
 Leave Link  303 at Fri Sep 18 13:23:05 2015, MaxMem=  402653184 cpu:       0.0
 (Enter /share/apps/g09/l401.exe)
 Initial guess read from the read-write file.
 B after Tr=     0.000000    0.000000    0.000000
         Rot=    1.000000    0.000000    0.000000    0.000000 Ang=   0.00 deg.
 Guess basis will be translated and rotated to current coordinates.
 Initial guess orbital symmetries:
       Occupied  (A) (A) (A) (A) (A) (A) (A) (A) (A) (A) (A) (A)
                 (A) (A) (A) (A) (A) (A) (A) (A) (A) (A) (A) (A)
                 (A)
       Virtual   (A) (A) (A) (A) (A) (A) (A) (A) (A) (A) (A) (A)
                 (A) (A) (A) (A) (A) (A) (A) (A) (A) (A) (A) (A)
                 (A) (A) (A) (A) (A) (A) (A) (A) (A) (A) (A) (A)
                 (A) (A) (A) (A) (A) (A) (A) (A) (A) (A) (A) (A)
                 (A) (A) (A) (A) (A) (A) (A) (A) (A) (A) (A) (A)
                 (A) (A) (A) (A) (A) (A) (A) (A) (A) (A) (A) (A)
                 (A) (A) (A) (A) (A) (A) (A) (A) (A) (A) (A) (A)
                 (A) (A) (A) (A) (A) (A) (A) (A) (A)
 The electronic state of the initial guess is 1-A.
 Generating alternative initial guess.
 Harris functional with IExCor=  402 diagonalized for initial guess.
 ExpMin= 1.61D-01 ExpMax= 3.05D+03 ExpMxC= 4.57D+02 IAcc=3 IRadAn=         5 AccDes= 0.00D+00
 HarFok:  IExCor=  402 AccDes= 0.00D+00 IRadAn=         5 IDoV= 1
 ScaDFX=  1.000000  1.000000  1.000000  1.000000
 FoFCou: FMM=F IPFlag=           0 FMFlag=      100000 FMFlg1=           0
         NFxFlg=           0 DoJE=T BraDBF=F KetDBF=T FulRan=T
         Omega=  0.000000  0.000000  1.000000  0.000000  0.000000 ICntrl=     500 IOpCl=  0
         NMat0=    1 NMatS0=    1 NMatT0=    0 NMatD0=    1 NMtDS0=    0 NMtDT0=    0
         I1Cent=           4 NGrid=           0.
 Petite list used in FoFCou.
 Harris En= -237.181541300413    
 Leave Link  401 at Fri Sep 18 13:23:10 2015, MaxMem=  402653184 cpu:      10.2
 (Enter /share/apps/g09/l502.exe)
 Closed shell SCF:
 Requested convergence on RMS density matrix=1.00D-08 within 128 cycles.
 Requested convergence on MAX density matrix=1.00D-06.
 Requested convergence on             energy=1.00D-06.
 No special actions if energy rises.
 Using DIIS extrapolation, IDIIS=  1040.
 Integral symmetry usage will be decided dynamically.
       454088 words used for storage of precomputed grid.
 Keep R1 ints in memory in canonical form, NReq=26108143.
 IEnd=      515632 IEndB=      515632 NGot=   402653184 MDV=   377517476
 LenX=   377517476 LenY=   377503111
 Symmetry not used in FoFDir.
 MinBra= 0 MaxBra= 2 Meth= 1.
 IRaf=       0 NMat=   1 IRICut=       1 DoRegI=T DoRafI=F ISym2E= 0 JSym2E=0.
 Integral accuracy reduced to 1.0D-05 until final iterations.

 Cycle   1  Pass 0  IDiag  1:
 E= -237.081358594678    
 DIIS: error= 2.03D-03 at cycle   1 NSaved=   1.
 NSaved= 1 IEnMin= 1 EnMin= -237.081358594678     IErMin= 1 ErrMin= 2.03D-03
 ErrMax= 2.03D-03 EMaxC= 1.00D-01 BMatC= 5.58D-04 BMatP= 5.58D-04
 IDIUse=3 WtCom= 9.80D-01 WtEn= 2.03D-02
 Coeff-Com:  0.100D+01
 Coeff-En:   0.100D+01
 Coeff:      0.100D+01
 Gap=     0.393 Goal=   None    Shift=    0.000
 GapD=    0.393 DampG=1.000 DampE=1.000 DampFc=1.0000 IDamp=-1.
 RMSDP=3.16D-04 MaxDP=3.84D-03              OVMax= 9.36D-03

 Cycle   2  Pass 0  IDiag  1:
 E= -237.082427836295     Delta-E=       -0.001069241617 Rises=F Damp=F
 DIIS: error= 3.70D-04 at cycle   2 NSaved=   2.
 NSaved= 2 IEnMin= 2 EnMin= -237.082427836295     IErMin= 2 ErrMin= 3.70D-04
 ErrMax= 3.70D-04 EMaxC= 1.00D-01 BMatC= 2.31D-05 BMatP= 5.58D-04
 IDIUse=3 WtCom= 9.96D-01 WtEn= 3.70D-03
 Coeff-Com:  0.774D-02 0.992D+00
 Coeff-En:   0.000D+00 0.100D+01
 Coeff:      0.771D-02 0.992D+00
 Gap=     0.391 Goal=   None    Shift=    0.000
 RMSDP=8.84D-05 MaxDP=1.30D-03 DE=-1.07D-03 OVMax= 1.82D-03

 Cycle   3  Pass 0  IDiag  1:
 E= -237.082435100645     Delta-E=       -0.000007264349 Rises=F Damp=F
 DIIS: error= 3.64D-04 at cycle   3 NSaved=   3.
 NSaved= 3 IEnMin= 3 EnMin= -237.082435100645     IErMin= 3 ErrMin= 3.64D-04
 ErrMax= 3.64D-04 EMaxC= 1.00D-01 BMatC= 2.22D-05 BMatP= 2.31D-05
 IDIUse=3 WtCom= 9.96D-01 WtEn= 3.64D-03
 Coeff-Com: -0.335D-01 0.511D+00 0.522D+00
 Coeff-En:   0.000D+00 0.414D+00 0.586D+00
 Coeff:     -0.333D-01 0.511D+00 0.523D+00
 Gap=     0.392 Goal=   None    Shift=    0.000
 RMSDP=4.37D-05 MaxDP=7.09D-04 DE=-7.26D-06 OVMax= 9.14D-04

 Cycle   4  Pass 0  IDiag  1:
 E= -237.082457665382     Delta-E=       -0.000022564737 Rises=F Damp=F
 DIIS: error= 4.80D-05 at cycle   4 NSaved=   4.
 NSaved= 4 IEnMin= 4 EnMin= -237.082457665382     IErMin= 4 ErrMin= 4.80D-05
 ErrMax= 4.80D-05 EMaxC= 1.00D-01 BMatC= 3.89D-07 BMatP= 2.22D-05
 IDIUse=1 WtCom= 1.00D+00 WtEn= 0.00D+00
 Coeff-Com: -0.135D-01 0.130D+00 0.184D+00 0.700D+00
 Coeff:     -0.135D-01 0.130D+00 0.184D+00 0.700D+00
 Gap=     0.392 Goal=   None    Shift=    0.000
 RMSDP=6.38D-06 MaxDP=7.61D-05 DE=-2.26D-05 OVMax= 1.24D-04

 Initial convergence to 1.0D-05 achieved.  Increase integral accuracy.
 Cycle   5  Pass 1  IDiag  1:
 E= -237.082418674520     Delta-E=        0.000038990862 Rises=F Damp=F
 DIIS: error= 8.43D-06 at cycle   1 NSaved=   1.
 NSaved= 1 IEnMin= 1 EnMin= -237.082418674520     IErMin= 1 ErrMin= 8.43D-06
 ErrMax= 8.43D-06 EMaxC= 1.00D-01 BMatC= 1.20D-08 BMatP= 1.20D-08
 IDIUse=1 WtCom= 1.00D+00 WtEn= 0.00D+00
 Coeff-Com:  0.100D+01
 Coeff:      0.100D+01
 Gap=     0.392 Goal=   None    Shift=    0.000
 RMSDP=6.38D-06 MaxDP=7.61D-05 DE= 3.90D-05 OVMax= 4.52D-05

 Cycle   6  Pass 1  IDiag  1:
 E= -237.082418678118     Delta-E=       -0.000000003598 Rises=F Damp=F
 DIIS: error= 8.80D-06 at cycle   2 NSaved=   2.
 NSaved= 2 IEnMin= 2 EnMin= -237.082418678118     IErMin= 1 ErrMin= 8.43D-06
 ErrMax= 8.80D-06 EMaxC= 1.00D-01 BMatC= 1.08D-08 BMatP= 1.20D-08
 IDIUse=1 WtCom= 1.00D+00 WtEn= 0.00D+00
 Coeff-Com:  0.485D+00 0.515D+00
 Coeff:      0.485D+00 0.515D+00
 Gap=     0.392 Goal=   None    Shift=    0.000
 RMSDP=9.99D-07 MaxDP=1.78D-05 DE=-3.60D-09 OVMax= 2.57D-05

 Cycle   7  Pass 1  IDiag  1:
 E= -237.082418688518     Delta-E=       -0.000000010400 Rises=F Damp=F
 DIIS: error= 1.65D-06 at cycle   3 NSaved=   3.
 NSaved= 3 IEnMin= 3 EnMin= -237.082418688518     IErMin= 3 ErrMin= 1.65D-06
 ErrMax= 1.65D-06 EMaxC= 1.00D-01 BMatC= 3.62D-10 BMatP= 1.08D-08
 IDIUse=1 WtCom= 1.00D+00 WtEn= 0.00D+00
 Coeff-Com:  0.283D-01 0.160D+00 0.811D+00
 Coeff:      0.283D-01 0.160D+00 0.811D+00
 Gap=     0.392 Goal=   None    Shift=    0.000
 RMSDP=1.72D-07 MaxDP=3.54D-06 DE=-1.04D-08 OVMax= 4.09D-06

 Cycle   8  Pass 1  IDiag  1:
 E= -237.082418688867     Delta-E=       -0.000000000349 Rises=F Damp=F
 DIIS: error= 2.85D-07 at cycle   4 NSaved=   4.
 NSaved= 4 IEnMin= 4 EnMin= -237.082418688867     IErMin= 4 ErrMin= 2.85D-07
 ErrMax= 2.85D-07 EMaxC= 1.00D-01 BMatC= 1.17D-11 BMatP= 3.62D-10
 IDIUse=1 WtCom= 1.00D+00 WtEn= 0.00D+00
 Coeff-Com: -0.992D-02 0.314D-01 0.257D+00 0.721D+00
 Coeff:     -0.992D-02 0.314D-01 0.257D+00 0.721D+00
 Gap=     0.392 Goal=   None    Shift=    0.000
 RMSDP=4.03D-08 MaxDP=4.71D-07 DE=-3.49D-10 OVMax= 7.78D-07

 Cycle   9  Pass 1  IDiag  1:
 E= -237.082418688881     Delta-E=       -0.000000000015 Rises=F Damp=F
 DIIS: error= 4.52D-08 at cycle   5 NSaved=   5.
 NSaved= 5 IEnMin= 5 EnMin= -237.082418688881     IErMin= 5 ErrMin= 4.52D-08
 ErrMax= 4.52D-08 EMaxC= 1.00D-01 BMatC= 5.23D-13 BMatP= 1.17D-11
 IDIUse=1 WtCom= 1.00D+00 WtEn= 0.00D+00
 Coeff-Com: -0.467D-02 0.107D-01 0.971D-01 0.312D+00 0.585D+00
 Coeff:     -0.467D-02 0.107D-01 0.971D-01 0.312D+00 0.585D+00
 Gap=     0.392 Goal=   None    Shift=    0.000
 RMSDP=6.32D-09 MaxDP=1.30D-07 DE=-1.47D-11 OVMax= 1.51D-07

 SCF Done:  E(RB3LYP) =  -237.082418689     A.U. after    9 cycles
             Convg  =    0.6318D-08             -V/T =  2.0106
 KE= 2.346023436346D+02 PE=-1.042751299443D+03 EE= 3.231463843603D+02
 Leave Link  502 at Fri Sep 18 13:23:51 2015, MaxMem=  402653184 cpu:      81.8
 (Enter /share/apps/g09/l701.exe)
 Compute integral first derivatives.
 ... and contract with generalized density number  0.
 Leave Link  701 at Fri Sep 18 13:23:51 2015, MaxMem=  402653184 cpu:       0.3
 (Enter /share/apps/g09/l702.exe)
 L702 exits ... SP integral derivatives will be done elsewhere.
 Leave Link  702 at Fri Sep 18 13:23:51 2015, MaxMem=  402653184 cpu:       0.0
 (Enter /share/apps/g09/l703.exe)
 Compute integral first derivatives, UseDBF=F ICtDFT=           0.
 Integral derivatives from FoFDir, PRISM(SPDF).
 Calling FoFJK, ICntrl=      2127 FMM=F ISym2X=0 I1Cent= 0 IOpClX= 0 NMat=1 NMatS=1 NMatT=0.
 FoFCou: FMM=F IPFlag=           0 FMFlag=      100000 FMFlg1=         800
         NFxFlg=           0 DoJE=F BraDBF=F KetDBF=F FulRan=T
         Omega=  0.000000  0.000000  1.000000  0.000000  0.000000 ICntrl=    2127 IOpCl=  0
         NMat0=    1 NMatS0=    1 NMatT0=    0 NMatD0=    1 NMtDS0=    0 NMtDT0=    0
         I1Cent=           0 NGrid=           0.
 Symmetry not used in FoFCou.
 Leave Link  703 at Fri Sep 18 13:24:03 2015, MaxMem=  402653184 cpu:      23.8
 (Enter /share/apps/g09/l716.exe)
 Dipole        =-1.96793901D-07-2.41058880D-07-7.22794082D-08
 ***** Axes restored to original set *****
 -------------------------------------------------------------------
 Center     Atomic                   Forces (Hartrees/Bohr)
 Number     Number              X              Y              Z
 -------------------------------------------------------------------
      1        6           0.000379033   -0.000606164    0.000037027
      2        1           0.000043226   -0.000024675    0.000144394
      3        1           0.000093759   -0.000045987   -0.000094962
      4        1           0.000304287    0.000508008   -0.000054475
      5        6           0.000623993    0.000103707   -0.000755254
      6        1           0.000047528   -0.000021992   -0.000392512
      7        1           0.000749239   -0.000505763    0.000672201
      8        6           0.000546852   -0.000073652    0.000484523
      9        1          -0.000093382    0.000024124    0.000685773
     10        1          -0.000326757    0.000151442   -0.000629194
     11        6          -0.000546819    0.000073564   -0.000484375
     12        1           0.000093388   -0.000024102   -0.000685829
     13        1           0.000326809   -0.000151408    0.000629130
     14        6          -0.000623926   -0.000103584    0.000755011
     15        1          -0.000749231    0.000505697   -0.000672105
     16        1          -0.000047569    0.000022001    0.000392577
     17        6          -0.000379107    0.000606040   -0.000037035
     18        1          -0.000093740    0.000046051    0.000095017
     19        1          -0.000304298   -0.000508016    0.000054470
     20        1          -0.000043285    0.000024708   -0.000144381
 -------------------------------------------------------------------
 Cartesian Forces:  Max     0.000755254 RMS     0.000402065
 Leave Link  716 at Fri Sep 18 13:24:03 2015, MaxMem=  402653184 cpu:       0.0
 (Enter /share/apps/g09/l103.exe)

 GradGradGradGradGradGradGradGradGradGradGradGradGradGradGradGradGradGrad
 Berny optimization.
 Using GEDIIS/GDIIS optimizer.
 Internal  Forces:  Max     0.001972188 RMS     0.000507528
 Search for a local minimum.
 Step number   2 out of a maximum of  110
 All quantities printed in internal units (Hartrees-Bohrs-Radians)
 RMS Force = .50753D-03 SwitMx=.10000D-02 MixMth= 2
 Mixed Optimization -- En-DIIS/RFO-DIIS
 Update second derivatives using D2CorX and points    1    2
 DE= -1.10D-03 DEPred=-1.25D-03 R= 8.77D-01
 SS=  1.41D+00  RLast= 1.83D-01 DXNew= 5.0454D-01 5.5014D-01
 Trust test= 8.77D-01 RLast= 1.83D-01 DXMaxT set to 5.05D-01
 Use linear search instead of GDIIS.
     Eigenvalues ---    0.00279   0.00295   0.00310   0.00403   0.00404
     Eigenvalues ---    0.03280   0.03298   0.03329   0.03362   0.04733
     Eigenvalues ---    0.04746   0.04766   0.04852   0.05427   0.05427
     Eigenvalues ---    0.05502   0.05512   0.08644   0.08654   0.08659
     Eigenvalues ---    0.08661   0.12404   0.12436   0.12444   0.12586
     Eigenvalues ---    0.15872   0.16000   0.16000   0.16000   0.16000
     Eigenvalues ---    0.16132   0.21690   0.21913   0.21925   0.23498
     Eigenvalues ---    0.28909   0.28988   0.29224   0.29668   0.30486
[...]
 Leave Link  103 at Fri Sep 18 13:29:10 2015, MaxMem=  402653184 cpu:       0.0
 (Enter /share/apps/g09/l202.exe)
                          Input orientation:                          
 ---------------------------------------------------------------------
 Center     Atomic      Atomic             Coordinates (Angstroms)
 Number     Number       Type             X           Y           Z
 ---------------------------------------------------------------------
      1          6           0       -2.763967   -0.483584    0.051761
      2          1           0       -2.835781   -0.697997    1.125655
      3          1           0       -2.408678   -1.393637   -0.444332
      4          1           0       -3.777524   -0.285011   -0.315371
      5          6           0       -1.839952    0.712040   -0.210049
      6          1           0       -1.789683    0.905104   -1.291428
      7          1           0       -2.288210    1.609829    0.236759
      8          6           0       -0.412199    0.551344    0.340430
      9          1           0       -0.463023    0.348126    1.421228
     10          1           0        0.108477    1.512295    0.236022
     11          6           0        0.412199   -0.551344   -0.340430
     12          1           0        0.463023   -0.348126   -1.421228
     13          1           0       -0.108477   -1.512294   -0.236022
     14          6           0        1.839953   -0.712040    0.210049
     15          1           0        2.288211   -1.609829   -0.236759
     16          1           0        1.789683   -0.905103    1.291428
     17          6           0        2.763968    0.483584   -0.051762
     18          1           0        2.408679    1.393637    0.444331
     19          1           0        3.777524    0.285011    0.315370
     20          1           0        2.835782    0.697997   -1.125655
 ---------------------------------------------------------------------
                    Distance matrix (angstroms):
                    1          2          3          4          5
     1  C    0.000000
     2  H    1.097441   0.000000
     3  H    1.095689   1.769517   0.000000
     4  H    1.096136   1.770308   1.766188   0.000000
     5  C    1.533579   2.182656   2.193675   2.181601   0.000000
     6  H    2.163756   3.083268   2.526843   2.514074   1.099628
     7  H    2.154749   2.532988   3.082078   2.472512   1.098453
     8  C    2.585579   2.837461   2.895640   3.529161   1.538613
     9  H    2.803841   2.609927   3.209303   3.795069   2.165510
    10  H    3.502631   3.787545   3.904279   4.316867   2.153083
    11  C    3.201006   3.566552   2.945777   4.198254   2.585599
    12  H    3.549861   4.182240   3.208440   4.382823   2.809733
    13  H    2.862288   3.155223   2.312660   3.869680   2.818926
    14  C    4.612302   4.764559   4.352431   5.658132   3.968146
    15  H    5.184224   5.379861   4.706441   6.209223   4.736403
    16  H    4.738163   4.633066   4.569219   5.827530   4.247804
    17  C    5.612860   5.842913   5.516732   6.591763   4.612302
    18  H    5.516732   5.687134   5.636093   6.454774   4.352431
    19  H    6.591763   6.734885   6.454773   7.602730   5.658132
    20  H    5.842913   6.259699   5.687134   6.734885   4.764559
                    6          7          8          9         10
     6  H    0.000000
     7  H    1.755142   0.000000
     8  C    2.164618   2.156515   0.000000
     9  H    3.070627   2.515188   1.100910   0.000000
    10  H    2.510936   2.398672   1.097921   1.756876   0.000000
    11  C    2.806050   3.506569   1.535944   2.162984   2.164058
    12  H    2.581108   3.761887   2.162984   3.069508   2.516613
    13  H    3.127962   3.836979   2.164058   2.516613   3.068881
    14  C    4.247804   4.736403   2.585599   2.809733   2.818926
    15  H    4.905754   5.615518   3.506569   3.761887   3.836979
    16  H    4.770729   4.905754   2.806050   2.581108   3.127962
    17  C    4.738163   5.184224   3.201006   3.549861   2.862288
    18  H    4.569219   4.706441   2.945777   3.208441   2.312660
    19  H    5.827530   6.209223   4.198254   4.382823   3.869680
    20  H    4.633066   5.379861   3.566552   4.182240   3.155223
                   11         12         13         14         15
    11  C    0.000000
    12  H    1.100910   0.000000
    13  H    1.097921   1.756876   0.000000
    14  C    1.538613   2.165510   2.153083   0.000000
    15  H    2.156515   2.515188   2.398672   1.098453   0.000000
    16  H    2.164618   3.070627   2.510936   1.099628   1.755142
    17  C    2.585579   2.803841   3.502631   1.533579   2.154749
    18  H    2.895640   3.209302   3.904279   2.193675   3.082078
    19  H    3.529161   3.795069   4.316867   2.181601   2.472512
    20  H    2.837461   2.609927   3.787545   2.182656   2.532988
                   16         17         18         19         20
    16  H    0.000000
    17  C    2.163756   0.000000
    18  H    2.526843   1.095689   0.000000
    19  H    2.514074   1.096136   1.766188   0.000000
    20  H    3.083268   1.097441   1.769517   1.770308   0.000000
 Stoichiometry    C6H14
 Framework group  C1[X(C6H14)]
 Deg. of freedom    54
 Full point group                 C1      NOp   1
 Largest Abelian subgroup         C1      NOp   1
 Largest concise Abelian subgroup C1      NOp   1
                         Standard orientation:                         
 ---------------------------------------------------------------------
 Center     Atomic      Atomic             Coordinates (Angstroms)
 Number     Number       Type             X           Y           Z
 ---------------------------------------------------------------------
      1          6           0       -2.762933   -0.485802    0.079043
      2          1           0       -2.825449   -0.691596    1.155202
      3          1           0       -2.410913   -1.399495   -0.412672
      4          1           0       -3.779759   -0.291176   -0.281094
      5          6           0       -1.842393    0.708552   -0.200221
      6          1           0       -1.801462    0.892916   -1.283510
      7          1           0       -2.287782    1.609493    0.243098
      8          6           0       -0.409874    0.553682    0.339441
      9          1           0       -0.451354    0.359159    1.422236
     10          1           0        0.108913    1.514257    0.222875
     11          6           0        0.409874   -0.553682   -0.339441
     12          1           0        0.451354   -0.359159   -1.422236
     13          1           0       -0.108913   -1.514256   -0.222875
     14          6           0        1.842393   -0.708552    0.200221
     15          1           0        2.287782   -1.609493   -0.243098
     16          1           0        1.801462   -0.892915    1.283511
     17          6           0        2.762933    0.485802   -0.079043
     18          1           0        2.410913    1.399495    0.412671
     19          1           0        3.779759    0.291176    0.281094
     20          1           0        2.825449    0.691595   -1.155203
 ---------------------------------------------------------------------
 Rotational constants (GHZ):      8.9394461      1.4134814      1.3136866
 Leave Link  202 at Fri Sep 18 13:29:10 2015, MaxMem=  402653184 cpu:       0.0
 (Enter /share/apps/g09/l601.exe)
 Copying SCF densities to generalized density rwf, IOpCl= 0 IROHF=0.

 **********************************************************************

            Population analysis using the SCF density.

 **********************************************************************

 Orbital symmetries:
       Occupied  (A) (A) (A) (A) (A) (A) (A) (A) (A) (A) (A) (A)
                 (A) (A) (A) (A) (A) (A) (A) (A) (A) (A) (A) (A)
                 (A)
       Virtual   (A) (A) (A) (A) (A) (A) (A) (A) (A) (A) (A) (A)
                 (A) (A) (A) (A) (A) (A) (A) (A) (A) (A) (A) (A)
                 (A) (A) (A) (A) (A) (A) (A) (A) (A) (A) (A) (A)
                 (A) (A) (A) (A) (A) (A) (A) (A) (A) (A) (A) (A)
                 (A) (A) (A) (A) (A) (A) (A) (A) (A) (A) (A) (A)
                 (A) (A) (A) (A) (A) (A) (A) (A) (A) (A) (A) (A)
                 (A) (A) (A) (A) (A) (A) (A) (A) (A) (A) (A) (A)
                 (A) (A) (A) (A) (A) (A) (A) (A) (A)
 The electronic state is 1-A.
 Alpha  occ. eigenvalues --  -10.17621 -10.17621 -10.17334 -10.17313 -10.16936
 Alpha  occ. eigenvalues --  -10.16936  -0.79854  -0.75876  -0.69798  -0.64544
 Alpha  occ. eigenvalues --   -0.58539  -0.55416  -0.45873  -0.44445  -0.44200
 Alpha  occ. eigenvalues --   -0.40816  -0.40226  -0.38583  -0.36026  -0.34904
 Alpha  occ. eigenvalues --   -0.34248  -0.32911  -0.31598  -0.31025  -0.30210
 Alpha virt. eigenvalues --    0.08949   0.11046   0.11946   0.12865   0.15233
 Alpha virt. eigenvalues --    0.15961   0.16595   0.17145   0.18247   0.18310
 Alpha virt. eigenvalues --    0.18772   0.19139   0.21947   0.22600   0.23952
 Alpha virt. eigenvalues --    0.25579   0.25643   0.28310   0.28892   0.50433
 Alpha virt. eigenvalues --    0.50611   0.52567   0.53851   0.54386   0.55034
 Alpha virt. eigenvalues --    0.57642   0.61912   0.66173   0.66330   0.67881
 Alpha virt. eigenvalues --    0.70252   0.70277   0.73141   0.79204   0.83190
 Alpha virt. eigenvalues --    0.84412   0.86914   0.88227   0.89142   0.89156
 Alpha virt. eigenvalues --    0.90568   0.91320   0.92617   0.94639   0.95782
 Alpha virt. eigenvalues --    0.97268   0.97552   1.00298   1.01719   1.01852
 Alpha virt. eigenvalues --    1.03770   1.11665   1.19916   1.35424   1.42544
 Alpha virt. eigenvalues --    1.44457   1.54080   1.58844   1.60323   1.65224
 Alpha virt. eigenvalues --    1.72562   1.73007   1.81007   1.81031   1.91517
 Alpha virt. eigenvalues --    1.92720   1.96878   1.98266   1.99018   2.00915
 Alpha virt. eigenvalues --    2.02146   2.11187   2.17323   2.18681   2.27186
 Alpha virt. eigenvalues --    2.29378   2.31475   2.33535   2.36030   2.40006
 Alpha virt. eigenvalues --    2.42442   2.43050   2.58494   2.62381   2.63849
 Alpha virt. eigenvalues --    2.70971   2.78629   4.10781   4.18785   4.29142
 Alpha virt. eigenvalues --    4.40973   4.45948   4.54680
          Condensed to atoms (all electrons):
              1          2          3          4          5          6
     1  C    5.066334   0.376816   0.378306   0.373105   0.378132  -0.040579
     2  H    0.376816   0.581236  -0.033050  -0.031285  -0.036166   0.005375
     3  H    0.378306  -0.033050   0.573108  -0.031316  -0.034386  -0.004548
     4  H    0.373105  -0.031285  -0.031316   0.578784  -0.028572  -0.002454
     5  C    0.378132  -0.036166  -0.034386  -0.028572   4.956634   0.375108
     6  H   -0.040579   0.005375  -0.004548  -0.002454   0.375108   0.614371
     7  H   -0.040206  -0.004094   0.005209  -0.003564   0.373887  -0.038579
     8  C   -0.045214  -0.004221  -0.004736   0.004298   0.381011  -0.039705
     9  H   -0.006560   0.005524  -0.000110  -0.000015  -0.039412   0.005990
    10  H    0.004962   0.000015  -0.000018  -0.000159  -0.034305  -0.002731
    11  C   -0.004750  -0.000489   0.002490   0.000121  -0.039182  -0.006878
    12  H   -0.000505   0.000068   0.000307  -0.000023  -0.003099   0.005705
    13  H    0.003070   0.000297   0.002848  -0.000102  -0.004846  -0.000199
    14  C    0.000081  -0.000022  -0.000108   0.000000   0.003767   0.000058
    15  H    0.000000   0.000000   0.000007   0.000000  -0.000144   0.000001
    16  H   -0.000014   0.000002   0.000009   0.000000   0.000058   0.000010
    17  C   -0.000001   0.000000   0.000000   0.000000   0.000081  -0.000014
    18  H    0.000000   0.000000   0.000000   0.000000  -0.000108   0.000009
    19  H    0.000000   0.000000   0.000000   0.000000   0.000000   0.000000
    20  H    0.000000   0.000000   0.000000   0.000000  -0.000022   0.000002
              7          8          9         10         11         12
     1  C   -0.040206  -0.045214  -0.006560   0.004962  -0.004750  -0.000505
     2  H   -0.004094  -0.004221   0.005524   0.000015  -0.000489   0.000068
     3  H    0.005209  -0.004736  -0.000110  -0.000018   0.002490   0.000307
     4  H   -0.003564   0.004298  -0.000015  -0.000159   0.000121  -0.000023
     5  C    0.373887   0.381011  -0.039412  -0.034305  -0.039182  -0.003099
     6  H   -0.038579  -0.039705   0.005990  -0.002731  -0.006878   0.005705
     7  H    0.614276  -0.034314  -0.002659  -0.003902   0.004624   0.000003
     8  C   -0.034314   4.987909   0.370414   0.372246   0.389256  -0.042926
     9  H   -0.002659   0.370414   0.621428  -0.039230  -0.042926   0.006166
    10  H   -0.003902   0.372246  -0.039230   0.610790  -0.040499  -0.005157
    11  C    0.004624   0.389256  -0.042926  -0.040499   4.987909   0.370414
    12  H    0.000003  -0.042926   0.006166  -0.005157   0.370414   0.621428
    13  H   -0.000011  -0.040499  -0.005157   0.005830   0.372246  -0.039230
    14  C   -0.000144  -0.039182  -0.003099  -0.004846   0.381011  -0.039412
    15  H    0.000002   0.004624   0.000003  -0.000011  -0.034314  -0.002659
    16  H    0.000001  -0.006878   0.005705  -0.000199  -0.039705   0.005990
    17  C    0.000000  -0.004750  -0.000505   0.003070  -0.045214  -0.006560
    18  H    0.000007   0.002490   0.000307   0.002848  -0.004736  -0.000110
    19  H    0.000000   0.000121  -0.000023  -0.000102   0.004298  -0.000015
    20  H    0.000000  -0.000489   0.000068   0.000297  -0.004221   0.005524
             13         14         15         16         17         18
     1  C    0.003070   0.000081   0.000000  -0.000014  -0.000001   0.000000
     2  H    0.000297  -0.000022   0.000000   0.000002   0.000000   0.000000
     3  H    0.002848  -0.000108   0.000007   0.000009   0.000000   0.000000
     4  H   -0.000102   0.000000   0.000000   0.000000   0.000000   0.000000
     5  C   -0.004846   0.003767  -0.000144   0.000058   0.000081  -0.000108
     6  H   -0.000199   0.000058   0.000001   0.000010  -0.000014   0.000009
     7  H   -0.000011  -0.000144   0.000002   0.000001   0.000000   0.000007
     8  C   -0.040499  -0.039182   0.004624  -0.006878  -0.004750   0.002490
     9  H   -0.005157  -0.003099   0.000003   0.005705  -0.000505   0.000307
    10  H    0.005830  -0.004846  -0.000011  -0.000199   0.003070   0.002848
    11  C    0.372246   0.381011  -0.034314  -0.039705  -0.045214  -0.004736
    12  H   -0.039230  -0.039412  -0.002659   0.005990  -0.006560  -0.000110
    13  H    0.610790  -0.034305  -0.003902  -0.002731   0.004962  -0.000018
    14  C   -0.034305   4.956634   0.373887   0.375108   0.378132  -0.034386
    15  H   -0.003902   0.373887   0.614276  -0.038579  -0.040206   0.005209
    16  H   -0.002731   0.375108  -0.038579   0.614371  -0.040579  -0.004548
    17  C    0.004962   0.378132  -0.040206  -0.040579   5.066334   0.378306
    18  H   -0.000018  -0.034386   0.005209  -0.004548   0.378306   0.573108
    19  H   -0.000159  -0.028572  -0.003564  -0.002454   0.373105  -0.031316
    20  H    0.000015  -0.036166  -0.004094   0.005375   0.376816  -0.033050
             19         20
     1  C    0.000000   0.000000
     2  H    0.000000   0.000000
     3  H    0.000000   0.000000
     4  H    0.000000   0.000000
     5  C    0.000000  -0.000022
     6  H    0.000000   0.000002
     7  H    0.000000   0.000000
     8  C    0.000121  -0.000489
     9  H   -0.000023   0.000068
    10  H   -0.000102   0.000297
    11  C    0.004298  -0.004221
    12  H   -0.000015   0.005524
    13  H   -0.000159   0.000015
    14  C   -0.028572  -0.036166
    15  H   -0.003564  -0.004094
    16  H   -0.002454   0.005375
    17  C    0.373105   0.376816
    18  H   -0.031316  -0.033050
    19  H    0.578784  -0.031285
    20  H   -0.031285   0.581236
 Mulliken atomic charges:
              1
     1  C   -0.442977
     2  H    0.139993
     3  H    0.145986
     4  H    0.141181
     5  C   -0.248437
     6  H    0.129058
     7  H    0.129464
     8  C   -0.249457
     9  H    0.124089
    10  H    0.131099
    11  C   -0.249457
    12  H    0.124089
    13  H    0.131099
    14  C   -0.248437
    15  H    0.129464
    16  H    0.129058
    17  C   -0.442977
    18  H    0.145986
    19  H    0.141181
    20  H    0.139993
 Sum of Mulliken atomic charges =   0.00000
 Mulliken charges with hydrogens summed into heavy atoms:
              1
     1  C   -0.015816
     5  C    0.010085
     8  C    0.005732
    11  C    0.005732
    14  C    0.010085
    17  C   -0.015816
 Sum of Mulliken charges with hydrogens summed into heavy atoms =   0.00000
 Electronic spatial extent (au):  <R**2>=            984.5730
 Charge=              0.0000 electrons
 Dipole moment (field-independent basis, Debye):
    X=              0.0000    Y=              0.0000    Z=              0.0000  Tot=              0.0000
 Quadrupole moment (field-independent basis, Debye-Ang):
   XX=            -41.8910   YY=            -41.5258   ZZ=            -41.1670
   XY=             -0.3429   XZ=             -0.0302   YZ=              0.0611
 Traceless Quadrupole moment (field-independent basis, Debye-Ang):
   XX=             -0.3630   YY=              0.0021   ZZ=              0.3609
   XY=             -0.3429   XZ=             -0.0302   YZ=              0.0611
 Octapole moment (field-independent basis, Debye-Ang**2):
  XXX=              0.0000  YYY=              0.0000  ZZZ=              0.0000  XYY=              0.0000
  XXY=              0.0000  XXZ=              0.0000  XZZ=              0.0000  YZZ=              0.0000
  YYZ=              0.0000  XYZ=              0.0000
 Hexadecapole moment (field-independent basis, Debye-Ang**3):
 XXXX=          -1073.3390 YYYY=           -183.1177 ZZZZ=            -99.3148 XXXY=             -8.9995
 XXXZ=              5.0480 YYYX=             -1.2795 YYYZ=              2.2629 ZZZX=             -1.9207
 ZZZY=             -1.7983 XXYY=           -213.8092 XXZZ=           -195.8231 YYZZ=            -48.5776
 XXYZ=              1.1714 YYXZ=             -0.3170 ZZXY=              0.1782
 N-N= 2.485993196813D+02 E-N=-1.044126524937D+03  KE= 2.346176797205D+02
 No NMR shielding tensors so no spin-rotation constants.
 Leave Link  601 at Fri Sep 18 13:29:10 2015, MaxMem=  402653184 cpu:       0.3
 (Enter /share/apps/g09/l9999.exe)
 1\1\GINC-COMPUTE-0-12\FOpt\RB3LYP\6-31G(d)\C6H14\HETANJIN\18-Sep-2015\
 0\\#p B3LYP/6-31G(d) opt=tight int=ultrafine\\using B3LYP/6-31G(d) to 
 do opt and freq calc.\\0,1\C,-2.7639674203,-0.4835838258,0.0517613284\
 H,-2.8357814276,-0.697997141,1.1256548332\H,-2.4086780858,-1.393637023
 1,-0.4443315285\H,-3.777523566,-0.2850107052,-0.3153709337\C,-1.839952
 2897,0.7120397767,-0.2100492991\H,-1.7896829586,0.9051035082,-1.291428
 2081\H,-2.2882104061,1.6098286901,0.2367593251\C,-0.4121987897,0.55134
 37767,0.3404303386\H,-0.4630229514,0.3481259077,1.421227575\H,0.108477
 4896,1.5122945308,0.2360219004\C,0.4121990372,-0.5513436535,-0.3404304
 52\H,0.4630231372,-0.3481258442,-1.4212277034\H,-0.1084772241,-1.51229
 44098,-0.2360219357\C,1.8399525713,-0.7120396034,0.2100491316\H,2.2882
 106007,-1.6098286492,-0.2367593112\H,1.7896833137,-0.9051030779,1.2914
 280908\C,2.7639677726,0.4835838648,-0.0517618688\H,2.4086785284,1.3936
 372255,0.4443307501\H,3.777523921,0.2850107775,0.3153704039\H,2.835781
 7475,0.6979968753,-1.1256554366\\Version=EM64L-G09RevA.01\State=1-A\HF
 =-237.0826489\RMSD=4.128e-09\RMSF=1.036e-06\Dipole=0.,0.,0.\Quadrupole
 =-0.2699786,0.0013938,0.2685847,-0.2548612,-0.0290431,0.0411631\PG=C01
  [X(C6H14)]\\@


 LAWS OF PROGRAMMING DEFINITION:  A WORKING PROGRAM
                                  IS ONE THAT HAS
                                  ONLY UNOBSERVED
                                  BUGS.
 Job cpu time:  0 days  0 hours 14 minutes 15.3 seconds.
 File lengths (MBytes):  RWF=     15 Int=      0 D2E=      0 Chk=      2 Scr=      1
 Normal termination of Gaussian 09 at Fri Sep 18 13:29:10 2015.
