 Entering Gaussian System, Link 0=/share/apps/g09/g09
 Input=C6H14_5_00_1_opt_B3L.gjf
 Output=C6H14_5_00_1_opt_B3L.log
 Initial command:
 /share/apps/g09/l1.exe /state/partition1/Gau-3530.inp -scrdir=/state/partition1/
 Entering Link 1 = /share/apps/g09/l1.exe PID=      3531.
  
 Copyright (c) 1988,1990,1992,1993,1995,1998,2003,2009, Gaussian, Inc.
                  All Rights Reserved.
  
 This is part of the Gaussian(R) 09 program.  It is based on
 the Gaussian(R) 03 system (copyright 2003, Gaussian, Inc.),
 the Gaussian(R) 98 system (copyright 1998, Gaussian, Inc.),
 the Gaussian(R) 94 system (copyright 1995, Gaussian, Inc.),
 the Gaussian 92(TM) system (copyright 1992, Gaussian, Inc.),
 the Gaussian 90(TM) system (copyright 1990, Gaussian, Inc.),
 the Gaussian 88(TM) system (copyright 1988, Gaussian, Inc.),
 the Gaussian 86(TM) system (copyright 1986, Carnegie Mellon
 University), and the Gaussian 82(TM) system (copyright 1983,
 Carnegie Mellon University). Gaussian is a federally registered
 trademark of Gaussian, Inc.
  
 This software contains proprietary and confidential information,
 including trade secrets, belonging to Gaussian, Inc.
  
 This software is provided under written license and may be
 used, copied, transmitted, or stored only in accord with that
 written license.
  
 The following legend is applicable only to US Government
 contracts under FAR:
  
                    RESTRICTED RIGHTS LEGEND
  
 Use, reproduction and disclosure by the US Government is
 subject to restrictions as set forth in subparagraphs (a)
 and (c) of the Commercial Computer Software - Restricted
 Rights clause in FAR 52.227-19.
  
 Gaussian, Inc.
 340 Quinnipiac St., Bldg. 40, Wallingford CT 06492
  
  
 ---------------------------------------------------------------
 Warning -- This program may not be used in any manner that
 competes with the business of Gaussian, Inc. or will provide
 assistance to any competitor of Gaussian, Inc.  The licensee
 of this program is prohibited from giving any competitor of
 Gaussian, Inc. access to this program.  By using this program,
 the user acknowledges that Gaussian, Inc. is engaged in the
 business of creating and licensing software in the field of
 computational chemistry and represents and warrants to the
 licensee that it is not a competitor of Gaussian, Inc. and that
 it will not use this program in any manner prohibited above.
 ---------------------------------------------------------------
  

 Cite this work as:
 Gaussian 09, Revision A.01,
 M. J. Frisch, G. W. Trucks, H. B. Schlegel, G. E. Scuseria, 
 M. A. Robb, J. R. Cheeseman, G. Scalmani, V. Barone, B. Mennucci, 
 G. A. Petersson, H. Nakatsuji, M. Caricato, X. Li, H. P. Hratchian, 
 A. F. Izmaylov, J. Bloino, G. Zheng, J. L. Sonnenberg, M. Hada, 
 M. Ehara, K. Toyota, R. Fukuda, J. Hasegawa, M. Ishida, T. Nakajima, 
 Y. Honda, O. Kitao, H. Nakai, T. Vreven, J. A. Montgomery, Jr., 
 J. E. Peralta, F. Ogliaro, M. Bearpark, J. J. Heyd, E. Brothers, 
 K. N. Kudin, V. N. Staroverov, R. Kobayashi, J. Normand, 
 K. Raghavachari, A. Rendell, J. C. Burant, S. S. Iyengar, J. Tomasi, 
 M. Cossi, N. Rega, J. M. Millam, M. Klene, J. E. Knox, J. B. Cross, 
 V. Bakken, C. Adamo, J. Jaramillo, R. Gomperts, R. E. Stratmann, 
 O. Yazyev, A. J. Austin, R. Cammi, C. Pomelli, J. W. Ochterski, 
 R. L. Martin, K. Morokuma, V. G. Zakrzewski, G. A. Voth, 
 P. Salvador, J. J. Dannenberg, S. Dapprich, A. D. Daniels, 
 O. Farkas, J. B. Foresman, J. V. Ortiz, J. Cioslowski, 
 and D. J. Fox, Gaussian, Inc., Wallingford CT, 2009.
 
 ******************************************
 Gaussian 09:  EM64L-G09RevA.01  8-May-2009
                18-Sep-2015 
 ******************************************
 %mem=3GB
 %nprocshared=2
 Will use up to    2 processors via shared memory.
 -----------------------------------------
 #p B3LYP/6-31G(d) opt=tight int=ultrafine
 -----------------------------------------
 1/7=10,14=-1,18=20,19=15,26=3,38=1/1,3;
 2/9=110,12=2,17=6,18=5,40=1/2;
 3/5=1,6=6,7=1,11=2,16=1,25=1,30=1,71=1,74=-5,75=-5/1,2,3;
 4//1;
 5/5=2,38=5/2;
 6/7=2,8=2,9=2,10=2,28=1/1;
 7//1,2,3,16;
 1/7=10,14=-1,18=20,19=15/3(2);
 2/9=110/2;
 99//99;
 2/9=110/2;
 3/5=1,6=6,7=1,11=2,16=1,25=1,30=1,71=1,74=-5,75=-5/1,2,3;
 4/5=5,16=3/1;
 5/5=2,38=5/2;
 7//1,2,3,16;
 1/7=10,14=-1,18=20,19=15/3(-5);
 2/9=110/2;
 6/7=2,8=2,9=2,10=2,19=2,28=1/1;
 99/9=1/99;
 Leave Link    1 at Fri Sep 18 13:24:16 2015, MaxMem=  402653184 cpu:       0.1
 (Enter /share/apps/g09/l101.exe)
 ---------------------------------------------
 using B3LYP/6-31G(d) to do opt and freq calc.
 ---------------------------------------------
 Symbolic Z-matrix:
 Charge =  0 Multiplicity = 1
 C                     0.49582  -0.88598   1.25895 
 H                    -0.32507  -1.60987   1.28058 
 H                     0.42986  -0.28715   2.17228 
 H                     1.43154  -1.45163   1.3017 
 C                     0.43172  -0.00157  0. 
 C                    -0.86305   0.85618   0.00074 
 H                    -0.85108   1.52563  -0.88112 
 H                    -0.85098   1.52424   0.88366 
 C                    -2.15741   0.04788   0.00007 
 H                    -2.2303   -0.60007   0.88097 
 H                    -3.03151   0.70856   0.005 
 H                    -2.23426  -0.59212  -0.88628 
 C                     1.64223   0.9577   -0.00133 
 H                     1.64335   1.60285  -0.88485 
 H                     1.64444   1.60395   0.88137 
 H                     2.58653   0.40442  -0.00158 
 C                     0.49381  -0.88695  -1.25834 
 H                     1.43029  -1.45119  -1.30311 
 H                    -0.32596  -1.61216  -1.27715 
 H                     0.42446  -0.28899  -2.17198 
 
 NAtoms=     20 NQM=     20 NQMF=      0 NMic=      0 NMicF=      0 NTot=     20.
                    Isotopes and Nuclear Properties:
 (Nuclear quadrupole moments (NQMom) in fm**2, nuclear magnetic moments (NMagM)
  in nuclear magnetons)

  Atom         1           2           3           4           5           6           7           8           9          10
 IAtWgt=          12           1           1           1          12          12           1           1          12           1
 AtmWgt=  12.0000000   1.0078250   1.0078250   1.0078250  12.0000000  12.0000000   1.0078250   1.0078250  12.0000000   1.0078250
 NucSpn=           0           1           1           1           0           0           1           1           0           1
 AtZEff=   0.0000000   0.0000000   0.0000000   0.0000000   0.0000000   0.0000000   0.0000000   0.0000000   0.0000000   0.0000000
 NQMom=    0.0000000   0.0000000   0.0000000   0.0000000   0.0000000   0.0000000   0.0000000   0.0000000   0.0000000   0.0000000
 NMagM=    0.0000000   2.7928460   2.7928460   2.7928460   0.0000000   0.0000000   2.7928460   2.7928460   0.0000000   2.7928460

  Atom        11          12          13          14          15          16          17          18          19          20
 IAtWgt=           1           1          12           1           1           1          12           1           1           1
 AtmWgt=   1.0078250   1.0078250  12.0000000   1.0078250   1.0078250   1.0078250  12.0000000   1.0078250   1.0078250   1.0078250
 NucSpn=           1           1           0           1           1           1           0           1           1           1
 AtZEff=   0.0000000   0.0000000   0.0000000   0.0000000   0.0000000   0.0000000   0.0000000   0.0000000   0.0000000   0.0000000
 NQMom=    0.0000000   0.0000000   0.0000000   0.0000000   0.0000000   0.0000000   0.0000000   0.0000000   0.0000000   0.0000000
 NMagM=    2.7928460   2.7928460   0.0000000   2.7928460   2.7928460   2.7928460   0.0000000   2.7928460   2.7928460   2.7928460
 Leave Link  101 at Fri Sep 18 13:24:16 2015, MaxMem=  402653184 cpu:       0.2
 (Enter /share/apps/g09/l103.exe)

 GradGradGradGradGradGradGradGradGradGradGradGradGradGradGradGradGradGrad
 Berny optimization.
 Initialization pass.
                           ----------------------------
                           !    Initial Parameters    !
                           ! (Angstroms and Degrees)  !
 --------------------------                            --------------------------
 ! Name  Definition              Value          Derivative Info.                !
 --------------------------------------------------------------------------------
 ! R1    R(1,2)                  1.0947         estimate D2E/DX2                !
 ! R2    R(1,3)                  1.0941         estimate D2E/DX2                !
 ! R3    R(1,4)                  1.0942         estimate D2E/DX2                !
 ! R4    R(1,5)                  1.5399         estimate D2E/DX2                !
 ! R5    R(5,6)                  1.5531         estimate D2E/DX2                !
 ! R6    R(5,13)                 1.5445         estimate D2E/DX2                !
 ! R7    R(5,17)                 1.5399         estimate D2E/DX2                !
 ! R8    R(6,7)                  1.1072         estimate D2E/DX2                !
 ! R9    R(6,8)                  1.1072         estimate D2E/DX2                !
 ! R10   R(6,9)                  1.526          estimate D2E/DX2                !
 ! R11   R(9,10)                 1.096          estimate D2E/DX2                !
 ! R12   R(9,11)                 1.0957         estimate D2E/DX2                !
 ! R13   R(9,12)                 1.0959         estimate D2E/DX2                !
 ! R14   R(13,14)                1.094          estimate D2E/DX2                !
 ! R15   R(13,15)                1.094          estimate D2E/DX2                !
 ! R16   R(13,16)                1.0945         estimate D2E/DX2                !
 ! R17   R(17,18)                1.0942         estimate D2E/DX2                !
 ! R18   R(17,19)                1.0947         estimate D2E/DX2                !
 ! R19   R(17,20)                1.0941         estimate D2E/DX2                !
 ! A1    A(2,1,3)              107.4712         estimate D2E/DX2                !
 ! A2    A(2,1,4)              107.3765         estimate D2E/DX2                !
 ! A3    A(2,1,5)              111.3906         estimate D2E/DX2                !
 ! A4    A(3,1,4)              107.57           estimate D2E/DX2                !
 ! A5    A(3,1,5)              111.4449         estimate D2E/DX2                !
 ! A6    A(4,1,5)              111.3725         estimate D2E/DX2                !
 ! A7    A(1,5,6)              110.5796         estimate D2E/DX2                !
 ! A8    A(1,5,13)             108.9526         estimate D2E/DX2                !
 ! A9    A(1,5,17)             109.6447         estimate D2E/DX2                !
 ! A10   A(6,5,13)             108.0815         estimate D2E/DX2                !
 ! A11   A(6,5,17)             110.5822         estimate D2E/DX2                !
 ! A12   A(13,5,17)            108.9533         estimate D2E/DX2                !
 ! A13   A(5,6,7)              108.9366         estimate D2E/DX2                !
 ! A14   A(5,6,8)              108.9359         estimate D2E/DX2                !
 ! A15   A(5,6,9)              114.4923         estimate D2E/DX2                !
 ! A16   A(7,6,8)              105.6747         estimate D2E/DX2                !
 ! A17   A(7,6,9)              109.2125         estimate D2E/DX2                !
 ! A18   A(8,6,9)              109.2194         estimate D2E/DX2                !
 ! A19   A(6,9,10)             111.6674         estimate D2E/DX2                !
 ! A20   A(6,9,11)             110.9319         estimate D2E/DX2                !
 ! A21   A(6,9,12)             111.6634         estimate D2E/DX2                !
 ! A22   A(10,9,11)            107.4458         estimate D2E/DX2                !
 ! A23   A(10,9,12)            107.4659         estimate D2E/DX2                !
 ! A24   A(11,9,12)            107.4464         estimate D2E/DX2                !
 ! A25   A(5,13,14)            111.5778         estimate D2E/DX2                !
 ! A26   A(5,13,15)            111.5787         estimate D2E/DX2                !
 ! A27   A(5,13,16)            111.2386         estimate D2E/DX2                !
 ! A28   A(14,13,15)           107.6536         estimate D2E/DX2                !
 ! A29   A(14,13,16)           107.2811         estimate D2E/DX2                !
 ! A30   A(15,13,16)           107.2813         estimate D2E/DX2                !
 ! A31   A(5,17,18)            111.3721         estimate D2E/DX2                !
 ! A32   A(5,17,19)            111.393          estimate D2E/DX2                !
 ! A33   A(5,17,20)            111.4437         estimate D2E/DX2                !
 ! A34   A(18,17,19)           107.3733         estimate D2E/DX2                !
 ! A35   A(18,17,20)           107.5709         estimate D2E/DX2                !
 ! A36   A(19,17,20)           107.4727         estimate D2E/DX2                !
 ! D1    D(2,1,5,6)             63.5582         estimate D2E/DX2                !
 ! D2    D(2,1,5,13)          -177.7914         estimate D2E/DX2                !
 ! D3    D(2,1,5,17)           -58.6334         estimate D2E/DX2                !
 ! D4    D(3,1,5,6)            -56.4605         estimate D2E/DX2                !
 ! D5    D(3,1,5,13)            62.19           estimate D2E/DX2                !
 ! D6    D(3,1,5,17)          -178.652          estimate D2E/DX2                !
 ! D7    D(4,1,5,6)           -176.5924         estimate D2E/DX2                !
 ! D8    D(4,1,5,13)           -57.9419         estimate D2E/DX2                !
 ! D9    D(4,1,5,17)            61.216          estimate D2E/DX2                !
 ! D10   D(1,5,6,7)            176.507          estimate D2E/DX2                !
 ! D11   D(1,5,6,8)             61.6925         estimate D2E/DX2                !
 ! D12   D(1,5,6,9)            -60.9046         estimate D2E/DX2                !
 ! D13   D(13,5,6,7)            57.3283         estimate D2E/DX2                !
 ! D14   D(13,5,6,8)           -57.4862         estimate D2E/DX2                !
 ! D15   D(13,5,6,9)           179.9168         estimate D2E/DX2                !
 ! D16   D(17,5,6,7)           -61.8527         estimate D2E/DX2                !
 ! D17   D(17,5,6,8)          -176.6673         estimate D2E/DX2                !
 ! D18   D(17,5,6,9)            60.7357         estimate D2E/DX2                !
 ! D19   D(1,5,13,14)          179.5416         estimate D2E/DX2                !
 ! D20   D(1,5,13,15)          -59.9872         estimate D2E/DX2                !
 ! D21   D(1,5,13,16)           59.7776         estimate D2E/DX2                !
 ! D22   D(6,5,13,14)          -60.2543         estimate D2E/DX2                !
 ! D23   D(6,5,13,15)           60.217          estimate D2E/DX2                !
 ! D24   D(6,5,13,16)          179.9817         estimate D2E/DX2                !
 ! D25   D(17,5,13,14)          59.9534         estimate D2E/DX2                !
 ! D26   D(17,5,13,15)        -179.5753         estimate D2E/DX2                !
 ! D27   D(17,5,13,16)         -59.8105         estimate D2E/DX2                !
 ! D28   D(1,5,17,18)          -61.3244         estimate D2E/DX2                !
 ! D29   D(1,5,17,19)           58.5222         estimate D2E/DX2                !
 ! D30   D(1,5,17,20)          178.5436         estimate D2E/DX2                !
 ! D31   D(6,5,17,18)          176.4856         estimate D2E/DX2                !
 ! D32   D(6,5,17,19)          -63.6678         estimate D2E/DX2                !
 ! D33   D(6,5,17,20)           56.3536         estimate D2E/DX2                !
 ! D34   D(13,5,17,18)          57.8331         estimate D2E/DX2                !
 ! D35   D(13,5,17,19)         177.6797         estimate D2E/DX2                !
 ! D36   D(13,5,17,20)         -62.2989         estimate D2E/DX2                !
 ! D37   D(5,6,9,10)            59.9305         estimate D2E/DX2                !
 ! D38   D(5,6,9,11)           179.7556         estimate D2E/DX2                !
 ! D39   D(5,6,9,12)           -60.4212         estimate D2E/DX2                !
 ! D40   D(7,6,9,10)          -177.6307         estimate D2E/DX2                !
 ! D41   D(7,6,9,11)           -57.8056         estimate D2E/DX2                !
 ! D42   D(7,6,9,12)            62.0175         estimate D2E/DX2                !
 ! D43   D(8,6,9,10)           -62.5127         estimate D2E/DX2                !
 ! D44   D(8,6,9,11)            57.3124         estimate D2E/DX2                !
 ! D45   D(8,6,9,12)           177.1356         estimate D2E/DX2                !
 --------------------------------------------------------------------------------
 Trust Radius=3.00D-01 FncErr=1.00D-07 GrdErr=1.00D-06
 Number of steps in this run= 110 maximum allowed number of steps= 120.
 GradGradGradGradGradGradGradGradGradGradGradGradGradGradGradGradGradGrad

 Leave Link  103 at Fri Sep 18 13:24:16 2015, MaxMem=  402653184 cpu:       0.0
 (Enter /share/apps/g09/l202.exe)
                          Input orientation:                          
 ---------------------------------------------------------------------
 Center     Atomic      Atomic             Coordinates (Angstroms)
 Number     Number       Type             X           Y           Z
 ---------------------------------------------------------------------
      1          6           0        0.495821   -0.885984    1.258952
      2          1           0       -0.325070   -1.609868    1.280578
      3          1           0        0.429859   -0.287148    2.172276
      4          1           0        1.431543   -1.451632    1.301699
      5          6           0        0.431716   -0.001572   -0.000002
      6          6           0       -0.863051    0.856182    0.000738
      7          1           0       -0.851080    1.525632   -0.881124
      8          1           0       -0.850978    1.524244    0.883655
      9          6           0       -2.157408    0.047876    0.000066
     10          1           0       -2.230305   -0.600070    0.880972
     11          1           0       -3.031513    0.708564    0.005000
     12          1           0       -2.234263   -0.592116   -0.886276
     13          6           0        1.642230    0.957697   -0.001334
     14          1           0        1.643351    1.602849   -0.884846
     15          1           0        1.644443    1.603949    0.881371
     16          1           0        2.586533    0.404421   -0.001575
     17          6           0        0.493807   -0.886949   -1.258336
     18          1           0        1.430292   -1.451187   -1.303105
     19          1           0       -0.325961   -1.612156   -1.277149
     20          1           0        0.424463   -0.288985   -2.171979
 ---------------------------------------------------------------------
                    Distance matrix (angstroms):
                    1          2          3          4          5
     1  C    0.000000
     2  H    1.094686   0.000000
     3  H    1.094128   1.764832   0.000000
     4  H    1.094240   1.763852   1.765587   0.000000
     5  C    1.539889   2.190714   2.190970   2.190149   0.000000
     6  C    2.542593   2.829985   2.773878   3.504806   1.553114
     7  H    3.494275   3.844607   3.774947   4.340413   2.180434
     8  H    2.786380   3.202622   2.565585   3.773659   2.180428
     9  C    3.081641   2.783036   3.394803   4.101627   2.589596
    10  H    2.767016   2.193011   2.973526   3.783028   2.867171
    11  H    4.069037   3.785110   4.203525   5.125109   3.535290
    12  H    3.484497   3.062041   4.067590   4.354783   2.870831
    13  C    2.510325   3.479362   2.782816   2.747208   1.544520
    14  H    3.479509   4.345721   3.793501   3.762406   2.196628
    15  H    2.767972   3.790378   2.591891   3.091695   2.196639
    16  H    2.761367   3.765463   3.139290   2.545085   2.192731
    17  C    2.517289   2.763920   3.483238   2.784240   1.539855
    18  H    2.785108   3.127602   3.799227   2.604804   2.190118
    19  H    2.763053   2.557728   3.771663   3.124907   2.190698
    20  H    3.483215   3.771827   4.344259   3.798999   2.190923
                    6          7          8          9         10
     6  C    0.000000
     7  H    1.107243   0.000000
     8  H    1.107247   1.764780   0.000000
     9  C    1.526014   2.160267   2.160359   0.000000
    10  H    2.182857   3.086398   2.532836   1.095967   0.000000
    11  H    2.173485   2.491406   2.488393   1.095716   1.766857
    12  H    2.182793   2.529442   3.086278   1.095946   1.767270
    13  C    2.507338   2.704288   2.705599   3.907048   4.266337
    14  H    2.761127   2.495629   3.058668   4.200807   4.793347
    15  H    2.760833   3.056167   2.496695   4.201444   4.457732
    16  H    3.479041   3.721277   3.722112   4.757321   4.998982
    17  C    2.542604   2.787751   3.494342   3.080002   3.475590
    18  H    3.504765   3.774146   4.340426   4.100858   4.346788
    19  H    2.830928   3.205979   3.844700   2.782298   3.050956
    20  H    2.773049   2.566350   3.775109   3.390769   4.057718
                   11         12         13         14         15
    11  H    0.000000
    12  H    1.766847   0.000000
    13  C    4.680383   4.267580   0.000000
    14  H    4.842099   4.455756   1.093991   0.000000
    15  H    4.840899   4.794960   1.093990   1.766218   0.000000
    16  H    5.626276   5.001585   1.094451   1.762382   1.762383
    17  C    4.070573   2.769065   2.510308   2.767678   3.479495
    18  H    5.126731   3.786913   2.746315   3.089898   3.761868
    19  H    3.788094   2.198836   3.479314   3.790560   4.345691
    20  H    4.204535   2.968795   2.783680   2.592573   3.794008
                   16         17         18         19         20
    16  H    0.000000
    17  C    2.761628   0.000000
    18  H    2.544436   1.094245   0.000000
    19  H    3.765142   1.094668   1.763805   0.000000
    20  H    3.141021   1.094127   1.765601   1.764834   0.000000
 Stoichiometry    C6H14
 Framework group  C1[X(C6H14)]
 Deg. of freedom    54
 Full point group                 C1      NOp   1
 Largest Abelian subgroup         C1      NOp   1
 Largest concise Abelian subgroup C1      NOp   1
                         Standard orientation:                         
 ---------------------------------------------------------------------
 Center     Atomic      Atomic             Coordinates (Angstroms)
 Number     Number       Type             X           Y           Z
 ---------------------------------------------------------------------
      1          6           0        0.495821   -0.885984    1.258952
      2          1           0       -0.325070   -1.609868    1.280578
      3          1           0        0.429859   -0.287148    2.172276
      4          1           0        1.431543   -1.451632    1.301699
      5          6           0        0.431716   -0.001572   -0.000002
      6          6           0       -0.863051    0.856182    0.000738
      7          1           0       -0.851080    1.525632   -0.881124
      8          1           0       -0.850978    1.524244    0.883655
      9          6           0       -2.157408    0.047876    0.000066
     10          1           0       -2.230305   -0.600070    0.880972
     11          1           0       -3.031513    0.708564    0.005000
     12          1           0       -2.234263   -0.592116   -0.886276
     13          6           0        1.642230    0.957697   -0.001334
     14          1           0        1.643351    1.602849   -0.884846
     15          1           0        1.644443    1.603949    0.881371
     16          1           0        2.586533    0.404421   -0.001575
     17          6           0        0.493807   -0.886949   -1.258336
     18          1           0        1.430292   -1.451187   -1.303105
     19          1           0       -0.325961   -1.612156   -1.277149
     20          1           0        0.424463   -0.288985   -2.171979
 ---------------------------------------------------------------------
 Rotational constants (GHZ):      4.2633553      2.5031032      2.4954731
 Leave Link  202 at Fri Sep 18 13:24:16 2015, MaxMem=  402653184 cpu:       0.0
 (Enter /share/apps/g09/l301.exe)
 Standard basis: 6-31G(d) (6D, 7F)
 Ernie: Thresh=  0.10000D-02 Tol=  0.10000D-05 Strict=F.
 There are   118 symmetry adapted basis functions of A   symmetry.
 Integral buffers will be    131072 words long.
 Raffenetti 2 integral format.
 Two-electron integral symmetry is turned on.
   118 basis functions,   224 primitive gaussians,   118 cartesian basis functions
    25 alpha electrons       25 beta electrons
       nuclear repulsion energy       265.5758185448 Hartrees.
 IExCor=  402 DFT=T Ex+Corr=B3LYP ExCW=0 ScaHFX=  0.200000
 ScaDFX=  0.800000  0.720000  1.000000  0.810000 ScalE2=  1.000000  1.000000
 IRadAn=      5 IRanWt=     -1 IRanGd=            0 ICorTp=0
 NAtoms=   20 NActive=   20 NUniq=   20 SFac= 7.50D-01 NAtFMM=   80 NAOKFM=F Big=F
 Leave Link  301 at Fri Sep 18 13:24:16 2015, MaxMem=  402653184 cpu:       0.1
 (Enter /share/apps/g09/l302.exe)
 NPDir=0 NMtPBC=     1 NCelOv=     1 NCel=       1 NClECP=     1 NCelD=      1
         NCelK=      1 NCelE2=     1 NClLst=     1 CellRange=     0.0.
 One-electron integrals computed using PRISM.
 NBasis=   118 RedAO= T  NBF=   118
 NBsUse=   118 1.00D-06 NBFU=   118
 Precomputing XC quadrature grid using
 IXCGrd= 2 IRadAn=           5 IRanWt=          -1 IRanGd=           0 AccXCQ= 1.00D-10.
 NRdTot=    1640 NPtTot=      438216 NUsed=      449969 NTot=      450001
 NSgBfM=   118   118   118   118   118 NAtAll=    20    20.
 Leave Link  302 at Fri Sep 18 13:24:17 2015, MaxMem=  402653184 cpu:       1.3
 (Enter /share/apps/g09/l303.exe)
 DipDrv:  MaxL=1.
 Leave Link  303 at Fri Sep 18 13:24:17 2015, MaxMem=  402653184 cpu:       0.0
 (Enter /share/apps/g09/l401.exe)
 Harris functional with IExCor=  402 diagonalized for initial guess.
 ExpMin= 1.61D-01 ExpMax= 3.05D+03 ExpMxC= 4.57D+02 IAcc=3 IRadAn=         5 AccDes= 0.00D+00
 HarFok:  IExCor=  402 AccDes= 0.00D+00 IRadAn=         5 IDoV= 1
 ScaDFX=  1.000000  1.000000  1.000000  1.000000
 FoFCou: FMM=F IPFlag=           0 FMFlag=      100000 FMFlg1=           0
         NFxFlg=           0 DoJE=T BraDBF=F KetDBF=T FulRan=T
         Omega=  0.000000  0.000000  1.000000  0.000000  0.000000 ICntrl=     500 IOpCl=  0
         NMat0=    1 NMatS0=    1 NMatT0=    0 NMatD0=    1 NMtDS0=    0 NMtDT0=    0
         I1Cent=           4 NGrid=           0.
 Petite list used in FoFCou.
 Harris En= -237.179110477036    
 Initial guess orbital symmetries:
       Occupied  (A) (A) (A) (A) (A) (A) (A) (A) (A) (A) (A) (A)
                 (A) (A) (A) (A) (A) (A) (A) (A) (A) (A) (A) (A)
                 (A)
       Virtual   (A) (A) (A) (A) (A) (A) (A) (A) (A) (A) (A) (A)
                 (A) (A) (A) (A) (A) (A) (A) (A) (A) (A) (A) (A)
                 (A) (A) (A) (A) (A) (A) (A) (A) (A) (A) (A) (A)
                 (A) (A) (A) (A) (A) (A) (A) (A) (A) (A) (A) (A)
                 (A) (A) (A) (A) (A) (A) (A) (A) (A) (A) (A) (A)
                 (A) (A) (A) (A) (A) (A) (A) (A) (A) (A) (A) (A)
                 (A) (A) (A) (A) (A) (A) (A) (A) (A) (A) (A) (A)
                 (A) (A) (A) (A) (A) (A) (A) (A) (A)
 The electronic state of the initial guess is 1-A.
 Leave Link  401 at Fri Sep 18 13:24:22 2015, MaxMem=  402653184 cpu:      10.7
 (Enter /share/apps/g09/l502.exe)
 Closed shell SCF:
 Requested convergence on RMS density matrix=1.00D-08 within 128 cycles.
 Requested convergence on MAX density matrix=1.00D-06.
 Requested convergence on             energy=1.00D-06.
 No special actions if energy rises.
 Using DIIS extrapolation, IDIIS=  1040.
 Integral symmetry usage will be decided dynamically.
       449776 words used for storage of precomputed grid.
 Keep R1 ints in memory in canonical form, NReq=26103831.
 IEnd=      511320 IEndB=      511320 NGot=   402653184 MDV=   377521788
 LenX=   377521788 LenY=   377507423
 Symmetry not used in FoFDir.
 MinBra= 0 MaxBra= 2 Meth= 1.
 IRaf=       0 NMat=   1 IRICut=       1 DoRegI=T DoRafI=F ISym2E= 0 JSym2E=0.
 Integral accuracy reduced to 1.0D-05 until final iterations.

 Cycle   1  Pass 0  IDiag  1:
 E= -236.786905127937    
 DIIS: error= 5.82D-02 at cycle   1 NSaved=   1.
 NSaved= 1 IEnMin= 1 EnMin= -236.786905127937     IErMin= 1 ErrMin= 5.82D-02
 ErrMax= 5.82D-02 EMaxC= 1.00D-01 BMatC= 2.66D-01 BMatP= 2.66D-01
 IDIUse=3 WtCom= 4.18D-01 WtEn= 5.82D-01
 Coeff-Com:  0.100D+01
 Coeff-En:   0.100D+01
 Coeff:      0.100D+01
 Gap=     0.308 Goal=   None    Shift=    0.000
 GapD=    0.308 DampG=1.000 DampE=0.500 DampFc=0.5000 IDamp=-1.
 Damping current iteration by 5.00D-01
 RMSDP=1.04D-02 MaxDP=1.44D-01              OVMax= 1.81D-01

 Cycle   2  Pass 0  IDiag  1:
 E= -236.915622228528     Delta-E=       -0.128717100592 Rises=F Damp=T
 DIIS: error= 8.88D-03 at cycle   2 NSaved=   2.
 NSaved= 2 IEnMin= 2 EnMin= -236.915622228528     IErMin= 2 ErrMin= 8.88D-03
 ErrMax= 8.88D-03 EMaxC= 1.00D-01 BMatC= 1.05D-02 BMatP= 2.66D-01
 IDIUse=3 WtCom= 9.11D-01 WtEn= 8.88D-02
 Coeff-Com:  0.901D-01 0.910D+00
 Coeff-En:   0.153D+00 0.847D+00
 Coeff:      0.957D-01 0.904D+00
 Gap=     0.392 Goal=   None    Shift=    0.000
 RMSDP=1.86D-03 MaxDP=2.77D-02 DE=-1.29D-01 OVMax= 1.08D-01

 Cycle   3  Pass 0  IDiag  1:
 E= -237.081409017916     Delta-E=       -0.165786789388 Rises=F Damp=F
 DIIS: error= 4.08D-03 at cycle   3 NSaved=   3.
 NSaved= 3 IEnMin= 3 EnMin= -237.081409017916     IErMin= 3 ErrMin= 4.08D-03
 ErrMax= 4.08D-03 EMaxC= 1.00D-01 BMatC= 1.70D-03 BMatP= 1.05D-02
 IDIUse=3 WtCom= 9.59D-01 WtEn= 4.08D-02
 Coeff-Com:  0.144D-01 0.236D+00 0.750D+00
 Coeff-En:   0.000D+00 0.000D+00 0.100D+01
 Coeff:      0.138D-01 0.226D+00 0.760D+00
 Gap=     0.377 Goal=   None    Shift=    0.000
 RMSDP=6.39D-04 MaxDP=1.59D-02 DE=-1.66D-01 OVMax= 1.36D-02

 Cycle   4  Pass 0  IDiag  1:
 E= -237.082296291266     Delta-E=       -0.000887273350 Rises=F Damp=F
 DIIS: error= 2.45D-03 at cycle   4 NSaved=   4.
 NSaved= 4 IEnMin= 4 EnMin= -237.082296291266     IErMin= 4 ErrMin= 2.45D-03
 ErrMax= 2.45D-03 EMaxC= 1.00D-01 BMatC= 8.19D-04 BMatP= 1.70D-03
 IDIUse=3 WtCom= 9.75D-01 WtEn= 2.45D-02
 Coeff-Com:  0.117D-03 0.311D-01 0.411D+00 0.558D+00
 Coeff-En:   0.000D+00 0.000D+00 0.323D+00 0.677D+00
 Coeff:      0.114D-03 0.303D-01 0.409D+00 0.561D+00
 Gap=     0.382 Goal=   None    Shift=    0.000
 RMSDP=2.48D-04 MaxDP=5.99D-03 DE=-8.87D-04 OVMax= 6.46D-03

 Cycle   5  Pass 0  IDiag  1:
 E= -237.083064899154     Delta-E=       -0.000768607888 Rises=F Damp=F
 DIIS: error= 1.96D-04 at cycle   5 NSaved=   5.
 NSaved= 5 IEnMin= 5 EnMin= -237.083064899154     IErMin= 5 ErrMin= 1.96D-04
 ErrMax= 1.96D-04 EMaxC= 1.00D-01 BMatC= 9.48D-06 BMatP= 8.19D-04
 IDIUse=3 WtCom= 9.98D-01 WtEn= 1.96D-03
 Coeff-Com:  0.139D-03-0.188D-02 0.918D-01 0.175D+00 0.734D+00
 Coeff-En:   0.000D+00 0.000D+00 0.000D+00 0.000D+00 0.100D+01
 Coeff:      0.139D-03-0.187D-02 0.916D-01 0.175D+00 0.735D+00
 Gap=     0.381 Goal=   None    Shift=    0.000
 RMSDP=2.70D-05 MaxDP=6.39D-04 DE=-7.69D-04 OVMax= 5.97D-04

 Cycle   6  Pass 0  IDiag  1:
 E= -237.083073388472     Delta-E=       -0.000008489318 Rises=F Damp=F
 DIIS: error= 4.10D-05 at cycle   6 NSaved=   6.
 NSaved= 6 IEnMin= 6 EnMin= -237.083073388472     IErMin= 6 ErrMin= 4.10D-05
 ErrMax= 4.10D-05 EMaxC= 1.00D-01 BMatC= 1.59D-07 BMatP= 9.48D-06
 IDIUse=1 WtCom= 1.00D+00 WtEn= 0.00D+00
 Coeff-Com:  0.145D-03-0.108D-02 0.250D-01 0.499D-01 0.242D+00 0.684D+00
 Coeff:      0.145D-03-0.108D-02 0.250D-01 0.499D-01 0.242D+00 0.684D+00
 Gap=     0.381 Goal=   None    Shift=    0.000
 RMSDP=5.78D-06 MaxDP=7.60D-05 DE=-8.49D-06 OVMax= 1.26D-04

 Initial convergence to 1.0D-05 achieved.  Increase integral accuracy.
 Cycle   7  Pass 1  IDiag  1:
 E= -237.083058887023     Delta-E=        0.000014501448 Rises=F Damp=F
 DIIS: error= 1.02D-05 at cycle   1 NSaved=   1.
 NSaved= 1 IEnMin= 1 EnMin= -237.083058887023     IErMin= 1 ErrMin= 1.02D-05
 ErrMax= 1.02D-05 EMaxC= 1.00D-01 BMatC= 2.36D-08 BMatP= 2.36D-08
 IDIUse=1 WtCom= 1.00D+00 WtEn= 0.00D+00
 Coeff-Com:  0.100D+01
 Coeff:      0.100D+01
 Gap=     0.381 Goal=   None    Shift=    0.000
 RMSDP=5.78D-06 MaxDP=7.60D-05 DE= 1.45D-05 OVMax= 6.30D-05

 Cycle   8  Pass 1  IDiag  1:
 E= -237.083058878279     Delta-E=        0.000000008744 Rises=F Damp=F
 DIIS: error= 1.31D-05 at cycle   2 NSaved=   2.
 NSaved= 2 IEnMin= 1 EnMin= -237.083058887023     IErMin= 1 ErrMin= 1.02D-05
 ErrMax= 1.31D-05 EMaxC= 1.00D-01 BMatC= 3.43D-08 BMatP= 2.36D-08
 IDIUse=1 WtCom= 1.00D+00 WtEn= 0.00D+00
 Coeff-Com:  0.549D+00 0.451D+00
 Coeff:      0.549D+00 0.451D+00
 Gap=     0.381 Goal=   None    Shift=    0.000
 RMSDP=1.51D-06 MaxDP=2.94D-05 DE= 8.74D-09 OVMax= 3.66D-05

 Cycle   9  Pass 1  IDiag  1:
 E= -237.083058912549     Delta-E=       -0.000000034270 Rises=F Damp=F
 DIIS: error= 5.23D-07 at cycle   3 NSaved=   3.
 NSaved= 3 IEnMin= 3 EnMin= -237.083058912549     IErMin= 3 ErrMin= 5.23D-07
 ErrMax= 5.23D-07 EMaxC= 1.00D-01 BMatC= 7.40D-11 BMatP= 2.36D-08
 IDIUse=1 WtCom= 1.00D+00 WtEn= 0.00D+00
 Coeff-Com:  0.119D-01 0.433D-01 0.945D+00
 Coeff:      0.119D-01 0.433D-01 0.945D+00
 Gap=     0.381 Goal=   None    Shift=    0.000
 RMSDP=1.32D-07 MaxDP=2.63D-06 DE=-3.43D-08 OVMax= 2.93D-06

 Cycle  10  Pass 1  IDiag  1:
 E= -237.083058912613     Delta-E=       -0.000000000064 Rises=F Damp=F
 DIIS: error= 2.67D-07 at cycle   4 NSaved=   4.
 NSaved= 4 IEnMin= 4 EnMin= -237.083058912613     IErMin= 4 ErrMin= 2.67D-07
 ErrMax= 2.67D-07 EMaxC= 1.00D-01 BMatC= 1.41D-11 BMatP= 7.40D-11
 IDIUse=1 WtCom= 1.00D+00 WtEn= 0.00D+00
 Coeff-Com: -0.926D-02 0.591D-02 0.386D+00 0.617D+00
 Coeff:     -0.926D-02 0.591D-02 0.386D+00 0.617D+00
 Gap=     0.381 Goal=   None    Shift=    0.000
 RMSDP=4.00D-08 MaxDP=7.72D-07 DE=-6.42D-11 OVMax= 1.12D-06

 Cycle  11  Pass 1  IDiag  1:
 E= -237.083058912626     Delta-E=       -0.000000000013 Rises=F Damp=F
 DIIS: error= 6.95D-08 at cycle   5 NSaved=   5.
 NSaved= 5 IEnMin= 5 EnMin= -237.083058912626     IErMin= 5 ErrMin= 6.95D-08
 ErrMax= 6.95D-08 EMaxC= 1.00D-01 BMatC= 1.22D-12 BMatP= 1.41D-11
 IDIUse=1 WtCom= 1.00D+00 WtEn= 0.00D+00
 Coeff-Com: -0.497D-02 0.141D-03 0.122D+00 0.287D+00 0.596D+00
 Coeff:     -0.497D-02 0.141D-03 0.122D+00 0.287D+00 0.596D+00
 Gap=     0.381 Goal=   None    Shift=    0.000
 RMSDP=9.26D-09 MaxDP=2.26D-07 DE=-1.32D-11 OVMax= 2.69D-07

 SCF Done:  E(RB3LYP) =  -237.083058913     A.U. after   11 cycles
             Convg  =    0.9264D-08             -V/T =  2.0103
 KE= 2.346634334437D+02 PE=-1.078094147897D+03 EE= 3.407718369964D+02
 Leave Link  502 at Fri Sep 18 13:25:17 2015, MaxMem=  402653184 cpu:     108.7
 (Enter /share/apps/g09/l601.exe)
 Copying SCF densities to generalized density rwf, IOpCl= 0 IROHF=0.

 **********************************************************************

            Population analysis using the SCF density.

 **********************************************************************

 Orbital symmetries:
       Occupied  (A) (A) (A) (A) (A) (A) (A) (A) (A) (A) (A) (A)
                 (A) (A) (A) (A) (A) (A) (A) (A) (A) (A) (A) (A)
                 (A)
       Virtual   (A) (A) (A) (A) (A) (A) (A) (A) (A) (A) (A) (A)
                 (A) (A) (A) (A) (A) (A) (A) (A) (A) (A) (A) (A)
                 (A) (A) (A) (A) (A) (A) (A) (A) (A) (A) (A) (A)
                 (A) (A) (A) (A) (A) (A) (A) (A) (A) (A) (A) (A)
                 (A) (A) (A) (A) (A) (A) (A) (A) (A) (A) (A) (A)
                 (A) (A) (A) (A) (A) (A) (A) (A) (A) (A) (A) (A)
                 (A) (A) (A) (A) (A) (A) (A) (A) (A) (A) (A) (A)
                 (A) (A) (A) (A) (A) (A) (A) (A) (A)
 The electronic state is 1-A.
 Alpha  occ. eigenvalues --  -10.19095 -10.17556 -10.16836 -10.16636 -10.16636
 Alpha  occ. eigenvalues --  -10.16562  -0.81654  -0.73059  -0.67854  -0.67791
 Alpha  occ. eigenvalues --   -0.61620  -0.52260  -0.45355  -0.45033  -0.43077
 Alpha  occ. eigenvalues --   -0.41852  -0.39301  -0.37612  -0.37145  -0.35874
 Alpha  occ. eigenvalues --   -0.35399  -0.33808  -0.31154  -0.30872  -0.30302
 Alpha virt. eigenvalues --    0.07823   0.12464   0.13388   0.13886   0.14317
 Alpha virt. eigenvalues --    0.14504   0.16163   0.17681   0.17752   0.19741
 Alpha virt. eigenvalues --    0.20697   0.20990   0.22510   0.22696   0.24819
 Alpha virt. eigenvalues --    0.25003   0.26309   0.26654   0.27216   0.49660
 Alpha virt. eigenvalues --    0.50594   0.51480   0.52357   0.52637   0.58795
 Alpha virt. eigenvalues --    0.60507   0.62355   0.63835   0.70370   0.71552
 Alpha virt. eigenvalues --    0.71996   0.74931   0.76160   0.82418   0.86575
 Alpha virt. eigenvalues --    0.87918   0.89042   0.90667   0.90772   0.90955
 Alpha virt. eigenvalues --    0.91530   0.91998   0.93919   0.93954   0.95770
 Alpha virt. eigenvalues --    0.96538   0.96833   0.98189   0.99945   1.00079
 Alpha virt. eigenvalues --    1.03933   1.05162   1.31207   1.39698   1.40694
 Alpha virt. eigenvalues --    1.48699   1.50502   1.61150   1.64242   1.67829
 Alpha virt. eigenvalues --    1.73090   1.73140   1.81057   1.87592   1.88072
 Alpha virt. eigenvalues --    1.93463   1.93739   1.98620   2.09051   2.10357
 Alpha virt. eigenvalues --    2.10572   2.12056   2.13588   2.24891   2.25537
 Alpha virt. eigenvalues --    2.25881   2.27821   2.27951   2.30353   2.36275
 Alpha virt. eigenvalues --    2.36456   2.49867   2.58710   2.68447   2.71693
 Alpha virt. eigenvalues --    2.74607   2.77136   4.13698   4.25912   4.31582
 Alpha virt. eigenvalues --    4.31605   4.44637   4.67890
          Condensed to atoms (all electrons):
              1          2          3          4          5          6
     1  C    5.152715   0.367374   0.366612   0.367188   0.388126  -0.057425
     2  H    0.367374   0.579675  -0.031845  -0.030819  -0.028901  -0.006049
     3  H    0.366612  -0.031845   0.584090  -0.031266  -0.029356  -0.004646
     4  H    0.367188  -0.030819  -0.031266   0.582842  -0.028549   0.005437
     5  C    0.388126  -0.028901  -0.029356  -0.028549   4.702640   0.397268
     6  C   -0.057425  -0.006049  -0.004646   0.005437   0.397268   5.023593
     7  H    0.006088  -0.000056  -0.000033  -0.000170  -0.034015   0.366960
     8  H   -0.006824  -0.000064   0.004601  -0.000071  -0.034016   0.367004
     9  C   -0.006734   0.001388  -0.000262   0.000137  -0.040030   0.370141
    10  H    0.003279   0.003451   0.000359  -0.000132  -0.006395  -0.034913
    11  H    0.000143  -0.000071  -0.000034   0.000000   0.004325  -0.027190
    12  H   -0.000504   0.000264   0.000062  -0.000029  -0.006366  -0.034793
    13  C   -0.061209   0.005697  -0.004551  -0.005547   0.389181  -0.057105
    14  H    0.005822  -0.000196  -0.000062  -0.000028  -0.028696  -0.005179
    15  H   -0.004794  -0.000048   0.003871  -0.000153  -0.028697  -0.005170
    16  H   -0.004840  -0.000059  -0.000142   0.004305  -0.028020   0.005393
    17  C   -0.064547  -0.004919   0.005799  -0.004354   0.388104  -0.057480
    18  H   -0.004347  -0.000175  -0.000065   0.003684  -0.028545   0.005442
    19  H   -0.004930   0.004003  -0.000034  -0.000174  -0.028882  -0.006064
    20  H    0.005798  -0.000034  -0.000195  -0.000065  -0.029375  -0.004643
              7          8          9         10         11         12
     1  C    0.006088  -0.006824  -0.006734   0.003279   0.000143  -0.000504
     2  H   -0.000056  -0.000064   0.001388   0.003451  -0.000071   0.000264
     3  H   -0.000033   0.004601  -0.000262   0.000359  -0.000034   0.000062
     4  H   -0.000170  -0.000071   0.000137  -0.000132   0.000000  -0.000029
     5  C   -0.034015  -0.034016  -0.040030  -0.006395   0.004325  -0.006366
     6  C    0.366960   0.367004   0.370141  -0.034913  -0.027190  -0.034793
     7  H    0.619938  -0.038128  -0.039635   0.005273  -0.003086  -0.004310
     8  H   -0.038128   0.619923  -0.039645  -0.004221  -0.003175   0.005270
     9  C   -0.039635  -0.039645   5.082840   0.377910   0.370567   0.377939
    10  H    0.005273  -0.004221   0.377910   0.574344  -0.030945  -0.033459
    11  H   -0.003086  -0.003175   0.370567  -0.030945   0.580012  -0.030960
    12  H   -0.004310   0.005270   0.377939  -0.033459  -0.030960   0.574305
    13  C   -0.005198  -0.005178   0.004761   0.000085  -0.000138   0.000083
    14  H    0.005028  -0.000239   0.000009   0.000003  -0.000003  -0.000005
    15  H   -0.000238   0.005015   0.000010  -0.000005  -0.000003   0.000003
    16  H   -0.000044  -0.000046  -0.000175   0.000001   0.000002   0.000001
    17  C   -0.006801   0.006090  -0.006660  -0.000530   0.000143   0.003292
    18  H   -0.000072  -0.000170   0.000135  -0.000030   0.000000  -0.000128
    19  H   -0.000064  -0.000056   0.001446   0.000274  -0.000069   0.003346
    20  H    0.004594  -0.000033  -0.000277   0.000064  -0.000034   0.000369
             13         14         15         16         17         18
     1  C   -0.061209   0.005822  -0.004794  -0.004840  -0.064547  -0.004347
     2  H    0.005697  -0.000196  -0.000048  -0.000059  -0.004919  -0.000175
     3  H   -0.004551  -0.000062   0.003871  -0.000142   0.005799  -0.000065
     4  H   -0.005547  -0.000028  -0.000153   0.004305  -0.004354   0.003684
     5  C    0.389181  -0.028696  -0.028697  -0.028020   0.388104  -0.028545
     6  C   -0.057105  -0.005179  -0.005170   0.005393  -0.057480   0.005442
     7  H   -0.005198   0.005028  -0.000238  -0.000044  -0.006801  -0.000072
     8  H   -0.005178  -0.000239   0.005015  -0.000046   0.006090  -0.000170
     9  C    0.004761   0.000009   0.000010  -0.000175  -0.006660   0.000135
    10  H    0.000085   0.000003  -0.000005   0.000001  -0.000530  -0.000030
    11  H   -0.000138  -0.000003  -0.000003   0.000002   0.000143   0.000000
    12  H    0.000083  -0.000005   0.000003   0.000001   0.003292  -0.000128
    13  C    5.150194   0.366433   0.366432   0.364186  -0.061220  -0.005563
    14  H    0.366433   0.584409  -0.031169  -0.031546  -0.004794  -0.000153
    15  H    0.366432  -0.031169   0.584408  -0.031547   0.005821  -0.000028
    16  H    0.364186  -0.031546  -0.031547   0.587770  -0.004845   0.004311
    17  C   -0.061220  -0.004794   0.005821  -0.004845   5.152681   0.367204
    18  H   -0.005563  -0.000153  -0.000028   0.004311   0.367204   0.582853
    19  H    0.005695  -0.000048  -0.000196  -0.000059   0.367418  -0.030843
    20  H   -0.004534   0.003866  -0.000062  -0.000142   0.366607  -0.031268
             19         20
     1  C   -0.004930   0.005798
     2  H    0.004003  -0.000034
     3  H   -0.000034  -0.000195
     4  H   -0.000174  -0.000065
     5  C   -0.028882  -0.029375
     6  C   -0.006064  -0.004643
     7  H   -0.000064   0.004594
     8  H   -0.000056  -0.000033
     9  C    0.001446  -0.000277
    10  H    0.000274   0.000064
    11  H   -0.000069  -0.000034
    12  H    0.003346   0.000369
    13  C    0.005695  -0.004534
    14  H   -0.000048   0.003866
    15  H   -0.000196  -0.000062
    16  H   -0.000059  -0.000142
    17  C    0.367418   0.366607
    18  H   -0.030843  -0.031268
    19  H    0.579649  -0.031840
    20  H   -0.031840   0.584115
 Mulliken atomic charges:
              1
     1  C   -0.446992
     2  H    0.141383
     3  H    0.137097
     4  H    0.137767
     5  C    0.110197
     6  C   -0.240584
     7  H    0.123969
     8  H    0.123961
     9  C   -0.453866
    10  H    0.145586
    11  H    0.140516
    12  H    0.145620
    13  C   -0.442504
    14  H    0.136547
    15  H    0.136548
    16  H    0.135495
    17  C   -0.447010
    18  H    0.137757
    19  H    0.141426
    20  H    0.137087
 Sum of Mulliken atomic charges =   0.00000
 Mulliken charges with hydrogens summed into heavy atoms:
              1
     1  C   -0.030746
     5  C    0.110197
     6  C    0.007347
     9  C   -0.022144
    13  C   -0.033914
    17  C   -0.030740
 Sum of Mulliken charges with hydrogens summed into heavy atoms =   0.00000
 Electronic spatial extent (au):  <R**2>=            699.6084
 Charge=              0.0000 electrons
 Dipole moment (field-independent basis, Debye):
    X=             -0.0309    Y=             -0.0018    Z=             -0.0001  Tot=              0.0309
 Quadrupole moment (field-independent basis, Debye-Ang):
   XX=            -41.8658   YY=            -41.6439   ZZ=            -41.5306
   XY=             -0.2751   XZ=              0.0000   YZ=              0.0002
 Traceless Quadrupole moment (field-independent basis, Debye-Ang):
   XX=             -0.1857   YY=              0.0362   ZZ=              0.1495
   XY=             -0.2751   XZ=              0.0000   YZ=              0.0002
 Octapole moment (field-independent basis, Debye-Ang**2):
  XXX=              0.9869  YYY=             -0.1853  ZZZ=             -0.0086  XYY=             -0.6804
  XXY=             -1.1604  XXZ=              0.0022  XZZ=             -0.5297  YZZ=              1.8298
  YYZ=              0.0057  XYZ=              0.0008
 Hexadecapole moment (field-independent basis, Debye-Ang**3):
 XXXX=           -492.3211 YYYY=           -242.8676 ZZZZ=           -238.9104 XXXY=             -8.4839
 XXXZ=             -0.0192 YYYX=             -0.0410 YYYZ=             -0.0037 ZZZX=              0.0221
 ZZZY=              0.0037 XXYY=           -120.1336 XXZZ=           -122.4626 YYZZ=            -79.3578
 XXYZ=              0.0191 YYXZ=             -0.0108 ZZXY=              1.9674
 N-N= 2.655758185448D+02 E-N=-1.078094142439D+03  KE= 2.346634334437D+02
 No NMR shielding tensors so no spin-rotation constants.
 Leave Link  601 at Fri Sep 18 13:25:17 2015, MaxMem=  402653184 cpu:       0.3
 (Enter /share/apps/g09/l701.exe)
 Compute integral first derivatives.
 ... and contract with generalized density number  0.
 Leave Link  701 at Fri Sep 18 13:25:17 2015, MaxMem=  402653184 cpu:       0.3
 (Enter /share/apps/g09/l702.exe)
 L702 exits ... SP integral derivatives will be done elsewhere.
 Leave Link  702 at Fri Sep 18 13:25:17 2015, MaxMem=  402653184 cpu:       0.0
 (Enter /share/apps/g09/l703.exe)
 Compute integral first derivatives, UseDBF=F ICtDFT=           0.
 Integral derivatives from FoFDir, PRISM(SPDF).
 Calling FoFJK, ICntrl=      2127 FMM=F ISym2X=0 I1Cent= 0 IOpClX= 0 NMat=1 NMatS=1 NMatT=0.
 FoFCou: FMM=F IPFlag=           0 FMFlag=      100000 FMFlg1=         800
         NFxFlg=           0 DoJE=F BraDBF=F KetDBF=F FulRan=T
         Omega=  0.000000  0.000000  1.000000  0.000000  0.000000 ICntrl=    2127 IOpCl=  0
         NMat0=    1 NMatS0=    1 NMatT0=    0 NMatD0=    1 NMtDS0=    0 NMtDT0=    0
         I1Cent=           0 NGrid=           0.
 Symmetry not used in FoFCou.
 Leave Link  703 at Fri Sep 18 13:25:31 2015, MaxMem=  402653184 cpu:      27.4
 (Enter /share/apps/g09/l716.exe)
 Dipole        =-1.21408621D-02-6.97855026D-04-5.21219223D-05
 ***** Axes restored to original set *****
 -------------------------------------------------------------------
 Center     Atomic                   Forces (Hartrees/Bohr)
 Number     Number              X              Y              Z
 -------------------------------------------------------------------
      1        6          -0.001729561   -0.000867803   -0.000784121
      2        1           0.000300131   -0.001097035    0.000317378
      3        1           0.000099721    0.001768530    0.001445119
      4        1           0.001691220   -0.000472635   -0.000780373
      5        6           0.003910262    0.005425716    0.000003461
      6        6           0.001994691    0.003303443    0.000013094
      7        1           0.000634492   -0.003434985    0.003399636
      8        1           0.000647130   -0.003446062   -0.003396689
      9        6          -0.004830234   -0.000326871   -0.000005329
     10        1          -0.000964545    0.000695511   -0.000231437
     11        1          -0.000347670    0.000074694   -0.000010883
     12        1          -0.000938538    0.000661484    0.000232354
     13        6          -0.000176988   -0.002292854    0.000003293
     14        1          -0.001005850    0.001118903   -0.001834343
     15        1          -0.001004504    0.001122000    0.001834408
     16        1           0.001387405   -0.001557137    0.000001316
     17        6          -0.001723087   -0.000880745    0.000782304
     18        1           0.001693068   -0.000466294    0.000776195
     19        1           0.000265444   -0.001092560   -0.000311817
     20        1           0.000097412    0.001764701   -0.001453564
 -------------------------------------------------------------------
 Cartesian Forces:  Max     0.005425716 RMS     0.001750374
 Leave Link  716 at Fri Sep 18 13:25:31 2015, MaxMem=  402653184 cpu:       0.1
 (Enter /share/apps/g09/l103.exe)

 GradGradGradGradGradGradGradGradGradGradGradGradGradGradGradGradGradGrad
 Berny optimization.
 Internal  Forces:  Max     0.011553052 RMS     0.001838754
 Search for a local minimum.
 Step number   1 out of a maximum of  110
 All quantities printed in internal units (Hartrees-Bohrs-Radians)
 RMS Force = .18388D-02 SwitMx=.10000D-02 MixMth= 1
 Mixed Optimization -- RFO/linear search
 Second derivative matrix not updated -- first step.
     Eigenvalues ---    0.00230   0.00230   0.00238   0.00239   0.00422
     Eigenvalues ---    0.03306   0.04450   0.04748   0.04878   0.04894
     Eigenvalues ---    0.05317   0.05356   0.05356   0.05371   0.05371
     Eigenvalues ---    0.05376   0.05441   0.05526   0.08651   0.12436
     Eigenvalues ---    0.14269   0.14494   0.16000   0.16000   0.16000
     Eigenvalues ---    0.16000   0.16000   0.16000   0.16000   0.16000
     Eigenvalues ---    0.16000   0.16000   0.16000   0.16000   0.21915
     Eigenvalues ---    0.27388   0.28122   0.28529   0.28532   0.29795
     Eigenvalues ---    0.32893   0.32894   0.34132   0.34134   0.34160
     Eigenvalues ---    0.34277   0.34279   0.34303   0.34327   0.34327
     Eigenvalues ---    0.34340   0.34340   0.34355   0.343561000.00000
     Eigenvalues --- 1000.000001000.000001000.000001000.000001000.00000
     Eigenvalues --- 1000.000001000.000001000.000001000.000001000.00000
     Eigenvalues --- 1000.000001000.000001000.000001000.000001000.00000
     Eigenvalues --- 1000.000001000.000001000.000001000.000001000.00000
     Eigenvalues --- 1000.000001000.000001000.000001000.000001000.00000
     Eigenvalues --- 1000.000001000.000001000.000001000.000001000.00000
     Eigenvalues --- 1000.000001000.000001000.000001000.000001000.00000
     Eigenvalues --- 1000.000001000.000001000.000001000.000001000.00000
     Eigenvalues --- 1000.000001000.000001000.000001000.000001000.00000
 RFO step:  Lambda=-1.65284959D-03 EMin= 2.30000000D-03
 Linear search not attempted -- first point.
 Iteration  1 RMS(Cart)=  0.04775770 RMS(Int)=  0.00078624
 Iteration  2 RMS(Cart)=  0.00102278 RMS(Int)=  0.00007277
 Iteration  3 RMS(Cart)=  0.00000040 RMS(Int)=  0.00007277
 Variable       Old X    -DE/DX   Delta X   Delta X   Delta X     New X
                                 (Linear)    (Quad)   (Total)
    R1        2.06866   0.00051   0.00000   0.00147   0.00147   2.07013
    R2        2.06760   0.00217   0.00000   0.00628   0.00628   2.07389
    R3        2.06781   0.00166   0.00000   0.00481   0.00481   2.07263
    R4        2.90997   0.00056   0.00000   0.00196   0.00196   2.91193
    R5        2.93496   0.00181   0.00000   0.00656   0.00656   2.94152
    R6        2.91872  -0.00163   0.00000  -0.00575  -0.00575   2.91297
    R7        2.90990   0.00057   0.00000   0.00199   0.00199   2.91189
    R8        2.09239  -0.00478   0.00000  -0.01445  -0.01445   2.07794
    R9        2.09239  -0.00478   0.00000  -0.01446  -0.01446   2.07793
   R10        2.88375   0.00542   0.00000   0.01808   0.01808   2.90183
   R11        2.07108  -0.00053   0.00000  -0.00156  -0.00156   2.06952
   R12        2.07060   0.00032   0.00000   0.00094   0.00094   2.07154
   R13        2.07104  -0.00051   0.00000  -0.00148  -0.00148   2.06955
   R14        2.06734   0.00214   0.00000   0.00620   0.00620   2.07354
   R15        2.06734   0.00214   0.00000   0.00620   0.00620   2.07354
   R16        2.06821   0.00199   0.00000   0.00576   0.00576   2.07397
   R17        2.06782   0.00166   0.00000   0.00481   0.00481   2.07263
   R18        2.06862   0.00053   0.00000   0.00154   0.00154   2.07016
   R19        2.06760   0.00217   0.00000   0.00629   0.00629   2.07389
    A1        1.87573   0.00017   0.00000   0.00653   0.00651   1.88223
    A2        1.87407  -0.00012   0.00000  -0.00190  -0.00185   1.87222
    A3        1.94413   0.00162   0.00000   0.01234   0.01235   1.95648
    A4        1.87745   0.00085   0.00000   0.00089   0.00081   1.87826
    A5        1.94508  -0.00084   0.00000  -0.00459  -0.00464   1.94044
    A6        1.94382  -0.00161   0.00000  -0.01290  -0.01292   1.93089
    A7        1.92998   0.00074   0.00000   0.01182   0.01175   1.94173
    A8        1.90158  -0.00025   0.00000  -0.00864  -0.00864   1.89294
    A9        1.91366  -0.00038   0.00000  -0.00037  -0.00055   1.91311
   A10        1.88638  -0.00062   0.00000  -0.00659  -0.00652   1.87986
   A11        1.93002   0.00071   0.00000   0.01158   0.01151   1.94153
   A12        1.90159  -0.00022   0.00000  -0.00849  -0.00848   1.89311
   A13        1.90130  -0.00404   0.00000  -0.01952  -0.01973   1.88157
   A14        1.90129  -0.00404   0.00000  -0.01934  -0.01956   1.88173
   A15        1.99827   0.01155   0.00000   0.05581   0.05583   2.05410
   A16        1.84437   0.00209   0.00000  -0.00277  -0.00314   1.84124
   A17        1.90612  -0.00314   0.00000  -0.00948  -0.00938   1.89674
   A18        1.90624  -0.00312   0.00000  -0.00919  -0.00910   1.89714
   A19        1.94896   0.00093   0.00000   0.00748   0.00744   1.95640
   A20        1.93613  -0.00037   0.00000  -0.00567  -0.00565   1.93047
   A21        1.94889   0.00091   0.00000   0.00732   0.00727   1.95616
   A22        1.87528  -0.00064   0.00000  -0.00710  -0.00708   1.86820
   A23        1.87563  -0.00031   0.00000   0.00428   0.00418   1.87982
   A24        1.87529  -0.00063   0.00000  -0.00707  -0.00705   1.86824
   A25        1.94740  -0.00104   0.00000  -0.00730  -0.00733   1.94007
   A26        1.94742  -0.00104   0.00000  -0.00731  -0.00734   1.94008
   A27        1.94148  -0.00035   0.00000  -0.00048  -0.00048   1.94100
   A28        1.87891   0.00079   0.00000   0.00171   0.00166   1.88057
   A29        1.87241   0.00091   0.00000   0.00726   0.00726   1.87967
   A30        1.87241   0.00091   0.00000   0.00725   0.00726   1.87967
   A31        1.94381  -0.00161   0.00000  -0.01284  -0.01286   1.93095
   A32        1.94417   0.00159   0.00000   0.01215   0.01216   1.95633
   A33        1.94506  -0.00083   0.00000  -0.00454  -0.00459   1.94047
   A34        1.87402  -0.00011   0.00000  -0.00176  -0.00172   1.87230
   A35        1.87747   0.00084   0.00000   0.00089   0.00081   1.87827
   A36        1.87575   0.00017   0.00000   0.00648   0.00646   1.88221
    D1        1.10930   0.00093   0.00000   0.03817   0.03819   1.14749
    D2       -3.10304   0.00045   0.00000   0.03184   0.03184  -3.07120
    D3       -1.02335  -0.00019   0.00000   0.01611   0.01614  -1.00721
    D4       -0.98542   0.00018   0.00000   0.02460   0.02462  -0.96080
    D5        1.08542  -0.00030   0.00000   0.01827   0.01827   1.10369
    D6       -3.11807  -0.00094   0.00000   0.00254   0.00257  -3.11550
    D7       -3.08212   0.00077   0.00000   0.03537   0.03535  -3.04677
    D8       -1.01128   0.00030   0.00000   0.02904   0.02899  -0.98228
    D9        1.06842  -0.00035   0.00000   0.01332   0.01329   1.08171
   D10        3.08063  -0.00118   0.00000  -0.02078  -0.02068   3.05995
   D11        1.07674   0.00068   0.00000   0.00335   0.00314   1.07988
   D12       -1.06299  -0.00026   0.00000  -0.00898  -0.00903  -1.07201
   D13        1.00057  -0.00092   0.00000  -0.01313  -0.01297   0.98760
   D14       -1.00332   0.00093   0.00000   0.01100   0.01085  -0.99248
   D15        3.14014  -0.00001   0.00000  -0.00132  -0.00132   3.13882
   D16       -1.07953  -0.00068   0.00000  -0.00552  -0.00531  -1.08484
   D17       -3.08343   0.00117   0.00000   0.01861   0.01851  -3.06492
   D18        1.06004   0.00023   0.00000   0.00629   0.00634   1.06638
   D19        3.13359  -0.00016   0.00000  -0.00147  -0.00149   3.13210
   D20       -1.04697  -0.00059   0.00000  -0.00938  -0.00937  -1.05635
   D21        1.04332  -0.00038   0.00000  -0.00543  -0.00544   1.03788
   D22       -1.05164   0.00022   0.00000   0.00391   0.00389  -1.04774
   D23        1.05098  -0.00021   0.00000  -0.00401  -0.00399   1.04699
   D24        3.14127   0.00001   0.00000  -0.00006  -0.00006   3.14122
   D25        1.04638   0.00058   0.00000   0.00908   0.00907   1.05546
   D26       -3.13418   0.00015   0.00000   0.00117   0.00119  -3.13299
   D27       -1.04389   0.00037   0.00000   0.00512   0.00512  -1.03877
   D28       -1.07031   0.00037   0.00000  -0.01201  -0.01199  -1.08230
   D29        1.02140   0.00022   0.00000  -0.01472  -0.01475   1.00666
   D30        3.11617   0.00096   0.00000  -0.00131  -0.00133   3.11484
   D31        3.08025  -0.00077   0.00000  -0.03421  -0.03419   3.04607
   D32       -1.11121  -0.00092   0.00000  -0.03692  -0.03695  -1.14816
   D33        0.98356  -0.00018   0.00000  -0.02351  -0.02353   0.96003
   D34        1.00938  -0.00030   0.00000  -0.02783  -0.02778   0.98159
   D35        3.10110  -0.00045   0.00000  -0.03054  -0.03055   3.07055
   D36       -1.08732   0.00029   0.00000  -0.01713  -0.01713  -1.10445
   D37        1.04599   0.00045   0.00000   0.00955   0.00958   1.05557
   D38        3.13733   0.00002   0.00000   0.00172   0.00172   3.13905
   D39       -1.05455  -0.00043   0.00000  -0.00618  -0.00620  -1.06075
   D40       -3.10024   0.00091   0.00000   0.01608   0.01616  -3.08408
   D41       -1.00890   0.00048   0.00000   0.00825   0.00830  -1.00060
   D42        1.08241   0.00003   0.00000   0.00036   0.00037   1.08278
   D43       -1.09105  -0.00002   0.00000   0.00255   0.00253  -1.08852
   D44        1.00029  -0.00046   0.00000  -0.00528  -0.00533   0.99496
   D45        3.09160  -0.00090   0.00000  -0.01318  -0.01325   3.07835
         Item               Value     Threshold  Converged?
 Maximum Force            0.011553     0.000015     NO 
 RMS     Force            0.001839     0.000010     NO 
 Maximum Displacement     0.183252     0.000060     NO 
 RMS     Displacement     0.047742     0.000040     NO 
 Predicted change in Energy=-8.421580D-04
 GradGradGradGradGradGradGradGradGradGradGradGradGradGradGradGradGradGrad

 Leave Link  103 at Fri Sep 18 13:25:31 2015, MaxMem=  402653184 cpu:       0.1
 (Enter /share/apps/g09/l202.exe)
                          Input orientation:                          
 ---------------------------------------------------------------------
 Center     Atomic      Atomic             Coordinates (Angstroms)
 Number     Number       Type             X           Y           Z
 ---------------------------------------------------------------------
      1          6           0        0.524773   -0.901896    1.259786
      2          1           0       -0.260126   -1.665652    1.285364
      3          1           0        0.438028   -0.299816    2.173230
      4          1           0        1.488561   -1.424092    1.296707
      5          6           0        0.433556   -0.018886    0.000253
      6          6           0       -0.869424    0.832704    0.001331
      7          1           0       -0.836456    1.498882   -0.872873
      8          1           0       -0.836993    1.496150    0.877628
      9          6           0       -2.210636    0.084931   -0.000613
     10          1           0       -2.327278   -0.554013    0.881137
     11          1           0       -3.047291    0.793224    0.002989
     12          1           0       -2.328569   -0.546620   -0.887525
     13          6           0        1.629397    0.953797   -0.001514
     14          1           0        1.613098    1.599866   -0.888268
     15          1           0        1.614667    1.601169    0.884317
     16          1           0        2.583058    0.410627   -0.001956
     17          6           0        0.521632   -0.902980   -1.258721
     18          1           0        1.485549   -1.424774   -1.297946
     19          1           0       -0.263062   -1.667070   -1.281265
     20          1           0        0.431943   -0.301804   -2.172480
 ---------------------------------------------------------------------
                    Distance matrix (angstroms):
                    1          2          3          4          5
     1  C    0.000000
     2  H    1.095465   0.000000
     3  H    1.097453   1.772352   0.000000
     4  H    1.096786   1.765329   1.770850   0.000000
     5  C    1.540925   2.201033   2.191066   2.183674   0.000000
     6  C    2.556625   2.874330   2.776540   3.511584   1.556587
     7  H    3.487823   3.873554   3.760101   4.319323   2.163076
     8  H    2.784075   3.239756   2.555339   3.756547   2.163196
     9  C    3.169369   2.919379   3.448050   4.200506   2.646229
    10  H    2.898032   2.381651   3.062848   3.935780   2.946951
    11  H    4.148809   3.931774   4.248780   5.211924   3.574329
    12  H    3.588694   3.201896   4.133182   4.484564   2.948896
    13  C    2.500933   3.476761   2.778563   2.712852   1.541477
    14  H    3.472377   4.347097   3.789769   3.732820   2.191152
    15  H    2.755753   3.787850   2.580604   3.055842   2.191157
    16  H    2.747953   3.748576   3.136449   2.500129   2.191996
    17  C    2.518509   2.768607   3.485553   2.781496   1.540908
    18  H    2.781814   3.127123   3.796300   2.594655   2.183697
    19  H    2.768234   2.566632   3.780800   3.126206   2.200926
    20  H    3.485567   3.780970   4.345715   3.796213   2.191076
                    6          7          8          9         10
     6  C    0.000000
     7  H    1.099596   0.000000
     8  H    1.099595   1.750503   0.000000
     9  C    1.535584   2.156030   2.156326   0.000000
    10  H    2.195992   3.084392   2.534586   1.095143   0.000000
    11  H    2.178226   2.480500   2.478813   1.096214   1.761991
    12  H    2.195838   2.531935   3.084392   1.095161   1.768679
    13  C    2.501755   2.671481   2.673970   3.937103   4.325256
    14  H    2.746423   2.451683   3.021935   4.207601   4.826650
    15  H    2.746071   3.017645   2.453917   4.208921   4.492632
    16  H    3.478188   3.692678   3.694425   4.804746   5.081514
    17  C    2.556437   2.786077   3.487933   3.166085   3.580092
    18  H    3.511443   3.757680   4.319621   4.198103   4.477084
    19  H    2.874300   3.243273   3.872490   2.915926   3.189964
    20  H    2.775990   2.557398   3.761117   3.442353   4.123287
                   11         12         13         14         15
    11  H    0.000000
    12  H    1.762033   0.000000
    13  C    4.679446   4.324553   0.000000
    14  H    4.812924   4.488223   1.097271   0.000000
    15  H    4.812833   4.827166   1.097271   1.772586   0.000000
    16  H    5.643336   5.081794   1.097499   1.772190   1.772188
    17  C    4.148040   2.896277   2.501067   2.755499   3.472478
    18  H    5.211391   3.935365   2.712753   3.054922   3.732998
    19  H    3.931195   2.382595   3.476796   3.787783   4.347068
    20  H    4.246979   3.054746   2.779123   2.580829   3.790007
                   16         17         18         19         20
    16  H    0.000000
    17  C    2.748545   0.000000
    18  H    2.500563   1.096788   0.000000
    19  H    3.748847   1.095484   1.765397   0.000000
    20  H    3.137838   1.097457   1.770863   1.772357   0.000000
 Stoichiometry    C6H14
 Framework group  C1[X(C6H14)]
 Deg. of freedom    54
 Full point group                 C1      NOp   1
 Largest Abelian subgroup         C1      NOp   1
 Largest concise Abelian subgroup C1      NOp   1
                         Standard orientation:                         
 ---------------------------------------------------------------------
 Center     Atomic      Atomic             Coordinates (Angstroms)
 Number     Number       Type             X           Y           Z
 ---------------------------------------------------------------------
      1          6           0        0.554293   -0.878991    1.261038
      2          1           0       -0.206573   -1.666632    1.288367
      3          1           0        0.449381   -0.278270    2.173470
      4          1           0        1.533803   -1.371035    1.298368
      5          6           0        0.435191   -0.001456    0.000007
      6          6           0       -0.893526    0.809391    0.000277
      7          1           0       -0.881609    1.474723   -0.875111
      8          1           0       -0.881237    1.475071    0.875392
      9          6           0       -2.210947    0.020454    0.000347
     10          1           0       -2.307338   -0.620234    0.883278
     11          1           0       -3.069127    0.702513    0.003147
     12          1           0       -2.309690   -0.616012   -0.885395
     13          6           0        1.600346    1.007775   -0.004093
     14          1           0        1.563638    1.651461   -0.891969
     15          1           0        1.565999    1.655946    0.880610
     16          1           0        2.570365    0.494388   -0.004084
     17          6           0        0.550002   -0.884625   -1.257462
     18          1           0        1.529592   -1.376397   -1.296278
     19          1           0       -0.210672   -1.672679   -1.278254
     20          1           0        0.441315   -0.288130   -2.172226
 ---------------------------------------------------------------------
 Rotational constants (GHZ):      4.2579033      2.4512648      2.4428202
 Leave Link  202 at Fri Sep 18 13:25:31 2015, MaxMem=  402653184 cpu:       0.0
 (Enter /share/apps/g09/l301.exe)
 Standard basis: 6-31G(d) (6D, 7F)
 Ernie: Thresh=  0.10000D-02 Tol=  0.10000D-05 Strict=F.
 There are   118 symmetry adapted basis functions of A   symmetry.
 Integral buffers will be    131072 words long.
 Raffenetti 2 integral format.
 Two-electron integral symmetry is turned on.
   118 basis functions,   224 primitive gaussians,   118 cartesian basis functions
    25 alpha electrons       25 beta electrons
       nuclear repulsion energy       264.4537565924 Hartrees.
 IExCor=  402 DFT=T Ex+Corr=B3LYP ExCW=0 ScaHFX=  0.200000
 ScaDFX=  0.800000  0.720000  1.000000  0.810000 ScalE2=  1.000000  1.000000
 IRadAn=      5 IRanWt=     -1 IRanGd=            0 ICorTp=0
 NAtoms=   20 NActive=   20 NUniq=   20 SFac= 7.50D-01 NAtFMM=   80 NAOKFM=F Big=F
 Leave Link  301 at Fri Sep 18 13:25:31 2015, MaxMem=  402653184 cpu:       0.1
 (Enter /share/apps/g09/l302.exe)
 NPDir=0 NMtPBC=     1 NCelOv=     1 NCel=       1 NClECP=     1 NCelD=      1
         NCelK=      1 NCelE2=     1 NClLst=     1 CellRange=     0.0.
 One-electron integrals computed using PRISM.
 NBasis=   118 RedAO= T  NBF=   118
 NBsUse=   118 1.00D-06 NBFU=   118
 Precomputing XC quadrature grid using
 IXCGrd= 2 IRadAn=           5 IRanWt=          -1 IRanGd=           0 AccXCQ= 1.00D-10.
 NRdTot=    1640 NPtTot=      438820 NUsed=      450573 NTot=      450605
 NSgBfM=   118   118   118   118   118 NAtAll=    20    20.
 Leave Link  302 at Fri Sep 18 13:25:32 2015, MaxMem=  402653184 cpu:       1.3
 (Enter /share/apps/g09/l303.exe)
 DipDrv:  MaxL=1.
 Leave Link  303 at Fri Sep 18 13:25:32 2015, MaxMem=  402653184 cpu:       0.1
 (Enter /share/apps/g09/l401.exe)
 Initial guess read from the read-write file.
 B after Tr=     0.000000    0.000000    0.000000
         Rot=    1.000000    0.000000    0.000000    0.000000 Ang=   0.00 deg.
 Guess basis will be translated and rotated to current coordinates.
 Initial guess orbital symmetries:
       Occupied  (A) (A) (A) (A) (A) (A) (A) (A) (A) (A) (A) (A)
                 (A) (A) (A) (A) (A) (A) (A) (A) (A) (A) (A) (A)
                 (A)
       Virtual   (A) (A) (A) (A) (A) (A) (A) (A) (A) (A) (A) (A)
                 (A) (A) (A) (A) (A) (A) (A) (A) (A) (A) (A) (A)
                 (A) (A) (A) (A) (A) (A) (A) (A) (A) (A) (A) (A)
                 (A) (A) (A) (A) (A) (A) (A) (A) (A) (A) (A) (A)
                 (A) (A) (A) (A) (A) (A) (A) (A) (A) (A) (A) (A)
                 (A) (A) (A) (A) (A) (A) (A) (A) (A) (A) (A) (A)
                 (A) (A) (A) (A) (A) (A) (A) (A) (A) (A) (A) (A)
                 (A) (A) (A) (A) (A) (A) (A) (A) (A)
 The electronic state of the initial guess is 1-A.
 Generating alternative initial guess.
 Harris functional with IExCor=  402 diagonalized for initial guess.
 ExpMin= 1.61D-01 ExpMax= 3.05D+03 ExpMxC= 4.57D+02 IAcc=3 IRadAn=         5 AccDes= 0.00D+00
 HarFok:  IExCor=  402 AccDes= 0.00D+00 IRadAn=         5 IDoV= 1
 ScaDFX=  1.000000  1.000000  1.000000  1.000000
 FoFCou: FMM=F IPFlag=           0 FMFlag=      100000 FMFlg1=           0
         NFxFlg=           0 DoJE=T BraDBF=F KetDBF=T FulRan=T
         Omega=  0.000000  0.000000  1.000000  0.000000  0.000000 ICntrl=     500 IOpCl=  0
         NMat0=    1 NMatS0=    1 NMatT0=    0 NMatD0=    1 NMtDS0=    0 NMtDT0=    0
         I1Cent=           4 NGrid=           0.
 Petite list used in FoFCou.
 Harris En= -237.179177380663    
 Leave Link  401 at Fri Sep 18 13:25:37 2015, MaxMem=  402653184 cpu:      11.0
 (Enter /share/apps/g09/l502.exe)
 Closed shell SCF:
 Requested convergence on RMS density matrix=1.00D-08 within 128 cycles.
 Requested convergence on MAX density matrix=1.00D-06.
 Requested convergence on             energy=1.00D-06.
 No special actions if energy rises.
 Using DIIS extrapolation, IDIIS=  1040.
 Integral symmetry usage will be decided dynamically.
       450380 words used for storage of precomputed grid.
 Keep R1 ints in memory in canonical form, NReq=26104435.
 IEnd=      511924 IEndB=      511924 NGot=   402653184 MDV=   377521184
 LenX=   377521184 LenY=   377506819
 Symmetry not used in FoFDir.
 MinBra= 0 MaxBra= 2 Meth= 1.
 IRaf=       0 NMat=   1 IRICut=       1 DoRegI=T DoRafI=F ISym2E= 0 JSym2E=0.
 Integral accuracy reduced to 1.0D-05 until final iterations.

 Cycle   1  Pass 0  IDiag  1:
 E= -237.079706193126    
 DIIS: error= 3.05D-03 at cycle   1 NSaved=   1.
 NSaved= 1 IEnMin= 1 EnMin= -237.079706193126     IErMin= 1 ErrMin= 3.05D-03
 ErrMax= 3.05D-03 EMaxC= 1.00D-01 BMatC= 1.92D-03 BMatP= 1.92D-03
 IDIUse=3 WtCom= 9.69D-01 WtEn= 3.05D-02
 Coeff-Com:  0.100D+01
 Coeff-En:   0.100D+01
 Coeff:      0.100D+01
 Gap=     0.380 Goal=   None    Shift=    0.000
 GapD=    0.380 DampG=1.000 DampE=1.000 DampFc=1.0000 IDamp=-1.
 RMSDP=5.26D-04 MaxDP=8.36D-03              OVMax= 1.61D-02

 Cycle   2  Pass 0  IDiag  1:
 E= -237.083519119572     Delta-E=       -0.003812926446 Rises=F Damp=F
 DIIS: error= 3.58D-04 at cycle   2 NSaved=   2.
 NSaved= 2 IEnMin= 2 EnMin= -237.083519119572     IErMin= 2 ErrMin= 3.58D-04
 ErrMax= 3.58D-04 EMaxC= 1.00D-01 BMatC= 3.04D-05 BMatP= 1.92D-03
 IDIUse=3 WtCom= 9.96D-01 WtEn= 3.58D-03
 Coeff-Com: -0.587D-01 0.106D+01
 Coeff-En:   0.000D+00 0.100D+01
 Coeff:     -0.585D-01 0.106D+01
 Gap=     0.379 Goal=   None    Shift=    0.000
 RMSDP=1.06D-04 MaxDP=1.35D-03 DE=-3.81D-03 OVMax= 2.35D-03

 Cycle   3  Pass 0  IDiag  1:
 E= -237.083555809771     Delta-E=       -0.000036690200 Rises=F Damp=F
 DIIS: error= 3.09D-04 at cycle   3 NSaved=   3.
 NSaved= 3 IEnMin= 3 EnMin= -237.083555809771     IErMin= 3 ErrMin= 3.09D-04
 ErrMax= 3.09D-04 EMaxC= 1.00D-01 BMatC= 1.56D-05 BMatP= 3.04D-05
 IDIUse=3 WtCom= 9.97D-01 WtEn= 3.09D-03
 Coeff-Com: -0.388D-01 0.470D+00 0.569D+00
 Coeff-En:   0.000D+00 0.000D+00 0.100D+01
 Coeff:     -0.387D-01 0.468D+00 0.571D+00
 Gap=     0.380 Goal=   None    Shift=    0.000
 RMSDP=4.10D-05 MaxDP=5.66D-04 DE=-3.67D-05 OVMax= 8.23D-04

 Cycle   4  Pass 0  IDiag  1:
 E= -237.083570986344     Delta-E=       -0.000015176572 Rises=F Damp=F
 DIIS: error= 9.39D-05 at cycle   4 NSaved=   4.
 NSaved= 4 IEnMin= 4 EnMin= -237.083570986344     IErMin= 4 ErrMin= 9.39D-05
 ErrMax= 9.39D-05 EMaxC= 1.00D-01 BMatC= 7.89D-07 BMatP= 1.56D-05
 IDIUse=1 WtCom= 1.00D+00 WtEn= 0.00D+00
 Coeff-Com: -0.142D-01 0.153D+00 0.254D+00 0.608D+00
 Coeff:     -0.142D-01 0.153D+00 0.254D+00 0.608D+00
 Gap=     0.380 Goal=   None    Shift=    0.000
 RMSDP=8.39D-06 MaxDP=1.38D-04 DE=-1.52D-05 OVMax= 1.72D-04

 Initial convergence to 1.0D-05 achieved.  Increase integral accuracy.
 Cycle   5  Pass 1  IDiag  1:
 E= -237.083540707758     Delta-E=        0.000030278586 Rises=F Damp=F
 DIIS: error= 1.04D-05 at cycle   1 NSaved=   1.
 NSaved= 1 IEnMin= 1 EnMin= -237.083540707758     IErMin= 1 ErrMin= 1.04D-05
 ErrMax= 1.04D-05 EMaxC= 1.00D-01 BMatC= 2.61D-08 BMatP= 2.61D-08
 IDIUse=1 WtCom= 1.00D+00 WtEn= 0.00D+00
 Coeff-Com:  0.100D+01
 Coeff:      0.100D+01
 Gap=     0.380 Goal=   None    Shift=    0.000
 RMSDP=8.39D-06 MaxDP=1.38D-04 DE= 3.03D-05 OVMax= 5.69D-05

 Cycle   6  Pass 1  IDiag  1:
 E= -237.083540713670     Delta-E=       -0.000000005912 Rises=F Damp=F
 DIIS: error= 1.22D-05 at cycle   2 NSaved=   2.
 NSaved= 2 IEnMin= 2 EnMin= -237.083540713670     IErMin= 1 ErrMin= 1.04D-05
 ErrMax= 1.22D-05 EMaxC= 1.00D-01 BMatC= 2.27D-08 BMatP= 2.61D-08
 IDIUse=1 WtCom= 1.00D+00 WtEn= 0.00D+00
 Coeff-Com:  0.481D+00 0.519D+00
 Coeff:      0.481D+00 0.519D+00
 Gap=     0.380 Goal=   None    Shift=    0.000
 RMSDP=1.47D-06 MaxDP=2.72D-05 DE=-5.91D-09 OVMax= 3.70D-05

 Cycle   7  Pass 1  IDiag  1:
 E= -237.083540735529     Delta-E=       -0.000000021860 Rises=F Damp=F
 DIIS: error= 2.22D-06 at cycle   3 NSaved=   3.
 NSaved= 3 IEnMin= 3 EnMin= -237.083540735529     IErMin= 3 ErrMin= 2.22D-06
 ErrMax= 2.22D-06 EMaxC= 1.00D-01 BMatC= 8.29D-10 BMatP= 2.27D-08
 IDIUse=1 WtCom= 1.00D+00 WtEn= 0.00D+00
 Coeff-Com:  0.928D-01 0.193D+00 0.714D+00
 Coeff:      0.928D-01 0.193D+00 0.714D+00
 Gap=     0.380 Goal=   None    Shift=    0.000
 RMSDP=3.25D-07 MaxDP=5.55D-06 DE=-2.19D-08 OVMax= 7.95D-06

 Cycle   8  Pass 1  IDiag  1:
 E= -237.083540736315     Delta-E=       -0.000000000785 Rises=F Damp=F
 DIIS: error= 4.50D-07 at cycle   4 NSaved=   4.
 NSaved= 4 IEnMin= 4 EnMin= -237.083540736315     IErMin= 4 ErrMin= 4.50D-07
 ErrMax= 4.50D-07 EMaxC= 1.00D-01 BMatC= 5.33D-11 BMatP= 8.29D-10
 IDIUse=1 WtCom= 1.00D+00 WtEn= 0.00D+00
 Coeff-Com: -0.109D-01 0.231D-01 0.254D+00 0.734D+00
 Coeff:     -0.109D-01 0.231D-01 0.254D+00 0.734D+00
 Gap=     0.380 Goal=   None    Shift=    0.000
 RMSDP=8.74D-08 MaxDP=1.32D-06 DE=-7.85D-10 OVMax= 1.64D-06

 Cycle   9  Pass 1  IDiag  1:
 E= -237.083540736369     Delta-E=       -0.000000000054 Rises=F Damp=F
 DIIS: error= 1.36D-07 at cycle   5 NSaved=   5.
 NSaved= 5 IEnMin= 5 EnMin= -237.083540736369     IErMin= 5 ErrMin= 1.36D-07
 ErrMax= 1.36D-07 EMaxC= 1.00D-01 BMatC= 2.98D-12 BMatP= 5.33D-11
 IDIUse=1 WtCom= 1.00D+00 WtEn= 0.00D+00
 Coeff-Com: -0.701D-02 0.954D-02 0.124D+00 0.387D+00 0.487D+00
 Coeff:     -0.701D-02 0.954D-02 0.124D+00 0.387D+00 0.487D+00
 Gap=     0.380 Goal=   None    Shift=    0.000
 RMSDP=1.60D-08 MaxDP=3.50D-07 DE=-5.41D-11 OVMax= 3.71D-07

 Cycle  10  Pass 1  IDiag  1:
 E= -237.083540736372     Delta-E=       -0.000000000003 Rises=F Damp=F
 DIIS: error= 1.43D-08 at cycle   6 NSaved=   6.
 NSaved= 6 IEnMin= 6 EnMin= -237.083540736372     IErMin= 6 ErrMin= 1.43D-08
 ErrMax= 1.43D-08 EMaxC= 1.00D-01 BMatC= 3.36D-14 BMatP= 2.98D-12
 IDIUse=1 WtCom= 1.00D+00 WtEn= 0.00D+00
 Coeff-Com: -0.518D-03-0.293D-04 0.285D-02 0.145D-01 0.985D-01 0.885D+00
 Coeff:     -0.518D-03-0.293D-04 0.285D-02 0.145D-01 0.985D-01 0.885D+00
 Gap=     0.380 Goal=   None    Shift=    0.000
 RMSDP=2.34D-09 MaxDP=3.29D-08 DE=-3.01D-12 OVMax= 4.08D-08

 SCF Done:  E(RB3LYP) =  -237.083540736     A.U. after   10 cycles
             Convg  =    0.2340D-08             -V/T =  2.0105
 KE= 2.346266418162D+02 PE=-1.075823317429D+03 EE= 3.396593782837D+02
 Leave Link  502 at Fri Sep 18 13:26:34 2015, MaxMem=  402653184 cpu:     113.3
 (Enter /share/apps/g09/l701.exe)
 Compute integral first derivatives.
 ... and contract with generalized density number  0.
 Leave Link  701 at Fri Sep 18 13:26:34 2015, MaxMem=  402653184 cpu:       0.3
 (Enter /share/apps/g09/l702.exe)
 L702 exits ... SP integral derivatives will be done elsewhere.
 Leave Link  702 at Fri Sep 18 13:26:34 2015, MaxMem=  402653184 cpu:       0.0
 (Enter /share/apps/g09/l703.exe)
 Compute integral first derivatives, UseDBF=F ICtDFT=           0.
 Integral derivatives from FoFDir, PRISM(SPDF).
 Calling FoFJK, ICntrl=      2127 FMM=F ISym2X=0 I1Cent= 0 IOpClX= 0 NMat=1 NMatS=1 NMatT=0.
 FoFCou: FMM=F IPFlag=           0 FMFlag=      100000 FMFlg1=         800
         NFxFlg=           0 DoJE=F BraDBF=F KetDBF=F FulRan=T
         Omega=  0.000000  0.000000  1.000000  0.000000  0.000000 ICntrl=    2127 IOpCl=  0
         NMat0=    1 NMatS0=    1 NMatT0=    0 NMatD0=    1 NMtDS0=    0 NMtDT0=    0
         I1Cent=           0 NGrid=           0.
 Symmetry not used in FoFCou.
 Leave Link  703 at Fri Sep 18 13:26:48 2015, MaxMem=  402653184 cpu:      26.8
 (Enter /share/apps/g09/l716.exe)
 Dipole        =-1.45598465D-02 5.86046634D-03-4.11897384D-05
 ***** Axes restored to original set *****
 -------------------------------------------------------------------
 Center     Atomic                   Forces (Hartrees/Bohr)
 Number     Number              X              Y              Z
 -------------------------------------------------------------------
      1        6          -0.000807613   -0.000035577    0.000070396
      2        1          -0.000656926    0.000037903   -0.000078794
      3        1           0.000031911   -0.000000289   -0.000060348
      4        1           0.000112897   -0.000078330   -0.000035351
      5        6          -0.000484682    0.000617540   -0.000010959
      6        6           0.000852723    0.000132061   -0.000011503
      7        1          -0.000165176   -0.000318795   -0.000352821
      8        1          -0.000159306   -0.000335822    0.000359326
      9        6           0.001203435   -0.000732239    0.000001501
     10        1           0.000394746   -0.000475983    0.000423415
     11        1           0.000617551    0.000666974   -0.000004389
     12        1           0.000394066   -0.000469684   -0.000400223
     13        6           0.000184715    0.000828434   -0.000002058
     14        1           0.000097537    0.000114314    0.000084706
     15        1           0.000096661    0.000115528   -0.000082820
     16        1          -0.000426138    0.000012118    0.000002045
     17        6          -0.000796863   -0.000046260   -0.000072739
     18        1           0.000112032   -0.000076649    0.000033931
     19        1          -0.000636193    0.000044202    0.000077908
     20        1           0.000034624    0.000000550    0.000058775
 -------------------------------------------------------------------
 Cartesian Forces:  Max     0.001203435 RMS     0.000386297
 Leave Link  716 at Fri Sep 18 13:26:48 2015, MaxMem=  402653184 cpu:       0.0
 (Enter /share/apps/g09/l103.exe)

 GradGradGradGradGradGradGradGradGradGradGradGradGradGradGradGradGradGrad
 Berny optimization.
 Using GEDIIS/GDIIS optimizer.
 Internal  Forces:  Max     0.003850907 RMS     0.000692824
 Search for a local minimum.
 Step number   2 out of a maximum of  110
 All quantities printed in internal units (Hartrees-Bohrs-Radians)
 RMS Force = .69282D-03 SwitMx=.10000D-02 MixMth= 2
 Mixed Optimization -- En-DIIS/RFO-DIIS
 Update second derivatives using D2CorX and points    1    2
 DE= -4.82D-04 DEPred=-8.42D-04 R= 5.72D-01
 SS=  1.41D+00  RLast= 1.43D-01 DXNew= 5.0454D-01 4.2839D-01
 Trust test= 5.72D-01 RLast= 1.43D-01 DXMaxT set to 4.28D-01
 Use linear search instead of GDIIS.
[...]

 Largest change from initial coordinates is atom   11       4.431 Angstoms.
 Leave Link  103 at Fri Sep 18 13:37:30 2015, MaxMem=  402653184 cpu:       0.0
 (Enter /share/apps/g09/l202.exe)
                          Input orientation:                          
 ---------------------------------------------------------------------
 Center     Atomic      Atomic             Coordinates (Angstroms)
 Number     Number       Type             X           Y           Z
 ---------------------------------------------------------------------
      1          6           0        0.513990   -0.896576    1.258386
      2          1           0       -0.290179   -1.640384    1.285505
      3          1           0        0.444458   -0.293131    2.172358
      4          1           0        1.465623   -1.441273    1.291253
      5          6           0        0.435860   -0.010696   -0.000279
      6          6           0       -0.864778    0.836100    0.000452
      7          1           0       -0.841074    1.498367   -0.877079
      8          1           0       -0.840060    1.498408    0.877925
      9          6           0       -2.192995    0.068683    0.001237
     10          1           0       -2.298960   -0.568489    0.886261
     11          1           0       -3.036144    0.769141    0.001709
     12          1           0       -2.299983   -0.568528   -0.883635
     13          6           0        1.634310    0.959101   -0.000995
     14          1           0        1.620506    1.606130   -0.887040
     15          1           0        1.621533    1.606170    0.885035
     16          1           0        2.585378    0.412378   -0.001534
     17          6           0        0.512534   -0.896637   -1.258991
     18          1           0        1.464130   -1.441334   -1.292933
     19          1           0       -0.291664   -1.640447   -1.285143
     20          1           0        0.441944   -0.293235   -2.172911
 ---------------------------------------------------------------------
                    Distance matrix (angstroms):
                    1          2          3          4          5
     1  C    0.000000
     2  H    1.095752   0.000000
     3  H    1.097418   1.772369   0.000000
     4  H    1.096987   1.767065   1.771258   0.000000
     5  C    1.541145   2.199149   2.190935   2.185182   0.000000
     6  C    2.546678   2.848596   2.776047   3.504764   1.552007
     7  H    3.483126   3.851236   3.763127   4.320186   2.162547
     8  H    2.777436   3.212554   2.556394   3.758822   2.162547
     9  C    3.136864   2.861986   3.435234   4.162883   2.630054
    10  H    2.856362   2.311613   3.042402   3.885596   2.928537
    11  H    4.117924   3.872243   4.237301   5.178297   3.558505
    12  H    3.551664   3.145371   4.116660   4.435269   2.928538
    13  C    2.506930   3.480814   2.776202   2.731329   1.541684
    14  H    3.477179   4.348623   3.788165   3.749082   2.191770
    15  H    2.762206   3.788816   2.578768   3.078349   2.191770
    16  H    2.755252   3.760204   3.131627   2.522137   2.190758
    17  C    2.517378   2.769832   3.484683   2.776465   1.541145
    18  H    2.776466   3.124991   3.790297   2.584187   2.185182
    19  H    2.769831   2.570648   3.783048   3.124988   2.199149
    20  H    3.484683   3.783048   4.345270   3.790296   2.190935
                    6          7          8          9         10
     6  C    0.000000
     7  H    1.099646   0.000000
     8  H    1.099646   1.755005   0.000000
     9  C    1.533978   2.154791   2.154791   0.000000
    10  H    2.194175   3.083293   2.529925   1.095666   0.000000
    11  H    2.172398   2.474342   2.474342   1.096148   1.764972
    12  H    2.194175   2.529924   3.083293   1.095666   1.769897
    13  C    2.502113   2.680645   2.680646   3.929518   4.311771
    14  H    2.749041   2.463958   3.030032   4.206610   4.820350
    15  H    2.749043   3.030033   2.463961   4.206612   4.483236
    16  H    3.476079   3.699530   3.699532   4.790719   5.060340
    17  C    2.546678   2.777437   3.483126   3.136863   3.551660
    18  H    3.504764   3.758822   4.320186   4.162883   4.435267
    19  H    2.848597   3.212557   3.851235   2.861985   3.145366
    20  H    2.776046   2.556394   3.763127   3.435230   4.116655
                   11         12         13         14         15
    11  H    0.000000
    12  H    1.764972   0.000000
    13  C    4.674316   4.311770   0.000000
    14  H    4.814022   4.483233   1.097229   0.000000
    15  H    4.814025   4.820352   1.097229   1.772076   0.000000
    16  H    5.632832   5.060339   1.097013   1.772044   1.772044
    17  C    4.117924   2.856361   2.506930   2.762207   3.477178
    18  H    5.178297   3.885597   2.731328   3.078350   3.749080
    19  H    3.872243   2.311615   3.480814   3.788818   4.348623
    20  H    4.237299   3.042397   2.776203   2.578771   3.788167
                   16         17         18         19         20
    16  H    0.000000
    17  C    2.755250   0.000000
    18  H    2.522134   1.096987   0.000000
    19  H    3.760202   1.095752   1.767065   0.000000
    20  H    3.131626   1.097418   1.771258   1.772369   0.000000
 Stoichiometry    C6H14
 Framework group  C1[X(C6H14)]
 Deg. of freedom    54
 Full point group                 C1      NOp   1
 Largest Abelian subgroup         C1      NOp   1
 Largest concise Abelian subgroup C1      NOp   1
                         Standard orientation:                         
 ---------------------------------------------------------------------
 Center     Atomic      Atomic             Coordinates (Angstroms)
 Number     Number       Type             X           Y           Z
 ---------------------------------------------------------------------
      1          6           0       -0.528904   -0.884965   -1.258684
      2          1           0        0.262434   -1.642426   -1.285316
      3          1           0       -0.448528   -0.282834   -2.172633
      4          1           0       -1.489700   -1.413298   -1.292085
      5          6           0       -0.436352   -0.000501    0.000000
      6          6           0        0.878587    0.823914   -0.000005
      7          1           0        0.865713    1.486524    0.877493
      8          1           0        0.865713    1.486512   -0.877512
      9          6           0        2.193477    0.033880    0.000000
     10          1           0        2.289033   -0.605048   -0.884944
     11          1           0        3.048489    0.719806   -0.000006
     12          1           0        2.289034   -0.605034    0.884953
     13          6           0       -1.618031    0.989662   -0.000005
     14          1           0       -1.593668    1.636395    0.886028
     15          1           0       -1.593671    1.636382   -0.886047
     16          1           0       -2.578316    0.459295    0.000001
     17          6           0       -0.528902   -0.884951    1.258694
     18          1           0       -1.489699   -1.413283    1.292103
     19          1           0        0.262435   -1.642413    1.285332
     20          1           0       -0.448523   -0.282809    2.172636
 ---------------------------------------------------------------------
 Rotational constants (GHZ):      4.2614448      2.4695892      2.4611503
 Leave Link  202 at Fri Sep 18 13:37:30 2015, MaxMem=  402653184 cpu:       0.0
 (Enter /share/apps/g09/l601.exe)
 Copying SCF densities to generalized density rwf, IOpCl= 0 IROHF=0.

 **********************************************************************

            Population analysis using the SCF density.

 **********************************************************************

 Orbital symmetries:
       Occupied  (A) (A) (A) (A) (A) (A) (A) (A) (A) (A) (A) (A)
                 (A) (A) (A) (A) (A) (A) (A) (A) (A) (A) (A) (A)
                 (A)
       Virtual   (A) (A) (A) (A) (A) (A) (A) (A) (A) (A) (A) (A)
                 (A) (A) (A) (A) (A) (A) (A) (A) (A) (A) (A) (A)
                 (A) (A) (A) (A) (A) (A) (A) (A) (A) (A) (A) (A)
                 (A) (A) (A) (A) (A) (A) (A) (A) (A) (A) (A) (A)
                 (A) (A) (A) (A) (A) (A) (A) (A) (A) (A) (A) (A)
                 (A) (A) (A) (A) (A) (A) (A) (A) (A) (A) (A) (A)
                 (A) (A) (A) (A) (A) (A) (A) (A) (A) (A) (A) (A)
                 (A) (A) (A) (A) (A) (A) (A) (A) (A)
 The electronic state is 1-A.
 Alpha  occ. eigenvalues --  -10.19076 -10.17436 -10.16949 -10.16703 -10.16702
 Alpha  occ. eigenvalues --  -10.16691  -0.81596  -0.73038  -0.67745  -0.67728
 Alpha  occ. eigenvalues --   -0.61747  -0.52183  -0.45194  -0.45090  -0.43035
 Alpha  occ. eigenvalues --   -0.41750  -0.39343  -0.37696  -0.37166  -0.35836
 Alpha  occ. eigenvalues --   -0.35236  -0.33908  -0.31107  -0.30915  -0.30319
 Alpha virt. eigenvalues --    0.07666   0.12426   0.13492   0.13722   0.14285
 Alpha virt. eigenvalues --    0.14615   0.16126   0.17675   0.17805   0.19652
 Alpha virt. eigenvalues --    0.20522   0.20875   0.22602   0.22710   0.24418
 Alpha virt. eigenvalues --    0.25052   0.25955   0.26376   0.27386   0.49453
 Alpha virt. eigenvalues --    0.50718   0.51532   0.51940   0.52588   0.58829
 Alpha virt. eigenvalues --    0.60661   0.62256   0.63815   0.69666   0.71226
 Alpha virt. eigenvalues --    0.71594   0.75126   0.76590   0.82131   0.86413
 Alpha virt. eigenvalues --    0.88203   0.89100   0.90635   0.90803   0.91124
 Alpha virt. eigenvalues --    0.91195   0.91728   0.93368   0.93886   0.95725
 Alpha virt. eigenvalues --    0.96245   0.96918   0.98220   1.00069   1.00113
 Alpha virt. eigenvalues --    1.02878   1.04091   1.29488   1.39600   1.40800
 Alpha virt. eigenvalues --    1.48798   1.51245   1.60971   1.64393   1.68253
 Alpha virt. eigenvalues --    1.73247   1.73282   1.80644   1.87326   1.88284
 Alpha virt. eigenvalues --    1.93326   1.93699   1.97878   2.09238   2.10331
 Alpha virt. eigenvalues --    2.10539   2.12027   2.13110   2.24763   2.25217
 Alpha virt. eigenvalues --    2.25535   2.27361   2.27562   2.30833   2.35841
 Alpha virt. eigenvalues --    2.36653   2.49128   2.58406   2.69360   2.71788
 Alpha virt. eigenvalues --    2.74321   2.76394   4.13254   4.25497   4.31456
 Alpha virt. eigenvalues --    4.31517   4.44976   4.67751
          Condensed to atoms (all electrons):
              1          2          3          4          5          6
     1  C    5.151348   0.367360   0.366071   0.366901   0.387364  -0.057429
     2  H    0.367360   0.578764  -0.031248  -0.031124  -0.028058  -0.005686
     3  H    0.366071  -0.031248   0.585321  -0.030965  -0.029653  -0.004797
     4  H    0.366901  -0.031124  -0.030965   0.584865  -0.029205   0.005486
     5  C    0.387364  -0.028058  -0.029653  -0.029205   4.705910   0.398737
     6  C   -0.057429  -0.005686  -0.004797   0.005486   0.398737   5.019639
     7  H    0.006302  -0.000052  -0.000036  -0.000183  -0.035349   0.367322
     8  H   -0.006970  -0.000085   0.004697  -0.000076  -0.035349   0.367322
     9  C   -0.005550   0.001783  -0.000221   0.000087  -0.036771   0.369580
    10  H    0.003343   0.002814   0.000287  -0.000117  -0.005649  -0.033910
    11  H    0.000090  -0.000063  -0.000031   0.000000   0.004081  -0.026919
    12  H   -0.000428   0.000198   0.000053  -0.000021  -0.005649  -0.033910
    13  C   -0.061884   0.005656  -0.004610  -0.005801   0.388815  -0.057155
    14  H    0.005892  -0.000195  -0.000065  -0.000026  -0.029292  -0.005347
    15  H   -0.004914  -0.000049   0.003971  -0.000151  -0.029292  -0.005347
    16  H   -0.004930  -0.000056  -0.000137   0.004462  -0.028137   0.005375
    17  C   -0.064453  -0.004813   0.005797  -0.004447   0.387364  -0.057429
    18  H   -0.004447  -0.000184  -0.000069   0.003850  -0.029205   0.005486
    19  H   -0.004813   0.003933  -0.000033  -0.000184  -0.028058  -0.005686
    20  H    0.005797  -0.000033  -0.000196  -0.000069  -0.029653  -0.004797
              7          8          9         10         11         12
     1  C    0.006302  -0.006970  -0.005550   0.003343   0.000090  -0.000428
     2  H   -0.000052  -0.000085   0.001783   0.002814  -0.000063   0.000198
     3  H   -0.000036   0.004697  -0.000221   0.000287  -0.000031   0.000053
     4  H   -0.000183  -0.000076   0.000087  -0.000117   0.000000  -0.000021
     5  C   -0.035349  -0.035349  -0.036771  -0.005649   0.004081  -0.005649
     6  C    0.367322   0.367322   0.369580  -0.033910  -0.026919  -0.033910
     7  H    0.620359  -0.037919  -0.040132   0.005239  -0.003285  -0.004144
     8  H   -0.037919   0.620359  -0.040132  -0.004144  -0.003285   0.005239
     9  C   -0.040132  -0.040132   5.078470   0.377363   0.371468   0.377363
    10  H    0.005239  -0.004144   0.377363   0.574140  -0.031496  -0.032863
    11  H   -0.003285  -0.003285   0.371468  -0.031496   0.579523  -0.031496
    12  H   -0.004144   0.005239   0.377363  -0.032863  -0.031496   0.574140
    13  C   -0.005442  -0.005442   0.004652   0.000061  -0.000132   0.000061
    14  H    0.005312  -0.000242  -0.000003   0.000002  -0.000003  -0.000004
    15  H   -0.000242   0.005312  -0.000003  -0.000004  -0.000003   0.000002
    16  H   -0.000041  -0.000041  -0.000164   0.000001   0.000002   0.000001
    17  C   -0.006970   0.006302  -0.005550  -0.000428   0.000090   0.003343
    18  H   -0.000076  -0.000183   0.000087  -0.000021   0.000000  -0.000117
    19  H   -0.000085  -0.000052   0.001783   0.000198  -0.000063   0.002814
    20  H    0.004697  -0.000036  -0.000221   0.000053  -0.000031   0.000287
             13         14         15         16         17         18
     1  C   -0.061884   0.005892  -0.004914  -0.004930  -0.064453  -0.004447
     2  H    0.005656  -0.000195  -0.000049  -0.000056  -0.004813  -0.000184
     3  H   -0.004610  -0.000065   0.003971  -0.000137   0.005797  -0.000069
     4  H   -0.005801  -0.000026  -0.000151   0.004462  -0.004447   0.003850
     5  C    0.388815  -0.029292  -0.029292  -0.028137   0.387364  -0.029205
     6  C   -0.057155  -0.005347  -0.005347   0.005375  -0.057429   0.005486
     7  H   -0.005442   0.005312  -0.000242  -0.000041  -0.006970  -0.000076
     8  H   -0.005442  -0.000242   0.005312  -0.000041   0.006302  -0.000183
     9  C    0.004652  -0.000003  -0.000003  -0.000164  -0.005550   0.000087
    10  H    0.000061   0.000002  -0.000004   0.000001  -0.000428  -0.000021
    11  H   -0.000132  -0.000003  -0.000003   0.000002   0.000090   0.000000
    12  H    0.000061  -0.000004   0.000002   0.000001   0.003343  -0.000117
    13  C    5.152579   0.365870   0.365870   0.364013  -0.061884  -0.005801
    14  H    0.365870   0.584623  -0.030898  -0.030793  -0.004914  -0.000151
    15  H    0.365870  -0.030898   0.584623  -0.030793   0.005892  -0.000026
    16  H    0.364013  -0.030793  -0.030793   0.586068  -0.004930   0.004462
    17  C   -0.061884  -0.004914   0.005892  -0.004930   5.151348   0.366901
    18  H   -0.005801  -0.000151  -0.000026   0.004462   0.366901   0.584865
    19  H    0.005656  -0.000049  -0.000195  -0.000056   0.367360  -0.031124
    20  H   -0.004610   0.003971  -0.000065  -0.000137   0.366071  -0.030965
             19         20
     1  C   -0.004813   0.005797
     2  H    0.003933  -0.000033
     3  H   -0.000033  -0.000196
     4  H   -0.000184  -0.000069
     5  C   -0.028058  -0.029653
     6  C   -0.005686  -0.004797
     7  H   -0.000085   0.004697
     8  H   -0.000052  -0.000036
     9  C    0.001783  -0.000221
    10  H    0.000198   0.000053
    11  H   -0.000063  -0.000031
    12  H    0.002814   0.000287
    13  C    0.005656  -0.004610
    14  H   -0.000049   0.003971
    15  H   -0.000195  -0.000065
    16  H   -0.000056  -0.000137
    17  C    0.367360   0.366071
    18  H   -0.031124  -0.030965
    19  H    0.578764  -0.031248
    20  H   -0.031248   0.585322
 Mulliken atomic charges:
              1
     1  C   -0.444652
     2  H    0.141135
     3  H    0.135863
     4  H    0.136720
     5  C    0.107047
     6  C   -0.240535
     7  H    0.124726
     8  H    0.124726
     9  C   -0.453889
    10  H    0.145132
    11  H    0.141550
    12  H    0.145132
    13  C   -0.440472
    14  H    0.136311
    15  H    0.136311
    16  H    0.135829
    17  C   -0.444652
    18  H    0.136720
    19  H    0.141135
    20  H    0.135863
 Sum of Mulliken atomic charges =   0.00000
 Mulliken charges with hydrogens summed into heavy atoms:
              1
     1  C   -0.030934
     5  C    0.107047
     6  C    0.008916
     9  C   -0.022075
    13  C   -0.032021
    17  C   -0.030934
 Sum of Mulliken charges with hydrogens summed into heavy atoms =   0.00000
 Electronic spatial extent (au):  <R**2>=            705.7497
 Charge=              0.0000 electrons
 Dipole moment (field-independent basis, Debye):
    X=              0.0374    Y=              0.0165    Z=              0.0000  Tot=              0.0409
 Quadrupole moment (field-independent basis, Debye-Ang):
   XX=            -41.7875   YY=            -41.6710   ZZ=            -41.5862
   XY=              0.2725   XZ=              0.0000   YZ=              0.0000
 Traceless Quadrupole moment (field-independent basis, Debye-Ang):
   XX=             -0.1060   YY=              0.0106   ZZ=              0.0953
   XY=              0.2725   XZ=              0.0000   YZ=              0.0000
 Octapole moment (field-independent basis, Debye-Ang**2):
  XXX=             -0.8801  YYY=             -0.2587  ZZZ=              0.0000  XYY=              0.8983
  XXY=             -1.1194  XXZ=              0.0000  XZZ=              0.7118  YZZ=              1.9070
  YYZ=              0.0000  XYZ=              0.0000
 Hexadecapole moment (field-independent basis, Debye-Ang**3):
 XXXX=           -499.7570 YYYY=           -243.1453 ZZZZ=           -239.3835 XXXY=              8.8214
 XXXZ=             -0.0001 YYYX=             -0.1378 YYYZ=              0.0000 ZZZX=              0.0001
 ZZZY=              0.0000 XXYY=           -121.9926 XXZZ=           -123.9811 YYZZ=            -79.4872
 XXYZ=              0.0000 YYXZ=              0.0000 ZZXY=             -2.1498
 N-N= 2.648706686023D+02 E-N=-1.076665376401D+03  KE= 2.346367973430D+02
 No NMR shielding tensors so no spin-rotation constants.
 Leave Link  601 at Fri Sep 18 13:37:31 2015, MaxMem=  402653184 cpu:       0.3
 (Enter /share/apps/g09/l9999.exe)
 1\1\GINC-COMPUTE-0-5\FOpt\RB3LYP\6-31G(d)\C6H14\HETANJIN\18-Sep-2015\0
 \\#p B3LYP/6-31G(d) opt=tight int=ultrafine\\using B3LYP/6-31G(d) to d
 o opt and freq calc.\\0,1\C,0.5139897688,-0.8965763784,1.2583864008\H,
 -0.2901790567,-1.6403842083,1.285504912\H,0.4444577674,-0.2931305024,2
 .1723579265\H,1.4656233252,-1.4412733805,1.2912533681\C,0.4358602094,-
 0.0106957977,-0.0002790842\C,-0.8647780456,0.836100398,0.0004524155\H,
 -0.8410739576,1.4983670079,-0.877079314\H,-0.8400604017,1.4984076433,0
 .8779254562\C,-2.1929949676,0.0686833815,0.0012372163\H,-2.298959913,-
 0.5684888294,0.8862611882\H,-3.0361435241,0.7691406896,0.0017089499\H,
 -2.2999828457,-0.5685281448,-0.883635384\C,1.6343098326,0.9591012227,-
 0.0009954083\H,1.6205060489,1.6061297038,-0.887040006\H,1.621532815,1.
 6061697058,0.8850353549\H,2.5853781856,0.4123783198,-0.0015341524\C,0.
 5125343399,-0.8966369763,-1.2589913298\H,1.4641300424,-1.4413342016,-1
 .2929334765\H,-0.2916642046,-1.6404473056,-1.2851431152\H,0.4419435815
 ,-0.2932353472,-2.1729109179\\Version=EM64L-G09RevA.01\State=1-A\HF=-2
 37.0836718\RMSD=9.400e-09\RMSF=2.421e-07\Dipole=-0.0146094,0.006735,0.
 0000083\Quadrupole=-0.0856819,0.0147951,0.0708868,-0.2010269,0.000095,
 0.0001172\PG=C01 [X(C6H14)]\\@


 YOU KNOW YOU'VE SPOKEN TOO LONG WHEN THE AUDIENCE STOPS LOOKING AT
 THEIR WATCHES AND STARTS SHAKING THEM.
 Job cpu time:  0 days  0 hours 26 minutes 26.1 seconds.
 File lengths (MBytes):  RWF=     15 Int=      0 D2E=      0 Chk=      2 Scr=      1
 Normal termination of Gaussian 09 at Fri Sep 18 13:37:31 2015.
