 Entering Gaussian System, Link 0=/share/apps/g09/g09
 Input=C6H14_5_1_opt_PM6.gjf
 Output=C6H14_5_1_opt_PM6.log
 Initial command:
 /share/apps/g09/l1.exe /state/partition1/Gau-18772.inp -scrdir=/state/partition1/
 Entering Link 1 = /share/apps/g09/l1.exe PID=     18784.
  
 Copyright (c) 1988,1990,1992,1993,1995,1998,2003,2009, Gaussian, Inc.
                  All Rights Reserved.
  
 This is part of the Gaussian(R) 09 program.  It is based on
 the Gaussian(R) 03 system (copyright 2003, Gaussian, Inc.),
 the Gaussian(R) 98 system (copyright 1998, Gaussian, Inc.),
 the Gaussian(R) 94 system (copyright 1995, Gaussian, Inc.),
 the Gaussian 92(TM) system (copyright 1992, Gaussian, Inc.),
 the Gaussian 90(TM) system (copyright 1990, Gaussian, Inc.),
 the Gaussian 88(TM) system (copyright 1988, Gaussian, Inc.),
 the Gaussian 86(TM) system (copyright 1986, Carnegie Mellon
 University), and the Gaussian 82(TM) system (copyright 1983,
 Carnegie Mellon University). Gaussian is a federally registered
 trademark of Gaussian, Inc.
  
 This software contains proprietary and confidential information,
 including trade secrets, belonging to Gaussian, Inc.
  
 This software is provided under written license and may be
 used, copied, transmitted, or stored only in accord with that
 written license.
  
 The following legend is applicable only to US Government
 contracts under FAR:
  
                    RESTRICTED RIGHTS LEGEND
  
 Use, reproduction and disclosure by the US Government is
 subject to restrictions as set forth in subparagraphs (a)
 and (c) of the Commercial Computer Software - Restricted
 Rights clause in FAR 52.227-19.
  
 Gaussian, Inc.
 340 Quinnipiac St., Bldg. 40, Wallingford CT 06492
  
  
 ---------------------------------------------------------------
 Warning -- This program may not be used in any manner that
 competes with the business of Gaussian, Inc. or will provide
 assistance to any competitor of Gaussian, Inc.  The licensee
 of this program is prohibited from giving any competitor of
 Gaussian, Inc. access to this program.  By using this program,
 the user acknowledges that Gaussian, Inc. is engaged in the
 business of creating and licensing software in the field of
 computational chemistry and represents and warrants to the
 licensee that it is not a competitor of Gaussian, Inc. and that
 it will not use this program in any manner prohibited above.
 ---------------------------------------------------------------
  

 Cite this work as:
 Gaussian 09, Revision A.01,
 M. J. Frisch, G. W. Trucks, H. B. Schlegel, G. E. Scuseria, 
 M. A. Robb, J. R. Cheeseman, G. Scalmani, V. Barone, B. Mennucci, 
 G. A. Petersson, H. Nakatsuji, M. Caricato, X. Li, H. P. Hratchian, 
 A. F. Izmaylov, J. Bloino, G. Zheng, J. L. Sonnenberg, M. Hada, 
 M. Ehara, K. Toyota, R. Fukuda, J. Hasegawa, M. Ishida, T. Nakajima, 
 Y. Honda, O. Kitao, H. Nakai, T. Vreven, J. A. Montgomery, Jr., 
 J. E. Peralta, F. Ogliaro, M. Bearpark, J. J. Heyd, E. Brothers, 
 K. N. Kudin, V. N. Staroverov, R. Kobayashi, J. Normand, 
 K. Raghavachari, A. Rendell, J. C. Burant, S. S. Iyengar, J. Tomasi, 
 M. Cossi, N. Rega, J. M. Millam, M. Klene, J. E. Knox, J. B. Cross, 
 V. Bakken, C. Adamo, J. Jaramillo, R. Gomperts, R. E. Stratmann, 
 O. Yazyev, A. J. Austin, R. Cammi, C. Pomelli, J. W. Ochterski, 
 R. L. Martin, K. Morokuma, V. G. Zakrzewski, G. A. Voth, 
 P. Salvador, J. J. Dannenberg, S. Dapprich, A. D. Daniels, 
 O. Farkas, J. B. Foresman, J. V. Ortiz, J. Cioslowski, 
 and D. J. Fox, Gaussian, Inc., Wallingford CT, 2009.
 
 ******************************************
 Gaussian 09:  EM64L-G09RevA.01  8-May-2009
                13-Sep-2015 
 ******************************************
 %mem=5GB
 %nprocshared=2
 Will use up to    2 processors via shared memory.
 %chk=C6H14_5_1_opt_PM6.chk
 ----------
 #p PM6 opt
 ----------
 1/14=-1,18=20,19=15,26=1,38=1/1,3;
 2/9=110,12=2,17=6,18=5,40=1/2;
 3/5=2,16=1,25=1,41=3900000,71=1/1,2,3;
 4/35=1/1;
 5/5=2,35=1,38=5/2;
 6/7=2,8=2,9=2,10=2,28=1/1;
 7//1,2,3,16;
 1/14=-1,18=20,19=15/3(2);
 2/9=110/2;
 99//99;
 2/9=110/2;
 3/5=2,16=1,25=1,41=3900000,71=1,135=20/1,2,3;
 4/5=5,16=3,35=1/1;
 5/5=2,35=1,38=5/2;
 7//1,2,3,16;
 1/14=-1,18=20,19=15/3(-5);
 2/9=110/2;
 6/7=2,8=2,9=2,10=2,19=2,28=1/1;
 99/9=1/99;
 Leave Link    1 at Sun Sep 13 11:18:47 2015, MaxMem=  671088640 cpu:       0.0
 (Enter /share/apps/g09/l101.exe)
 ----------------------------------
 using PM6 to do opt and freq calc.
 ----------------------------------
 Symbolic Z-matrix:
 Charge =  0 Multiplicity = 1
 C                    -3.38376  -0.07962   0. 
 H                    -3.0271   -1.08843   0. 
 H                    -3.02709   0.42478  -0.87365 
 H                    -4.45376  -0.0796    0. 
 C                    -2.87042   0.64634   1.2574 
 C                    -1.33042   0.64388   1.25881 
 H                    -0.97215   1.14682   0.38497 
 H                    -0.97536  -0.36549   1.26017 
 C                    -0.81708   1.37031   2.51595 
 H                    -1.17541   0.86741   3.38978 
 H                     0.25292   1.36853   2.51697 
 H                    -1.17206   2.3797    2.51455 
 C                    -3.38143   2.09908   1.256 
 H                    -3.34018   2.49264   2.25013 
 H                    -2.76711   2.69264   0.61164 
 H                    -4.39206   2.12133   0.90524 
 C                    -3.38606  -0.07799   2.51481 
 H                    -4.42017  -0.32143   2.38733 
 H                    -2.82407  -0.9761    2.66474 
 H                    -3.2722    0.56029   3.36601 
 
 NAtoms=     20 NQM=     20 NQMF=      0 NMic=      0 NMicF=      0 NTot=     20.
                    Isotopes and Nuclear Properties:
 (Nuclear quadrupole moments (NQMom) in fm**2, nuclear magnetic moments (NMagM)
  in nuclear magnetons)

  Atom         1           2           3           4           5           6           7           8           9          10
 IAtWgt=          12           1           1           1          12          12           1           1          12           1
 AtmWgt=  12.0000000   1.0078250   1.0078250   1.0078250  12.0000000  12.0000000   1.0078250   1.0078250  12.0000000   1.0078250
 NucSpn=           0           1           1           1           0           0           1           1           0           1
 AtZEff=   0.0000000   0.0000000   0.0000000   0.0000000   0.0000000   0.0000000   0.0000000   0.0000000   0.0000000   0.0000000
 NQMom=    0.0000000   0.0000000   0.0000000   0.0000000   0.0000000   0.0000000   0.0000000   0.0000000   0.0000000   0.0000000
 NMagM=    0.0000000   2.7928460   2.7928460   2.7928460   0.0000000   0.0000000   2.7928460   2.7928460   0.0000000   2.7928460

  Atom        11          12          13          14          15          16          17          18          19          20
 IAtWgt=           1           1          12           1           1           1          12           1           1           1
 AtmWgt=   1.0078250   1.0078250  12.0000000   1.0078250   1.0078250   1.0078250  12.0000000   1.0078250   1.0078250   1.0078250
 NucSpn=           1           1           0           1           1           1           0           1           1           1
 AtZEff=   0.0000000   0.0000000   0.0000000   0.0000000   0.0000000   0.0000000   0.0000000   0.0000000   0.0000000   0.0000000
 NQMom=    0.0000000   0.0000000   0.0000000   0.0000000   0.0000000   0.0000000   0.0000000   0.0000000   0.0000000   0.0000000
 NMagM=    2.7928460   2.7928460   0.0000000   2.7928460   2.7928460   2.7928460   0.0000000   2.7928460   2.7928460   2.7928460
 Leave Link  101 at Sun Sep 13 11:18:50 2015, MaxMem=  671088640 cpu:       0.1
 (Enter /share/apps/g09/l103.exe)

 GradGradGradGradGradGradGradGradGradGradGradGradGradGradGradGradGradGrad
 Berny optimization.
 Initialization pass.
                           ----------------------------
                           !    Initial Parameters    !
                           ! (Angstroms and Degrees)  !
 --------------------------                            --------------------------
 ! Name  Definition              Value          Derivative Info.                !
 --------------------------------------------------------------------------------
 ! R1    R(1,2)                  1.07           estimate D2E/DX2                !
 ! R2    R(1,3)                  1.07           estimate D2E/DX2                !
 ! R3    R(1,4)                  1.07           estimate D2E/DX2                !
 ! R4    R(1,5)                  1.54           estimate D2E/DX2                !
 ! R5    R(5,6)                  1.54           estimate D2E/DX2                !
 ! R6    R(5,13)                 1.54           estimate D2E/DX2                !
 ! R7    R(5,17)                 1.54           estimate D2E/DX2                !
 ! R8    R(6,7)                  1.07           estimate D2E/DX2                !
 ! R9    R(6,8)                  1.07           estimate D2E/DX2                !
 ! R10   R(6,9)                  1.54           estimate D2E/DX2                !
 ! R11   R(9,10)                 1.07           estimate D2E/DX2                !
 ! R12   R(9,11)                 1.07           estimate D2E/DX2                !
 ! R13   R(9,12)                 1.07           estimate D2E/DX2                !
 ! R14   R(13,14)                1.07           estimate D2E/DX2                !
 ! R15   R(13,15)                1.07           estimate D2E/DX2                !
 ! R16   R(13,16)                1.07           estimate D2E/DX2                !
 ! R17   R(17,18)                1.07           estimate D2E/DX2                !
 ! R18   R(17,19)                1.07           estimate D2E/DX2                !
 ! R19   R(17,20)                1.07           estimate D2E/DX2                !
 ! A1    A(2,1,3)              109.4712         estimate D2E/DX2                !
 ! A2    A(2,1,4)              109.4712         estimate D2E/DX2                !
 ! A3    A(2,1,5)              109.4712         estimate D2E/DX2                !
 ! A4    A(3,1,4)              109.4712         estimate D2E/DX2                !
 ! A5    A(3,1,5)              109.4713         estimate D2E/DX2                !
 ! A6    A(4,1,5)              109.4712         estimate D2E/DX2                !
 ! A7    A(1,5,6)              109.4712         estimate D2E/DX2                !
 ! A8    A(1,5,13)             109.4712         estimate D2E/DX2                !
 ! A9    A(1,5,17)             109.4712         estimate D2E/DX2                !
 ! A10   A(6,5,13)             109.4713         estimate D2E/DX2                !
 ! A11   A(6,5,17)             109.4712         estimate D2E/DX2                !
 ! A12   A(13,5,17)            109.4712         estimate D2E/DX2                !
 ! A13   A(5,6,7)              109.4712         estimate D2E/DX2                !
 ! A14   A(5,6,8)              109.4712         estimate D2E/DX2                !
 ! A15   A(5,6,9)              109.4712         estimate D2E/DX2                !
 ! A16   A(7,6,8)              109.4712         estimate D2E/DX2                !
 ! A17   A(7,6,9)              109.4713         estimate D2E/DX2                !
 ! A18   A(8,6,9)              109.4712         estimate D2E/DX2                !
 ! A19   A(6,9,10)             109.4712         estimate D2E/DX2                !
 ! A20   A(6,9,11)             109.4712         estimate D2E/DX2                !
 ! A21   A(6,9,12)             109.4712         estimate D2E/DX2                !
 ! A22   A(10,9,11)            109.4713         estimate D2E/DX2                !
 ! A23   A(10,9,12)            109.4712         estimate D2E/DX2                !
 ! A24   A(11,9,12)            109.4712         estimate D2E/DX2                !
 ! A25   A(5,13,14)            109.4712         estimate D2E/DX2                !
 ! A26   A(5,13,15)            109.4712         estimate D2E/DX2                !
 ! A27   A(5,13,16)            109.4712         estimate D2E/DX2                !
 ! A28   A(14,13,15)           109.4713         estimate D2E/DX2                !
 ! A29   A(14,13,16)           109.4712         estimate D2E/DX2                !
 ! A30   A(15,13,16)           109.4712         estimate D2E/DX2                !
 ! A31   A(5,17,18)            109.4712         estimate D2E/DX2                !
 ! A32   A(5,17,19)            109.4712         estimate D2E/DX2                !
 ! A33   A(5,17,20)            109.4712         estimate D2E/DX2                !
 ! A34   A(18,17,19)           109.4713         estimate D2E/DX2                !
 ! A35   A(18,17,20)           109.4712         estimate D2E/DX2                !
 ! A36   A(19,17,20)           109.4712         estimate D2E/DX2                !
 ! D1    D(2,1,5,6)             59.8889         estimate D2E/DX2                !
 ! D2    D(2,1,5,13)           179.8889         estimate D2E/DX2                !
 ! D3    D(2,1,5,17)           -60.1111         estimate D2E/DX2                !
 ! D4    D(3,1,5,6)            -60.1111         estimate D2E/DX2                !
 ! D5    D(3,1,5,13)            59.8889         estimate D2E/DX2                !
 ! D6    D(3,1,5,17)           179.8889         estimate D2E/DX2                !
 ! D7    D(4,1,5,6)            179.8889         estimate D2E/DX2                !
 ! D8    D(4,1,5,13)           -60.1111         estimate D2E/DX2                !
 ! D9    D(4,1,5,17)            59.8889         estimate D2E/DX2                !
 ! D10   D(1,5,6,7)             59.9786         estimate D2E/DX2                !
 ! D11   D(1,5,6,8)            -60.0214         estimate D2E/DX2                !
 ! D12   D(1,5,6,9)            179.9786         estimate D2E/DX2                !
 ! D13   D(13,5,6,7)           -60.0214         estimate D2E/DX2                !
 ! D14   D(13,5,6,8)           179.9786         estimate D2E/DX2                !
 ! D15   D(13,5,6,9)            59.9786         estimate D2E/DX2                !
 ! D16   D(17,5,6,7)           179.9786         estimate D2E/DX2                !
 ! D17   D(17,5,6,8)            59.9786         estimate D2E/DX2                !
 ! D18   D(17,5,6,9)           -60.0214         estimate D2E/DX2                !
 ! D19   D(1,5,13,14)          159.7103         estimate D2E/DX2                !
 ! D20   D(1,5,13,15)          -80.2897         estimate D2E/DX2                !
 ! D21   D(1,5,13,16)           39.7103         estimate D2E/DX2                !
 ! D22   D(6,5,13,14)          -80.2897         estimate D2E/DX2                !
 ! D23   D(6,5,13,15)           39.7103         estimate D2E/DX2                !
 ! D24   D(6,5,13,16)          159.7103         estimate D2E/DX2                !
 ! D25   D(17,5,13,14)          39.7103         estimate D2E/DX2                !
 ! D26   D(17,5,13,15)         159.7103         estimate D2E/DX2                !
 ! D27   D(17,5,13,16)         -80.2897         estimate D2E/DX2                !
 ! D28   D(1,5,17,18)          -44.1498         estimate D2E/DX2                !
 ! D29   D(1,5,17,19)           75.8502         estimate D2E/DX2                !
 ! D30   D(1,5,17,20)         -164.1498         estimate D2E/DX2                !
 ! D31   D(6,5,17,18)         -164.1498         estimate D2E/DX2                !
 ! D32   D(6,5,17,19)          -44.1498         estimate D2E/DX2                !
 ! D33   D(6,5,17,20)           75.8502         estimate D2E/DX2                !
 ! D34   D(13,5,17,18)          75.8502         estimate D2E/DX2                !
 ! D35   D(13,5,17,19)        -164.1498         estimate D2E/DX2                !
 ! D36   D(13,5,17,20)         -44.1498         estimate D2E/DX2                !
 ! D37   D(5,6,9,10)            59.9953         estimate D2E/DX2                !
 ! D38   D(5,6,9,11)           179.9953         estimate D2E/DX2                !
 ! D39   D(5,6,9,12)           -60.0047         estimate D2E/DX2                !
 ! D40   D(7,6,9,10)           179.9953         estimate D2E/DX2                !
 ! D41   D(7,6,9,11)           -60.0047         estimate D2E/DX2                !
 ! D42   D(7,6,9,12)            59.9953         estimate D2E/DX2                !
 ! D43   D(8,6,9,10)           -60.0047         estimate D2E/DX2                !
 ! D44   D(8,6,9,11)            59.9953         estimate D2E/DX2                !
 ! D45   D(8,6,9,12)           179.9953         estimate D2E/DX2                !
 --------------------------------------------------------------------------------
 Trust Radius=3.00D-01 FncErr=1.00D-07 GrdErr=1.00D-07
 Number of steps in this run= 110 maximum allowed number of steps= 120.
 GradGradGradGradGradGradGradGradGradGradGradGradGradGradGradGradGradGrad

 Leave Link  103 at Sun Sep 13 11:18:50 2015, MaxMem=  671088640 cpu:       0.0
 (Enter /share/apps/g09/l202.exe)
                          Input orientation:                          
 ---------------------------------------------------------------------
 Center     Atomic      Atomic             Coordinates (Angstroms)
 Number     Number       Type             X           Y           Z
 ---------------------------------------------------------------------
      1          6           0       -3.383758   -0.079618    0.000000
      2          1           0       -3.027103   -1.088428    0.000000
      3          1           0       -3.027085    0.424780   -0.873652
      4          1           0       -4.453758   -0.079605    0.000000
      5          6           0       -2.870416    0.646338    1.257405
      6          6           0       -1.330418    0.643882    1.258813
      7          1           0       -0.972150    1.146823    0.384974
      8          1           0       -0.975362   -0.365491    1.260167
      9          6           0       -0.817075    1.370307    2.515946
     10          1           0       -1.175412    0.867414    3.389784
     11          1           0        0.252923    1.368529    2.516966
     12          1           0       -1.172063    2.379704    2.514551
     13          6           0       -3.381432    2.099081    1.255998
     14          1           0       -3.340181    2.492643    2.250135
     15          1           0       -2.767109    2.692640    0.611642
     16          1           0       -4.392062    2.121332    0.905240
     17          6           0       -3.386055   -0.077991    2.514808
     18          1           0       -4.420167   -0.321430    2.387329
     19          1           0       -2.824070   -0.976097    2.664739
     20          1           0       -3.272197    0.560286    3.366007
 ---------------------------------------------------------------------
                    Distance matrix (angstroms):
                    1          2          3          4          5
     1  C    0.000000
     2  H    1.070000   0.000000
     3  H    1.070000   1.747302   0.000000
     4  H    1.070000   1.747303   1.747303   0.000000
     5  C    1.540000   2.148263   2.148263   2.148263   0.000000
     6  C    2.514809   2.732077   2.733878   3.444313   1.540000
     7  H    2.732803   3.060618   2.515600   3.711324   2.148263
     8  H    2.733151   2.514021   3.063866   3.710659   2.148263
     9  C    3.875581   4.154466   4.155423   4.653783   2.514809
    10  H    4.155033   4.329517   4.669208   4.809889   2.732939
    11  H    4.653783   4.809400   4.810967   5.530376   3.444314
    12  H    4.154856   4.668199   4.329290   4.810477   2.733016
    13  C    2.514809   3.444313   2.732078   2.733877   1.540000
    14  H    3.417826   4.240895   3.759272   3.594387   2.148263
    15  H    2.905129   3.839034   2.723394   3.302156   2.148263
    16  H    2.584631   3.603489   2.811744   2.380628   2.148263
    17  C    2.514810   2.733878   3.444314   2.732078   1.540000
    18  H    2.613801   2.868493   3.623741   2.399781   2.148263
    19  H    2.866663   2.674822   3.811020   3.249679   2.148263
    20  H    3.428108   3.756105   4.248899   3.624299   2.148263
                    6          7          8          9         10
     6  C    0.000000
     7  H    1.070000   0.000000
     8  H    1.070000   1.747303   0.000000
     9  C    1.540000   2.148263   2.148263   0.000000
    10  H    2.148263   3.024610   2.468875   1.070000   0.000000
    11  H    2.148263   2.468875   2.468816   1.070000   1.747303
    12  H    2.148263   2.468817   3.024610   1.070000   1.747303
    13  C    2.514810   2.733151   3.444315   2.948645   3.307049
    14  H    2.905130   3.301155   3.839444   2.774231   2.937073
    15  H    2.584632   2.379665   3.603208   3.029450   3.685515
    16  H    3.417826   3.593904   4.240766   3.992361   4.253482
    17  C    2.514809   3.444314   2.732804   2.949106   2.558577
    18  H    3.428107   4.249001   3.624791   3.982560   3.598152
    19  H    2.613801   3.624048   2.400704   3.091243   2.577266
    20  H    2.866663   3.810616   3.250703   2.721463   2.119293
                   11         12         13         14         15
    11  H    0.000000
    12  H    1.747303   0.000000
    13  C    3.915646   2.558127   0.000000
    14  H    3.774285   2.187100   1.070000   0.000000
    15  H    3.808428   2.502631   1.070000   1.747303   0.000000
    16  H    4.973958   3.609021   1.070000   1.747303   1.747303
    17  C    3.915940   3.307874   2.514809   2.584631   3.417826
    18  H    4.970969   4.226404   2.866662   3.017317   3.869145
    19  H    3.871304   3.743406   3.428107   3.531349   4.204531
    20  H    3.714916   2.906170   2.613801   2.232442   3.519740
                   16         17         18         19         20
    16  H    0.000000
    17  C    2.905130   0.000000
    18  H    2.857353   1.070000   0.000000
    19  H    3.892107   1.070000   1.747303   0.000000
    20  H    3.121912   1.070000   1.747303   1.747303   0.000000
 Stoichiometry    C6H14
 Framework group  C1[X(C6H14)]
 Deg. of freedom    54
 Full point group                 C1      NOp   1
 Largest Abelian subgroup         C1      NOp   1
 Largest concise Abelian subgroup C1      NOp   1
                         Standard orientation:                         
 ---------------------------------------------------------------------
 Center     Atomic      Atomic             Coordinates (Angstroms)
 Number     Number       Type             X           Y           Z
 ---------------------------------------------------------------------
      1          6           0       -1.707566   -0.000541    0.863510
      2          1           0       -1.722619    0.871943    1.482740
      3          1           0       -1.724115   -0.875356    1.479404
      4          1           0       -2.565131    0.001415    0.223605
      5          6           0       -0.427832    0.000000    0.006842
      6          6           0        0.806420    0.000000    0.927831
      7          1           0        0.790619   -0.873650    1.545395
      8          1           0        0.790620    0.873653    1.545393
      9          6           0        2.086154    0.000000    0.071163
     10          1           0        2.101914    0.873609   -0.546461
     11          1           0        2.943719    0.000083    0.711071
     12          1           0        2.101994   -0.873694   -0.546339
     13          6           0       -0.404812   -1.257134   -0.882362
     14          1           0        0.260948   -1.099900   -1.705126
     15          1           0       -0.069413   -2.094743   -0.307193
     16          1           0       -1.389976   -1.450223   -1.252589
     17          6           0       -0.405372    1.257675   -0.881612
     18          1           0       -1.372867    1.406424   -1.313731
     19          1           0       -0.145123    2.109062   -0.288055
     20          1           0        0.317480    1.131377   -1.660350
 ---------------------------------------------------------------------
 Rotational constants (GHZ):      4.3683813      2.6007487      2.5942459
 Leave Link  202 at Sun Sep 13 11:18:55 2015, MaxMem=  671088640 cpu:       0.0
 (Enter /share/apps/g09/l301.exe)
 Standard basis: VSTO-6G (5D, 7F)
 Ernie: Thresh=  0.10000D-02 Tol=  0.10000D-05 Strict=F.
  NNHCO=     0 NNPyr=     0 NCTC=     0               EPep=         0.000000000
    EC=       135.850378661  ECS=         3.456455184   EG=         0.308386644
   EHC=         0.000625976  EAt=       -31.187935768  AtH=         2.796400831
 EPDDG=         0.000000000  ECC=       139.615846464 EAtT=        33.984336599
 There are    38 symmetry adapted basis functions of A   symmetry.
 Integral buffers will be    131072 words long.
 Regular integral format.
 Two-electron integral symmetry is turned off.
    38 basis functions,   228 primitive gaussians,    38 cartesian basis functions
    19 alpha electrons       19 beta electrons
       nuclear repulsion energy       173.6001830633 Hartrees.
 IExCor=    0 DFT=F Ex=HF Corr=None ExCW=0 ScaHFX=  1.000000
 ScaDFX=  1.000000  1.000000  1.000000  1.000000 ScalE2=  1.000000  1.000000
 IRadAn=      0 IRanWt=     -1 IRanGd=            0 ICorTp=0
 Leave Link  301 at Sun Sep 13 11:18:56 2015, MaxMem=  671088640 cpu:       0.1
 (Enter /share/apps/g09/l302.exe)
 Do NDO integrals.
 NPDir=0 NMtPBC=     1 NCelOv=     1 NCel=       1 NClECP=     1 NCelD=      1
         NCelK=      1 NCelE2=     1 NClLst=     1 CellRange=     0.0.
 One-electron integrals computed using PRISM.
 NBasis=    38 RedAO= F  NBF=    38
 NBsUse=    38 1.00D-04 NBFU=    38
 Leave Link  302 at Sun Sep 13 11:18:59 2015, MaxMem=  671088640 cpu:       0.2
 (Enter /share/apps/g09/l303.exe)
 DipDrv:  MaxL=1.
 Leave Link  303 at Sun Sep 13 11:19:00 2015, MaxMem=  671088640 cpu:       0.0
 (Enter /share/apps/g09/l401.exe)
 Simple Huckel Guess.
 Initial guess orbital symmetries:
       Occupied  (A) (A) (A) (A) (A) (A) (A) (A) (A) (A) (A) (A)
                 (A) (A) (A) (A) (A) (A) (A)
       Virtual   (A) (A) (A) (A) (A) (A) (A) (A) (A) (A) (A) (A)
                 (A) (A) (A) (A) (A) (A) (A)
 The electronic state of the initial guess is 1-A.
 Leave Link  401 at Sun Sep 13 11:19:00 2015, MaxMem=  671088640 cpu:       0.1
 (Enter /share/apps/g09/l502.exe)
 Closed shell SCF:
 Requested convergence on RMS density matrix=1.00D-08 within 128 cycles.
 Requested convergence on MAX density matrix=1.00D-06.
 Requested convergence on             energy=1.00D-06.
 No special actions if energy rises.
 Using DIIS extrapolation, IDIIS=  1040.
 Overlap will be assumed to be unity.
 Two-electron integral symmetry not used.
 Keep J ints in memory in canonical form, NReq=884654.
 IEnd=       81865 IEndB=       81865 NGot=   671088640 MDV=   671022095
 LenX=   671022095 LenY=   671020210
 Symmetry not used in FoFDir.
 MinBra= 0 MaxBra= 1 Meth=40.
 IRaf=       0 NMat=   1 IRICut=       1 DoRegI=T DoRafI=F ISym2E= 0 JSym2E=0.

 Cycle   1  Pass 1  IDiag  1:
 E= 0.709089725731076E-01
 DIIS: error= 2.20D-02 at cycle   1 NSaved=   1.
 NSaved= 1 IEnMin= 1 EnMin= 0.709089725731076E-01 IErMin= 1 ErrMin= 2.20D-02
 ErrMax= 2.20D-02 EMaxC= 1.00D-01 BMatC= 4.23D-02 BMatP= 4.23D-02
 IDIUse=3 WtCom= 7.80D-01 WtEn= 2.20D-01
 Coeff-Com:  0.100D+01
 Coeff-En:   0.100D+01
 Coeff:      0.100D+01
 GapD=    2.000 DampG=2.000 DampE=0.500 DampFc=1.0000 IDamp=-1.
 RMSDP=7.96D-03 MaxDP=6.68D-02              OVMax= 0.00D+00

 Cycle   2  Pass 1  IDiag  1:
 E=-0.375003972507670E-01 Delta-E=       -0.108409369824 Rises=F Damp=F
 DIIS: error= 5.40D-03 at cycle   2 NSaved=   2.
 NSaved= 2 IEnMin= 2 EnMin=-0.375003972507670E-01 IErMin= 2 ErrMin= 5.40D-03
 ErrMax= 5.40D-03 EMaxC= 1.00D-01 BMatC= 3.14D-03 BMatP= 4.23D-02
 IDIUse=3 WtCom= 9.46D-01 WtEn= 5.40D-02
 Coeff-Com: -0.319D+00 0.132D+01
 Coeff-En:   0.000D+00 0.100D+01
 Coeff:     -0.302D+00 0.130D+01
 RMSDP=3.08D-03 MaxDP=2.19D-02 DE=-1.08D-01 OVMax= 0.00D+00

 Cycle   3  Pass 1  IDiag  3:
 E=-0.483600643449620E-01 Delta-E=       -0.010859667094 Rises=F Damp=F
 DIIS: error= 2.00D-03 at cycle   3 NSaved=   3.
 NSaved= 3 IEnMin= 3 EnMin=-0.483600643449620E-01 IErMin= 3 ErrMin= 2.00D-03
 ErrMax= 2.00D-03 EMaxC= 1.00D-01 BMatC= 2.44D-04 BMatP= 3.14D-03
 IDIUse=3 WtCom= 9.80D-01 WtEn= 2.00D-02
 Coeff-Com:  0.262D+00-0.118D+01 0.191D+01
 Coeff-En:   0.000D+00 0.000D+00 0.100D+01
 Coeff:      0.257D+00-0.115D+01 0.189D+01
 Gap=     0.554 Goal=   None    Shift=    0.000
 RMSDP=1.68D-03 MaxDP=1.78D-02 DE=-1.09D-02 OVMax= 0.00D+00

 Cycle   4  Pass 1  IDiag  3:
 E=-0.502070564765518E-01 Delta-E=       -0.001846992132 Rises=F Damp=F
 DIIS: error= 7.17D-04 at cycle   4 NSaved=   4.
 NSaved= 4 IEnMin= 4 EnMin=-0.502070564765518E-01 IErMin= 4 ErrMin= 7.17D-04
 ErrMax= 7.17D-04 EMaxC= 1.00D-01 BMatC= 3.10D-05 BMatP= 2.44D-04
 IDIUse=3 WtCom= 9.93D-01 WtEn= 7.17D-03
 Coeff-Com: -0.146D+00 0.670D+00-0.145D+01 0.193D+01
 Coeff-En:   0.000D+00 0.000D+00 0.000D+00 0.100D+01
 Coeff:     -0.145D+00 0.665D+00-0.144D+01 0.192D+01
 Gap=     0.555 Goal=   None    Shift=    0.000
 RMSDP=8.66D-04 MaxDP=9.38D-03 DE=-1.85D-03 OVMax= 0.00D+00

 Cycle   5  Pass 1  IDiag  3:
 E=-0.504859770812232E-01 Delta-E=       -0.000278920605 Rises=F Damp=F
 DIIS: error= 1.24D-04 at cycle   5 NSaved=   5.
 NSaved= 5 IEnMin= 5 EnMin=-0.504859770812232E-01 IErMin= 5 ErrMin= 1.24D-04
 ErrMax= 1.24D-04 EMaxC= 1.00D-01 BMatC= 1.29D-06 BMatP= 3.10D-05
 IDIUse=3 WtCom= 9.99D-01 WtEn= 1.24D-03
 Coeff-Com:  0.824D-01-0.381D+00 0.857D+00-0.126D+01 0.170D+01
 Coeff-En:   0.000D+00 0.000D+00 0.000D+00 0.000D+00 0.100D+01
 Coeff:      0.823D-01-0.381D+00 0.856D+00-0.125D+01 0.170D+01
 Gap=     0.554 Goal=   None    Shift=    0.000
 RMSDP=1.31D-04 MaxDP=1.46D-03 DE=-2.79D-04 OVMax= 0.00D+00

 Cycle   6  Pass 1  IDiag  3:
 E=-0.504953016456966E-01 Delta-E=       -0.000009324564 Rises=F Damp=F
 DIIS: error= 5.78D-05 at cycle   6 NSaved=   6.
 NSaved= 6 IEnMin= 6 EnMin=-0.504953016456966E-01 IErMin= 6 ErrMin= 5.78D-05
 ErrMax= 5.78D-05 EMaxC= 1.00D-01 BMatC= 1.31D-07 BMatP= 1.29D-06
 IDIUse=1 WtCom= 1.00D+00 WtEn= 0.00D+00
 Coeff-Com: -0.142D-01 0.664D-01-0.154D+00 0.241D+00-0.555D+00 0.142D+01
 Coeff:     -0.142D-01 0.664D-01-0.154D+00 0.241D+00-0.555D+00 0.142D+01
 Gap=     0.554 Goal=   None    Shift=    0.000
 RMSDP=3.84D-05 MaxDP=4.12D-04 DE=-9.32D-06 OVMax= 0.00D+00

 Cycle   7  Pass 1  IDiag  3:
 E=-0.504962383308794E-01 Delta-E=       -0.000000936685 Rises=F Damp=F
 DIIS: error= 2.11D-05 at cycle   7 NSaved=   7.
 NSaved= 7 IEnMin= 7 EnMin=-0.504962383308794E-01 IErMin= 7 ErrMin= 2.11D-05
 ErrMax= 2.11D-05 EMaxC= 1.00D-01 BMatC= 1.91D-08 BMatP= 1.31D-07
 IDIUse=1 WtCom= 1.00D+00 WtEn= 0.00D+00
 Coeff-Com:  0.655D-02-0.307D-01 0.716D-01-0.112D+00 0.261D+00-0.986D+00
 Coeff-Com:  0.179D+01
 Coeff:      0.655D-02-0.307D-01 0.716D-01-0.112D+00 0.261D+00-0.986D+00
 Coeff:      0.179D+01
 Gap=     0.554 Goal=   None    Shift=    0.000
 RMSDP=1.83D-05 MaxDP=2.28D-04 DE=-9.37D-07 OVMax= 0.00D+00

 Cycle   8  Pass 1  IDiag  3:
 E=-0.504963898489450E-01 Delta-E=       -0.000000151518 Rises=F Damp=F
 DIIS: error= 6.46D-06 at cycle   8 NSaved=   8.
 NSaved= 8 IEnMin= 8 EnMin=-0.504963898489450E-01 IErMin= 8 ErrMin= 6.46D-06
 ErrMax= 6.46D-06 EMaxC= 1.00D-01 BMatC= 1.22D-09 BMatP= 1.91D-08
 IDIUse=1 WtCom= 1.00D+00 WtEn= 0.00D+00
 Coeff-Com: -0.102D-02 0.493D-02-0.129D-01 0.229D-01-0.718D-01 0.393D+00
 Coeff-Com: -0.962D+00 0.163D+01
 Coeff:     -0.102D-02 0.493D-02-0.129D-01 0.229D-01-0.718D-01 0.393D+00
 Coeff:     -0.962D+00 0.163D+01
 Gap=     0.554 Goal=   None    Shift=    0.000
 RMSDP=4.13D-06 MaxDP=5.27D-05 DE=-1.52D-07 OVMax= 0.00D+00

 Cycle   9  Pass 1  IDiag  3:
 E=-0.504963981985611E-01 Delta-E=       -0.000000008350 Rises=F Damp=F
 DIIS: error= 1.28D-06 at cycle   9 NSaved=   9.
 NSaved= 9 IEnMin= 9 EnMin=-0.504963981985611E-01 IErMin= 9 ErrMin= 1.28D-06
 ErrMax= 1.28D-06 EMaxC= 1.00D-01 BMatC= 5.04D-11 BMatP= 1.22D-09
 IDIUse=1 WtCom= 1.00D+00 WtEn= 0.00D+00
 Coeff-Com: -0.131D-03 0.529D-03-0.545D-03-0.611D-03 0.113D-01-0.101D+00
 Coeff-Com:  0.292D+00-0.677D+00 0.148D+01
 Coeff:     -0.131D-03 0.529D-03-0.545D-03-0.611D-03 0.113D-01-0.101D+00
 Coeff:      0.292D+00-0.677D+00 0.148D+01
 Gap=     0.554 Goal=   None    Shift=    0.000
 RMSDP=7.10D-07 MaxDP=1.00D-05 DE=-8.35D-09 OVMax= 0.00D+00

 Cycle  10  Pass 1  IDiag  3:
 E=-0.504963984750759E-01 Delta-E=       -0.000000000277 Rises=F Damp=F
 DIIS: error= 1.62D-07 at cycle  10 NSaved=  10.
 NSaved=10 IEnMin=10 EnMin=-0.504963984750759E-01 IErMin=10 ErrMin= 1.62D-07
 ErrMax= 1.62D-07 EMaxC= 1.00D-01 BMatC= 1.58D-12 BMatP= 5.04D-11
 IDIUse=1 WtCom= 1.00D+00 WtEn= 0.00D+00
 Coeff-Com: -0.192D-04 0.124D-03-0.567D-03 0.146D-02-0.719D-02 0.513D-01
 Coeff-Com: -0.142D+00 0.321D+00-0.751D+00 0.153D+01
 Coeff:     -0.192D-04 0.124D-03-0.567D-03 0.146D-02-0.719D-02 0.513D-01
 Coeff:     -0.142D+00 0.321D+00-0.751D+00 0.153D+01
 Gap=     0.554 Goal=   None    Shift=    0.000
 RMSDP=1.10D-07 MaxDP=1.29D-06 DE=-2.77D-10 OVMax= 0.00D+00

 Cycle  11  Pass 1  IDiag  3:
 E=-0.504963984833466E-01 Delta-E=       -0.000000000008 Rises=F Damp=F
 DIIS: error= 3.47D-08 at cycle  11 NSaved=  11.
 NSaved=11 IEnMin=11 EnMin=-0.504963984833466E-01 IErMin=11 ErrMin= 3.47D-08
 ErrMax= 3.47D-08 EMaxC= 1.00D-01 BMatC= 8.51D-14 BMatP= 1.58D-12
 IDIUse=1 WtCom= 1.00D+00 WtEn= 0.00D+00
 Coeff-Com:  0.827D-05-0.561D-04 0.275D-03-0.724D-03 0.361D-02-0.260D-01
 Coeff-Com:  0.721D-01-0.164D+00 0.388D+00-0.925D+00 0.165D+01
 Coeff:      0.827D-05-0.561D-04 0.275D-03-0.724D-03 0.361D-02-0.260D-01
 Coeff:      0.721D-01-0.164D+00 0.388D+00-0.925D+00 0.165D+01
 Gap=     0.554 Goal=   None    Shift=    0.000
 RMSDP=2.87D-08 MaxDP=2.24D-07 DE=-8.27D-12 OVMax= 0.00D+00

 Cycle  12  Pass 1  IDiag  3:
 E=-0.504963984838867E-01 Delta-E=       -0.000000000001 Rises=F Damp=F
 DIIS: error= 5.27D-09 at cycle  12 NSaved=  12.
 NSaved=12 IEnMin=12 EnMin=-0.504963984838867E-01 IErMin=12 ErrMin= 5.27D-09
 ErrMax= 5.27D-09 EMaxC= 1.00D-01 BMatC= 2.32D-15 BMatP= 8.51D-14
 IDIUse=1 WtCom= 1.00D+00 WtEn= 0.00D+00
 Coeff-Com:  0.846D-07 0.604D-05-0.676D-04 0.214D-03-0.122D-02 0.915D-02
 Coeff-Com: -0.257D-01 0.589D-01-0.141D+00 0.349D+00-0.720D+00 0.147D+01
 Coeff:      0.846D-07 0.604D-05-0.676D-04 0.214D-03-0.122D-02 0.915D-02
 Coeff:     -0.257D-01 0.589D-01-0.141D+00 0.349D+00-0.720D+00 0.147D+01
 Gap=     0.554 Goal=   None    Shift=    0.000
 RMSDP=4.30D-09 MaxDP=3.93D-08 DE=-5.40D-13 OVMax= 0.00D+00

 Cycle  13  Pass 2  IDiag  1:
 RMSDP=4.30D-09 MaxDP=3.93D-08 DE=-5.40D-13 OVMax= 0.00D+00

 SCF Done:  E(RPM6) = -0.504963984839E-01 A.U. after   13 cycles
             Convg  =    0.4296D-08             -V/T =  0.9991
 KE=-5.669660424565D+01 PE=-2.672581216860D+02 EE= 1.503040464699D+02
 Leave Link  502 at Sun Sep 13 11:19:03 2015, MaxMem=  671088640 cpu:       0.2
 (Enter /share/apps/g09/l601.exe)
 Copying SCF densities to generalized density rwf, IOpCl= 0 IROHF=0.

 **********************************************************************

            Population analysis using the SCF density.

 **********************************************************************

 Orbital symmetries:
       Occupied  (A) (A) (A) (A) (A) (A) (A) (A) (A) (A) (A) (A)
                 (A) (A) (A) (A) (A) (A) (A)
       Virtual   (A) (A) (A) (A) (A) (A) (A) (A) (A) (A) (A) (A)
                 (A) (A) (A) (A) (A) (A) (A)
 The electronic state is 1-A.
 Alpha  occ. eigenvalues --   -1.10222  -0.96888  -0.90062  -0.89969  -0.80546
 Alpha  occ. eigenvalues --   -0.66986  -0.58079  -0.57776  -0.54848  -0.53509
 Alpha  occ. eigenvalues --   -0.50498  -0.48259  -0.48224  -0.46861  -0.46492
 Alpha  occ. eigenvalues --   -0.44323  -0.41611  -0.41520  -0.40660
 Alpha virt. eigenvalues --    0.14781   0.15766   0.15806   0.17429   0.18103
 Alpha virt. eigenvalues --    0.22144   0.22597   0.22819   0.22850   0.23002
 Alpha virt. eigenvalues --    0.23095   0.23229   0.23313   0.23858   0.25247
 Alpha virt. eigenvalues --    0.26074   0.26484   0.27064   0.27166
          Condensed to atoms (all electrons):
              1          2          3          4          5          6
     1  C    4.538867   0.000000   0.000000   0.000000   0.000000   0.000000
     2  H    0.000000   0.845094   0.000000   0.000000   0.000000   0.000000
     3  H    0.000000   0.000000   0.845013   0.000000   0.000000   0.000000
     4  H    0.000000   0.000000   0.000000   0.844081   0.000000   0.000000
     5  C    0.000000   0.000000   0.000000   0.000000   3.742972   0.000000
     6  C    0.000000   0.000000   0.000000   0.000000   0.000000   4.299792
     7  H    0.000000   0.000000   0.000000   0.000000   0.000000   0.000000
     8  H    0.000000   0.000000   0.000000   0.000000   0.000000   0.000000
     9  C    0.000000   0.000000   0.000000   0.000000   0.000000   0.000000
    10  H    0.000000   0.000000   0.000000   0.000000   0.000000   0.000000
    11  H    0.000000   0.000000   0.000000   0.000000   0.000000   0.000000
    12  H    0.000000   0.000000   0.000000   0.000000   0.000000   0.000000
    13  C    0.000000   0.000000   0.000000   0.000000   0.000000   0.000000
    14  H    0.000000   0.000000   0.000000   0.000000   0.000000   0.000000
    15  H    0.000000   0.000000   0.000000   0.000000   0.000000   0.000000
    16  H    0.000000   0.000000   0.000000   0.000000   0.000000   0.000000
    17  C    0.000000   0.000000   0.000000   0.000000   0.000000   0.000000
    18  H    0.000000   0.000000   0.000000   0.000000   0.000000   0.000000
    19  H    0.000000   0.000000   0.000000   0.000000   0.000000   0.000000
    20  H    0.000000   0.000000   0.000000   0.000000   0.000000   0.000000
              7          8          9         10         11         12
     1  C    0.000000   0.000000   0.000000   0.000000   0.000000   0.000000
     2  H    0.000000   0.000000   0.000000   0.000000   0.000000   0.000000
     3  H    0.000000   0.000000   0.000000   0.000000   0.000000   0.000000
     4  H    0.000000   0.000000   0.000000   0.000000   0.000000   0.000000
     5  C    0.000000   0.000000   0.000000   0.000000   0.000000   0.000000
     6  C    0.000000   0.000000   0.000000   0.000000   0.000000   0.000000
     7  H    0.866478   0.000000   0.000000   0.000000   0.000000   0.000000
     8  H    0.000000   0.866440   0.000000   0.000000   0.000000   0.000000
     9  C    0.000000   0.000000   4.449987   0.000000   0.000000   0.000000
    10  H    0.000000   0.000000   0.000000   0.852134   0.000000   0.000000
    11  H    0.000000   0.000000   0.000000   0.000000   0.860085   0.000000
    12  H    0.000000   0.000000   0.000000   0.000000   0.000000   0.852070
    13  C    0.000000   0.000000   0.000000   0.000000   0.000000   0.000000
    14  H    0.000000   0.000000   0.000000   0.000000   0.000000   0.000000
    15  H    0.000000   0.000000   0.000000   0.000000   0.000000   0.000000
    16  H    0.000000   0.000000   0.000000   0.000000   0.000000   0.000000
    17  C    0.000000   0.000000   0.000000   0.000000   0.000000   0.000000
    18  H    0.000000   0.000000   0.000000   0.000000   0.000000   0.000000
    19  H    0.000000   0.000000   0.000000   0.000000   0.000000   0.000000
    20  H    0.000000   0.000000   0.000000   0.000000   0.000000   0.000000
             13         14         15         16         17         18
     1  C    0.000000   0.000000   0.000000   0.000000   0.000000   0.000000
     2  H    0.000000   0.000000   0.000000   0.000000   0.000000   0.000000
     3  H    0.000000   0.000000   0.000000   0.000000   0.000000   0.000000
     4  H    0.000000   0.000000   0.000000   0.000000   0.000000   0.000000
     5  C    0.000000   0.000000   0.000000   0.000000   0.000000   0.000000
     6  C    0.000000   0.000000   0.000000   0.000000   0.000000   0.000000
     7  H    0.000000   0.000000   0.000000   0.000000   0.000000   0.000000
     8  H    0.000000   0.000000   0.000000   0.000000   0.000000   0.000000
     9  C    0.000000   0.000000   0.000000   0.000000   0.000000   0.000000
    10  H    0.000000   0.000000   0.000000   0.000000   0.000000   0.000000
    11  H    0.000000   0.000000   0.000000   0.000000   0.000000   0.000000
    12  H    0.000000   0.000000   0.000000   0.000000   0.000000   0.000000
    13  C    4.531983   0.000000   0.000000   0.000000   0.000000   0.000000
    14  H    0.000000   0.844450   0.000000   0.000000   0.000000   0.000000
    15  H    0.000000   0.000000   0.845536   0.000000   0.000000   0.000000
    16  H    0.000000   0.000000   0.000000   0.846531   0.000000   0.000000
    17  C    0.000000   0.000000   0.000000   0.000000   4.531542   0.000000
    18  H    0.000000   0.000000   0.000000   0.000000   0.000000   0.846594
    19  H    0.000000   0.000000   0.000000   0.000000   0.000000   0.000000
    20  H    0.000000   0.000000   0.000000   0.000000   0.000000   0.000000
             19         20
     1  C    0.000000   0.000000
     2  H    0.000000   0.000000
     3  H    0.000000   0.000000
     4  H    0.000000   0.000000
     5  C    0.000000   0.000000
     6  C    0.000000   0.000000
     7  H    0.000000   0.000000
     8  H    0.000000   0.000000
     9  C    0.000000   0.000000
    10  H    0.000000   0.000000
    11  H    0.000000   0.000000
    12  H    0.000000   0.000000
    13  C    0.000000   0.000000
    14  H    0.000000   0.000000
    15  H    0.000000   0.000000
    16  H    0.000000   0.000000
    17  C    0.000000   0.000000
    18  H    0.000000   0.000000
    19  H    0.845894   0.000000
    20  H    0.000000   0.844458
 Mulliken atomic charges:
              1
     1  C   -0.538867
     2  H    0.154906
     3  H    0.154987
     4  H    0.155919
     5  C    0.257028
     6  C   -0.299792
     7  H    0.133522
     8  H    0.133560
     9  C   -0.449987
    10  H    0.147866
    11  H    0.139915
    12  H    0.147930
    13  C   -0.531983
    14  H    0.155550
    15  H    0.154464
    16  H    0.153469
    17  C   -0.531542
    18  H    0.153406
    19  H    0.154106
    20  H    0.155542
 Sum of Mulliken atomic charges =   0.00000
 Mulliken charges with hydrogens summed into heavy atoms:
              1
     1  C   -0.073055
     5  C    0.257028
     6  C   -0.032709
     9  C   -0.014276
    13  C   -0.068500
    17  C   -0.068488
 Sum of Mulliken charges with hydrogens summed into heavy atoms =   0.00000
 Charge=              0.0000 electrons
 Dipole moment (field-independent basis, Debye):
    X=              0.0023    Y=             -0.0004    Z=             -0.0468  Tot=              0.0469
 N-N= 1.736001830633D+02 E-N=-2.672581215758D+02  KE=-5.669660424565D+01
 Leave Link  601 at Sun Sep 13 11:19:05 2015, MaxMem=  671088640 cpu:       0.1
 (Enter /share/apps/g09/l701.exe)
 Compute integral first derivatives.
 ... and contract with generalized density number  0.
 Leave Link  701 at Sun Sep 13 11:19:08 2015, MaxMem=  671088640 cpu:       0.1
 (Enter /share/apps/g09/l702.exe)
 L702 exits ... SP integral derivatives will be done elsewhere.
 Leave Link  702 at Sun Sep 13 11:19:08 2015, MaxMem=  671088640 cpu:       0.0
 (Enter /share/apps/g09/l703.exe)
 Compute integral first derivatives, UseDBF=F ICtDFT=           0.
 Integral derivatives from FoFDir, PRISM(SPDF).
 Calling FoFJK, ICntrl=      2127 FMM=F ISym2X=0 I1Cent= 0 IOpClX= 0 NMat=1 NMatS=1 NMatT=0.
 FoFCou: FMM=F IPFlag=           0 FMFlag=      100000 FMFlg1=         800
         NFxFlg=           0 DoJE=F BraDBF=F KetDBF=F FulRan=T
         Omega=  0.000000  0.000000  1.000000  0.000000  0.000000 ICntrl=    2127 IOpCl=  0
         NMat0=    1 NMatS0=    1 NMatT0=    0 NMatD0=    1 NMtDS0=    0 NMtDT0=    0
         I1Cent=           0 NGrid=           0.
 Symmetry not used in FoFCou.
 Leave Link  703 at Sun Sep 13 11:19:10 2015, MaxMem=  671088640 cpu:       0.1
 (Enter /share/apps/g09/l716.exe)
 Dipole        = 8.91369319D-04-1.58332669D-04-1.84120758D-02
 ***** Axes restored to original set *****
 -------------------------------------------------------------------
 Center     Atomic                   Forces (Hartrees/Bohr)
 Number     Number              X              Y              Z
 -------------------------------------------------------------------
      1        6           0.007086355    0.006946524    0.012227496
      2        1           0.002282317   -0.013651108   -0.003726384
      3        1           0.002318138    0.003620353   -0.013669193
      4        1          -0.013526985   -0.002320540   -0.003938345
      5        6          -0.003410789   -0.000233650   -0.000211564
      6        6          -0.007188642    0.010016122    0.017634031
      7        1           0.008641131    0.005734465   -0.016056538
      8        1           0.008588552   -0.016802044   -0.002969154
      9        6           0.001002418   -0.009177784   -0.016069977
     10        1          -0.001502145   -0.003709853    0.014287836
     11        1           0.013634368    0.001653235    0.002911806
     12        1          -0.001373206    0.014198576    0.003942412
     13        6           0.001631522   -0.014042512   -0.002620768
     14        1          -0.001330561    0.009717116    0.010928637
     15        1           0.004490767    0.011351755   -0.007972835
     16        1          -0.013149200    0.004977477   -0.003141212
     17        6           0.001641074    0.004540607   -0.013709178
     18        1          -0.013342681   -0.004403509    0.002824889
     19        1           0.004057695   -0.012847622    0.005315182
     20        1          -0.000550130    0.004432394    0.014012859
 -------------------------------------------------------------------
 Cartesian Forces:  Max     0.017634031 RMS     0.008881236
 Leave Link  716 at Sun Sep 13 11:19:12 2015, MaxMem=  671088640 cpu:       0.0
 (Enter /share/apps/g09/l103.exe)

 GradGradGradGradGradGradGradGradGradGradGradGradGradGradGradGradGradGrad
 Berny optimization.
 Internal  Forces:  Max     0.021802753 RMS     0.007250999
 Search for a local minimum.
 Step number   1 out of a maximum of  110
 All quantities printed in internal units (Hartrees-Bohrs-Radians)
 RMS Force = .72510D-02 SwitMx=.10000D-02 MixMth= 1
 Mixed Optimization -- RFO/linear search
 Second derivative matrix not updated -- first step.
     Eigenvalues ---    0.00237   0.00237   0.00237   0.00237   0.00237
     Eigenvalues ---    0.03840   0.04739   0.04739   0.04739   0.04896
     Eigenvalues ---    0.05720   0.05720   0.05720   0.05720   0.05720
     Eigenvalues ---    0.05720   0.05720   0.05720   0.07655   0.11701
     Eigenvalues ---    0.14387   0.14387   0.16000   0.16000   0.16000
     Eigenvalues ---    0.16000   0.16000   0.16000   0.16000   0.16000
     Eigenvalues ---    0.16000   0.16000   0.16000   0.16000   0.21948
     Eigenvalues ---    0.28519   0.28519   0.28519   0.28519   0.28519
     Eigenvalues ---    0.37230   0.37230   0.37230   0.37230   0.37230
     Eigenvalues ---    0.37230   0.37230   0.37230   0.37230   0.37230
     Eigenvalues ---    0.37230   0.37230   0.37230   0.372301000.00000
     Eigenvalues --- 1000.000001000.000001000.000001000.000001000.00000
     Eigenvalues --- 1000.000001000.000001000.000001000.000001000.00000
     Eigenvalues --- 1000.000001000.000001000.000001000.000001000.00000
     Eigenvalues --- 1000.000001000.000001000.000001000.000001000.00000
     Eigenvalues --- 1000.000001000.000001000.000001000.000001000.00000
     Eigenvalues --- 1000.000001000.000001000.000001000.000001000.00000
     Eigenvalues --- 1000.000001000.000001000.000001000.000001000.00000
     Eigenvalues --- 1000.000001000.000001000.000001000.000001000.00000
     Eigenvalues --- 1000.000001000.000001000.000001000.000001000.00000
 RFO step:  Lambda=-1.87034694D-02 EMin= 2.36823012D-03
 Linear search not attempted -- first point.
 Maximum step size (   0.300) exceeded in Quadratic search.
    -- Step size scaled by   0.973
 Iteration  1 RMS(Cart)=  0.09484434 RMS(Int)=  0.00230223
 Iteration  2 RMS(Cart)=  0.00301340 RMS(Int)=  0.00031035
 Iteration  3 RMS(Cart)=  0.00000829 RMS(Int)=  0.00031030
 Iteration  4 RMS(Cart)=  0.00000000 RMS(Int)=  0.00031030
 Variable       Old X    -DE/DX   Delta X   Delta X   Delta X     New X
                                 (Linear)    (Quad)   (Total)
    R1        2.02201   0.01363   0.00000   0.03393   0.03393   2.05593
    R2        2.02201   0.01364   0.00000   0.03395   0.03395   2.05596
    R3        2.02201   0.01353   0.00000   0.03367   0.03367   2.05567
    R4        2.91018   0.01060   0.00000   0.03393   0.03393   2.94411
    R5        2.91018   0.02180   0.00000   0.06982   0.06982   2.98000
    R6        2.91018   0.01410   0.00000   0.04515   0.04515   2.95533
    R7        2.91018   0.01353   0.00000   0.04333   0.04333   2.95351
    R8        2.02201   0.01870   0.00000   0.04655   0.04655   2.06855
    R9        2.02201   0.01870   0.00000   0.04653   0.04653   2.06854
   R10        2.91018   0.00946   0.00000   0.03029   0.03029   2.94047
   R11        2.02201   0.01392   0.00000   0.03463   0.03463   2.05664
   R12        2.02201   0.01363   0.00000   0.03394   0.03394   2.05594
   R13        2.02201   0.01384   0.00000   0.03446   0.03446   2.05647
   R14        2.02201   0.01368   0.00000   0.03404   0.03404   2.05605
   R15        2.02201   0.01368   0.00000   0.03404   0.03404   2.05605
   R16        2.02201   0.01355   0.00000   0.03373   0.03373   2.05574
   R17        2.02201   0.01356   0.00000   0.03375   0.03375   2.05576
   R18        2.02201   0.01366   0.00000   0.03400   0.03400   2.05600
   R19        2.02201   0.01373   0.00000   0.03418   0.03418   2.05619
    A1        1.91063  -0.00434   0.00000  -0.02305  -0.02336   1.88728
    A2        1.91063  -0.00462   0.00000  -0.02550  -0.02580   1.88484
    A3        1.91063   0.00447   0.00000   0.02447   0.02415   1.93478
    A4        1.91063  -0.00457   0.00000  -0.02513  -0.02543   1.88521
    A5        1.91063   0.00441   0.00000   0.02420   0.02389   1.93452
    A6        1.91063   0.00465   0.00000   0.02502   0.02471   1.93534
    A7        1.91063  -0.00303   0.00000  -0.02878  -0.02842   1.88221
    A8        1.91063  -0.00052   0.00000  -0.01573  -0.01550   1.89513
    A9        1.91063  -0.00064   0.00000  -0.01725  -0.01704   1.89360
   A10        1.91063   0.00242   0.00000   0.02791   0.02732   1.93795
   A11        1.91063   0.00236   0.00000   0.02673   0.02610   1.93673
   A12        1.91063  -0.00059   0.00000   0.00712   0.00625   1.91689
   A13        1.91063  -0.00497   0.00000  -0.01079  -0.01126   1.89938
   A14        1.91063  -0.00500   0.00000  -0.01108  -0.01153   1.89910
   A15        1.91063   0.02031   0.00000   0.09589   0.09521   2.00585
   A16        1.91063   0.00112   0.00000  -0.03687  -0.03769   1.87294
   A17        1.91063  -0.00573   0.00000  -0.01853  -0.01946   1.89118
   A18        1.91063  -0.00573   0.00000  -0.01861  -0.01952   1.89111
   A19        1.91063   0.00566   0.00000   0.03238   0.03190   1.94253
   A20        1.91063   0.00225   0.00000   0.00913   0.00904   1.91967
   A21        1.91063   0.00578   0.00000   0.03309   0.03260   1.94324
   A22        1.91063  -0.00449   0.00000  -0.02765  -0.02773   1.88290
   A23        1.91063  -0.00466   0.00000  -0.01913  -0.01993   1.89070
   A24        1.91063  -0.00454   0.00000  -0.02783  -0.02792   1.88271
   A25        1.91063   0.00566   0.00000   0.03138   0.03093   1.94157
   A26        1.91063   0.00503   0.00000   0.02801   0.02758   1.93821
   A27        1.91063   0.00459   0.00000   0.02383   0.02350   1.93413
   A28        1.91063  -0.00496   0.00000  -0.02473  -0.02525   1.88539
   A29        1.91063  -0.00533   0.00000  -0.03022  -0.03055   1.88009
   A30        1.91063  -0.00499   0.00000  -0.02827  -0.02856   1.88207
   A31        1.91063   0.00433   0.00000   0.02249   0.02219   1.93282
   A32        1.91063   0.00479   0.00000   0.02656   0.02617   1.93680
   A33        1.91063   0.00564   0.00000   0.03130   0.03087   1.94150
   A34        1.91063  -0.00475   0.00000  -0.02701  -0.02726   1.88337
   A35        1.91063  -0.00515   0.00000  -0.02904  -0.02936   1.88127
   A36        1.91063  -0.00485   0.00000  -0.02430  -0.02479   1.88584
    D1        1.04526   0.00001   0.00000  -0.00019  -0.00017   1.04509
    D2        3.13965   0.00080   0.00000   0.00674   0.00684  -3.13669
    D3       -1.04914  -0.00063   0.00000  -0.00474  -0.00485  -1.05399
    D4       -1.04914  -0.00011   0.00000  -0.00177  -0.00176  -1.05090
    D5        1.04526   0.00068   0.00000   0.00516   0.00526   1.05051
    D6        3.13965  -0.00076   0.00000  -0.00632  -0.00644   3.13321
    D7        3.13965  -0.00006   0.00000  -0.00113  -0.00111   3.13854
    D8       -1.04914   0.00073   0.00000   0.00580   0.00590  -1.04323
    D9        1.04526  -0.00071   0.00000  -0.00568  -0.00579   1.03946
   D10        1.04682  -0.00232   0.00000  -0.02911  -0.02922   1.01760
   D11       -1.04757   0.00241   0.00000   0.02945   0.02955  -1.01802
   D12        3.14122   0.00005   0.00000   0.00031   0.00031   3.14153
   D13       -1.04757  -0.00131   0.00000  -0.00931  -0.00912  -1.05669
   D14        3.14122   0.00342   0.00000   0.04924   0.04966  -3.09231
   D15        1.04683   0.00106   0.00000   0.02011   0.02042   1.06725
   D16        3.14122  -0.00352   0.00000  -0.05149  -0.05191   3.08931
   D17        1.04682   0.00122   0.00000   0.00707   0.00687   1.05369
   D18       -1.04757  -0.00114   0.00000  -0.02207  -0.02237  -1.06994
   D19        2.78747   0.00052   0.00000   0.01617   0.01617   2.80364
   D20       -1.40132   0.00100   0.00000   0.02225   0.02236  -1.37896
   D21        0.69308   0.00077   0.00000   0.01937   0.01941   0.71249
   D22       -1.40132  -0.00202   0.00000  -0.01162  -0.01173  -1.41305
   D23        0.69308  -0.00155   0.00000  -0.00554  -0.00554   0.68754
   D24        2.78747  -0.00177   0.00000  -0.00842  -0.00849   2.77898
   D25        0.69308   0.00199   0.00000   0.04257   0.04252   0.73560
   D26        2.78747   0.00247   0.00000   0.04865   0.04871   2.83619
   D27       -1.40132   0.00224   0.00000   0.04577   0.04576  -1.35556
   D28       -0.77056  -0.00075   0.00000  -0.01670  -0.01674  -0.78730
   D29        1.32384  -0.00098   0.00000  -0.01973  -0.01986   1.30398
   D30       -2.86495  -0.00054   0.00000  -0.01407  -0.01408  -2.87904
   D31       -2.86495   0.00191   0.00000   0.01274   0.01282  -2.85214
   D32       -0.77056   0.00167   0.00000   0.00970   0.00970  -0.76086
   D33        1.32384   0.00212   0.00000   0.01537   0.01548   1.33931
   D34        1.32384  -0.00214   0.00000  -0.04217  -0.04215   1.28169
   D35       -2.86495  -0.00238   0.00000  -0.04521  -0.04526  -2.91022
   D36       -0.77056  -0.00194   0.00000  -0.03954  -0.03949  -0.81005
   D37        1.04711   0.00063   0.00000   0.00784   0.00803   1.05514
   D38        3.14151  -0.00002   0.00000  -0.00060  -0.00060   3.14091
   D39       -1.04728  -0.00067   0.00000  -0.00882  -0.00901  -1.05629
   D40        3.14151   0.00347   0.00000   0.04200   0.04201  -3.09967
   D41       -1.04728   0.00282   0.00000   0.03356   0.03338  -1.01390
   D42        1.04712   0.00217   0.00000   0.02533   0.02497   1.07209
   D43       -1.04728  -0.00218   0.00000  -0.02591  -0.02555  -1.07283
   D44        1.04712  -0.00283   0.00000  -0.03435  -0.03417   1.01294
   D45        3.14151  -0.00348   0.00000  -0.04257  -0.04258   3.09893
         Item               Value     Threshold  Converged?
 Maximum Force            0.021803     0.000450     NO 
 RMS     Force            0.007251     0.000300     NO 
 Maximum Displacement     0.386347     0.001800     NO 
 RMS     Displacement     0.096027     0.001200     NO 
 Predicted change in Energy=-1.020480D-02
 GradGradGradGradGradGradGradGradGradGradGradGradGradGradGradGradGradGrad

 Leave Link  103 at Sun Sep 13 11:19:14 2015, MaxMem=  671088640 cpu:       0.1
 (Enter /share/apps/g09/l202.exe)
                          Input orientation:                          
 ---------------------------------------------------------------------
 Center     Atomic      Atomic             Coordinates (Angstroms)
 Number     Number       Type             X           Y           Z
 ---------------------------------------------------------------------
      1          6           0       -3.361601   -0.084986   -0.008320
      2          1           0       -2.991773   -1.108103   -0.018414
      3          1           0       -2.992350    0.417343   -0.899941
      4          1           0       -4.447289   -0.119528   -0.066905
      5          6           0       -2.898236    0.659588    1.279365
      6          6           0       -1.321363    0.663806    1.294107
      7          1           0       -0.960918    1.154731    0.384552
      8          1           0       -0.965390   -0.371008    1.268650
      9          6           0       -0.678903    1.372878    2.521173
     10          1           0       -0.973173    0.894124    3.453190
     11          1           0        0.405848    1.328236    2.450637
     12          1           0       -0.967617    2.421034    2.568810
     13          6           0       -3.463194    2.117409    1.242697
     14          1           0       -3.466482    2.563997    2.234827
     15          1           0       -2.866638    2.751435    0.590083
     16          1           0       -4.485931    2.126488    0.872097
     17          6           0       -3.467104   -0.098368    2.522203
     18          1           0       -4.513387   -0.355147    2.371218
     19          1           0       -2.918539   -1.020901    2.700337
     20          1           0       -3.400911    0.512068    3.420490
 ---------------------------------------------------------------------
                    Distance matrix (angstroms):
                    1          2          3          4          5
     1  C    0.000000
     2  H    1.087954   0.000000
     3  H    1.087965   1.761839   0.000000
     4  H    1.087816   1.760158   1.760405   0.000000
     5  C    1.557957   2.194928   2.194748   2.195229   0.000000
     6  C    2.533688   2.766341   2.768897   3.498197   1.576948
     7  H    2.730297   3.067110   2.514036   3.739295   2.190675
     8  H    2.730254   2.511189   3.071295   3.737722   2.190465
     9  C    3.964917   4.237232   4.238998   4.808966   2.641270
    10  H    4.318020   4.487281   4.822256   5.048568   2.913141
    11  H    4.715648   4.855490   4.858379   5.655703   3.568744
    12  H    4.318899   4.821383   4.488491   5.050699   2.914215
    13  C    2.534937   3.495220   2.775395   2.772614   1.563893
    14  H    3.472725   4.334369   3.828798   3.668959   2.205126
    15  H    2.940809   3.909215   2.771996   3.342532   2.202710
    16  H    2.632465   3.672615   2.879597   2.434709   2.199645
    17  C    2.532757   2.774930   3.493196   2.768517   1.562931
    18  H    2.657405   2.931312   3.689279   2.450373   2.197850
    19  H    2.899839   2.721134   3.877628   3.287427   2.200822
    20  H    3.480626   3.823403   4.340740   3.695368   2.204282
                    6          7          8          9         10
     6  C    0.000000
     7  H    1.094631   0.000000
     8  H    1.094625   1.763385   0.000000
     9  C    1.556030   2.166165   2.166109   0.000000
    10  H    2.199073   3.079709   2.524448   1.088327   0.000000
    11  H    2.182266   2.483316   2.482905   1.087958   1.759336
    12  H    2.199512   2.524787   3.079922   1.088235   1.764543
    13  C    2.589024   2.815057   3.525892   3.152952   3.547240
    14  H    3.016159   3.418683   3.975326   3.044890   3.238746
    15  H    2.691044   2.494689   3.718178   3.227338   3.902844
    16  H    3.511699   3.688865   4.334623   4.216734   4.529927
    17  C    2.587148   3.524312   2.811459   3.152559   2.841034
    18  H    3.519582   4.341268   3.715399   4.208542   3.906976
    19  H    2.714165   3.732092   2.507365   3.283024   2.831706
    20  H    2.978095   3.947594   3.367789   2.993174   2.457834
                   11         12         13         14         15
    11  H    0.000000
    12  H    1.759141   0.000000
    13  C    4.129333   2.842300   0.000000
    14  H    4.070456   2.525135   1.088013   0.000000
    15  H    4.024465   2.762391   1.088013   1.760718   0.000000
    16  H    5.201778   3.917158   1.087850   1.757192   1.758466
    17  C    4.127963   3.549224   2.558674   2.677829   3.494999
    18  H    5.199900   4.507628   2.913760   3.104193   3.941456
    19  H    4.078277   3.958575   3.502906   3.656287   4.322775
    20  H    4.012250   3.207870   2.706249   2.370761   3.648481
                   16         17         18         19         20
    16  H    0.000000
    17  C    2.951413   0.000000
    18  H    2.899419   1.087860   0.000000
    19  H    3.962984   1.087991   1.759287   0.000000
    20  H    3.205921   1.088087   1.758022   1.761051   0.000000
 Stoichiometry    C6H14
 Framework group  C1[X(C6H14)]
 Deg. of freedom    54
 Full point group                 C1      NOp   1
 Largest Abelian subgroup         C1      NOp   1
 Largest concise Abelian subgroup C1      NOp   1
                         Standard orientation:                         
 ---------------------------------------------------------------------
 Center     Atomic      Atomic             Coordinates (Angstroms)
 Number     Number       Type             X           Y           Z
 ---------------------------------------------------------------------
      1          6           0       -1.642200   -0.616587   -0.772616
      2          1           0       -1.618570   -1.703187   -0.723784
      3          1           0       -1.621278   -0.324194   -1.820346
      4          1           0       -2.586339   -0.281618   -0.348656
      5          6           0       -0.437129   -0.000379   -0.001046
      6          6           0        0.888016   -0.534154   -0.668759
      7          1           0        0.889907   -0.250510   -1.726000
      8          1           0        0.889543   -1.627901   -0.624946
      9          6           0        2.204027   -0.016000   -0.020022
     10          1           0        2.271450   -0.309504    1.025811
     11          1           0        3.064110   -0.432552   -0.540016
     12          1           0        2.272905    1.068599   -0.076207
     13          6           0       -0.526875    1.557860   -0.099018
     14          1           0        0.065858    2.036490    0.677741
     15          1           0       -0.166051    1.910264   -1.063067
     16          1           0       -1.555259    1.893814    0.014909
     17          6           0       -0.527362   -0.443621    1.494998
     18          1           0       -1.543562   -0.336027    1.868095
     19          1           0       -0.237135   -1.485805    1.610515
     20          1           0        0.123563    0.159422    2.124736
 ---------------------------------------------------------------------
 Rotational constants (GHZ):      4.1738784      2.4301561      2.4277474
 Leave Link  202 at Sun Sep 13 11:19:14 2015, MaxMem=  671088640 cpu:       0.0
 (Enter /share/apps/g09/l301.exe)
 Standard basis: VSTO-6G (5D, 7F)
 Ernie: Thresh=  0.10000D-02 Tol=  0.10000D-05 Strict=F.
  NNHCO=     0 NNPyr=     0 NCTC=     0               EPep=         0.000000000
    EC=       132.991609747  ECS=         3.252633737   EG=         0.293630975
   EHC=         0.000508570  EAt=       -31.187935768  AtH=         2.796400831
 EPDDG=         0.000000000  ECC=       136.538383029 EAtT=        33.984336599
 There are    38 symmetry adapted basis functions of A   symmetry.
 Integral buffers will be    131072 words long.
 Regular integral format.
 Two-electron integral symmetry is turned off.
    38 basis functions,   228 primitive gaussians,    38 cartesian basis functions
    19 alpha electrons       19 beta electrons
       nuclear repulsion energy       170.5227196277 Hartrees.
 IExCor=    0 DFT=F Ex=HF Corr=None ExCW=0 ScaHFX=  1.000000
 ScaDFX=  1.000000  1.000000  1.000000  1.000000 ScalE2=  1.000000  1.000000
 IRadAn=      0 IRanWt=     -1 IRanGd=            0 ICorTp=0
 Leave Link  301 at Sun Sep 13 11:19:15 2015, MaxMem=  671088640 cpu:       0.1
 (Enter /share/apps/g09/l302.exe)
 Do NDO integrals.
 NPDir=0 NMtPBC=     1 NCelOv=     1 NCel=       1 NClECP=     1 NCelD=      1
         NCelK=      1 NCelE2=     1 NClLst=     1 CellRange=     0.0.
 One-electron integrals computed using PRISM.
 NBasis=    38 RedAO= F  NBF=    38
 NBsUse=    38 1.00D-04 NBFU=    38
 Leave Link  302 at Sun Sep 13 11:19:17 2015, MaxMem=  671088640 cpu:       0.2
 (Enter /share/apps/g09/l303.exe)
 DipDrv:  MaxL=1.
 Leave Link  303 at Sun Sep 13 11:19:18 2015, MaxMem=  671088640 cpu:       0.1
 (Enter /share/apps/g09/l401.exe)
 Initial guess read from the read-write file.
 B after Tr=     0.000000    0.000000    0.000000
         Rot=    1.000000    0.000000    0.000000    0.000000 Ang=   0.00 deg.
 Guess basis will be translated and rotated to current coordinates.
 Initial guess orbital symmetries:
       Occupied  (A) (A) (A) (A) (A) (A) (A) (A) (A) (A) (A) (A)
                 (A) (A) (A) (A) (A) (A) (A)
       Virtual   (A) (A) (A) (A) (A) (A) (A) (A) (A) (A) (A) (A)
                 (A) (A) (A) (A) (A) (A) (A)
 The electronic state of the initial guess is 1-A.
 Leave Link  401 at Sun Sep 13 11:19:18 2015, MaxMem=  671088640 cpu:       0.2
 (Enter /share/apps/g09/l502.exe)
 Closed shell SCF:
 Requested convergence on RMS density matrix=1.00D-08 within 128 cycles.
 Requested convergence on MAX density matrix=1.00D-06.
 Requested convergence on             energy=1.00D-06.
 No special actions if energy rises.
 Using DIIS extrapolation, IDIIS=  1040.
 Overlap will be assumed to be unity.
 Two-electron integral symmetry not used.
 Keep J ints in memory in canonical form, NReq=884654.
 IEnd=       81865 IEndB=       81865 NGot=   671088640 MDV=   671022095
 LenX=   671022095 LenY=   671020210
 Symmetry not used in FoFDir.
 MinBra= 0 MaxBra= 1 Meth=40.
 IRaf=       0 NMat=   1 IRICut=       1 DoRegI=T DoRafI=F ISym2E= 0 JSym2E=0.

 Cycle   1  Pass 1  IDiag  1:
 E=  6.74378246878689    
 DIIS: error= 5.73D-02 at cycle   1 NSaved=   1.
 NSaved= 1 IEnMin= 1 EnMin=  6.74378246878689     IErMin= 1 ErrMin= 5.73D-02
 ErrMax= 5.73D-02 EMaxC= 1.00D-01 BMatC= 3.02D-01 BMatP= 3.02D-01
 IDIUse=3 WtCom= 4.27D-01 WtEn= 5.73D-01
 Coeff-Com:  0.100D+01
 Coeff-En:   0.100D+01
 Coeff:      0.100D+01
 GapD=    2.000 DampG=2.000 DampE=0.500 DampFc=1.0000 IDamp=-1.
 RMSDP=7.33D-02 MaxDP=4.85D-01              OVMax= 0.00D+00

 Cycle   2  Pass 1  IDiag  1:
 E=  1.99166200217948     Delta-E=       -4.752120466607 Rises=F Damp=F
 DIIS: error= 7.29D-02 at cycle   2 NSaved=   2.
 NSaved= 2 IEnMin= 2 EnMin=  1.99166200217948     IErMin= 1 ErrMin= 5.73D-02
 ErrMax= 7.29D-02 EMaxC= 1.00D-01 BMatC= 2.71D-01 BMatP= 3.02D-01
 IDIUse=3 WtCom= 2.71D-01 WtEn= 7.29D-01
 Coeff-Com:  0.387D+00 0.613D+00
 Coeff-En:   0.000D+00 0.100D+01
 Coeff:      0.105D+00 0.895D+00
 RMSDP=3.38D-02 MaxDP=2.16D-01 DE=-4.75D+00 OVMax= 0.00D+00

 Cycle   3  Pass 1  IDiag  1:
 E= 0.454442346952504     Delta-E=       -1.537219655227 Rises=F Damp=F
 DIIS: error= 4.43D-02 at cycle   3 NSaved=   3.
 NSaved= 3 IEnMin= 3 EnMin= 0.454442346952504     IErMin= 3 ErrMin= 4.43D-02
 ErrMax= 4.43D-02 EMaxC= 1.00D-01 BMatC= 8.76D-02 BMatP= 2.71D-01
 IDIUse=3 WtCom= 5.57D-01 WtEn= 4.43D-01
 Coeff-Com:  0.182D+00-0.123D+01 0.204D+01
 Coeff-En:   0.000D+00 0.000D+00 0.100D+01
 Coeff:      0.101D+00-0.683D+00 0.158D+01
 RMSDP=2.34D-02 MaxDP=1.71D-01 DE=-1.54D+00 OVMax= 0.00D+00

 Cycle   4  Pass 1  IDiag  1:
 E=-0.187277879062719E-01 Delta-E=       -0.473170134859 Rises=F Damp=F
 DIIS: error= 1.18D-02 at cycle   4 NSaved=   4.
 NSaved= 4 IEnMin= 4 EnMin=-0.187277879062719E-01 IErMin= 4 ErrMin= 1.18D-02
 ErrMax= 1.18D-02 EMaxC= 1.00D-01 BMatC= 6.21D-03 BMatP= 8.76D-02
 IDIUse=3 WtCom= 8.82D-01 WtEn= 1.18D-01
 Coeff-Com: -0.611D-01 0.485D+00-0.116D+01 0.174D+01
 Coeff-En:   0.000D+00 0.000D+00 0.000D+00 0.100D+01
 Coeff:     -0.539D-01 0.428D+00-0.102D+01 0.165D+01
 RMSDP=7.30D-03 MaxDP=5.06D-02 DE=-4.73D-01 OVMax= 0.00D+00

 Cycle   5  Pass 1  IDiag  3:
 E=-0.547619859488861E-01 Delta-E=       -0.036034198043 Rises=F Damp=F
 DIIS: error= 2.92D-03 at cycle   5 NSaved=   5.
 NSaved= 5 IEnMin= 5 EnMin=-0.547619859488861E-01 IErMin= 5 ErrMin= 2.92D-03
 ErrMax= 2.92D-03 EMaxC= 1.00D-01 BMatC= 3.19D-04 BMatP= 6.21D-03
 IDIUse=3 WtCom= 9.71D-01 WtEn= 2.92D-02
 Coeff-Com:  0.110D-01-0.913D-01 0.241D+00-0.586D+00 0.143D+01
 Coeff-En:   0.000D+00 0.000D+00 0.000D+00 0.000D+00 0.100D+01
 Coeff:      0.107D-01-0.887D-01 0.234D+00-0.569D+00 0.141D+01
 Gap=     0.555 Goal=   None    Shift=    0.000
 RMSDP=1.76D-03 MaxDP=1.62D-02 DE=-3.60D-02 OVMax= 0.00D+00

 Cycle   6  Pass 1  IDiag  3:
 E=-0.569230675643269E-01 Delta-E=       -0.002161081615 Rises=F Damp=F
 DIIS: error= 1.33D-03 at cycle   6 NSaved=   6.
 NSaved= 6 IEnMin= 6 EnMin=-0.569230675643269E-01 IErMin= 6 ErrMin= 1.33D-03
 ErrMax= 1.33D-03 EMaxC= 1.00D-01 BMatC= 5.31D-05 BMatP= 3.19D-04
 IDIUse=3 WtCom= 9.87D-01 WtEn= 1.33D-02
 Coeff-Com: -0.146D-02 0.143D-01-0.408D-01 0.197D+00-0.102D+01 0.185D+01
 Coeff-En:   0.000D+00 0.000D+00 0.000D+00 0.000D+00 0.000D+00 0.100D+01
 Coeff:     -0.144D-02 0.141D-01-0.403D-01 0.194D+00-0.101D+01 0.184D+01
 Gap=     0.554 Goal=   None    Shift=    0.000
 RMSDP=9.36D-04 MaxDP=1.07D-02 DE=-2.16D-03 OVMax= 0.00D+00

 Cycle   7  Pass 1  IDiag  3:
 E=-0.573682186049780E-01 Delta-E=       -0.000445151041 Rises=F Damp=F
 DIIS: error= 3.41D-04 at cycle   7 NSaved=   7.
 NSaved= 7 IEnMin= 7 EnMin=-0.573682186049780E-01 IErMin= 7 ErrMin= 3.41D-04
 ErrMax= 3.41D-04 EMaxC= 1.00D-01 BMatC= 4.54D-06 BMatP= 5.31D-05
 IDIUse=3 WtCom= 9.97D-01 WtEn= 3.41D-03
 Coeff-Com: -0.485D-03 0.238D-02-0.305D-02-0.591D-01 0.474D+00-0.117D+01
 Coeff-Com:  0.175D+01
 Coeff-En:   0.000D+00 0.000D+00 0.000D+00 0.000D+00 0.000D+00 0.000D+00
 Coeff-En:   0.100D+01
 Coeff:     -0.483D-03 0.238D-02-0.304D-02-0.589D-01 0.473D+00-0.116D+01
 Coeff:      0.175D+01
 Gap=     0.554 Goal=   None    Shift=    0.000
 RMSDP=3.12D-04 MaxDP=3.63D-03 DE=-4.45D-04 OVMax= 0.00D+00

 Cycle   8  Pass 1  IDiag  3:
 E=-0.574067773214892E-01 Delta-E=       -0.000038558717 Rises=F Damp=F
 DIIS: error= 7.21D-05 at cycle   8 NSaved=   8.
 NSaved= 8 IEnMin= 8 EnMin=-0.574067773214892E-01 IErMin= 8 ErrMin= 7.21D-05
 ErrMax= 7.21D-05 EMaxC= 1.00D-01 BMatC= 2.36D-07 BMatP= 4.54D-06
 IDIUse=1 WtCom= 1.00D+00 WtEn= 0.00D+00
 Coeff-Com: -0.174D-04 0.784D-03-0.312D-02 0.426D-01-0.289D+00 0.694D+00
 Coeff-Com: -0.113D+01 0.168D+01
 Coeff:     -0.174D-04 0.784D-03-0.312D-02 0.426D-01-0.289D+00 0.694D+00
 Coeff:     -0.113D+01 0.168D+01
 Gap=     0.554 Goal=   None    Shift=    0.000
 RMSDP=5.61D-05 MaxDP=5.57D-04 DE=-3.86D-05 OVMax= 0.00D+00

 Cycle   9  Pass 1  IDiag  3:
 E=-0.574085005457334E-01 Delta-E=       -0.000001723224 Rises=F Damp=F
 DIIS: error= 2.90D-05 at cycle   9 NSaved=   9.
 NSaved= 9 IEnMin= 9 EnMin=-0.574085005457334E-01 IErMin= 9 ErrMin= 2.90D-05
 ErrMax= 2.90D-05 EMaxC= 1.00D-01 BMatC= 2.55D-08 BMatP= 2.36D-07
 IDIUse=1 WtCom= 1.00D+00 WtEn= 0.00D+00
 Coeff-Com:  0.167D-04-0.308D-03 0.121D-02-0.202D-01 0.141D+00-0.335D+00
 Coeff-Com:  0.547D+00-0.103D+01 0.170D+01
 Coeff:      0.167D-04-0.308D-03 0.121D-02-0.202D-01 0.141D+00-0.335D+00
 Coeff:      0.547D+00-0.103D+01 0.170D+01
 Gap=     0.554 Goal=   None    Shift=    0.000
 RMSDP=1.91D-05 MaxDP=2.30D-04 DE=-1.72D-06 OVMax= 0.00D+00

 Cycle  10  Pass 1  IDiag  3:
 E=-0.574086896200185E-01 Delta-E=       -0.000000189074 Rises=F Damp=F
 DIIS: error= 7.67D-06 at cycle  10 NSaved=  10.
 NSaved=10 IEnMin=10 EnMin=-0.574086896200185E-01 IErMin=10 ErrMin= 7.67D-06
 ErrMax= 7.67D-06 EMaxC= 1.00D-01 BMatC= 1.86D-09 BMatP= 2.55D-08
 IDIUse=1 WtCom= 1.00D+00 WtEn= 0.00D+00
 Coeff-Com: -0.739D-05 0.167D-04-0.863D-04 0.464D-02-0.347D-01 0.818D-01
 Coeff-Com: -0.128D+00 0.241D+00-0.593D+00 0.143D+01
 Coeff:     -0.739D-05 0.167D-04-0.863D-04 0.464D-02-0.347D-01 0.818D-01
 Coeff:     -0.128D+00 0.241D+00-0.593D+00 0.143D+01
 Gap=     0.554 Goal=   None    Shift=    0.000
 RMSDP=4.94D-06 MaxDP=6.39D-05 DE=-1.89D-07 OVMax= 0.00D+00

 Cycle  11  Pass 1  IDiag  3:
 E=-0.574087028159056E-01 Delta-E=       -0.000000013196 Rises=F Damp=F
 DIIS: error= 2.38D-06 at cycle  11 NSaved=  11.
 NSaved=11 IEnMin=11 EnMin=-0.574087028159056E-01 IErMin=11 ErrMin= 2.38D-06
 ErrMax= 2.38D-06 EMaxC= 1.00D-01 BMatC= 1.52D-10 BMatP= 1.86D-09
 IDIUse=1 WtCom= 1.00D+00 WtEn= 0.00D+00
 Coeff-Com:  0.393D-05 0.591D-05-0.334D-04-0.434D-03 0.380D-02-0.843D-02
 Coeff-Com:  0.107D-01-0.134D-01 0.852D-01-0.553D+00 0.148D+01
 Coeff:      0.393D-05 0.591D-05-0.334D-04-0.434D-03 0.380D-02-0.843D-02
 Coeff:      0.107D-01-0.134D-01 0.852D-01-0.553D+00 0.148D+01
 Gap=     0.554 Goal=   None    Shift=    0.000
 RMSDP=1.40D-06 MaxDP=1.69D-05 DE=-1.32D-08 OVMax= 0.00D+00

 Cycle  12  Pass 1  IDiag  3:
 E=-0.574087038355913E-01 Delta-E=       -0.000000001020 Rises=F Damp=F
 DIIS: error= 3.93D-07 at cycle  12 NSaved=  12.
 NSaved=12 IEnMin=12 EnMin=-0.574087038355913E-01 IErMin=12 ErrMin= 3.93D-07
 ErrMax= 3.93D-07 EMaxC= 1.00D-01 BMatC= 6.84D-12 BMatP= 1.52D-10
 IDIUse=1 WtCom= 1.00D+00 WtEn= 0.00D+00
 Coeff-Com: -0.136D-05-0.472D-05 0.201D-04 0.730D-05-0.311D-03 0.485D-03
 Coeff-Com:  0.450D-03-0.470D-02-0.793D-02 0.162D+00-0.627D+00 0.148D+01
 Coeff:     -0.136D-05-0.472D-05 0.201D-04 0.730D-05-0.311D-03 0.485D-03
 Coeff:      0.450D-03-0.470D-02-0.793D-02 0.162D+00-0.627D+00 0.148D+01
 Gap=     0.554 Goal=   None    Shift=    0.000
 RMSDP=2.75D-07 MaxDP=2.79D-06 DE=-1.02D-09 OVMax= 0.00D+00

 Cycle  13  Pass 1  IDiag  3:
 E=-0.574087038765754E-01 Delta-E=       -0.000000000041 Rises=F Damp=F
 DIIS: error= 6.18D-08 at cycle  13 NSaved=  13.
 NSaved=13 IEnMin=13 EnMin=-0.574087038765754E-01 IErMin=13 ErrMin= 6.18D-08
 ErrMax= 6.18D-08 EMaxC= 1.00D-01 BMatC= 2.11D-13 BMatP= 6.84D-12
 IDIUse=1 WtCom= 1.00D+00 WtEn= 0.00D+00
 Coeff-Com:  0.355D-06 0.155D-05-0.564D-05 0.142D-04-0.434D-04 0.177D-03
 Coeff-Com: -0.660D-03 0.251D-02-0.642D-03-0.393D-01 0.176D+00-0.530D+00
 Coeff-Com:  0.139D+01
 Coeff:      0.355D-06 0.155D-05-0.564D-05 0.142D-04-0.434D-04 0.177D-03
 Coeff:     -0.660D-03 0.251D-02-0.642D-03-0.393D-01 0.176D+00-0.530D+00
 Coeff:      0.139D+01
 Gap=     0.554 Goal=   None    Shift=    0.000
 RMSDP=4.15D-08 MaxDP=3.33D-07 DE=-4.10D-11 OVMax= 0.00D+00

 Cycle  14  Pass 1  IDiag  3:
 E=-0.574087038777407E-01 Delta-E=       -0.000000000001 Rises=F Damp=F
 DIIS: error= 1.23D-08 at cycle  14 NSaved=  14.
 NSaved=14 IEnMin=14 EnMin=-0.574087038777407E-01 IErMin=14 ErrMin= 1.23D-08
 ErrMax= 1.23D-08 EMaxC= 1.00D-01 BMatC= 9.98D-15 BMatP= 2.11D-13
 IDIUse=1 WtCom= 1.00D+00 WtEn= 0.00D+00
 Coeff-Com: -0.859D-07-0.273D-06 0.766D-06-0.416D-05 0.253D-04-0.780D-04
 Coeff-Com:  0.217D-03-0.713D-03 0.503D-03 0.783D-02-0.385D-01 0.130D+00
 Coeff-Com: -0.492D+00 0.139D+01
 Coeff:     -0.859D-07-0.273D-06 0.766D-06-0.416D-05 0.253D-04-0.780D-04
 Coeff:      0.217D-03-0.713D-03 0.503D-03 0.783D-02-0.385D-01 0.130D+00
 Coeff:     -0.492D+00 0.139D+01
 Gap=     0.554 Goal=   None    Shift=    0.000
 RMSDP=8.59D-09 MaxDP=6.55D-08 DE=-1.17D-12 OVMax= 0.00D+00

 Cycle  15  Pass 2  IDiag  1:
 RMSDP=8.59D-09 MaxDP=6.55D-08 DE=-1.17D-12 OVMax= 0.00D+00

 SCF Done:  E(RPM6) = -0.574087038777E-01 A.U. after   15 cycles
             Convg  =    0.8587D-08             -V/T =  0.9990
 KE=-5.644289188880D+01 PE=-2.617443984750D+02 EE= 1.476071620322D+02
 Leave Link  502 at Sun Sep 13 11:19:25 2015, MaxMem=  671088640 cpu:       1.4
 (Enter /share/apps/g09/l701.exe)
 Compute integral first derivatives.
 ... and contract with generalized density number  0.
 Leave Link  701 at Sun Sep 13 11:19:25 2015, MaxMem=  671088640 cpu:       0.1
 (Enter /share/apps/g09/l702.exe)
 L702 exits ... SP integral derivatives will be done elsewhere.
 Leave Link  702 at Sun Sep 13 11:19:27 2015, MaxMem=  671088640 cpu:       0.0
 (Enter /share/apps/g09/l703.exe)
 Compute integral first derivatives, UseDBF=F ICtDFT=           0.
 Integral derivatives from FoFDir, PRISM(SPDF).
 Calling FoFJK, ICntrl=      2127 FMM=F ISym2X=0 I1Cent= 0 IOpClX= 0 NMat=1 NMatS=1 NMatT=0.
 FoFCou: FMM=F IPFlag=           0 FMFlag=      100000 FMFlg1=         800
         NFxFlg=           0 DoJE=F BraDBF=F KetDBF=F FulRan=T
         Omega=  0.000000  0.000000  1.000000  0.000000  0.000000 ICntrl=    2127 IOpCl=  0
         NMat0=    1 NMatS0=    1 NMatT0=    0 NMatD0=    1 NMtDS0=    0 NMtDT0=    0
         I1Cent=           0 NGrid=           0.
 Symmetry not used in FoFCou.
 Leave Link  703 at Sun Sep 13 11:19:33 2015, MaxMem=  671088640 cpu:       0.1
 (Enter /share/apps/g09/l716.exe)
 Dipole        =-8.90280878D-03 1.74599382D-03 1.84642944D-03
 ***** Axes restored to original set *****
 -------------------------------------------------------------------
 Center     Atomic                   Forces (Hartrees/Bohr)
 Number     Number              X              Y              Z
 -------------------------------------------------------------------
      1        6           0.005974026    0.006320955    0.010795157
      2        1           0.000513673   -0.002813095   -0.000494147
      3        1           0.000511204    0.000991149   -0.002679979
      4        1          -0.002742161   -0.000374927   -0.000619480
      5        6           0.001655191    0.002520620    0.003940136
      6        6          -0.011787768    0.009929243    0.017033347
      7        1           0.001026137    0.001312911   -0.004184576
      8        1           0.001026783   -0.004289692   -0.000920461
      9        6          -0.010140541   -0.008545291   -0.014745667
     10        1          -0.001439078   -0.001051743    0.002096618
     11        1           0.003284877   -0.000093566   -0.000129315
     12        1          -0.001505658    0.002362704    0.000100158
     13        6           0.007485878   -0.016621700    0.001004777
     14        1           0.000820914    0.001006809    0.002117657
     15        1           0.001314555    0.001225705   -0.001547562
     16        1          -0.002719553    0.000083400   -0.000295839
     17        6           0.007384197    0.009049733   -0.013682825
     18        1          -0.002739911   -0.000194880   -0.000001139
     19        1           0.001203730   -0.002068382    0.000309605
     20        1           0.000873503    0.001250049    0.001903536
 -------------------------------------------------------------------
 Cartesian Forces:  Max     0.017033347 RMS     0.005664315
 Leave Link  716 at Sun Sep 13 11:19:35 2015, MaxMem=  671088640 cpu:       0.0
 (Enter /share/apps/g09/l103.exe)

 GradGradGradGradGradGradGradGradGradGradGradGradGradGradGradGradGradGrad
 Berny optimization.
 Using GEDIIS/GDIIS optimizer.
 Internal  Forces:  Max     0.019542338 RMS     0.003827056
 Search for a local minimum.
 Step number   2 out of a maximum of  110
 All quantities printed in internal units (Hartrees-Bohrs-Radians)
 RMS Force = .38271D-02 SwitMx=.10000D-02 MixMth= 1
 Mixed Optimization -- RFO/linear search
 Update second derivatives using D2CorX and points    1    2
 DE= -6.91D-03 DEPred=-1.02D-02 R= 6.77D-01
 SS=  1.41D+00  RLast= 3.00D-01 DXNew= 5.0454D-01 8.9986D-01
 Trust test= 6.77D-01 RLast= 3.00D-01 DXMaxT set to 5.05D-01
 Use linear search instead of GDIIS.
     Eigenvalues ---    0.00237   0.00237   0.00237   0.00237   0.00237
     Eigenvalues ---    0.03259   0.04455   0.04833   0.04941   0.05014
     Eigenvalues ---    0.05388   0.05407   0.05424   0.05457   0.05461
     Eigenvalues ---    0.05464   0.05469   0.05547   0.08623   0.12419
     Eigenvalues ---    0.14264   0.14451   0.15105   0.16000   0.16000
     Eigenvalues ---    0.16000   0.16000   0.16000   0.16000   0.16000
     Eigenvalues ---    0.16000   0.16000   0.16000   0.16034   0.21960
[...]
 ! D9    D(4,1,5,17)            59.7835         -DE/DX =    0.0                 !
 ! D10   D(1,5,6,7)             57.3764         -DE/DX =    0.0                 !
 ! D11   D(1,5,6,8)            -57.4553         -DE/DX =    0.0                 !
 ! D12   D(1,5,6,9)            179.9606         -DE/DX =    0.0                 !
 ! D13   D(13,5,6,7)           -61.8104         -DE/DX =    0.0                 !
 ! D14   D(13,5,6,8)          -176.6421         -DE/DX =    0.0                 !
 ! D15   D(13,5,6,9)            60.7739         -DE/DX =    0.0                 !
 ! D16   D(17,5,6,7)           176.5596         -DE/DX =    0.0                 !
 ! D17   D(17,5,6,8)            61.7278         -DE/DX =    0.0                 !
 ! D18   D(17,5,6,9)           -60.8562         -DE/DX =    0.0                 !
 ! D19   D(1,5,13,14)          177.7004         -DE/DX =    0.0                 !
 ! D20   D(1,5,13,15)          -62.2785         -DE/DX =    0.0                 !
 ! D21   D(1,5,13,16)           57.8528         -DE/DX =    0.0                 !
 ! D22   D(6,5,13,14)          -63.6421         -DE/DX =    0.0                 !
 ! D23   D(6,5,13,15)           56.3791         -DE/DX =    0.0                 !
 ! D24   D(6,5,13,16)          176.5103         -DE/DX =    0.0                 !
 ! D25   D(17,5,13,14)          58.538          -DE/DX =    0.0                 !
 ! D26   D(17,5,13,15)         178.5592         -DE/DX =    0.0                 !
 ! D27   D(17,5,13,16)         -61.3096         -DE/DX =    0.0                 !
 ! D28   D(1,5,17,18)          -57.9115         -DE/DX =    0.0                 !
 ! D29   D(1,5,17,19)           62.2201         -DE/DX =    0.0                 !
 ! D30   D(1,5,17,20)         -177.7609         -DE/DX =    0.0                 !
 ! D31   D(6,5,17,18)         -176.5658         -DE/DX =    0.0                 !
 ! D32   D(6,5,17,19)          -56.4343         -DE/DX =    0.0                 !
 ! D33   D(6,5,17,20)           63.5848         -DE/DX =    0.0                 !
 ! D34   D(13,5,17,18)          61.2513         -DE/DX =    0.0                 !
 ! D35   D(13,5,17,19)        -178.6172         -DE/DX =    0.0                 !
 ! D36   D(13,5,17,20)         -58.5981         -DE/DX =    0.0                 !
 ! D37   D(5,6,9,10)            60.0427         -DE/DX =    0.0                 !
 ! D38   D(5,6,9,11)           179.8663         -DE/DX =    0.0                 !
 ! D39   D(5,6,9,12)           -60.3107         -DE/DX =    0.0                 !
 ! D40   D(7,6,9,10)          -177.5202         -DE/DX =    0.0                 !
 ! D41   D(7,6,9,11)           -57.6966         -DE/DX =    0.0                 !
 ! D42   D(7,6,9,12)            62.1264         -DE/DX =    0.0                 !
 ! D43   D(8,6,9,10)           -62.3919         -DE/DX =    0.0                 !
 ! D44   D(8,6,9,11)            57.4317         -DE/DX =    0.0                 !
 ! D45   D(8,6,9,12)           177.2547         -DE/DX =    0.0                 !
 --------------------------------------------------------------------------------
 GradGradGradGradGradGradGradGradGradGradGradGradGradGradGradGradGradGrad

 Largest change from initial coordinates is atom   11       4.072 Angstoms.
 Leave Link  103 at Sun Sep 13 11:20:51 2015, MaxMem=  671088640 cpu:       0.0
 (Enter /share/apps/g09/l202.exe)
                          Input orientation:                          
 ---------------------------------------------------------------------
 Center     Atomic      Atomic             Coordinates (Angstroms)
 Number     Number       Type             X           Y           Z
 ---------------------------------------------------------------------
      1          6           0       -3.319837   -0.082940   -0.012467
      2          1           0       -2.950720   -1.112652   -0.028488
      3          1           0       -2.945408    0.417573   -0.910298
      4          1           0       -4.410229   -0.127098   -0.095672
      5          6           0       -2.886199    0.656117    1.272645
      6          6           0       -1.333919    0.675855    1.316940
      7          1           0       -0.954394    1.162830    0.397724
      8          1           0       -0.960187   -0.365832    1.280160
      9          6           0       -0.744488    1.377942    2.537004
     10          1           0       -1.060215    0.899376    3.471018
     11          1           0        0.350677    1.355651    2.510293
     12          1           0       -1.050664    2.429092    2.586093
     13          6           0       -3.445013    2.090655    1.237499
     14          1           0       -3.194622    2.639188    2.151137
     15          1           0       -3.040666    2.656903    0.393126
     16          1           0       -4.535252    2.091812    1.144134
     17          6           0       -3.453033   -0.090372    2.494473
     18          1           0       -4.543634   -0.164823    2.445716
     19          1           0       -3.055299   -1.107414    2.561827
     20          1           0       -3.201847    0.423237    3.427990
 ---------------------------------------------------------------------
                    Distance matrix (angstroms):
                    1          2          3          4          5
     1  C    0.000000
     2  H    1.093988   0.000000
     3  H    1.093989   1.766128   0.000000
     4  H    1.094453   1.762383   1.762380   0.000000
     5  C    1.544590   2.196737   2.196736   2.192802   0.000000
     6  C    2.507382   2.760974   2.761195   3.479064   1.553037
     7  H    2.704722   3.056925   2.496090   3.721578   2.180393
     8  H    2.705339   2.496502   3.058256   3.721920   2.180357
     9  C    3.907224   4.201460   4.201220   4.757497   2.589703
    10  H    4.266791   4.457444   4.793957   4.999752   2.868142
    11  H    4.680442   4.841194   4.841964   5.626351   3.535321
    12  H    4.267548   4.794809   4.456570   5.001264   2.870152
    13  C    2.510499   3.479688   2.768003   2.761778   1.539938
    14  H    3.479489   4.345867   3.790787   3.765394   2.190764
    15  H    2.783736   3.794126   2.592795   3.140906   2.191018
    16  H    2.746727   3.762230   3.090529   2.544860   2.190231
    17  C    2.510488   2.768160   3.479678   2.761598   1.539938
    18  H    2.747189   3.091511   3.762492   2.545166   2.190235
    19  H    2.783257   2.592431   3.793852   3.139929   2.191033
    20  H    3.479495   3.790681   4.345865   3.765534   2.190749
                    6          7          8          9         10
     6  C    0.000000
     7  H    1.107313   0.000000
     8  H    1.107312   1.765087   0.000000
     9  C    1.526077   2.160290   2.160307   0.000000
    10  H    2.182872   3.086380   2.531919   1.095943   0.000000
    11  H    2.173495   2.490651   2.488995   1.095718   1.766860
    12  H    2.182847   2.530148   3.086299   1.095933   1.767262
    13  C    2.542575   2.787340   3.494354   3.080504   3.477789
    14  H    2.830685   3.205107   3.844664   2.782587   3.053641
    15  H    2.773260   2.566088   3.775201   3.391812   4.060112
    16  H    3.504758   3.773947   4.340461   4.101169   4.348813
    17  C    2.542505   3.494290   2.786523   3.081228   2.767457
    18  H    3.504732   4.340458   3.773595   4.101459   3.783910
    19  H    2.773615   3.775070   2.565562   3.393738   2.972237
    20  H    2.830107   3.844549   3.203255   2.782792   2.194345
                   11         12         13         14         15
    11  H    0.000000
    12  H    1.766856   0.000000
    13  C    4.070320   2.768781   0.000000
    14  H    3.787559   2.197699   1.094678   0.000000
    15  H    4.204386   2.970035   1.094120   1.764829   0.000000
    16  H    5.126463   3.786206   1.094230   1.763793   1.765539
    17  C    4.069329   3.482451   2.517326   2.763178   3.483278
    18  H    5.125456   4.353038   2.784590   3.125554   3.799234
    19  H    4.203572   4.065221   3.483299   3.771618   4.344371
    20  H    3.785762   3.059384   2.763633   2.557507   3.771690
                   16         17         18         19         20
    16  H    0.000000
    17  C    2.785056   0.000000
    18  H    2.605108   1.094227   0.000000
    19  H    3.799363   1.094123   1.765532   0.000000
    20  H    3.126997   1.094688   1.763822   1.764825   0.000000
 Stoichiometry    C6H14
 Framework group  C1[X(C6H14)]
 Deg. of freedom    54
 Full point group                 C1      NOp   1
 Largest Abelian subgroup         C1      NOp   1
 Largest concise Abelian subgroup C1      NOp   1
                         Standard orientation:                         
 ---------------------------------------------------------------------
 Center     Atomic      Atomic             Coordinates (Angstroms)
 Number     Number       Type             X           Y           Z
 ---------------------------------------------------------------------
      1          6           0        1.642393    0.957677   -0.002960
      2          1           0        1.644336    1.605902    0.878295
      3          1           0        1.643931    1.600967   -0.887825
      4          1           0        2.586667    0.404348   -0.001634
      5          6           0        0.431759   -0.001550   -0.000003
      6          6           0       -0.862933    0.856177   -0.001757
      7          1           0       -0.850942    1.523054   -0.885653
      8          1           0       -0.850906    1.526626    0.879431
      9          6           0       -2.157469    0.048040   -0.000117
     10          1           0       -2.231362   -0.595858    0.883640
     11          1           0       -3.031433    0.708936    0.000920
     12          1           0       -2.233517   -0.595938   -0.883621
     13          6           0        0.494272   -0.889881   -1.256335
     14          1           0       -0.325789   -1.614801   -1.273968
     15          1           0        0.425725   -0.294023   -2.171404
     16          1           0        1.430531   -1.454603   -1.299311
     17          6           0        0.495149   -0.883201    1.260982
     18          1           0        1.430990   -1.448468    1.305790
     19          1           0        0.428267   -0.282415    2.172951
     20          1           0       -0.325525   -1.607305    1.283528
 ---------------------------------------------------------------------
 Rotational constants (GHZ):      4.2631338      2.5029904      2.4953394
 Leave Link  202 at Sun Sep 13 11:20:53 2015, MaxMem=  671088640 cpu:       0.0
 (Enter /share/apps/g09/l601.exe)
 Copying SCF densities to generalized density rwf, IOpCl= 0 IROHF=0.

 **********************************************************************

            Population analysis using the SCF density.

 **********************************************************************

 Orbital symmetries:
       Occupied  (A) (A) (A) (A) (A) (A) (A) (A) (A) (A) (A) (A)
                 (A) (A) (A) (A) (A) (A) (A)
       Virtual   (A) (A) (A) (A) (A) (A) (A) (A) (A) (A) (A) (A)
                 (A) (A) (A) (A) (A) (A) (A)
 The electronic state is 1-A.
 Alpha  occ. eigenvalues --   -1.07268  -0.95306  -0.88392  -0.88255  -0.79240
 Alpha  occ. eigenvalues --   -0.66626  -0.57056  -0.56580  -0.54150  -0.52534
 Alpha  occ. eigenvalues --   -0.49593  -0.47749  -0.47302  -0.46054  -0.45901
 Alpha  occ. eigenvalues --   -0.43564  -0.41346  -0.40924  -0.40165
 Alpha virt. eigenvalues --    0.15472   0.16173   0.16352   0.18153   0.18412
 Alpha virt. eigenvalues --    0.21405   0.22199   0.22401   0.22428   0.22681
 Alpha virt. eigenvalues --    0.22739   0.22827   0.22881   0.23364   0.24760
 Alpha virt. eigenvalues --    0.25549   0.26019   0.26563   0.26663
          Condensed to atoms (all electrons):
              1          2          3          4          5          6
     1  C    4.538624   0.000000   0.000000   0.000000   0.000000   0.000000
     2  H    0.000000   0.847864   0.000000   0.000000   0.000000   0.000000
     3  H    0.000000   0.000000   0.847861   0.000000   0.000000   0.000000
     4  H    0.000000   0.000000   0.000000   0.845762   0.000000   0.000000
     5  C    0.000000   0.000000   0.000000   0.000000   3.728335   0.000000
     6  C    0.000000   0.000000   0.000000   0.000000   0.000000   4.295120
     7  H    0.000000   0.000000   0.000000   0.000000   0.000000   0.000000
     8  H    0.000000   0.000000   0.000000   0.000000   0.000000   0.000000
     9  C    0.000000   0.000000   0.000000   0.000000   0.000000   0.000000
    10  H    0.000000   0.000000   0.000000   0.000000   0.000000   0.000000
    11  H    0.000000   0.000000   0.000000   0.000000   0.000000   0.000000
    12  H    0.000000   0.000000   0.000000   0.000000   0.000000   0.000000
    13  C    0.000000   0.000000   0.000000   0.000000   0.000000   0.000000
    14  H    0.000000   0.000000   0.000000   0.000000   0.000000   0.000000
    15  H    0.000000   0.000000   0.000000   0.000000   0.000000   0.000000
    16  H    0.000000   0.000000   0.000000   0.000000   0.000000   0.000000
    17  C    0.000000   0.000000   0.000000   0.000000   0.000000   0.000000
    18  H    0.000000   0.000000   0.000000   0.000000   0.000000   0.000000
    19  H    0.000000   0.000000   0.000000   0.000000   0.000000   0.000000
    20  H    0.000000   0.000000   0.000000   0.000000   0.000000   0.000000
              7          8          9         10         11         12
     1  C    0.000000   0.000000   0.000000   0.000000   0.000000   0.000000
     2  H    0.000000   0.000000   0.000000   0.000000   0.000000   0.000000
     3  H    0.000000   0.000000   0.000000   0.000000   0.000000   0.000000
     4  H    0.000000   0.000000   0.000000   0.000000   0.000000   0.000000
     5  C    0.000000   0.000000   0.000000   0.000000   0.000000   0.000000
     6  C    0.000000   0.000000   0.000000   0.000000   0.000000   0.000000
     7  H    0.867733   0.000000   0.000000   0.000000   0.000000   0.000000
     8  H    0.000000   0.867735   0.000000   0.000000   0.000000   0.000000
     9  C    0.000000   0.000000   4.446123   0.000000   0.000000   0.000000
    10  H    0.000000   0.000000   0.000000   0.855347   0.000000   0.000000
    11  H    0.000000   0.000000   0.000000   0.000000   0.860792   0.000000
    12  H    0.000000   0.000000   0.000000   0.000000   0.000000   0.855370
    13  C    0.000000   0.000000   0.000000   0.000000   0.000000   0.000000
    14  H    0.000000   0.000000   0.000000   0.000000   0.000000   0.000000
    15  H    0.000000   0.000000   0.000000   0.000000   0.000000   0.000000
    16  H    0.000000   0.000000   0.000000   0.000000   0.000000   0.000000
    17  C    0.000000   0.000000   0.000000   0.000000   0.000000   0.000000
    18  H    0.000000   0.000000   0.000000   0.000000   0.000000   0.000000
    19  H    0.000000   0.000000   0.000000   0.000000   0.000000   0.000000
    20  H    0.000000   0.000000   0.000000   0.000000   0.000000   0.000000
             13         14         15         16         17         18
     1  C    0.000000   0.000000   0.000000   0.000000   0.000000   0.000000
     2  H    0.000000   0.000000   0.000000   0.000000   0.000000   0.000000
     3  H    0.000000   0.000000   0.000000   0.000000   0.000000   0.000000
     4  H    0.000000   0.000000   0.000000   0.000000   0.000000   0.000000
     5  C    0.000000   0.000000   0.000000   0.000000   0.000000   0.000000
     6  C    0.000000   0.000000   0.000000   0.000000   0.000000   0.000000
     7  H    0.000000   0.000000   0.000000   0.000000   0.000000   0.000000
     8  H    0.000000   0.000000   0.000000   0.000000   0.000000   0.000000
     9  C    0.000000   0.000000   0.000000   0.000000   0.000000   0.000000
    10  H    0.000000   0.000000   0.000000   0.000000   0.000000   0.000000
    11  H    0.000000   0.000000   0.000000   0.000000   0.000000   0.000000
    12  H    0.000000   0.000000   0.000000   0.000000   0.000000   0.000000
    13  C    4.528058   0.000000   0.000000   0.000000   0.000000   0.000000
    14  H    0.000000   0.846321   0.000000   0.000000   0.000000   0.000000
    15  H    0.000000   0.000000   0.848415   0.000000   0.000000   0.000000
    16  H    0.000000   0.000000   0.000000   0.848864   0.000000   0.000000
    17  C    0.000000   0.000000   0.000000   0.000000   4.528074   0.000000
    18  H    0.000000   0.000000   0.000000   0.000000   0.000000   0.848856
    19  H    0.000000   0.000000   0.000000   0.000000   0.000000   0.000000
    20  H    0.000000   0.000000   0.000000   0.000000   0.000000   0.000000
             19         20
     1  C    0.000000   0.000000
     2  H    0.000000   0.000000
     3  H    0.000000   0.000000
     4  H    0.000000   0.000000
     5  C    0.000000   0.000000
     6  C    0.000000   0.000000
     7  H    0.000000   0.000000
     8  H    0.000000   0.000000
     9  C    0.000000   0.000000
    10  H    0.000000   0.000000
    11  H    0.000000   0.000000
    12  H    0.000000   0.000000
    13  C    0.000000   0.000000
    14  H    0.000000   0.000000
    15  H    0.000000   0.000000
    16  H    0.000000   0.000000
    17  C    0.000000   0.000000
    18  H    0.000000   0.000000
    19  H    0.848414   0.000000
    20  H    0.000000   0.846331
 Mulliken atomic charges:
              1
     1  C   -0.538624
     2  H    0.152136
     3  H    0.152139
     4  H    0.154238
     5  C    0.271665
     6  C   -0.295120
     7  H    0.132267
     8  H    0.132265
     9  C   -0.446123
    10  H    0.144653
    11  H    0.139208
    12  H    0.144630
    13  C   -0.528058
    14  H    0.153679
    15  H    0.151585
    16  H    0.151136
    17  C   -0.528074
    18  H    0.151144
    19  H    0.151586
    20  H    0.153669
 Sum of Mulliken atomic charges =   0.00000
 Mulliken charges with hydrogens summed into heavy atoms:
              1
     1  C   -0.080111
     5  C    0.271665
     6  C   -0.030588
     9  C   -0.017632
    13  C   -0.071658
    17  C   -0.071675
 Sum of Mulliken charges with hydrogens summed into heavy atoms =   0.00000
 Charge=              0.0000 electrons
 Dipole moment (field-independent basis, Debye):
    X=              0.0114    Y=             -0.0378    Z=              0.0001  Tot=              0.0395
 N-N= 1.715283965081D+02 E-N=-2.637496606030D+02  KE=-5.646790439048D+01
 Leave Link  601 at Sun Sep 13 11:20:53 2015, MaxMem=  671088640 cpu:       0.1
 (Enter /share/apps/g09/l9999.exe)
 1\1\GINC-COMPUTE-0-14\FOpt\RPM6\ZDO\C6H14\HETANJIN\13-Sep-2015\0\\#p P
 M6 opt\\using PM6 to do opt and freq calc.\\0,1\C,-3.3198368073,-0.082
 9403858,-0.0124672123\H,-2.950720204,-1.1126518889,-0.0284882852\H,-2.
 9454082472,0.4175734549,-0.9102982244\H,-4.4102287565,-0.1270984613,-0
 .0956718082\C,-2.8861990486,0.6561167381,1.2726446849\C,-1.3339191083,
 0.6758550039,1.3169397143\H,-0.9543942837,1.1628299011,0.3977238267\H,
 -0.9601873256,-0.365831515,1.2801596701\C,-0.7444883423,1.3779416641,2
 .5370036736\H,-1.0602147095,0.8993757655,3.4710180083\H,0.3506773289,1
 .3556512659,2.5102934855\H,-1.0506644118,2.429091736,2.5860930379\C,-3
 .4450130484,2.0906553843,1.2374990668\H,-3.1946217978,2.6391878973,2.1
 511374779\H,-3.0406661497,2.6569031586,0.3931260478\H,-4.5352517969,2.
 0918117755,1.144134273\C,-3.4530325199,-0.0903716889,2.4944733981\H,-4
 .5436342904,-0.16482299,2.4457160552\H,-3.0552986877,-1.1074143857,2.5
 618268074\H,-3.2018472524,0.4232368487,3.4279901533\\Version=EM64L-G09
 RevA.01\State=1-A\HF=-0.0604314\RMSD=9.479e-09\RMSF=5.172e-06\Dipole=-
 0.0122723,0.0047954,0.0082616\PG=C01 [X(C6H14)]\\@


 E PUR SI MUOVE    -- GALILEO GALILEI
 Job cpu time:  0 days  0 hours  0 minutes 18.7 seconds.
 File lengths (MBytes):  RWF=      5 Int=      0 D2E=      0 Chk=      3 Scr=      1
 Normal termination of Gaussian 09 at Sun Sep 13 11:20:53 2015.
