using PM6 to do opt and freq calc.                                      
FOpt      RPM6                                                        ZDO                 
Number of atoms                            I               20
Info1-9                                    I   N=           9
          33          29           0           0           0         110
           2           8         302
Charge                                     I                0
Multiplicity                               I                1
Number of electrons                        I               38
Number of alpha electrons                  I               19
Number of beta electrons                   I               19
Number of basis functions                  I               38
Number of independent functions            I               38
Number of point charges in /Mol/           I                0
Number of translation vectors              I                0
Atomic numbers                             I   N=          20
           6           1           1           1           6           6
           1           1           6           1           1           1
           6           1           1           1           6           1
           1           1
Nuclear charges                            R   N=          20
  4.00000000E+00  1.00000000E+00  1.00000000E+00  1.00000000E+00  4.00000000E+00
  4.00000000E+00  1.00000000E+00  1.00000000E+00  4.00000000E+00  1.00000000E+00
  1.00000000E+00  1.00000000E+00  4.00000000E+00  1.00000000E+00  1.00000000E+00
  1.00000000E+00  4.00000000E+00  1.00000000E+00  1.00000000E+00  1.00000000E+00
Current cartesian coordinates              R   N=          60
  3.10367319E+00  1.80974738E+00 -5.59297432E-03  3.10734555E+00  3.03471433E+00
  1.65973789E+00  3.10657903E+00  3.02538939E+00 -1.67774641E+00  4.88809154E+00
  7.64106565E-01 -3.08846466E-03  8.15906120E-01 -2.92835833E-03 -6.08786272E-06
 -1.63070690E+00  1.61793966E+00 -3.32002560E-03 -1.60804733E+00  2.87815588E+00
 -1.67364108E+00 -1.60797953E+00  2.88490595E+00  1.66188322E+00 -4.07702526E+00
  9.07831980E-02 -2.21793380E-04 -4.21666285E+00 -1.12600800E+00  1.66983666E+00
 -5.72857892E+00  1.33969492E+00  1.73824070E-03 -4.22073573E+00 -1.12615934E+00
 -1.66980171E+00  9.34038185E-01 -1.68163207E+00 -2.37412814E+00 -6.15651825E-01
 -3.05153162E+00 -2.40745096E+00  8.04504343E-01 -5.55622485E-01 -4.10335938E+00
  2.70331161E+00 -2.74880151E+00 -2.45534162E+00  9.35696572E-01 -1.66900725E+00
  2.38291067E+00  2.70417892E+00 -2.73720784E+00  2.46758466E+00  8.09306960E-01
 -5.33686148E-01  4.10628225E+00 -6.15153200E-01 -3.03736546E+00  2.42551679E+00
Force Field                                I                0
Int Atom Types                             I   N=          20
           0           0           0           0           0           0
           0           0           0           0           0           0
           0           0           0           0           0           0
           0           0
MM charges                                 R   N=          20
  0.00000000E+00  0.00000000E+00  0.00000000E+00  0.00000000E+00  0.00000000E+00
  0.00000000E+00  0.00000000E+00  0.00000000E+00  0.00000000E+00  0.00000000E+00
  0.00000000E+00  0.00000000E+00  0.00000000E+00  0.00000000E+00  0.00000000E+00
  0.00000000E+00  0.00000000E+00  0.00000000E+00  0.00000000E+00  0.00000000E+00
Integer atomic weights                     I   N=          20
          12           1           1           1          12          12
           1           1          12           1           1           1
          12           1           1           1          12           1
           1           1
Real atomic weights                        R   N=          20
  1.20000000E+01  1.00782504E+00  1.00782504E+00  1.00782504E+00  1.20000000E+01
  1.20000000E+01  1.00782504E+00  1.00782504E+00  1.20000000E+01  1.00782504E+00
  1.00782504E+00  1.00782504E+00  1.20000000E+01  1.00782504E+00  1.00782504E+00
  1.00782504E+00  1.20000000E+01  1.00782504E+00  1.00782504E+00  1.00782504E+00
Atom fragment info                         I   N=          20
           0           0           0           0           0           0
           0           0           0           0           0           0
           0           0           0           0           0           0
           0           0
Atom residue num                           I   N=          20
           0           0           0           0           0           0
           0           0           0           0           0           0
           0           0           0           0           0           0
           0           0
Nuclear spins                              I   N=          20
           0           1           1           1           0           0
           1           1           0           1           1           1
           0           1           1           1           0           1
           1           1
Nuclear ZEff                               R   N=          20
 -3.90000000E+00 -1.00000000E+00 -1.00000000E+00 -1.00000000E+00 -3.90000000E+00
 -3.90000000E+00 -1.00000000E+00 -1.00000000E+00 -3.90000000E+00 -1.00000000E+00
 -1.00000000E+00 -1.00000000E+00 -3.90000000E+00 -1.00000000E+00 -1.00000000E+00
 -1.00000000E+00 -3.90000000E+00 -1.00000000E+00 -1.00000000E+00 -1.00000000E+00
Nuclear QMom                               R   N=          20
  0.00000000E+00  0.00000000E+00  0.00000000E+00  0.00000000E+00  0.00000000E+00
  0.00000000E+00  0.00000000E+00  0.00000000E+00  0.00000000E+00  0.00000000E+00
  0.00000000E+00  0.00000000E+00  0.00000000E+00  0.00000000E+00  0.00000000E+00
  0.00000000E+00  0.00000000E+00  0.00000000E+00  0.00000000E+00  0.00000000E+00
Nuclear GFac                               R   N=          20
  0.00000000E+00  2.79284600E+00  2.79284600E+00  2.79284600E+00  0.00000000E+00
  0.00000000E+00  2.79284600E+00  2.79284600E+00  0.00000000E+00  2.79284600E+00
  2.79284600E+00  2.79284600E+00  0.00000000E+00  2.79284600E+00  2.79284600E+00
  2.79284600E+00  0.00000000E+00  2.79284600E+00  2.79284600E+00  2.79284600E+00
MicOpt                                     I   N=          20
          -1          -1          -1          -1          -1          -1
          -1          -1          -1          -1          -1          -1
          -1          -1          -1          -1          -1          -1
          -1          -1
Number of contracted shells                I               20
Number of primitive shells                 I              120
Pure/Cartesian d shells                    I                0
Pure/Cartesian f shells                    I                0
Highest angular momentum                   I                1
Largest degree of contraction              I                6
Shell types                                I   N=          20
          -1           0           0           0          -1          -1
           0           0          -1           0           0           0
          -1           0           0           0          -1           0
           0           0
Number of primitives per shell             I   N=          20
           6           6           6           6           6           6
           6           6           6           6           6           6
           6           6           6           6           6           6
           6           6
Shell to atom map                          I   N=          20
           1           2           3           4           5           6
           7           8           9          10          11          12
          13          14          15          16          17          18
          19          20
Primitive exponents                        R   N=         120
  1.14476344E+01  3.29633588E+00  1.29653143E+00  5.92558930E-01  2.94896438E-01
  1.51447622E-01  4.39461478E+00  1.26542531E+00  4.97723458E-01  2.27476537E-01
  1.13207340E-01  5.81389949E-02  4.39461478E+00  1.26542531E+00  4.97723458E-01
  2.27476537E-01  1.13207340E-01  5.81389949E-02  4.39461478E+00  1.26542531E+00
  4.97723458E-01  2.27476537E-01  1.13207340E-01  5.81389949E-02  1.14476344E+01
  3.29633588E+00  1.29653143E+00  5.92558930E-01  2.94896438E-01  1.51447622E-01
  1.14476344E+01  3.29633588E+00  1.29653143E+00  5.92558930E-01  2.94896438E-01
  1.51447622E-01  4.39461478E+00  1.26542531E+00  4.97723458E-01  2.27476537E-01
  1.13207340E-01  5.81389949E-02  4.39461478E+00  1.26542531E+00  4.97723458E-01
  2.27476537E-01  1.13207340E-01  5.81389949E-02  1.14476344E+01  3.29633588E+00
  1.29653143E+00  5.92558930E-01  2.94896438E-01  1.51447622E-01  4.39461478E+00
  1.26542531E+00  4.97723458E-01  2.27476537E-01  1.13207340E-01  5.81389949E-02
  4.39461478E+00  1.26542531E+00  4.97723458E-01  2.27476537E-01  1.13207340E-01
  5.81389949E-02  4.39461478E+00  1.26542531E+00  4.97723458E-01  2.27476537E-01
  1.13207340E-01  5.81389949E-02  1.14476344E+01  3.29633588E+00  1.29653143E+00
  5.92558930E-01  2.94896438E-01  1.51447622E-01  4.39461478E+00  1.26542531E+00
  4.97723458E-01  2.27476537E-01  1.13207340E-01  5.81389949E-02  4.39461478E+00
  1.26542531E+00  4.97723458E-01  2.27476537E-01  1.13207340E-01  5.81389949E-02
  4.39461478E+00  1.26542531E+00  4.97723458E-01  2.27476537E-01  1.13207340E-01
  5.81389949E-02  1.14476344E+01  3.29633588E+00  1.29653143E+00  5.92558930E-01
  2.94896438E-01  1.51447622E-01  4.39461478E+00  1.26542531E+00  4.97723458E-01
  2.27476537E-01  1.13207340E-01  5.81389949E-02  4.39461478E+00  1.26542531E+00
  4.97723458E-01  2.27476537E-01  1.13207340E-01  5.81389949E-02  4.39461478E+00
  1.26542531E+00  4.97723458E-01  2.27476537E-01  1.13207340E-01  5.81389949E-02
Contraction coefficients                   R   N=         120
 -9.73739553E-03 -7.26587678E-02 -1.71615520E-01  1.28977624E-01  7.28861451E-01
  3.01331742E-01 -9.73739553E-03 -7.26587678E-02 -1.71615520E-01  1.28977624E-01
  7.28861451E-01  3.01331742E-01 -9.73739553E-03 -7.26587678E-02 -1.71615520E-01
  1.28977624E-01  7.28861451E-01  3.01331742E-01 -9.73739553E-03 -7.26587678E-02
 -1.71615520E-01  1.28977624E-01  7.28861451E-01  3.01331742E-01 -9.73739553E-03
 -7.26587678E-02 -1.71615520E-01  1.28977624E-01  7.28861451E-01  3.01331742E-01
 -9.73739553E-03 -7.26587678E-02 -1.71615520E-01  1.28977624E-01  7.28861451E-01
  3.01331742E-01 -9.73739553E-03 -7.26587678E-02 -1.71615520E-01  1.28977624E-01
  7.28861451E-01  3.01331742E-01 -9.73739553E-03 -7.26587678E-02 -1.71615520E-01
  1.28977624E-01  7.28861451E-01  3.01331742E-01 -9.73739553E-03 -7.26587678E-02
 -1.71615520E-01  1.28977624E-01  7.28861451E-01  3.01331742E-01 -9.73739553E-03
 -7.26587678E-02 -1.71615520E-01  1.28977624E-01  7.28861451E-01  3.01331742E-01
 -9.73739553E-03 -7.26587678E-02 -1.71615520E-01  1.28977624E-01  7.28861451E-01
  3.01331742E-01 -9.73739553E-03 -7.26587678E-02 -1.71615520E-01  1.28977624E-01
  7.28861451E-01  3.01331742E-01 -9.73739553E-03 -7.26587678E-02 -1.71615520E-01
  1.28977624E-01  7.28861451E-01  3.01331742E-01 -9.73739553E-03 -7.26587678E-02
 -1.71615520E-01  1.28977624E-01  7.28861451E-01  3.01331742E-01 -9.73739553E-03
 -7.26587678E-02 -1.71615520E-01  1.28977624E-01  7.28861451E-01  3.01331742E-01
 -9.73739553E-03 -7.26587678E-02 -1.71615520E-01  1.28977624E-01  7.28861451E-01
  3.01331742E-01 -9.73739553E-03 -7.26587678E-02 -1.71615520E-01  1.28977624E-01
  7.28861451E-01  3.01331742E-01 -9.73739553E-03 -7.26587678E-02 -1.71615520E-01
  1.28977624E-01  7.28861451E-01  3.01331742E-01 -9.73739553E-03 -7.26587678E-02
 -1.71615520E-01  1.28977624E-01  7.28861451E-01  3.01331742E-01 -9.73739553E-03
 -7.26587678E-02 -1.71615520E-01  1.28977624E-01  7.28861451E-01  3.01331742E-01
P(S=P) Contraction coefficients            R   N=         120
 -8.10494336E-03 -1.71547892E-02  7.36978576E-02  3.96514999E-01  4.97808488E-01
  1.17482582E-01  0.00000000E+00  0.00000000E+00  0.00000000E+00  0.00000000E+00
  0.00000000E+00  0.00000000E+00  0.00000000E+00  0.00000000E+00  0.00000000E+00
  0.00000000E+00  0.00000000E+00  0.00000000E+00  0.00000000E+00  0.00000000E+00
  0.00000000E+00  0.00000000E+00  0.00000000E+00  0.00000000E+00 -8.10494336E-03
 -1.71547892E-02  7.36978576E-02  3.96514999E-01  4.97808488E-01  1.17482582E-01
 -8.10494336E-03 -1.71547892E-02  7.36978576E-02  3.96514999E-01  4.97808488E-01
  1.17482582E-01  0.00000000E+00  0.00000000E+00  0.00000000E+00  0.00000000E+00
  0.00000000E+00  0.00000000E+00  0.00000000E+00  0.00000000E+00  0.00000000E+00
  0.00000000E+00  0.00000000E+00  0.00000000E+00 -8.10494336E-03 -1.71547892E-02
  7.36978576E-02  3.96514999E-01  4.97808488E-01  1.17482582E-01  0.00000000E+00
  0.00000000E+00  0.00000000E+00  0.00000000E+00  0.00000000E+00  0.00000000E+00
  0.00000000E+00  0.00000000E+00  0.00000000E+00  0.00000000E+00  0.00000000E+00
  0.00000000E+00  0.00000000E+00  0.00000000E+00  0.00000000E+00  0.00000000E+00
  0.00000000E+00  0.00000000E+00 -8.10494336E-03 -1.71547892E-02  7.36978576E-02
  3.96514999E-01  4.97808488E-01  1.17482582E-01  0.00000000E+00  0.00000000E+00
  0.00000000E+00  0.00000000E+00  0.00000000E+00  0.00000000E+00  0.00000000E+00
  0.00000000E+00  0.00000000E+00  0.00000000E+00  0.00000000E+00  0.00000000E+00
  0.00000000E+00  0.00000000E+00  0.00000000E+00  0.00000000E+00  0.00000000E+00
  0.00000000E+00 -8.10494336E-03 -1.71547892E-02  7.36978576E-02  3.96514999E-01
  4.97808488E-01  1.17482582E-01  0.00000000E+00  0.00000000E+00  0.00000000E+00
  0.00000000E+00  0.00000000E+00  0.00000000E+00  0.00000000E+00  0.00000000E+00
  0.00000000E+00  0.00000000E+00  0.00000000E+00  0.00000000E+00  0.00000000E+00
  0.00000000E+00  0.00000000E+00  0.00000000E+00  0.00000000E+00  0.00000000E+00
Coordinates of each shell                  R   N=          60
  3.10367319E+00  1.80974738E+00 -5.59297432E-03  3.10734555E+00  3.03471433E+00
  1.65973789E+00  3.10657903E+00  3.02538939E+00 -1.67774641E+00  4.88809154E+00
  7.64106565E-01 -3.08846466E-03  8.15906120E-01 -2.92835833E-03 -6.08786272E-06
 -1.63070690E+00  1.61793966E+00 -3.32002560E-03 -1.60804733E+00  2.87815588E+00
 -1.67364108E+00 -1.60797953E+00  2.88490595E+00  1.66188322E+00 -4.07702526E+00
  9.07831980E-02 -2.21793380E-04 -4.21666285E+00 -1.12600800E+00  1.66983666E+00
 -5.72857892E+00  1.33969492E+00  1.73824070E-03 -4.22073573E+00 -1.12615934E+00
 -1.66980171E+00  9.34038185E-01 -1.68163207E+00 -2.37412814E+00 -6.15651825E-01
 -3.05153162E+00 -2.40745096E+00  8.04504343E-01 -5.55622485E-01 -4.10335938E+00
  2.70331161E+00 -2.74880151E+00 -2.45534162E+00  9.35696572E-01 -1.66900725E+00
  2.38291067E+00  2.70417892E+00 -2.73720784E+00  2.46758466E+00  8.09306960E-01
 -5.33686148E-01  4.10628225E+00 -6.15153200E-01 -3.03736546E+00  2.42551679E+00
Constraint Structure                       R   N=          60
 -3.22683288E+00 -1.02220231E-03  1.63179787E+00 -3.25527882E+00  1.64773321E+00
  2.80197247E+00 -3.25810486E+00 -1.65418274E+00  2.79566832E+00 -4.84739501E+00
  2.67329191E-03  4.22551453E-01 -8.08486066E-01 -2.22044605E-16  1.29294320E-02
  1.52391297E+00  6.66133815E-16  1.75334668E+00  1.49405303E+00 -1.65095856E+00
  2.92037313E+00  1.49405516E+00  1.65096493E+00  2.92036899E+00  3.94225992E+00
  1.22124533E-15  1.34478111E-01  3.97204242E+00  1.65088100E+00 -1.03266115E+00
  5.56282287E+00  1.56804998E-04  1.34372903E+00  3.97219374E+00 -1.65104248E+00
 -1.03243144E+00 -7.64983333E-01 -2.37563969E+00 -1.66742173E+00  4.93120759E-01
 -2.07850958E+00 -3.22222074E+00 -1.31171152E-01 -3.95849109E+00 -5.80510622E-01
 -2.62667378E+00 -2.74052464E+00 -2.36705006E+00 -7.66042041E-01  2.37666108E+00
 -1.66600444E+00 -2.59434213E+00  2.65775620E+00 -2.48259273E+00 -2.74243204E-01
  3.98555039E+00 -5.44344384E-01  5.99949594E-01  2.13799225E+00 -3.13760772E+00
Num ILSW                                   I              100
ILSW                                       I   N=         100
           0           0           0           0           2           0
           0           0           0           0           0          -1
           0           0           0           0           0           0
           0           0           0           0           1           0
           1           0           0           0           0           0
           0           0      100000           0          -1           0
           0           0           0           0           0           0
           0           0           0          40           0           0
           0           0           1           0           0           0
           0           0           4          40           0           0
           0           0           0           0           0           0
           0           0           0           0           0           0
           0           0           0           0           0           0
           0           0           0           0           0           0
           0           0           0           0           0           0
           0           0           0           0           0           0
           0           0           0           0
Num RLSW                                   I               40
RLSW                                       R   N=          40
  1.00000000E+00  1.00000000E+00  1.00000000E+00  1.00000000E+00  1.00000000E+00
  0.00000000E+00  0.00000000E+00  1.00000000E+00  0.00000000E+00  0.00000000E+00
  0.00000000E+00  0.00000000E+00  1.00000000E+00  0.00000000E+00  0.00000000E+00
  0.00000000E+00  0.00000000E+00  1.00000000E+00  0.00000000E+00  0.00000000E+00
  0.00000000E+00  0.00000000E+00  1.00000000E+00  0.00000000E+00  0.00000000E+00
  0.00000000E+00  0.00000000E+00  1.00000000E+00  0.00000000E+00  0.00000000E+00
  0.00000000E+00  0.00000000E+00  0.00000000E+00  0.00000000E+00  0.00000000E+00
  0.00000000E+00  0.00000000E+00  0.00000000E+00  1.00000000E+00  1.00000000E+00
MxBond                                     I                4
NBond                                      I   N=          20
           4           1           1           1           4           4
           1           1           4           1           1           1
           4           1           1           1           4           1
           1           1
IBond                                      I   N=          80
           2           3           4           5           1           0
           0           0           1           0           0           0
           1           0           0           0           1           6
          13          17           5           7           8           9
           6           0           0           0           6           0
           0           0           6          10          11          12
           9           0           0           0           9           0
           0           0           9           0           0           0
           5          14          15          16          13           0
           0           0          13           0           0           0
          13           0           0           0           5          18
          19          20          17           0           0           0
          17           0           0           0          17           0
           0           0
RBond                                      R   N=          80
  1.00000000E+00  1.00000000E+00  1.00000000E+00  1.00000000E+00  1.00000000E+00
  0.00000000E+00  0.00000000E+00  0.00000000E+00  1.00000000E+00  0.00000000E+00
  0.00000000E+00  0.00000000E+00  1.00000000E+00  0.00000000E+00  0.00000000E+00
  0.00000000E+00  1.00000000E+00  1.00000000E+00  1.00000000E+00  1.00000000E+00
  1.00000000E+00  1.00000000E+00  1.00000000E+00  1.00000000E+00  1.00000000E+00
  0.00000000E+00  0.00000000E+00  0.00000000E+00  1.00000000E+00  0.00000000E+00
  0.00000000E+00  0.00000000E+00  1.00000000E+00  1.00000000E+00  1.00000000E+00
  1.00000000E+00  1.00000000E+00  0.00000000E+00  0.00000000E+00  0.00000000E+00
  1.00000000E+00  0.00000000E+00  0.00000000E+00  0.00000000E+00  1.00000000E+00
  0.00000000E+00  0.00000000E+00  0.00000000E+00  1.00000000E+00  1.00000000E+00
  1.00000000E+00  1.00000000E+00  1.00000000E+00  0.00000000E+00  0.00000000E+00
  0.00000000E+00  1.00000000E+00  0.00000000E+00  0.00000000E+00  0.00000000E+00
  1.00000000E+00  0.00000000E+00  0.00000000E+00  0.00000000E+00  1.00000000E+00
  1.00000000E+00  1.00000000E+00  1.00000000E+00  1.00000000E+00  0.00000000E+00
  0.00000000E+00  0.00000000E+00  1.00000000E+00  0.00000000E+00  0.00000000E+00
  0.00000000E+00  1.00000000E+00  0.00000000E+00  0.00000000E+00  0.00000000E+00
Virial Ratio                               R      9.989298096874245E-01
SCF Energy                                 R     -6.043140425012439E-02
Total Energy                               R     -6.043140425012439E-02
RMS Force                                  R      5.171901908445228E-06
RMS Density                                R      9.479384931433861E-09
External E-field                           R   N=          35
  0.00000000E+00  0.00000000E+00  0.00000000E+00  0.00000000E+00  0.00000000E+00
  0.00000000E+00  0.00000000E+00  0.00000000E+00  0.00000000E+00  0.00000000E+00
  0.00000000E+00  0.00000000E+00  0.00000000E+00  0.00000000E+00  0.00000000E+00
  0.00000000E+00  0.00000000E+00  0.00000000E+00  0.00000000E+00  0.00000000E+00
  0.00000000E+00  0.00000000E+00  0.00000000E+00  0.00000000E+00  0.00000000E+00
  0.00000000E+00  0.00000000E+00  0.00000000E+00  0.00000000E+00  0.00000000E+00
  0.00000000E+00  0.00000000E+00  0.00000000E+00  0.00000000E+00  0.00000000E+00
IOpCl                                      I                0
IROHF                                      I                0
Alpha Orbital Energies                     R   N=          38
 -1.07268065E+00 -9.53064802E-01 -8.83918681E-01 -8.82546799E-01 -7.92399927E-01
 -6.66256128E-01 -5.70555207E-01 -5.65799119E-01 -5.41497964E-01 -5.25340887E-01
 -4.95929169E-01 -4.77494884E-01 -4.73021861E-01 -4.60544205E-01 -4.59006328E-01
 -4.35639649E-01 -4.13462840E-01 -4.09240712E-01 -4.01645588E-01  1.54719573E-01
  1.61726272E-01  1.63523001E-01  1.81534984E-01  1.84121890E-01  2.14045999E-01
  2.21990785E-01  2.24005310E-01  2.24279880E-01  2.26808421E-01  2.27390487E-01
  2.28271734E-01  2.28811096E-01  2.33641204E-01  2.47598411E-01  2.55489630E-01
  2.60186182E-01  2.65629549E-01  2.66625685E-01
Alpha MO coefficients                      R   N=        1444
  3.04542737E-01 -8.85392129E-02 -6.63457510E-02  2.08568137E-04  1.27080866E-01
  1.27077936E-01  1.24987100E-01  4.96590916E-01 -1.39031895E-02  5.40424685E-03
  1.82548112E-06  3.66140929E-01  6.10302077E-02 -7.37002367E-02  1.55962144E-04
  1.51651011E-01  1.51657643E-01  2.34365398E-01  7.81113354E-02  2.05654795E-02
 -3.37732334E-05  1.07170501E-01  8.64094151E-02  1.07080659E-01  3.10643682E-01
 -1.00602735E-02  6.40342398E-02  8.98545970E-02  1.33867533E-01  1.29747485E-01
  1.26675583E-01  3.10673275E-01 -1.01304612E-02  6.35568424E-02 -9.01858622E-02
  1.26685049E-01  1.29755627E-01  1.33896897E-01 -2.95203720E-01  1.36467701E-03
  4.76072085E-02 -1.30344112E-04 -1.20131527E-01 -1.20133660E-01 -1.49468514E-01
 -1.63717964E-01 -1.82438937E-01  4.42336469E-02 -6.42030076E-05  3.71714910E-01
 -1.85011655E-01 -3.30578444E-02  7.35623921E-05  1.55463372E-01  1.55469016E-01
  5.52049281E-01  4.22522365E-02  4.94994611E-02 -1.00001281E-04  2.35070206E-01
  2.52697100E-01  2.35126545E-01 -1.63043357E-01 -5.62314469E-02 -1.41569838E-02
 -3.37040814E-02 -3.89851551E-02 -6.17832784E-02 -9.81661999E-02 -1.63047282E-01
 -5.62099970E-02 -1.39972686E-02  3.38149723E-02 -9.81547579E-02 -6.18339130E-02
 -3.89323654E-02  5.15838392E-01  1.09123788E-02  7.12888907E-02 -2.78541052E-04
  2.58651301E-01  2.58722614E-01  2.18113738E-01 -2.44585927E-03  8.46655793E-02
  2.78320281E-01 -1.06360899E-03  1.64853008E-01  3.75316418E-02  8.23741921E-02
 -3.19253050E-04  1.03831878E-01  1.03676365E-01 -8.75742073E-04  1.28173450E-02
  5.08426919E-02 -1.75398319E-04 -2.46133653E-02  1.15242311E-02 -2.43859586E-02
 -3.38061951E-01  2.68719566E-02  7.31656044E-02 -9.34692509E-03 -1.94148571E-01
 -1.26630009E-01 -1.61444295E-01 -3.39117695E-01  2.68859713E-02  7.32021340E-02
  8.79655867E-03 -1.61965395E-01 -1.27160098E-01 -1.94609276E-01 -5.00372126E-04
 -3.47587085E-05 -3.01601921E-04 -8.38076270E-02 -3.96738732E-02  3.91737939E-02
 -2.14379793E-04  1.29249487E-05 -1.65967236E-04 -1.06881578E-03 -2.91100836E-01
 -2.03905762E-04 -8.22073960E-05 -3.10170381E-04 -8.47709523E-02  4.03902034E-02
 -4.06787689E-02  5.87542293E-05 -1.01770694E-05 -1.32883681E-04 -3.94921245E-02
 -2.77001292E-02 -2.83920193E-05  2.78143543E-02  5.12324681E-01 -1.11576501E-03
  8.86200060E-03 -7.02356696E-02  2.30149413E-01  2.69508488E-01  2.30883315E-01
 -5.11590847E-01  1.03099924E-03 -9.38680431E-03 -7.02118567E-02 -2.30496834E-01
 -2.69233153E-01 -2.29769457E-01 -2.69818934E-01 -1.56091989E-01 -2.15817959E-02
  1.12827163E-04 -1.28992560E-01 -1.29010464E-01 -1.95482233E-01  1.93369266E-01
 -2.04865393E-01  1.04460841E-01 -1.99434828E-04  4.21531342E-01  1.97329212E-01
  9.19257714E-02 -1.79347926E-04  2.20012371E-01  2.20025523E-01 -4.01205935E-01
  2.01830401E-01  1.20397734E-01 -2.50066189E-04 -2.32378670E-01 -2.33831257E-01
 -2.32370584E-01 -5.88075922E-02 -4.91281595E-02  6.65984764E-02  4.15245424E-02
 -4.23309917E-02 -2.34532531E-02 -7.43124267E-02 -5.89210155E-02 -4.91610172E-02
  6.64289865E-02 -4.18668693E-02 -7.43787268E-02 -2.35177397E-02 -4.23952213E-02
 -8.21758866E-02 -1.98423485E-01 -1.95887884E-01  5.73528801E-04 -1.17252022E-01
 -1.17229891E-01 -8.90380108E-02  4.62949968E-01  1.92343690E-02 -3.83338555E-02
  7.31200956E-05 -1.99780536E-01  1.67785975E-01 -2.66226387E-01  5.41055902E-04
 -1.97579937E-01 -1.97579161E-01  9.97924138E-02 -7.38190341E-02 -1.70901787E-01
  3.53118617E-04  1.05824700E-01  2.01929017E-02  1.05588866E-01 -1.44198221E-01
 -2.48728522E-02  1.72134846E-01  2.76364147E-01 -1.26521558E-01 -1.57272732E-01
 -1.47066373E-01 -1.44170387E-01 -2.50712223E-02  1.70607209E-01 -2.77254535E-01
 -1.47028792E-01 -1.57298023E-01 -1.26465916E-01 -5.94440886E-02 -4.03204639E-02
 -3.37584555E-01  8.28762975E-04 -1.60337754E-01 -1.60197516E-01  6.93234823E-02
  5.14939216E-02  3.37677894E-01 -7.74973996E-02 -7.53892939E-06  2.80571503E-02
 -1.73388223E-01  2.72014821E-01 -9.28436091E-04  1.18011737E-01  1.17613807E-01
  2.81973462E-02 -1.72650263E-01  2.89581693E-01 -9.85319770E-04 -1.04816786E-01
  2.25498149E-01 -1.03444494E-01 -2.10977445E-03  3.29124831E-01  2.19900470E-02
  1.00360202E-01 -1.87830458E-01 -6.35436141E-02  1.81305848E-01 -1.97965429E-03
  3.29325235E-01  2.12976759E-02 -1.00599130E-01  1.81508955E-01 -6.32956177E-02
 -1.88031681E-01  2.82593973E-05  3.63526085E-04  4.78791186E-04  2.69882409E-01
  1.52446064E-01 -1.52645026E-01  2.82124248E-04  3.04336447E-05  2.45210855E-04
  4.06295297E-04  2.76780758E-01  4.76923230E-05 -1.90600248E-04  1.18014002E-03
  4.66312394E-01 -2.58623502E-01  2.58836387E-01  8.69918302E-06 -1.16390120E-04
  1.02027885E-03  3.54882168E-01  1.89413886E-01  7.23500301E-04 -1.90183016E-01
  7.60424717E-02  7.59498412E-02 -2.60630815E-01 -8.72040039E-02  1.05256979E-01
 -2.20235343E-02  1.69525042E-01 -7.61503496E-02 -7.57971964E-02  2.59933929E-01
 -8.92183106E-02 -1.69456117E-01  2.14438677E-02 -1.05177265E-01  4.02931628E-02
  3.77065160E-01 -2.10426978E-02 -8.32416840E-04  5.37858209E-03  6.28011650E-03
  2.51002126E-01 -2.56302697E-02 -8.82290336E-02 -3.31748340E-01  3.95460117E-04
  1.01496768E-01 -2.19899409E-01 -9.30519977E-02  1.51915510E-04  2.38828799E-03
  2.29999684E-03 -2.89050964E-02  2.70114947E-01  9.89692156E-02  1.66973530E-04
 -6.27155982E-02 -1.22794866E-01 -6.33968385E-02 -3.09783621E-02 -6.48206773E-02
 -1.99204725E-01  3.38282704E-01  1.06273926E-01 -2.81151287E-01  1.47012113E-02
 -3.08586917E-02 -6.53273694E-02 -2.02057251E-01 -3.36933287E-01  1.51985141E-02
 -2.81413354E-01  1.06791818E-01  4.17790558E-05  7.08830838E-04  1.25139620E-03
  4.33016588E-01  2.43475853E-01 -2.43414704E-01  3.69889624E-04 -3.39643170E-05
 -1.93329734E-04  8.25000117E-05  2.05153423E-01  1.15680283E-04 -2.53479609E-04
 -6.89503921E-04 -1.93959621E-01  1.01684483E-01 -1.01839340E-01  5.56552087E-06
  4.68879080E-04 -8.32413413E-04 -4.22628643E-01 -2.49196155E-01 -9.02119817E-04
  2.49746854E-01  4.00549870E-03 -1.91866736E-01 -2.36316882E-01 -3.32861023E-02
  2.17435042E-01 -6.12148345E-02 -2.64781835E-02 -4.03376962E-03  1.91461788E-01
  2.35618895E-01 -3.55445896E-02  2.62507174E-02  6.06832716E-02 -2.17072485E-01
 -8.36041845E-03  2.87032081E-01 -3.43301077E-01  8.58572174E-04 -1.48400840E-01
 -1.48362078E-01  2.99460267E-01 -3.70369806E-02 -2.72158791E-03  2.44995753E-02
 -4.87740513E-05  7.62155222E-02 -1.60078320E-01 -2.57861905E-01  7.39368275E-04
 -7.76921629E-02 -7.74206879E-02  3.34355023E-02  4.01357206E-01 -9.24480500E-02
  1.49819271E-04  3.05763962E-02 -2.60076457E-01  2.99198439E-02 -1.01039261E-02
  8.48319343E-02  2.23361858E-01 -1.97063258E-01 -1.51964852E-01  1.93133352E-01
 -2.30996025E-02 -1.01226182E-02  8.47001370E-02  2.24416730E-01  1.95808531E-01
 -2.34990489E-02  1.93208710E-01 -1.51672163E-01  7.45412400E-03  1.74174929E-01
 -5.69431920E-02  1.40882263E-04 -1.94515366E-02 -1.94736981E-02  1.23005469E-01
  6.06071684E-02 -6.16562995E-02 -1.39792639E-01  8.33320236E-05 -6.53129927E-02
 -1.01285700E-01 -3.34390982E-02  3.61080851E-04 -4.82299585E-02 -4.78537504E-02
 -1.66567363E-02 -2.21055609E-01  4.84294143E-01 -4.59407482E-04 -2.01821448E-01
  3.44479185E-01 -2.00937760E-01  3.34810041E-02 -2.87293227E-01  2.11828692E-01
 -2.88245750E-02  5.71441060E-02  1.32584643E-01 -2.47343078E-01  3.34747551E-02
 -2.84794961E-01  2.11030461E-01  2.77252647E-02 -2.45499865E-01  1.31812066E-01