 Entering Gaussian System, Link 0=/share/apps/g09/g09
 Input=C6H14_3_00_1_opt_B3L.gjf
 Output=C6H14_3_00_1_opt_B3L.log
 Initial command:
 /share/apps/g09/l1.exe /state/partition1/Gau-21795.inp -scrdir=/state/partition1/
 Entering Link 1 = /share/apps/g09/l1.exe PID=     21797.
  
 Copyright (c) 1988,1990,1992,1993,1995,1998,2003,2009, Gaussian, Inc.
                  All Rights Reserved.
  
 This is part of the Gaussian(R) 09 program.  It is based on
 the Gaussian(R) 03 system (copyright 2003, Gaussian, Inc.),
 the Gaussian(R) 98 system (copyright 1998, Gaussian, Inc.),
 the Gaussian(R) 94 system (copyright 1995, Gaussian, Inc.),
 the Gaussian 92(TM) system (copyright 1992, Gaussian, Inc.),
 the Gaussian 90(TM) system (copyright 1990, Gaussian, Inc.),
 the Gaussian 88(TM) system (copyright 1988, Gaussian, Inc.),
 the Gaussian 86(TM) system (copyright 1986, Carnegie Mellon
 University), and the Gaussian 82(TM) system (copyright 1983,
 Carnegie Mellon University). Gaussian is a federally registered
 trademark of Gaussian, Inc.
  
 This software contains proprietary and confidential information,
 including trade secrets, belonging to Gaussian, Inc.
  
 This software is provided under written license and may be
 used, copied, transmitted, or stored only in accord with that
 written license.
  
 The following legend is applicable only to US Government
 contracts under FAR:
  
                    RESTRICTED RIGHTS LEGEND
  
 Use, reproduction and disclosure by the US Government is
 subject to restrictions as set forth in subparagraphs (a)
 and (c) of the Commercial Computer Software - Restricted
 Rights clause in FAR 52.227-19.
  
 Gaussian, Inc.
 340 Quinnipiac St., Bldg. 40, Wallingford CT 06492
  
  
 ---------------------------------------------------------------
 Warning -- This program may not be used in any manner that
 competes with the business of Gaussian, Inc. or will provide
 assistance to any competitor of Gaussian, Inc.  The licensee
 of this program is prohibited from giving any competitor of
 Gaussian, Inc. access to this program.  By using this program,
 the user acknowledges that Gaussian, Inc. is engaged in the
 business of creating and licensing software in the field of
 computational chemistry and represents and warrants to the
 licensee that it is not a competitor of Gaussian, Inc. and that
 it will not use this program in any manner prohibited above.
 ---------------------------------------------------------------
  

 Cite this work as:
 Gaussian 09, Revision A.01,
 M. J. Frisch, G. W. Trucks, H. B. Schlegel, G. E. Scuseria, 
 M. A. Robb, J. R. Cheeseman, G. Scalmani, V. Barone, B. Mennucci, 
 G. A. Petersson, H. Nakatsuji, M. Caricato, X. Li, H. P. Hratchian, 
 A. F. Izmaylov, J. Bloino, G. Zheng, J. L. Sonnenberg, M. Hada, 
 M. Ehara, K. Toyota, R. Fukuda, J. Hasegawa, M. Ishida, T. Nakajima, 
 Y. Honda, O. Kitao, H. Nakai, T. Vreven, J. A. Montgomery, Jr., 
 J. E. Peralta, F. Ogliaro, M. Bearpark, J. J. Heyd, E. Brothers, 
 K. N. Kudin, V. N. Staroverov, R. Kobayashi, J. Normand, 
 K. Raghavachari, A. Rendell, J. C. Burant, S. S. Iyengar, J. Tomasi, 
 M. Cossi, N. Rega, J. M. Millam, M. Klene, J. E. Knox, J. B. Cross, 
 V. Bakken, C. Adamo, J. Jaramillo, R. Gomperts, R. E. Stratmann, 
 O. Yazyev, A. J. Austin, R. Cammi, C. Pomelli, J. W. Ochterski, 
 R. L. Martin, K. Morokuma, V. G. Zakrzewski, G. A. Voth, 
 P. Salvador, J. J. Dannenberg, S. Dapprich, A. D. Daniels, 
 O. Farkas, J. B. Foresman, J. V. Ortiz, J. Cioslowski, 
 and D. J. Fox, Gaussian, Inc., Wallingford CT, 2009.
 
 ******************************************
 Gaussian 09:  EM64L-G09RevA.01  8-May-2009
                18-Sep-2015 
 ******************************************
 %mem=3GB
 %nprocshared=2
 Will use up to    2 processors via shared memory.
 -----------------------------------------
 #p B3LYP/6-31G(d) opt=tight int=ultrafine
 -----------------------------------------
 1/7=10,14=-1,18=20,19=15,26=3,38=1/1,3;
 2/9=110,12=2,17=6,18=5,40=1/2;
 3/5=1,6=6,7=1,11=2,16=1,25=1,30=1,71=1,74=-5,75=-5/1,2,3;
 4//1;
 5/5=2,38=5/2;
 6/7=2,8=2,9=2,10=2,28=1/1;
 7//1,2,3,16;
 1/7=10,14=-1,18=20,19=15/3(2);
 2/9=110/2;
 99//99;
 2/9=110/2;
 3/5=1,6=6,7=1,11=2,16=1,25=1,30=1,71=1,74=-5,75=-5/1,2,3;
 4/5=5,16=3/1;
 5/5=2,38=5/2;
 7//1,2,3,16;
 1/7=10,14=-1,18=20,19=15/3(-5);
 2/9=110/2;
 6/7=2,8=2,9=2,10=2,19=2,28=1/1;
 99/9=1/99;
 Leave Link    1 at Fri Sep 18 13:23:17 2015, MaxMem=  402653184 cpu:       0.1
 (Enter /share/apps/g09/l101.exe)
 ---------------------------------------------
 using B3LYP/6-31G(d) to do opt and freq calc.
 ---------------------------------------------
 Symbolic Z-matrix:
 Charge =  0 Multiplicity = 1
 C                    -2.53156  -0.22393  -0.36854 
 H                    -2.46562  -0.44103  -1.44061 
 H                    -2.72115   0.85063  -0.26331 
 H                    -3.40888  -0.7517    0.02133 
 C                    -1.263    -0.64517   0.36935 
 H                    -1.37385  -0.44283   1.45174 
 H                    -1.13839  -1.74229   0.27997 
 C                    -0.00002   0.06438  -0.16896 
 H                    -0.00011  -0.01462  -1.28387 
 C                     1.26295  -0.64529   0.36926 
 H                     1.13834  -1.74238   0.27969 
 H                     1.37376  -0.44315   1.45169 
 C                     2.53157  -0.22391  -0.36849 
 H                     2.72274   0.85009  -0.26062 
 H                     3.40844  -0.75393   0.01935 
 H                     2.46459  -0.43815  -1.44108 
 C                     0.00005   1.55008   0.21101 
 H                    -0.88347   2.0609   -0.18643 
 H                     0.00006   1.69057   1.29685 
 H                     0.88358   2.06083  -0.18648 
 
 NAtoms=     20 NQM=     20 NQMF=      0 NMic=      0 NMicF=      0 NTot=     20.
                    Isotopes and Nuclear Properties:
 (Nuclear quadrupole moments (NQMom) in fm**2, nuclear magnetic moments (NMagM)
  in nuclear magnetons)

  Atom         1           2           3           4           5           6           7           8           9          10
 IAtWgt=          12           1           1           1          12           1           1          12           1          12
 AtmWgt=  12.0000000   1.0078250   1.0078250   1.0078250  12.0000000   1.0078250   1.0078250  12.0000000   1.0078250  12.0000000
 NucSpn=           0           1           1           1           0           1           1           0           1           0
 AtZEff=   0.0000000   0.0000000   0.0000000   0.0000000   0.0000000   0.0000000   0.0000000   0.0000000   0.0000000   0.0000000
 NQMom=    0.0000000   0.0000000   0.0000000   0.0000000   0.0000000   0.0000000   0.0000000   0.0000000   0.0000000   0.0000000
 NMagM=    0.0000000   2.7928460   2.7928460   2.7928460   0.0000000   2.7928460   2.7928460   0.0000000   2.7928460   0.0000000

  Atom        11          12          13          14          15          16          17          18          19          20
 IAtWgt=           1           1          12           1           1           1          12           1           1           1
 AtmWgt=   1.0078250   1.0078250  12.0000000   1.0078250   1.0078250   1.0078250  12.0000000   1.0078250   1.0078250   1.0078250
 NucSpn=           1           1           0           1           1           1           0           1           1           1
 AtZEff=   0.0000000   0.0000000   0.0000000   0.0000000   0.0000000   0.0000000   0.0000000   0.0000000   0.0000000   0.0000000
 NQMom=    0.0000000   0.0000000   0.0000000   0.0000000   0.0000000   0.0000000   0.0000000   0.0000000   0.0000000   0.0000000
 NMagM=    2.7928460   2.7928460   0.0000000   2.7928460   2.7928460   2.7928460   0.0000000   2.7928460   2.7928460   2.7928460
 Leave Link  101 at Fri Sep 18 13:23:17 2015, MaxMem=  402653184 cpu:       0.1
 (Enter /share/apps/g09/l103.exe)

 GradGradGradGradGradGradGradGradGradGradGradGradGradGradGradGradGradGrad
 Berny optimization.
 Initialization pass.
                           ----------------------------
                           !    Initial Parameters    !
                           ! (Angstroms and Degrees)  !
 --------------------------                            --------------------------
 ! Name  Definition              Value          Derivative Info.                !
 --------------------------------------------------------------------------------
 ! R1    R(1,2)                  1.0958         estimate D2E/DX2                !
 ! R2    R(1,3)                  1.0962         estimate D2E/DX2                !
 ! R3    R(1,4)                  1.0956         estimate D2E/DX2                !
 ! R4    R(1,5)                  1.5268         estimate D2E/DX2                !
 ! R5    R(5,6)                  1.1067         estimate D2E/DX2                !
 ! R6    R(5,7)                  1.1078         estimate D2E/DX2                !
 ! R7    R(5,8)                  1.5454         estimate D2E/DX2                !
 ! R8    R(8,9)                  1.1177         estimate D2E/DX2                !
 ! R9    R(8,10)                 1.5454         estimate D2E/DX2                !
 ! R10   R(8,17)                 1.5335         estimate D2E/DX2                !
 ! R11   R(10,11)                1.1078         estimate D2E/DX2                !
 ! R12   R(10,12)                1.1067         estimate D2E/DX2                !
 ! R13   R(10,13)                1.5268         estimate D2E/DX2                !
 ! R14   R(13,14)                1.0962         estimate D2E/DX2                !
 ! R15   R(13,15)                1.0956         estimate D2E/DX2                !
 ! R16   R(13,16)                1.0958         estimate D2E/DX2                !
 ! R17   R(17,18)                1.0952         estimate D2E/DX2                !
 ! R18   R(17,19)                1.0949         estimate D2E/DX2                !
 ! R19   R(17,20)                1.0952         estimate D2E/DX2                !
 ! A1    A(2,1,3)              107.3689         estimate D2E/DX2                !
 ! A2    A(2,1,4)              107.5116         estimate D2E/DX2                !
 ! A3    A(2,1,5)              111.6023         estimate D2E/DX2                !
 ! A4    A(3,1,4)              107.431          estimate D2E/DX2                !
 ! A5    A(3,1,5)              111.5769         estimate D2E/DX2                !
 ! A6    A(4,1,5)              111.1281         estimate D2E/DX2                !
 ! A7    A(1,5,6)              109.816          estimate D2E/DX2                !
 ! A8    A(1,5,7)              109.1291         estimate D2E/DX2                !
 ! A9    A(1,5,8)              112.5807         estimate D2E/DX2                !
 ! A10   A(6,5,7)              105.7391         estimate D2E/DX2                !
 ! A11   A(6,5,8)              109.7908         estimate D2E/DX2                !
 ! A12   A(7,5,8)              109.5533         estimate D2E/DX2                !
 ! A13   A(5,8,9)              108.3573         estimate D2E/DX2                !
 ! A14   A(5,8,10)             109.6162         estimate D2E/DX2                !
 ! A15   A(5,8,17)             111.0108         estimate D2E/DX2                !
 ! A16   A(9,8,10)             108.3603         estimate D2E/DX2                !
 ! A17   A(9,8,17)             108.3993         estimate D2E/DX2                !
 ! A18   A(10,8,17)            111.0112         estimate D2E/DX2                !
 ! A19   A(8,10,11)            109.5536         estimate D2E/DX2                !
 ! A20   A(8,10,12)            109.7902         estimate D2E/DX2                !
 ! A21   A(8,10,13)            112.5824         estimate D2E/DX2                !
 ! A22   A(11,10,12)           105.7371         estimate D2E/DX2                !
 ! A23   A(11,10,13)           109.1302         estimate D2E/DX2                !
 ! A24   A(12,10,13)           109.8153         estimate D2E/DX2                !
 ! A25   A(10,13,14)           111.576          estimate D2E/DX2                !
 ! A26   A(10,13,15)           111.1281         estimate D2E/DX2                !
 ! A27   A(10,13,16)           111.6043         estimate D2E/DX2                !
 ! A28   A(14,13,15)           107.4323         estimate D2E/DX2                !
 ! A29   A(14,13,16)           107.3693         estimate D2E/DX2                !
 ! A30   A(15,13,16)           107.5086         estimate D2E/DX2                !
 ! A31   A(8,17,18)            111.2174         estimate D2E/DX2                !
 ! A32   A(8,17,19)            111.7181         estimate D2E/DX2                !
 ! A33   A(8,17,20)            111.218          estimate D2E/DX2                !
 ! A34   A(18,17,19)           107.4606         estimate D2E/DX2                !
 ! A35   A(18,17,20)           107.5523         estimate D2E/DX2                !
 ! A36   A(19,17,20)           107.4631         estimate D2E/DX2                !
 ! D1    D(2,1,5,6)           -178.2019         estimate D2E/DX2                !
 ! D2    D(2,1,5,7)            -62.7238         estimate D2E/DX2                !
 ! D3    D(2,1,5,8)             59.1397         estimate D2E/DX2                !
 ! D4    D(3,1,5,6)             61.6748         estimate D2E/DX2                !
 ! D5    D(3,1,5,7)            177.1529         estimate D2E/DX2                !
 ! D6    D(3,1,5,8)            -60.9836         estimate D2E/DX2                !
 ! D7    D(4,1,5,6)            -58.2038         estimate D2E/DX2                !
 ! D8    D(4,1,5,7)             57.2742         estimate D2E/DX2                !
 ! D9    D(4,1,5,8)            179.1377         estimate D2E/DX2                !
 ! D10   D(1,5,8,9)            -48.2477         estimate D2E/DX2                !
 ! D11   D(1,5,8,10)          -166.3206         estimate D2E/DX2                !
 ! D12   D(1,5,8,17)            70.6793         estimate D2E/DX2                !
 ! D13   D(6,5,8,9)           -170.9203         estimate D2E/DX2                !
 ! D14   D(6,5,8,10)            71.0068         estimate D2E/DX2                !
 ! D15   D(6,5,8,17)           -51.9933         estimate D2E/DX2                !
 ! D16   D(7,5,8,9)             73.3751         estimate D2E/DX2                !
 ! D17   D(7,5,8,10)           -44.6978         estimate D2E/DX2                !
 ! D18   D(7,5,8,17)          -167.6978         estimate D2E/DX2                !
 ! D19   D(5,8,10,11)           44.7095         estimate D2E/DX2                !
 ! D20   D(5,8,10,12)          -70.9925         estimate D2E/DX2                !
 ! D21   D(5,8,10,13)          166.335          estimate D2E/DX2                !
 ! D22   D(9,8,10,11)          -73.3615         estimate D2E/DX2                !
 ! D23   D(9,8,10,12)          170.9365         estimate D2E/DX2                !
 ! D24   D(9,8,10,13)           48.264          estimate D2E/DX2                !
 ! D25   D(17,8,10,11)         167.7093         estimate D2E/DX2                !
 ! D26   D(17,8,10,12)          52.0073         estimate D2E/DX2                !
 ! D27   D(17,8,10,13)         -70.6652         estimate D2E/DX2                !
 ! D28   D(5,8,17,18)          -58.9786         estimate D2E/DX2                !
 ! D29   D(5,8,17,19)           61.094          estimate D2E/DX2                !
 ! D30   D(5,8,17,20)         -178.83           estimate D2E/DX2                !
 ! D31   D(9,8,17,18)           59.9233         estimate D2E/DX2                !
 ! D32   D(9,8,17,19)          179.9958         estimate D2E/DX2                !
 ! D33   D(9,8,17,20)          -59.9281         estimate D2E/DX2                !
 ! D34   D(10,8,17,18)         178.829          estimate D2E/DX2                !
 ! D35   D(10,8,17,19)         -61.0985         estimate D2E/DX2                !
 ! D36   D(10,8,17,20)          58.9776         estimate D2E/DX2                !
 ! D37   D(8,10,13,14)          61.1481         estimate D2E/DX2                !
 ! D38   D(8,10,13,15)        -178.9722         estimate D2E/DX2                !
 ! D39   D(8,10,13,16)         -58.9765         estimate D2E/DX2                !
 ! D40   D(11,10,13,14)       -176.9862         estimate D2E/DX2                !
 ! D41   D(11,10,13,15)        -57.1064         estimate D2E/DX2                !
 ! D42   D(11,10,13,16)         62.8892         estimate D2E/DX2                !
 ! D43   D(12,10,13,14)        -61.5103         estimate D2E/DX2                !
 ! D44   D(12,10,13,15)         58.3695         estimate D2E/DX2                !
 ! D45   D(12,10,13,16)        178.3651         estimate D2E/DX2                !
 --------------------------------------------------------------------------------
 Trust Radius=3.00D-01 FncErr=1.00D-07 GrdErr=1.00D-06
 Number of steps in this run= 110 maximum allowed number of steps= 120.
 GradGradGradGradGradGradGradGradGradGradGradGradGradGradGradGradGradGrad

 Leave Link  103 at Fri Sep 18 13:23:17 2015, MaxMem=  402653184 cpu:       0.0
 (Enter /share/apps/g09/l202.exe)
                          Input orientation:                          
 ---------------------------------------------------------------------
 Center     Atomic      Atomic             Coordinates (Angstroms)
 Number     Number       Type             X           Y           Z
 ---------------------------------------------------------------------
      1          6           0       -2.531559   -0.223926   -0.368539
      2          1           0       -2.465624   -0.441027   -1.440606
      3          1           0       -2.721151    0.850625   -0.263311
      4          1           0       -3.408883   -0.751695    0.021333
      5          6           0       -1.262996   -0.645170    0.369354
      6          1           0       -1.373849   -0.442825    1.451735
      7          1           0       -1.138394   -1.742289    0.279970
      8          6           0       -0.000023    0.064384   -0.168961
      9          1           0       -0.000107   -0.014618   -1.283874
     10          6           0        1.262950   -0.645285    0.369255
     11          1           0        1.138340   -1.742380    0.279689
     12          1           0        1.373761   -0.443152    1.451689
     13          6           0        2.531573   -0.223909   -0.368493
     14          1           0        2.722736    0.850094   -0.260618
     15          1           0        3.408441   -0.753930    0.019351
     16          1           0        2.464588   -0.438151   -1.441075
     17          6           0        0.000050    1.550081    0.211012
     18          1           0       -0.883474    2.060898   -0.186430
     19          1           0        0.000059    1.690567    1.296853
     20          1           0        0.883581    2.060832   -0.186479
 ---------------------------------------------------------------------
                    Distance matrix (angstroms):
                    1          2          3          4          5
     1  C    0.000000
     2  H    1.095814   0.000000
     3  H    1.096211   1.766262   0.000000
     4  H    1.095554   1.767348   1.766756   0.000000
     5  C    1.526822   2.182646   2.182632   2.176533   0.000000
     6  H    2.168319   3.091539   2.535669   2.506554   1.106698
     7  H    2.160301   2.532825   3.086013   2.490640   1.107784
     8  C    2.555705   2.819878   2.834010   3.510345   1.545429
     9  H    2.699981   2.507023   3.032206   3.723789   2.173855
    10  C    3.888468   4.149648   4.302435   4.685979   2.525946
    11  H    4.024184   4.200177   4.681260   4.661056   2.641652
    12  H    4.314257   4.806896   4.624218   5.001480   2.857402
    13  C    5.063132   5.115520   5.362536   5.976583   3.888526
    14  H    5.364027   5.475257   5.443888   6.343656   4.303340
    15  H    5.976200   6.060860   6.342428   6.817325   4.685793
    16  H    5.114461   4.930213   5.471742   6.060908   4.149144
    17  C    3.145159   3.573780   2.849413   4.117642   2.537614
    18  H    2.823078   3.214932   2.201756   3.785701   2.788501
    19  H    3.584397   4.256403   3.247245   4.383204   2.812691
    20  H    4.112961   4.364551   3.803235   5.136024   3.498455
                    6          7          8          9         10
     6  H    0.000000
     7  H    1.765525   0.000000
     8  C    2.184334   2.182085   0.000000
     9  H    3.090968   2.593483   1.117709   0.000000
    10  C    2.857527   2.641561   1.545447   2.173911   0.000000
    11  H    3.061638   2.276734   2.182098   2.593444   1.107776
    12  H    2.747610   3.061308   2.184349   3.091029   1.106707
    13  C    4.314334   4.024256   2.555759   2.700209   1.526838
    14  H    4.624478   4.681988   2.835341   3.034576   2.182630
    15  H    5.001880   4.660309   3.510374   3.723329   2.176550
    16  H    4.806451   4.200506   2.818709   2.505756   2.182689
    17  C    2.720049   3.484323   1.533517   2.164016   2.537635
    18  H    3.031943   3.840149   2.183314   2.508483   3.498478
    19  H    2.542238   3.756944   2.189311   3.093187   2.812745
    20  H    3.748071   4.332400   2.183316   2.508520   2.788518
                   11         12         13         14         15
    11  H    0.000000
    12  H    1.765503   0.000000
    13  C    2.160322   2.168331   0.000000
    14  H    3.085962   2.534603   1.096204   0.000000
    15  H    2.489612   2.507608   1.095556   1.766767   0.000000
    16  H    2.533964   3.091603   1.095819   1.766266   1.767320
    17  C    3.484354   2.720173   3.145072   2.850515   4.118535
    18  H    4.332427   3.748174   4.112911   3.804773   5.136744
    19  H    3.757051   2.542398   3.584293   3.247319   4.384592
    20  H    3.840135   3.032129   2.822950   2.203151   3.786842
                   16         17         18         19         20
    16  H    0.000000
    17  C    3.571611   0.000000
    18  H    4.362213   1.095221   0.000000
    19  H    4.254597   1.094891   1.765759   0.000000
    20  H    3.212244   1.095214   1.767055   1.765781   0.000000
 Stoichiometry    C6H14
 Framework group  C1[X(C6H14)]
 Deg. of freedom    54
 Full point group                 C1      NOp   1
 Largest Abelian subgroup         C1      NOp   1
 Largest concise Abelian subgroup C1      NOp   1
                         Standard orientation:                         
 ---------------------------------------------------------------------
 Center     Atomic      Atomic             Coordinates (Angstroms)
 Number     Number       Type             X           Y           Z
 ---------------------------------------------------------------------
      1          6           0       -2.531559   -0.223926   -0.368539
      2          1           0       -2.465624   -0.441027   -1.440606
      3          1           0       -2.721151    0.850625   -0.263311
      4          1           0       -3.408883   -0.751695    0.021333
      5          6           0       -1.262996   -0.645170    0.369354
      6          1           0       -1.373849   -0.442825    1.451735
      7          1           0       -1.138394   -1.742289    0.279970
      8          6           0       -0.000023    0.064384   -0.168961
      9          1           0       -0.000107   -0.014618   -1.283874
     10          6           0        1.262950   -0.645285    0.369255
     11          1           0        1.138340   -1.742380    0.279689
     12          1           0        1.373761   -0.443152    1.451689
     13          6           0        2.531573   -0.223909   -0.368493
     14          1           0        2.722736    0.850094   -0.260618
     15          1           0        3.408441   -0.753930    0.019351
     16          1           0        2.464588   -0.438151   -1.441075
     17          6           0        0.000050    1.550081    0.211012
     18          1           0       -0.883474    2.060898   -0.186430
     19          1           0        0.000059    1.690567    1.296853
     20          1           0        0.883581    2.060832   -0.186479
 ---------------------------------------------------------------------
 Rotational constants (GHZ):      6.2716807      1.8700381      1.6213479
 Leave Link  202 at Fri Sep 18 13:23:17 2015, MaxMem=  402653184 cpu:       0.0
 (Enter /share/apps/g09/l301.exe)
 Standard basis: 6-31G(d) (6D, 7F)
 Ernie: Thresh=  0.10000D-02 Tol=  0.10000D-05 Strict=F.
 There are   118 symmetry adapted basis functions of A   symmetry.
 Integral buffers will be    131072 words long.
 Raffenetti 2 integral format.
 Two-electron integral symmetry is turned on.
   118 basis functions,   224 primitive gaussians,   118 cartesian basis functions
    25 alpha electrons       25 beta electrons
       nuclear repulsion energy       256.0264434230 Hartrees.
 IExCor=  402 DFT=T Ex+Corr=B3LYP ExCW=0 ScaHFX=  0.200000
 ScaDFX=  0.800000  0.720000  1.000000  0.810000 ScalE2=  1.000000  1.000000
 IRadAn=      5 IRanWt=     -1 IRanGd=            0 ICorTp=0
 NAtoms=   20 NActive=   20 NUniq=   20 SFac= 7.50D-01 NAtFMM=   80 NAOKFM=F Big=F
 Leave Link  301 at Fri Sep 18 13:23:18 2015, MaxMem=  402653184 cpu:       0.1
 (Enter /share/apps/g09/l302.exe)
 NPDir=0 NMtPBC=     1 NCelOv=     1 NCel=       1 NClECP=     1 NCelD=      1
         NCelK=      1 NCelE2=     1 NClLst=     1 CellRange=     0.0.
 One-electron integrals computed using PRISM.
 NBasis=   118 RedAO= T  NBF=   118
 NBsUse=   118 1.00D-06 NBFU=   118
 Precomputing XC quadrature grid using
 IXCGrd= 2 IRadAn=           5 IRanWt=          -1 IRanGd=           0 AccXCQ= 1.00D-10.
 NRdTot=    1649 NPtTot=      440028 NUsed=      451844 NTot=      451876
 NSgBfM=   118   118   118   118   118 NAtAll=    20    20.
 Leave Link  302 at Fri Sep 18 13:23:19 2015, MaxMem=  402653184 cpu:       1.6
 (Enter /share/apps/g09/l303.exe)
 DipDrv:  MaxL=1.
 Leave Link  303 at Fri Sep 18 13:23:19 2015, MaxMem=  402653184 cpu:       0.1
 (Enter /share/apps/g09/l401.exe)
 Harris functional with IExCor=  402 diagonalized for initial guess.
 ExpMin= 1.61D-01 ExpMax= 3.05D+03 ExpMxC= 4.57D+02 IAcc=3 IRadAn=         5 AccDes= 0.00D+00
 HarFok:  IExCor=  402 AccDes= 0.00D+00 IRadAn=         5 IDoV= 1
 ScaDFX=  1.000000  1.000000  1.000000  1.000000
 FoFCou: FMM=F IPFlag=           0 FMFlag=      100000 FMFlg1=           0
         NFxFlg=           0 DoJE=T BraDBF=F KetDBF=T FulRan=T
         Omega=  0.000000  0.000000  1.000000  0.000000  0.000000 ICntrl=     500 IOpCl=  0
         NMat0=    1 NMatS0=    1 NMatT0=    0 NMatD0=    1 NMtDS0=    0 NMtDT0=    0
         I1Cent=           4 NGrid=           0.
 Petite list used in FoFCou.
 Harris En= -237.177453691937    
 Initial guess orbital symmetries:
       Occupied  (A) (A) (A) (A) (A) (A) (A) (A) (A) (A) (A) (A)
                 (A) (A) (A) (A) (A) (A) (A) (A) (A) (A) (A) (A)
                 (A)
       Virtual   (A) (A) (A) (A) (A) (A) (A) (A) (A) (A) (A) (A)
                 (A) (A) (A) (A) (A) (A) (A) (A) (A) (A) (A) (A)
                 (A) (A) (A) (A) (A) (A) (A) (A) (A) (A) (A) (A)
                 (A) (A) (A) (A) (A) (A) (A) (A) (A) (A) (A) (A)
                 (A) (A) (A) (A) (A) (A) (A) (A) (A) (A) (A) (A)
                 (A) (A) (A) (A) (A) (A) (A) (A) (A) (A) (A) (A)
                 (A) (A) (A) (A) (A) (A) (A) (A) (A) (A) (A) (A)
                 (A) (A) (A) (A) (A) (A) (A) (A) (A)
 The electronic state of the initial guess is 1-A.
 Leave Link  401 at Fri Sep 18 13:23:26 2015, MaxMem=  402653184 cpu:       9.9
 (Enter /share/apps/g09/l502.exe)
 Closed shell SCF:
 Requested convergence on RMS density matrix=1.00D-08 within 128 cycles.
 Requested convergence on MAX density matrix=1.00D-06.
 Requested convergence on             energy=1.00D-06.
 No special actions if energy rises.
 Using DIIS extrapolation, IDIIS=  1040.
 Integral symmetry usage will be decided dynamically.
       451651 words used for storage of precomputed grid.
 Keep R1 ints in memory in canonical form, NReq=26105706.
 IEnd=      513195 IEndB=      513195 NGot=   402653184 MDV=   377519913
 LenX=   377519913 LenY=   377505548
 Symmetry not used in FoFDir.
 MinBra= 0 MaxBra= 2 Meth= 1.
 IRaf=       0 NMat=   1 IRICut=       1 DoRegI=T DoRafI=F ISym2E= 0 JSym2E=0.
 Integral accuracy reduced to 1.0D-05 until final iterations.

 Cycle   1  Pass 0  IDiag  1:
 E= -236.790504070273    
 DIIS: error= 5.07D-02 at cycle   1 NSaved=   1.
 NSaved= 1 IEnMin= 1 EnMin= -236.790504070273     IErMin= 1 ErrMin= 5.07D-02
 ErrMax= 5.07D-02 EMaxC= 1.00D-01 BMatC= 2.58D-01 BMatP= 2.58D-01
 IDIUse=3 WtCom= 4.93D-01 WtEn= 5.07D-01
 Coeff-Com:  0.100D+01
 Coeff-En:   0.100D+01
 Coeff:      0.100D+01
 Gap=     0.351 Goal=   None    Shift=    0.000
 GapD=    0.351 DampG=1.000 DampE=0.500 DampFc=0.5000 IDamp=-1.
 Damping current iteration by 5.00D-01
 RMSDP=1.02D-02 MaxDP=1.45D-01              OVMax= 1.89D-01

 Cycle   2  Pass 0  IDiag  1:
 E= -236.918349981125     Delta-E=       -0.127845910852 Rises=F Damp=T
 DIIS: error= 9.90D-03 at cycle   2 NSaved=   2.
 NSaved= 2 IEnMin= 2 EnMin= -236.918349981125     IErMin= 2 ErrMin= 9.90D-03
 ErrMax= 9.90D-03 EMaxC= 1.00D-01 BMatC= 1.00D-02 BMatP= 2.58D-01
 IDIUse=3 WtCom= 9.01D-01 WtEn= 9.90D-02
 Coeff-Com:  0.869D-01 0.913D+00
 Coeff-En:   0.143D+00 0.857D+00
 Coeff:      0.924D-01 0.908D+00
 Gap=     0.391 Goal=   None    Shift=    0.000
 RMSDP=1.63D-03 MaxDP=2.41D-02 DE=-1.28D-01 OVMax= 1.04D-01

 Cycle   3  Pass 0  IDiag  1:
 E= -237.080802666938     Delta-E=       -0.162452685814 Rises=F Damp=F
 DIIS: error= 2.78D-03 at cycle   3 NSaved=   3.
 NSaved= 3 IEnMin= 3 EnMin= -237.080802666938     IErMin= 3 ErrMin= 2.78D-03
 ErrMax= 2.78D-03 EMaxC= 1.00D-01 BMatC= 9.76D-04 BMatP= 1.00D-02
 IDIUse=3 WtCom= 9.72D-01 WtEn= 2.78D-02
 Coeff-Com:  0.924D-02 0.181D+00 0.810D+00
 Coeff-En:   0.000D+00 0.000D+00 0.100D+01
 Coeff:      0.898D-02 0.176D+00 0.815D+00
 Gap=     0.383 Goal=   None    Shift=    0.000
 RMSDP=4.94D-04 MaxDP=1.14D-02 DE=-1.62D-01 OVMax= 9.83D-03

 Cycle   4  Pass 0  IDiag  1:
 E= -237.081334098594     Delta-E=       -0.000531431656 Rises=F Damp=F
 DIIS: error= 1.76D-03 at cycle   4 NSaved=   4.
 NSaved= 4 IEnMin= 4 EnMin= -237.081334098594     IErMin= 4 ErrMin= 1.76D-03
 ErrMax= 1.76D-03 EMaxC= 1.00D-01 BMatC= 4.58D-04 BMatP= 9.76D-04
 IDIUse=3 WtCom= 9.82D-01 WtEn= 1.76D-02
 Coeff-Com:  0.707D-03 0.307D-01 0.409D+00 0.560D+00
 Coeff-En:   0.000D+00 0.000D+00 0.301D+00 0.699D+00
 Coeff:      0.695D-03 0.302D-01 0.407D+00 0.562D+00
 Gap=     0.385 Goal=   None    Shift=    0.000
 RMSDP=2.04D-04 MaxDP=4.49D-03 DE=-5.31D-04 OVMax= 4.82D-03

 Cycle   5  Pass 0  IDiag  1:
 E= -237.081767633415     Delta-E=       -0.000433534821 Rises=F Damp=F
 DIIS: error= 3.66D-04 at cycle   5 NSaved=   5.
 NSaved= 5 IEnMin= 5 EnMin= -237.081767633415     IErMin= 5 ErrMin= 3.66D-04
 ErrMax= 3.66D-04 EMaxC= 1.00D-01 BMatC= 1.83D-05 BMatP= 4.58D-04
 IDIUse=3 WtCom= 9.96D-01 WtEn= 3.66D-03
 Coeff-Com:  0.258D-03-0.172D-02 0.106D+00 0.232D+00 0.664D+00
 Coeff-En:   0.000D+00 0.000D+00 0.000D+00 0.000D+00 0.100D+01
 Coeff:      0.257D-03-0.171D-02 0.105D+00 0.231D+00 0.665D+00
 Gap=     0.384 Goal=   None    Shift=    0.000
 RMSDP=3.58D-05 MaxDP=8.52D-04 DE=-4.34D-04 OVMax= 8.09D-04

 Cycle   6  Pass 0  IDiag  1:
 E= -237.081784900241     Delta-E=       -0.000017266826 Rises=F Damp=F
 DIIS: error= 2.46D-05 at cycle   6 NSaved=   6.
 NSaved= 6 IEnMin= 6 EnMin= -237.081784900241     IErMin= 6 ErrMin= 2.46D-05
 ErrMax= 2.46D-05 EMaxC= 1.00D-01 BMatC= 1.13D-07 BMatP= 1.83D-05
 IDIUse=1 WtCom= 1.00D+00 WtEn= 0.00D+00
 Coeff-Com:  0.175D-03-0.102D-02 0.215D-01 0.515D-01 0.176D+00 0.752D+00
 Coeff:      0.175D-03-0.102D-02 0.215D-01 0.515D-01 0.176D+00 0.752D+00
 Gap=     0.384 Goal=   None    Shift=    0.000
 RMSDP=5.26D-06 MaxDP=6.10D-05 DE=-1.73D-05 OVMax= 9.85D-05

 Initial convergence to 1.0D-05 achieved.  Increase integral accuracy.
 Cycle   7  Pass 1  IDiag  1:
 E= -237.081778181174     Delta-E=        0.000006719067 Rises=F Damp=F
 DIIS: error= 4.57D-06 at cycle   1 NSaved=   1.
 NSaved= 1 IEnMin= 1 EnMin= -237.081778181174     IErMin= 1 ErrMin= 4.57D-06
 ErrMax= 4.57D-06 EMaxC= 1.00D-01 BMatC= 3.47D-09 BMatP= 3.47D-09
 IDIUse=1 WtCom= 1.00D+00 WtEn= 0.00D+00
 Coeff-Com:  0.100D+01
 Coeff:      0.100D+01
 Gap=     0.384 Goal=   None    Shift=    0.000
 RMSDP=5.26D-06 MaxDP=6.10D-05 DE= 6.72D-06 OVMax= 2.29D-05

 Cycle   8  Pass 1  IDiag  1:
 E= -237.081778183682     Delta-E=       -0.000000002508 Rises=F Damp=F
 DIIS: error= 3.19D-06 at cycle   2 NSaved=   2.
 NSaved= 2 IEnMin= 2 EnMin= -237.081778183682     IErMin= 2 ErrMin= 3.19D-06
 ErrMax= 3.19D-06 EMaxC= 1.00D-01 BMatC= 1.61D-09 BMatP= 3.47D-09
 IDIUse=1 WtCom= 1.00D+00 WtEn= 0.00D+00
 Coeff-Com:  0.393D+00 0.607D+00
 Coeff:      0.393D+00 0.607D+00
 Gap=     0.384 Goal=   None    Shift=    0.000
 RMSDP=4.82D-07 MaxDP=6.64D-06 DE=-2.51D-09 OVMax= 9.82D-06

 Cycle   9  Pass 1  IDiag  1:
 E= -237.081778185309     Delta-E=       -0.000000001627 Rises=F Damp=F
 DIIS: error= 8.86D-07 at cycle   3 NSaved=   3.
 NSaved= 3 IEnMin= 3 EnMin= -237.081778185309     IErMin= 3 ErrMin= 8.86D-07
 ErrMax= 8.86D-07 EMaxC= 1.00D-01 BMatC= 1.29D-10 BMatP= 1.61D-09
 IDIUse=1 WtCom= 1.00D+00 WtEn= 0.00D+00
 Coeff-Com:  0.909D-01 0.254D+00 0.655D+00
 Coeff:      0.909D-01 0.254D+00 0.655D+00
 Gap=     0.384 Goal=   None    Shift=    0.000
 RMSDP=1.09D-07 MaxDP=1.93D-06 DE=-1.63D-09 OVMax= 2.46D-06

 Cycle  10  Pass 1  IDiag  1:
 E= -237.081778185429     Delta-E=       -0.000000000120 Rises=F Damp=F
 DIIS: error= 1.84D-07 at cycle   4 NSaved=   4.
 NSaved= 4 IEnMin= 4 EnMin= -237.081778185429     IErMin= 4 ErrMin= 1.84D-07
 ErrMax= 1.84D-07 EMaxC= 1.00D-01 BMatC= 6.86D-12 BMatP= 1.29D-10
 IDIUse=1 WtCom= 1.00D+00 WtEn= 0.00D+00
 Coeff-Com: -0.652D-02 0.314D-01 0.227D+00 0.749D+00
 Coeff:     -0.652D-02 0.314D-01 0.227D+00 0.749D+00
 Gap=     0.384 Goal=   None    Shift=    0.000
 RMSDP=2.92D-08 MaxDP=4.21D-07 DE=-1.20D-10 OVMax= 6.51D-07

 Cycle  11  Pass 1  IDiag  1:
 E= -237.081778185436     Delta-E=       -0.000000000007 Rises=F Damp=F
 DIIS: error= 3.43D-08 at cycle   5 NSaved=   5.
 NSaved= 5 IEnMin= 5 EnMin= -237.081778185436     IErMin= 5 ErrMin= 3.43D-08
 ErrMax= 3.43D-08 EMaxC= 1.00D-01 BMatC= 2.26D-13 BMatP= 6.86D-12
 IDIUse=1 WtCom= 1.00D+00 WtEn= 0.00D+00
 Coeff-Com: -0.446D-02 0.714D-02 0.742D-01 0.294D+00 0.629D+00
 Coeff:     -0.446D-02 0.714D-02 0.742D-01 0.294D+00 0.629D+00
 Gap=     0.384 Goal=   None    Shift=    0.000
 RMSDP=5.16D-09 MaxDP=1.12D-07 DE=-6.93D-12 OVMax= 1.08D-07

 SCF Done:  E(RB3LYP) =  -237.081778185     A.U. after   11 cycles
             Convg  =    0.5164D-08             -V/T =  2.0105
 KE= 2.346121098184D+02 PE=-1.058967270732D+03 EE= 3.312469393055D+02
 Leave Link  502 at Fri Sep 18 13:24:35 2015, MaxMem=  402653184 cpu:      98.3
 (Enter /share/apps/g09/l601.exe)
 Copying SCF densities to generalized density rwf, IOpCl= 0 IROHF=0.

 **********************************************************************

            Population analysis using the SCF density.

 **********************************************************************

 Orbital symmetries:
       Occupied  (A) (A) (A) (A) (A) (A) (A) (A) (A) (A) (A) (A)
                 (A) (A) (A) (A) (A) (A) (A) (A) (A) (A) (A) (A)
                 (A)
       Virtual   (A) (A) (A) (A) (A) (A) (A) (A) (A) (A) (A) (A)
                 (A) (A) (A) (A) (A) (A) (A) (A) (A) (A) (A) (A)
                 (A) (A) (A) (A) (A) (A) (A) (A) (A) (A) (A) (A)
                 (A) (A) (A) (A) (A) (A) (A) (A) (A) (A) (A) (A)
                 (A) (A) (A) (A) (A) (A) (A) (A) (A) (A) (A) (A)
                 (A) (A) (A) (A) (A) (A) (A) (A) (A) (A) (A) (A)
                 (A) (A) (A) (A) (A) (A) (A) (A) (A) (A) (A) (A)
                 (A) (A) (A) (A) (A) (A) (A) (A) (A)
 The electronic state is 1-A.
 Alpha  occ. eigenvalues --  -10.18256 -10.17529 -10.17528 -10.16845 -10.16845
 Alpha  occ. eigenvalues --  -10.16766  -0.80772  -0.74467  -0.70393  -0.64494
 Alpha  occ. eigenvalues --   -0.59156  -0.55044  -0.45919  -0.45128  -0.42539
 Alpha  occ. eigenvalues --   -0.41449  -0.39143  -0.38105  -0.36991  -0.35767
 Alpha  occ. eigenvalues --   -0.34850  -0.32976  -0.31708  -0.30907  -0.29788
 Alpha virt. eigenvalues --    0.08654   0.11851   0.11932   0.12589   0.14863
 Alpha virt. eigenvalues --    0.15359   0.16073   0.17157   0.17172   0.18555
 Alpha virt. eigenvalues --    0.18623   0.20696   0.23366   0.23622   0.24839
 Alpha virt. eigenvalues --    0.25513   0.25701   0.28700   0.29535   0.49684
 Alpha virt. eigenvalues --    0.50931   0.51776   0.53290   0.53461   0.58537
 Alpha virt. eigenvalues --    0.59130   0.63287   0.64127   0.65259   0.68911
 Alpha virt. eigenvalues --    0.69529   0.74431   0.78940   0.80571   0.83992
 Alpha virt. eigenvalues --    0.84521   0.87445   0.89212   0.89940   0.90562
 Alpha virt. eigenvalues --    0.91035   0.91861   0.92593   0.95572   0.95842
 Alpha virt. eigenvalues --    0.97169   0.98031   0.99163   0.99578   1.00929
 Alpha virt. eigenvalues --    1.03650   1.09127   1.28430   1.34611   1.41087
 Alpha virt. eigenvalues --    1.42989   1.54186   1.58334   1.64278   1.70018
 Alpha virt. eigenvalues --    1.74100   1.75954   1.80626   1.88041   1.89583
 Alpha virt. eigenvalues --    1.95893   1.96216   1.98495   1.99833   2.01538
 Alpha virt. eigenvalues --    2.02467   2.09869   2.12939   2.20589   2.28332
 Alpha virt. eigenvalues --    2.28358   2.30872   2.32737   2.34443   2.36049
 Alpha virt. eigenvalues --    2.44236   2.51451   2.52315   2.58351   2.68441
 Alpha virt. eigenvalues --    2.77134   2.80756   4.12394   4.21842   4.27220
 Alpha virt. eigenvalues --    4.41764   4.42712   4.60445
          Condensed to atoms (all electrons):
              1          2          3          4          5          6
     1  C    5.077348   0.378345   0.377264   0.370075   0.368235  -0.038542
     2  H    0.378345   0.579170  -0.033470  -0.031578  -0.035306   0.005257
     3  H    0.377264  -0.033470   0.575851  -0.030730  -0.034822  -0.004499
     4  H    0.370075  -0.031578  -0.030730   0.581595  -0.027769  -0.002565
     5  C    0.368235  -0.035306  -0.034822  -0.027769   4.998713   0.368577
     6  H   -0.038542   0.005257  -0.004499  -0.002565   0.368577   0.616980
     7  H   -0.038648  -0.004353   0.005223  -0.003126   0.371869  -0.039008
     8  C   -0.041795  -0.005327  -0.005446   0.004290   0.387988  -0.035556
     9  H   -0.005350   0.005987  -0.000216   0.000060  -0.048076   0.005953
    10  C    0.004188   0.000083   0.000072  -0.000143  -0.043017  -0.002796
    11  H    0.000160   0.000005   0.000003  -0.000011  -0.006648  -0.000201
    12  H   -0.000050   0.000003   0.000002   0.000006  -0.002796   0.002966
    13  C   -0.000165  -0.000003   0.000002   0.000002   0.004190  -0.000050
    14  H    0.000002   0.000000  -0.000001   0.000000   0.000071   0.000002
    15  H    0.000002   0.000000   0.000000   0.000000  -0.000143   0.000006
    16  H   -0.000003  -0.000004   0.000000   0.000000   0.000084   0.000003
    17  C   -0.004638  -0.000276   0.001785   0.000076  -0.048978  -0.008782
    18  H    0.001559   0.000271   0.004484  -0.000141  -0.005133  -0.000001
    19  H   -0.000096   0.000048   0.000211  -0.000017  -0.006109   0.005915
    20  H    0.000051  -0.000021  -0.000161   0.000002   0.005073   0.000026
              7          8          9         10         11         12
     1  C   -0.038648  -0.041795  -0.005350   0.004188   0.000160  -0.000050
     2  H   -0.004353  -0.005327   0.005987   0.000083   0.000005   0.000003
     3  H    0.005223  -0.005446  -0.000216   0.000072   0.000003   0.000002
     4  H   -0.003126   0.004290   0.000060  -0.000143  -0.000011   0.000006
     5  C    0.371869   0.387988  -0.048076  -0.043017  -0.006648  -0.002796
     6  H   -0.039008  -0.035556   0.005953  -0.002796  -0.000201   0.002966
     7  H    0.616161  -0.038193  -0.001910  -0.006646   0.007667  -0.000201
     8  C   -0.038193   4.863636   0.376528   0.387994  -0.038183  -0.035554
     9  H   -0.001910   0.376528   0.647031  -0.048057  -0.001911   0.005952
    10  C   -0.006646   0.387994  -0.048057   4.998724   0.371877   0.368565
    11  H    0.007667  -0.038183  -0.001911   0.371877   0.616156  -0.039010
    12  H   -0.000201  -0.035554   0.005952   0.368565  -0.039010   0.616982
    13  C    0.000160  -0.041805  -0.005367   0.368219  -0.038654  -0.038534
    14  H    0.000003  -0.005424  -0.000215  -0.034786   0.005222  -0.004527
    15  H   -0.000011   0.004289   0.000060  -0.027768  -0.003154  -0.002537
    16  H    0.000005  -0.005345   0.006004  -0.035332  -0.004323   0.005256
    17  C    0.005577   0.375471  -0.048529  -0.048999   0.005577  -0.008781
    18  H   -0.000018  -0.030837  -0.003111   0.005075  -0.000179   0.000026
    19  H    0.000028  -0.033135   0.005650  -0.006104   0.000028   0.005913
    20  H   -0.000179  -0.030834  -0.003110  -0.005141  -0.000017  -0.000001
             13         14         15         16         17         18
     1  C   -0.000165   0.000002   0.000002  -0.000003  -0.004638   0.001559
     2  H   -0.000003   0.000000   0.000000  -0.000004  -0.000276   0.000271
     3  H    0.000002  -0.000001   0.000000   0.000000   0.001785   0.004484
     4  H    0.000002   0.000000   0.000000   0.000000   0.000076  -0.000141
     5  C    0.004190   0.000071  -0.000143   0.000084  -0.048978  -0.005133
     6  H   -0.000050   0.000002   0.000006   0.000003  -0.008782  -0.000001
     7  H    0.000160   0.000003  -0.000011   0.000005   0.005577  -0.000018
     8  C   -0.041805  -0.005424   0.004289  -0.005345   0.375471  -0.030837
     9  H   -0.005367  -0.000215   0.000060   0.006004  -0.048529  -0.003111
    10  C    0.368219  -0.034786  -0.027768  -0.035332  -0.048999   0.005075
    11  H   -0.038654   0.005222  -0.003154  -0.004323   0.005577  -0.000179
    12  H   -0.038534  -0.004527  -0.002537   0.005256  -0.008781   0.000026
    13  C    5.077332   0.377266   0.370078   0.378346  -0.004611   0.000050
    14  H    0.377266   0.575842  -0.030728  -0.033472   0.001782  -0.000160
    15  H    0.370078  -0.030728   0.581594  -0.031583   0.000076   0.000002
    16  H    0.378346  -0.033472  -0.031583   0.579181  -0.000279  -0.000021
    17  C   -0.004611   0.001782   0.000076  -0.000279   5.124836   0.370038
    18  H    0.000050  -0.000160   0.000002  -0.000021   0.370038   0.576087
    19  H   -0.000098   0.000212  -0.000017   0.000048   0.372054  -0.032150
    20  H    0.001574   0.004458  -0.000141   0.000274   0.370048  -0.029349
             19         20
     1  C   -0.000096   0.000051
     2  H    0.000048  -0.000021
     3  H    0.000211  -0.000161
     4  H   -0.000017   0.000002
     5  C   -0.006109   0.005073
     6  H    0.005915   0.000026
     7  H    0.000028  -0.000179
     8  C   -0.033135  -0.030834
     9  H    0.005650  -0.003110
    10  C   -0.006104  -0.005141
    11  H    0.000028  -0.000017
    12  H    0.005913  -0.000001
    13  C   -0.000098   0.001574
    14  H    0.000212   0.004458
    15  H   -0.000017  -0.000141
    16  H    0.000048   0.000274
    17  C    0.372054   0.370048
    18  H   -0.032150  -0.029349
    19  H    0.580324  -0.032147
    20  H   -0.032147   0.576075
 Mulliken atomic charges:
              1
     1  C   -0.447942
     2  H    0.141168
     3  H    0.144448
     4  H    0.139974
     5  C   -0.246005
     6  H    0.126315
     7  H    0.125598
     8  C   -0.052760
     9  H    0.112626
    10  C   -0.246011
    11  H    0.125597
    12  H    0.126319
    13  C   -0.447932
    14  H    0.144454
    15  H    0.139975
    16  H    0.141160
    17  C   -0.453449
    18  H    0.143507
    19  H    0.139442
    20  H    0.143518
 Sum of Mulliken atomic charges =   0.00000
 Mulliken charges with hydrogens summed into heavy atoms:
              1
     1  C   -0.022353
     5  C    0.005907
     8  C    0.059866
    10  C    0.005905
    13  C   -0.022344
    17  C   -0.026982
 Sum of Mulliken charges with hydrogens summed into heavy atoms =   0.00000
 Electronic spatial extent (au):  <R**2>=            845.6735
 Charge=              0.0000 electrons
 Dipole moment (field-independent basis, Debye):
    X=              0.0001    Y=             -0.0182    Z=              0.0101  Tot=              0.0208
 Quadrupole moment (field-independent basis, Debye-Ang):
   XX=            -42.2531   YY=            -41.5717   ZZ=            -41.2547
   XY=             -0.0001   XZ=              0.0000   YZ=              0.1398
 Traceless Quadrupole moment (field-independent basis, Debye-Ang):
   XX=             -0.5599   YY=              0.1215   ZZ=              0.4385
   XY=             -0.0001   XZ=              0.0000   YZ=              0.1398
 Octapole moment (field-independent basis, Debye-Ang**2):
  XXX=              0.0009  YYY=             -1.0342  ZZZ=             -0.0406  XYY=              0.0025
  XXY=             -0.1670  XXZ=              1.3867  XZZ=             -0.0014  YZZ=              0.0064
  YYZ=             -0.4116  XYZ=              0.0004
 Hexadecapole moment (field-independent basis, Debye-Ang**3):
 XXXX=           -820.6867 YYYY=           -245.0212 ZZZZ=           -113.8954 XXXY=             -0.0050
 XXXZ=             -0.0115 YYYX=             -0.0059 YYYZ=             -0.9110 ZZZX=             -0.0013
 ZZZY=              2.3768 XXYY=           -172.1084 XXZZ=           -156.2253 YYZZ=            -61.6409
 XXYZ=             -1.3704 YYXZ=              0.0060 ZZXY=              0.0061
 N-N= 2.560264434230D+02 E-N=-1.058967274262D+03  KE= 2.346121098184D+02
 No NMR shielding tensors so no spin-rotation constants.
 Leave Link  601 at Fri Sep 18 13:24:35 2015, MaxMem=  402653184 cpu:       0.4
 (Enter /share/apps/g09/l701.exe)
 Compute integral first derivatives.
 ... and contract with generalized density number  0.
 Leave Link  701 at Fri Sep 18 13:24:35 2015, MaxMem=  402653184 cpu:       0.5
 (Enter /share/apps/g09/l702.exe)
 L702 exits ... SP integral derivatives will be done elsewhere.
 Leave Link  702 at Fri Sep 18 13:24:35 2015, MaxMem=  402653184 cpu:       0.0
 (Enter /share/apps/g09/l703.exe)
 Compute integral first derivatives, UseDBF=F ICtDFT=           0.
 Integral derivatives from FoFDir, PRISM(SPDF).
 Calling FoFJK, ICntrl=      2127 FMM=F ISym2X=0 I1Cent= 0 IOpClX= 0 NMat=1 NMatS=1 NMatT=0.
 FoFCou: FMM=F IPFlag=           0 FMFlag=      100000 FMFlg1=         800
         NFxFlg=           0 DoJE=F BraDBF=F KetDBF=F FulRan=T
         Omega=  0.000000  0.000000  1.000000  0.000000  0.000000 ICntrl=    2127 IOpCl=  0
         NMat0=    1 NMatS0=    1 NMatT0=    0 NMatD0=    1 NMtDS0=    0 NMtDT0=    0
         I1Cent=           0 NGrid=           0.
 Symmetry not used in FoFCou.
 Leave Link  703 at Fri Sep 18 13:24:54 2015, MaxMem=  402653184 cpu:      26.4
 (Enter /share/apps/g09/l716.exe)
 Dipole        = 4.81245556D-05-7.16020947D-03 3.97199269D-03
 ***** Axes restored to original set *****
 -------------------------------------------------------------------
 Center     Atomic                   Forces (Hartrees/Bohr)
 Number     Number              X              Y              Z
 -------------------------------------------------------------------
      1        6          -0.005381530    0.000288701    0.001980205
      2        1           0.000890512   -0.000651007   -0.000608506
      3        1          -0.000894945   -0.000553698    0.000001233
      4        1          -0.000990826    0.000136937   -0.000116589
      5        6           0.000338194   -0.002624642   -0.001959367
      6        1           0.001381566   -0.000074527   -0.004311088
      7        1          -0.000193051    0.005663612   -0.000528113
      8        6           0.000004083   -0.007385037    0.004719037
      9        1           0.000005945   -0.000489083    0.009931509
     10        6          -0.000341976   -0.002620829   -0.001969248
     11        1           0.000185879    0.005660451   -0.000538319
     12        1          -0.001378173   -0.000079572   -0.004315768
     13        6           0.005379235    0.000285378    0.001986946
     14        1           0.000891425   -0.000546409   -0.000008071
     15        1           0.000989898    0.000145786   -0.000105932
     16        1          -0.000892922   -0.000656255   -0.000606127
     17        6          -0.000003250    0.002660538   -0.005174920
     18        1           0.000815841    0.001263141   -0.000210941
     19        1           0.000002861   -0.001686109    0.002046953
     20        1          -0.000808769    0.001262626   -0.000212893
 -------------------------------------------------------------------
 Cartesian Forces:  Max     0.009931509 RMS     0.002652069
 Leave Link  716 at Fri Sep 18 13:24:54 2015, MaxMem=  402653184 cpu:       0.1
 (Enter /share/apps/g09/l103.exe)

 GradGradGradGradGradGradGradGradGradGradGradGradGradGradGradGradGradGrad
 Berny optimization.
 Internal  Forces:  Max     0.009872110 RMS     0.002360745
 Search for a local minimum.
 Step number   1 out of a maximum of  110
 All quantities printed in internal units (Hartrees-Bohrs-Radians)
 RMS Force = .23607D-02 SwitMx=.10000D-02 MixMth= 1
 Mixed Optimization -- RFO/linear search
 Second derivative matrix not updated -- first step.
     Eigenvalues ---    0.00230   0.00230   0.00323   0.00411   0.00411
     Eigenvalues ---    0.03466   0.03467   0.03593   0.04651   0.04765
     Eigenvalues ---    0.04779   0.04779   0.05397   0.05450   0.05450
     Eigenvalues ---    0.05450   0.05498   0.05498   0.08338   0.08338
     Eigenvalues ---    0.12212   0.12212   0.16000   0.16000   0.16000
     Eigenvalues ---    0.16000   0.16000   0.16000   0.16000   0.16000
     Eigenvalues ---    0.16000   0.16413   0.16707   0.21872   0.21872
     Eigenvalues ---    0.28042   0.28043   0.29101   0.29717   0.29719
     Eigenvalues ---    0.31797   0.32836   0.32837   0.32951   0.32952
     Eigenvalues ---    0.34105   0.34105   0.34149   0.34149   0.34178
     Eigenvalues ---    0.34179   0.34216   0.34217   0.342531000.00000
     Eigenvalues --- 1000.000001000.000001000.000001000.000001000.00000
     Eigenvalues --- 1000.000001000.000001000.000001000.000001000.00000
     Eigenvalues --- 1000.000001000.000001000.000001000.000001000.00000
     Eigenvalues --- 1000.000001000.000001000.000001000.000001000.00000
     Eigenvalues --- 1000.000001000.000001000.000001000.000001000.00000
     Eigenvalues --- 1000.000001000.000001000.000001000.000001000.00000
     Eigenvalues --- 1000.000001000.000001000.000001000.000001000.00000
     Eigenvalues --- 1000.000001000.000001000.000001000.000001000.00000
     Eigenvalues --- 1000.000001000.000001000.000001000.000001000.00000
 RFO step:  Lambda=-2.77876069D-03 EMin= 2.30000000D-03
 Linear search not attempted -- first point.
 Iteration  1 RMS(Cart)=  0.04467057 RMS(Int)=  0.00061549
 Iteration  2 RMS(Cart)=  0.00098757 RMS(Int)=  0.00012543
 Iteration  3 RMS(Cart)=  0.00000066 RMS(Int)=  0.00012543
 Variable       Old X    -DE/DX   Delta X   Delta X   Delta X     New X
                                 (Linear)    (Quad)   (Total)
    R1        2.07079   0.00078   0.00000   0.00226   0.00226   2.07305
    R2        2.07154  -0.00039   0.00000  -0.00113  -0.00113   2.07041
    R3        2.07030   0.00069   0.00000   0.00199   0.00199   2.07229
    R4        2.88527   0.00448   0.00000   0.01492   0.01492   2.90020
    R5        2.09136  -0.00437   0.00000  -0.01315  -0.01315   2.07821
    R6        2.09341  -0.00559   0.00000  -0.01688  -0.01688   2.07653
    R7        2.92044   0.00103   0.00000   0.00364   0.00364   2.92407
    R8        2.11216  -0.00987   0.00000  -0.03078  -0.03078   2.08138
    R9        2.92047   0.00101   0.00000   0.00356   0.00356   2.92404
   R10        2.89793   0.00251   0.00000   0.00855   0.00855   2.90647
   R11        2.09339  -0.00558   0.00000  -0.01686  -0.01686   2.07653
   R12        2.09137  -0.00437   0.00000  -0.01316  -0.01316   2.07821
   R13        2.88531   0.00447   0.00000   0.01489   0.01489   2.90019
   R14        2.07152  -0.00038   0.00000  -0.00111  -0.00111   2.07042
   R15        2.07030   0.00068   0.00000   0.00199   0.00199   2.07229
   R16        2.07080   0.00078   0.00000   0.00225   0.00225   2.07305
   R17        2.06967   0.00001   0.00000   0.00002   0.00002   2.06969
   R18        2.06904   0.00181   0.00000   0.00525   0.00525   2.07430
   R19        2.06965   0.00001   0.00000   0.00004   0.00004   2.06969
    A1        1.87394   0.00033   0.00000   0.00244   0.00247   1.87641
    A2        1.87643   0.00018   0.00000  -0.00076  -0.00075   1.87569
    A3        1.94783  -0.00176   0.00000  -0.01156  -0.01154   1.93629
    A4        1.87502  -0.00105   0.00000  -0.00505  -0.00508   1.86994
    A5        1.94739   0.00125   0.00000   0.00867   0.00866   1.95605
    A6        1.93955   0.00102   0.00000   0.00604   0.00602   1.94557
    A7        1.91665  -0.00234   0.00000  -0.00582  -0.00571   1.91094
    A8        1.90466  -0.00254   0.00000  -0.00776  -0.00767   1.89700
    A9        1.96490   0.00907   0.00000   0.04322   0.04326   2.00817
   A10        1.84550   0.00185   0.00000   0.00077   0.00053   1.84602
   A11        1.91621  -0.00342   0.00000  -0.01760  -0.01775   1.89846
   A12        1.91207  -0.00310   0.00000  -0.01559  -0.01571   1.89636
   A13        1.89119  -0.00108   0.00000  -0.02022  -0.01999   1.87120
   A14        1.91316   0.00218   0.00000   0.02563   0.02527   1.93843
   A15        1.93750  -0.00011   0.00000   0.01240   0.01182   1.94932
   A16        1.89124  -0.00108   0.00000  -0.02032  -0.02009   1.87116
   A17        1.89192   0.00013   0.00000  -0.01199  -0.01187   1.88005
   A18        1.93751  -0.00013   0.00000   0.01230   0.01171   1.94922
   A19        1.91207  -0.00310   0.00000  -0.01555  -0.01567   1.89640
   A20        1.91620  -0.00341   0.00000  -0.01763  -0.01779   1.89842
   A21        1.96493   0.00906   0.00000   0.04316   0.04320   2.00813
   A22        1.84546   0.00185   0.00000   0.00081   0.00057   1.84603
   A23        1.90468  -0.00254   0.00000  -0.00767  -0.00758   1.89710
   A24        1.91664  -0.00234   0.00000  -0.00588  -0.00577   1.91087
   A25        1.94737   0.00125   0.00000   0.00868   0.00867   1.95604
   A26        1.93955   0.00102   0.00000   0.00602   0.00600   1.94555
   A27        1.94786  -0.00177   0.00000  -0.01159  -0.01157   1.93629
   A28        1.87505  -0.00105   0.00000  -0.00506  -0.00510   1.86995
   A29        1.87395   0.00033   0.00000   0.00245   0.00248   1.87642
   A30        1.87638   0.00018   0.00000  -0.00071  -0.00070   1.87568
   A31        1.94111   0.00194   0.00000   0.01237   0.01234   1.95345
   A32        1.94985  -0.00332   0.00000  -0.02124  -0.02117   1.92868
   A33        1.94112   0.00194   0.00000   0.01230   0.01228   1.95340
   A34        1.87554   0.00064   0.00000   0.00317   0.00323   1.87877
   A35        1.87714  -0.00188   0.00000  -0.00997  -0.01007   1.86707
   A36        1.87558   0.00064   0.00000   0.00313   0.00319   1.87878
    D1       -3.11021   0.00029   0.00000  -0.00323  -0.00319  -3.11340
    D2       -1.09474  -0.00022   0.00000  -0.00992  -0.00996  -1.10469
    D3        1.03218   0.00009   0.00000  -0.00640  -0.00642   1.02577
    D4        1.07643   0.00023   0.00000  -0.00436  -0.00430   1.07213
    D5        3.09190  -0.00029   0.00000  -0.01105  -0.01106   3.08084
    D6       -1.06436   0.00002   0.00000  -0.00753  -0.00752  -1.07189
    D7       -1.01585   0.00003   0.00000  -0.00789  -0.00786  -1.02371
    D8        0.99962  -0.00049   0.00000  -0.01458  -0.01462   0.98500
    D9        3.12654  -0.00018   0.00000  -0.01105  -0.01108   3.11546
   D10       -0.84208  -0.00019   0.00000  -0.03933  -0.03936  -0.88144
   D11       -2.90284   0.00050   0.00000  -0.01765  -0.01753  -2.92037
   D12        1.23359  -0.00077   0.00000  -0.05925  -0.05937   1.17422
   D13       -2.98312  -0.00100   0.00000  -0.04909  -0.04900  -3.03212
   D14        1.23930  -0.00031   0.00000  -0.02741  -0.02716   1.21214
   D15       -0.90745  -0.00158   0.00000  -0.06901  -0.06900  -0.97646
   D16        1.28064   0.00048   0.00000  -0.03115  -0.03128   1.24936
   D17       -0.78012   0.00117   0.00000  -0.00947  -0.00944  -0.78957
   D18       -2.92688  -0.00010   0.00000  -0.05107  -0.05128  -2.97816
   D19        0.78033  -0.00117   0.00000   0.00998   0.00996   0.79029
   D20       -1.23905   0.00031   0.00000   0.02788   0.02763  -1.21143
   D21        2.90309  -0.00049   0.00000   0.01826   0.01814   2.92123
   D22       -1.28040  -0.00048   0.00000   0.03160   0.03173  -1.24867
   D23        2.98340   0.00100   0.00000   0.04950   0.04940   3.03280
   D24        0.84237   0.00019   0.00000   0.03988   0.03991   0.88228
   D25        2.92708   0.00010   0.00000   0.05165   0.05186   2.97894
   D26        0.90770   0.00158   0.00000   0.06954   0.06953   0.97723
   D27       -1.23334   0.00078   0.00000   0.05992   0.06004  -1.17330
   D28       -1.02937   0.00142   0.00000   0.02692   0.02698  -1.00239
   D29        1.06629   0.00131   0.00000   0.02500   0.02501   1.09130
   D30       -3.12117   0.00119   0.00000   0.02299   0.02296  -3.09821
   D31        1.04586   0.00011   0.00000   0.00204   0.00209   1.04795
   D32        3.14152   0.00000   0.00000   0.00012   0.00012  -3.14154
   D33       -1.04594  -0.00011   0.00000  -0.00189  -0.00193  -1.04787
   D34        3.12115  -0.00120   0.00000  -0.02301  -0.02298   3.09818
   D35       -1.06637  -0.00131   0.00000  -0.02493  -0.02494  -1.09131
   D36        1.02935  -0.00142   0.00000  -0.02694  -0.02700   1.00236
   D37        1.06723  -0.00003   0.00000   0.00651   0.00651   1.07374
   D38       -3.12365   0.00017   0.00000   0.01001   0.01004  -3.11362
   D39       -1.02933  -0.00010   0.00000   0.00538   0.00540  -1.02393
   D40       -3.08899   0.00028   0.00000   0.01010   0.01011  -3.07888
   D41       -0.99670   0.00048   0.00000   0.01360   0.01365  -0.98305
   D42        1.09762   0.00022   0.00000   0.00898   0.00901   1.10663
   D43       -1.07356  -0.00023   0.00000   0.00348   0.00342  -1.07014
   D44        1.01874  -0.00003   0.00000   0.00698   0.00695   1.02569
   D45        3.11306  -0.00030   0.00000   0.00235   0.00231   3.11537
         Item               Value     Threshold  Converged?
 Maximum Force            0.009872     0.000015     NO 
 RMS     Force            0.002361     0.000010     NO 
 Maximum Displacement     0.130934     0.000060     NO 
 RMS     Displacement     0.044757     0.000040     NO 
 Predicted change in Energy=-1.464638D-03
 GradGradGradGradGradGradGradGradGradGradGradGradGradGradGradGradGradGrad

 Leave Link  103 at Fri Sep 18 13:24:55 2015, MaxMem=  402653184 cpu:       0.1
 (Enter /share/apps/g09/l202.exe)
                          Input orientation:                          
 ---------------------------------------------------------------------
 Center     Atomic      Atomic             Coordinates (Angstroms)
 Number     Number       Type             X           Y           Z
 ---------------------------------------------------------------------
      1          6           0       -2.579379   -0.221730   -0.338164
      2          1           0       -2.531302   -0.413933   -1.417134
      3          1           0       -2.790439    0.844755   -0.202390
      4          1           0       -3.440356   -0.774377    0.056610
      5          6           0       -1.275790   -0.644207    0.352870
      6          1           0       -1.360572   -0.468380    1.435149
      7          1           0       -1.150804   -1.729606    0.235544
      8          6           0       -0.000058    0.059996   -0.167619
      9          1           0       -0.000187   -0.034700   -1.264963
     10          6           0        1.275600   -0.644549    0.352531
     11          1           0        1.150627   -1.729881    0.234568
     12          1           0        1.360278   -0.469334    1.434917
     13          6           0        2.579247   -0.221532   -0.338060
     14          1           0        2.791207    0.844475   -0.199928
     15          1           0        3.439929   -0.775774    0.055118
     16          1           0        2.530598   -0.411244   -1.417448
     17          6           0        0.000280    1.559894    0.172785
     18          1           0       -0.879936    2.071164   -0.231388
     19          1           0        0.000470    1.707317    1.260511
     20          1           0        0.880606    2.070772   -0.231651
 ---------------------------------------------------------------------
                    Distance matrix (angstroms):
                    1          2          3          4          5
     1  C    0.000000
     2  H    1.097010   0.000000
     3  H    1.095614   1.768347   0.000000
     4  H    1.096607   1.768678   1.763820   0.000000
     5  C    1.534718   2.182258   2.195331   2.188621   0.000000
     6  H    2.165864   3.083682   2.539759   2.513863   1.099741
     7  H    2.154915   2.523512   3.083427   2.487274   1.098854
     8  C    2.600260   2.862357   2.898841   3.547126   1.547353
     9  H    2.747029   2.563887   3.112556   3.758781   2.148497
    10  C    3.939124   4.204450   4.365619   4.727014   2.551389
    11  H    4.063925   4.244578   4.727756   4.692737   2.660861
    12  H    4.327358   4.825108   4.651457   5.003886   2.854866
    13  C    5.158626   5.226770   5.476212   6.057807   3.939206
    14  H    5.477143   5.603060   5.581646   6.443514   4.366030
    15  H    6.057533   6.160686   6.442818   6.880285   4.726940
    16  H    5.226149   5.061900   5.600654   6.160925   4.204388
    17  C    3.176459   3.582282   2.905218   4.159362   2.553202
    18  H    2.856023   3.210718   2.270449   3.838723   2.805583
    19  H    3.596193   4.251983   3.266996   4.409928   2.825299
    20  H    4.151916   4.384090   3.870470   5.181571   3.516079
                    6          7          8          9         10
     6  H    0.000000
     7  H    1.753210   0.000000
     8  C    2.167728   2.165510   0.000000
     9  H    3.054395   2.539319   1.101421   0.000000
    10  C    2.855258   2.660539   1.547334   2.148448   0.000000
    11  H    3.055961   2.301431   2.165523   2.539016   1.098854
    12  H    2.720850   3.054884   2.167679   3.054361   1.099742
    13  C    4.327514   4.064061   2.600216   2.747278   1.534717
    14  H    4.651272   4.728105   2.899588   3.114342   2.195328
    15  H    5.004376   4.692246   3.547060   3.758484   2.188606
    16  H    4.825119   4.245371   2.861531   2.563183   2.182264
    17  C    2.749432   3.485648   1.538040   2.147055   2.553099
    18  H    3.075328   3.838913   2.196144   2.505374   3.516019
    19  H    2.572274   3.766753   2.180189   3.068003   2.825182
    20  H    3.774704   4.334486   2.196108   2.505303   2.805397
                   11         12         13         14         15
    11  H    0.000000
    12  H    1.753217   0.000000
    13  C    2.154988   2.165812   0.000000
    14  H    3.083439   2.538970   1.095618   0.000000
    15  H    2.486649   2.514497   1.096607   1.763830   0.000000
    16  H    2.524337   3.083668   1.097012   1.768361   1.768677
    17  C    3.485647   2.749607   3.175769   2.905170   4.159372
    18  H    4.334541   3.774820   4.151359   3.870794   5.181542
    19  H    3.766928   2.572413   3.595272   3.265821   4.410055
    20  H    3.838650   3.075658   2.855059   2.270508   3.838645
                   16         17         18         19         20
    16  H    0.000000
    17  C    3.580046   0.000000
    18  H    4.381875   1.095232   0.000000
    19  H    4.249860   1.097671   1.770102   0.000000
    20  H    3.207645   1.095234   1.760542   1.770109   0.000000
 Stoichiometry    C6H14
 Framework group  C1[X(C6H14)]
 Deg. of freedom    54
 Full point group                 C1      NOp   1
 Largest Abelian subgroup         C1      NOp   1
 Largest concise Abelian subgroup C1      NOp   1
                         Standard orientation:                         
 ---------------------------------------------------------------------
 Center     Atomic      Atomic             Coordinates (Angstroms)
 Number     Number       Type             X           Y           Z
 ---------------------------------------------------------------------
      1          6           0       -2.579382   -0.216932   -0.341012
      2          1           0       -2.531312   -0.390620   -1.423117
      3          1           0       -2.790377    0.847082   -0.186982
      4          1           0       -3.440393   -0.776212    0.044232
      5          6           0       -1.275820   -0.651268    0.342684
      6          1           0       -1.360595   -0.494009    1.427817
      7          1           0       -1.150899   -1.734505    0.206775
      8          6           0       -0.000045    0.061674   -0.165658
      9          1           0       -0.000175   -0.014203   -1.264463
     10          6           0        1.275569   -0.651757    0.342345
     11          1           0        1.150532   -1.734901    0.205800
     12          1           0        1.360255   -0.495123    1.427576
     13          6           0        2.579245   -0.217047   -0.340892
     14          1           0        2.791268    0.846423   -0.184512
     15          1           0        3.439891   -0.777998    0.042733
     16          1           0        2.530587   -0.388231   -1.423373
     17          6           0        0.000383    1.555518    0.200399
     18          1           0       -0.879801    2.073693   -0.194955
     19          1           0        0.000578    1.684280    1.290492
     20          1           0        0.880741    2.073199   -0.195220
 ---------------------------------------------------------------------
 Rotational constants (GHZ):      6.3507850      1.8225908      1.5763691
 Leave Link  202 at Fri Sep 18 13:24:55 2015, MaxMem=  402653184 cpu:       0.0
 (Enter /share/apps/g09/l301.exe)
 Standard basis: 6-31G(d) (6D, 7F)
 Ernie: Thresh=  0.10000D-02 Tol=  0.10000D-05 Strict=F.
 There are   118 symmetry adapted basis functions of A   symmetry.
 Integral buffers will be    131072 words long.
 Raffenetti 2 integral format.
 Two-electron integral symmetry is turned on.
   118 basis functions,   224 primitive gaussians,   118 cartesian basis functions
    25 alpha electrons       25 beta electrons
       nuclear repulsion energy       254.7338535935 Hartrees.
 IExCor=  402 DFT=T Ex+Corr=B3LYP ExCW=0 ScaHFX=  0.200000
 ScaDFX=  0.800000  0.720000  1.000000  0.810000 ScalE2=  1.000000  1.000000
 IRadAn=      5 IRanWt=     -1 IRanGd=            0 ICorTp=0
 NAtoms=   20 NActive=   20 NUniq=   20 SFac= 7.50D-01 NAtFMM=   80 NAOKFM=F Big=F
 Leave Link  301 at Fri Sep 18 13:24:55 2015, MaxMem=  402653184 cpu:       0.1
 (Enter /share/apps/g09/l302.exe)
 NPDir=0 NMtPBC=     1 NCelOv=     1 NCel=       1 NClECP=     1 NCelD=      1
         NCelK=      1 NCelE2=     1 NClLst=     1 CellRange=     0.0.
 One-electron integrals computed using PRISM.
 NBasis=   118 RedAO= T  NBF=   118
 NBsUse=   118 1.00D-06 NBFU=   118
 Precomputing XC quadrature grid using
 IXCGrd= 2 IRadAn=           5 IRanWt=          -1 IRanGd=           0 AccXCQ= 1.00D-10.
 NRdTot=    1649 NPtTot=      441236 NUsed=      453052 NTot=      453084
 NSgBfM=   118   118   118   118   118 NAtAll=    20    20.
 Leave Link  302 at Fri Sep 18 13:24:56 2015, MaxMem=  402653184 cpu:       1.6
 (Enter /share/apps/g09/l303.exe)
 DipDrv:  MaxL=1.
 Leave Link  303 at Fri Sep 18 13:24:56 2015, MaxMem=  402653184 cpu:       0.1
 (Enter /share/apps/g09/l401.exe)
 Initial guess read from the read-write file.
 B after Tr=     0.000000    0.000000    0.000000
         Rot=    1.000000    0.000000    0.000000    0.000000 Ang=   0.00 deg.
 Guess basis will be translated and rotated to current coordinates.
 Initial guess orbital symmetries:
       Occupied  (A) (A) (A) (A) (A) (A) (A) (A) (A) (A) (A) (A)
                 (A) (A) (A) (A) (A) (A) (A) (A) (A) (A) (A) (A)
                 (A)
       Virtual   (A) (A) (A) (A) (A) (A) (A) (A) (A) (A) (A) (A)
                 (A) (A) (A) (A) (A) (A) (A) (A) (A) (A) (A) (A)
                 (A) (A) (A) (A) (A) (A) (A) (A) (A) (A) (A) (A)
                 (A) (A) (A) (A) (A) (A) (A) (A) (A) (A) (A) (A)
                 (A) (A) (A) (A) (A) (A) (A) (A) (A) (A) (A) (A)
                 (A) (A) (A) (A) (A) (A) (A) (A) (A) (A) (A) (A)
                 (A) (A) (A) (A) (A) (A) (A) (A) (A) (A) (A) (A)
                 (A) (A) (A) (A) (A) (A) (A) (A) (A)
 The electronic state of the initial guess is 1-A.
 Generating alternative initial guess.
 Harris functional with IExCor=  402 diagonalized for initial guess.
 ExpMin= 1.61D-01 ExpMax= 3.05D+03 ExpMxC= 4.57D+02 IAcc=3 IRadAn=         5 AccDes= 0.00D+00
 HarFok:  IExCor=  402 AccDes= 0.00D+00 IRadAn=         5 IDoV= 1
 ScaDFX=  1.000000  1.000000  1.000000  1.000000
 FoFCou: FMM=F IPFlag=           0 FMFlag=      100000 FMFlg1=           0
         NFxFlg=           0 DoJE=T BraDBF=F KetDBF=T FulRan=T
         Omega=  0.000000  0.000000  1.000000  0.000000  0.000000 ICntrl=     500 IOpCl=  0
         NMat0=    1 NMatS0=    1 NMatT0=    0 NMatD0=    1 NMtDS0=    0 NMtDT0=    0
         I1Cent=           4 NGrid=           0.
 Petite list used in FoFCou.
 Harris En= -237.180060854973    
 Leave Link  401 at Fri Sep 18 13:25:03 2015, MaxMem=  402653184 cpu:      10.3
 (Enter /share/apps/g09/l502.exe)
 Closed shell SCF:
 Requested convergence on RMS density matrix=1.00D-08 within 128 cycles.
 Requested convergence on MAX density matrix=1.00D-06.
 Requested convergence on             energy=1.00D-06.
 No special actions if energy rises.
 Using DIIS extrapolation, IDIIS=  1040.
 Integral symmetry usage will be decided dynamically.
       452859 words used for storage of precomputed grid.
 Keep R1 ints in memory in canonical form, NReq=26106914.
 IEnd=      514403 IEndB=      514403 NGot=   402653184 MDV=   377518705
 LenX=   377518705 LenY=   377504340
 Symmetry not used in FoFDir.
 MinBra= 0 MaxBra= 2 Meth= 1.
 IRaf=       0 NMat=   1 IRICut=       1 DoRegI=T DoRafI=F ISym2E= 0 JSym2E=0.
 Integral accuracy reduced to 1.0D-05 until final iterations.

 Cycle   1  Pass 0  IDiag  1:
 E= -237.080501201441    
 DIIS: error= 3.70D-03 at cycle   1 NSaved=   1.
 NSaved= 1 IEnMin= 1 EnMin= -237.080501201441     IErMin= 1 ErrMin= 3.70D-03
 ErrMax= 3.70D-03 EMaxC= 1.00D-01 BMatC= 1.24D-03 BMatP= 1.24D-03
 IDIUse=3 WtCom= 9.63D-01 WtEn= 3.70D-02
 Coeff-Com:  0.100D+01
 Coeff-En:   0.100D+01
 Coeff:      0.100D+01
 Gap=     0.391 Goal=   None    Shift=    0.000
 GapD=    0.391 DampG=1.000 DampE=1.000 DampFc=1.0000 IDamp=-1.
 RMSDP=4.46D-04 MaxDP=5.50D-03              OVMax= 1.43D-02

 Cycle   2  Pass 0  IDiag  1:
 E= -237.082944489794     Delta-E=       -0.002443288354 Rises=F Damp=F
 DIIS: error= 4.14D-04 at cycle   2 NSaved=   2.
 NSaved= 2 IEnMin= 2 EnMin= -237.082944489794     IErMin= 2 ErrMin= 4.14D-04
 ErrMax= 4.14D-04 EMaxC= 1.00D-01 BMatC= 3.39D-05 BMatP= 1.24D-03
 IDIUse=3 WtCom= 9.96D-01 WtEn= 4.14D-03
 Coeff-Com: -0.319D-01 0.103D+01
 Coeff-En:   0.000D+00 0.100D+01
 Coeff:     -0.318D-01 0.103D+01
 Gap=     0.389 Goal=   None    Shift=    0.000
 RMSDP=1.18D-04 MaxDP=1.62D-03 DE=-2.44D-03 OVMax= 2.78D-03

 Cycle   3  Pass 0  IDiag  1:
 E= -237.082954210246     Delta-E=       -0.000009720451 Rises=F Damp=F
 DIIS: error= 4.27D-04 at cycle   3 NSaved=   3.
 NSaved= 3 IEnMin= 3 EnMin= -237.082954210246     IErMin= 2 ErrMin= 4.14D-04
 ErrMax= 4.27D-04 EMaxC= 1.00D-01 BMatC= 3.86D-05 BMatP= 3.39D-05
 IDIUse=3 WtCom= 3.26D-01 WtEn= 6.74D-01
 Coeff-Com: -0.419D-01 0.553D+00 0.489D+00
 Coeff-En:   0.000D+00 0.424D+00 0.576D+00
 Coeff:     -0.137D-01 0.466D+00 0.547D+00
 Gap=     0.390 Goal=   None    Shift=    0.000
 RMSDP=6.88D-05 MaxDP=1.08D-03 DE=-9.72D-06 OVMax= 1.39D-03

 Cycle   4  Pass 0  IDiag  1:
 E= -237.082990422829     Delta-E=       -0.000036212583 Rises=F Damp=F
 DIIS: error= 1.24D-04 at cycle   4 NSaved=   4.
 NSaved= 4 IEnMin= 4 EnMin= -237.082990422829     IErMin= 4 ErrMin= 1.24D-04
 ErrMax= 1.24D-04 EMaxC= 1.00D-01 BMatC= 2.75D-06 BMatP= 3.39D-05
 IDIUse=3 WtCom= 9.99D-01 WtEn= 1.24D-03
 Coeff-Com: -0.127D-01 0.112D+00 0.256D+00 0.645D+00
 Coeff-En:   0.000D+00 0.000D+00 0.000D+00 0.100D+01
 Coeff:     -0.127D-01 0.111D+00 0.256D+00 0.645D+00
 Gap=     0.390 Goal=   None    Shift=    0.000
 RMSDP=1.40D-05 MaxDP=2.38D-04 DE=-3.62D-05 OVMax= 2.92D-04

 Cycle   5  Pass 0  IDiag  1:
 E= -237.082993116624     Delta-E=       -0.000002693795 Rises=F Damp=F
 DIIS: error= 1.06D-05 at cycle   5 NSaved=   5.
 NSaved= 5 IEnMin= 5 EnMin= -237.082993116624     IErMin= 5 ErrMin= 1.06D-05
 ErrMax= 1.06D-05 EMaxC= 1.00D-01 BMatC= 1.58D-08 BMatP= 2.75D-06
 IDIUse=1 WtCom= 1.00D+00 WtEn= 0.00D+00
 Coeff-Com: -0.198D-02 0.109D-01 0.547D-01 0.183D+00 0.753D+00
 Coeff:     -0.198D-02 0.109D-01 0.547D-01 0.183D+00 0.753D+00
 Gap=     0.390 Goal=   None    Shift=    0.000
 RMSDP=1.86D-06 MaxDP=3.27D-05 DE=-2.69D-06 OVMax= 4.43D-05

 Initial convergence to 1.0D-05 achieved.  Increase integral accuracy.
 Cycle   6  Pass 1  IDiag  1:
 E= -237.082996581159     Delta-E=       -0.000003464535 Rises=F Damp=F
 DIIS: error= 4.76D-06 at cycle   1 NSaved=   1.
 NSaved= 1 IEnMin= 1 EnMin= -237.082996581159     IErMin= 1 ErrMin= 4.76D-06
 ErrMax= 4.76D-06 EMaxC= 1.00D-01 BMatC= 4.85D-09 BMatP= 4.85D-09
 IDIUse=1 WtCom= 1.00D+00 WtEn= 0.00D+00
 Coeff-Com:  0.100D+01
 Coeff:      0.100D+01
 Gap=     0.390 Goal=   None    Shift=    0.000
 RMSDP=1.86D-06 MaxDP=3.27D-05 DE=-3.46D-06 OVMax= 3.02D-05

 Cycle   7  Pass 1  IDiag  1:
 E= -237.082996580167     Delta-E=        0.000000000991 Rises=F Damp=F
 DIIS: error= 5.96D-06 at cycle   2 NSaved=   2.
 NSaved= 2 IEnMin= 1 EnMin= -237.082996581159     IErMin= 1 ErrMin= 4.76D-06
 ErrMax= 5.96D-06 EMaxC= 1.00D-01 BMatC= 6.38D-09 BMatP= 4.85D-09
 IDIUse=1 WtCom= 1.00D+00 WtEn= 0.00D+00
 Coeff-Com:  0.536D+00 0.464D+00
 Coeff:      0.536D+00 0.464D+00
 Gap=     0.390 Goal=   None    Shift=    0.000
 RMSDP=6.69D-07 MaxDP=1.72D-05 DE= 9.91D-10 OVMax= 1.90D-05

 Cycle   8  Pass 1  IDiag  1:
 E= -237.082996586381     Delta-E=       -0.000000006213 Rises=F Damp=F
 DIIS: error= 4.72D-07 at cycle   3 NSaved=   3.
 NSaved= 3 IEnMin= 3 EnMin= -237.082996586381     IErMin= 3 ErrMin= 4.72D-07
 ErrMax= 4.72D-07 EMaxC= 1.00D-01 BMatC= 3.18D-11 BMatP= 4.85D-09
 IDIUse=1 WtCom= 1.00D+00 WtEn= 0.00D+00
 Coeff-Com:  0.455D-02 0.607D-01 0.935D+00
 Coeff:      0.455D-02 0.607D-01 0.935D+00
 Gap=     0.390 Goal=   None    Shift=    0.000
 RMSDP=7.80D-08 MaxDP=1.62D-06 DE=-6.21D-09 OVMax= 1.44D-06

 Cycle   9  Pass 1  IDiag  1:
 E= -237.082996586408     Delta-E=       -0.000000000028 Rises=F Damp=F
 DIIS: error= 1.59D-07 at cycle   4 NSaved=   4.
 NSaved= 4 IEnMin= 4 EnMin= -237.082996586408     IErMin= 4 ErrMin= 1.59D-07
 ErrMax= 1.59D-07 EMaxC= 1.00D-01 BMatC= 4.96D-12 BMatP= 3.18D-11
 IDIUse=1 WtCom= 1.00D+00 WtEn= 0.00D+00
 Coeff-Com: -0.100D-01 0.165D-01 0.416D+00 0.578D+00
 Coeff:     -0.100D-01 0.165D-01 0.416D+00 0.578D+00
 Gap=     0.390 Goal=   None    Shift=    0.000
 RMSDP=2.73D-08 MaxDP=3.73D-07 DE=-2.78D-11 OVMax= 5.44D-07

 Cycle  10  Pass 1  IDiag  1:
 E= -237.082996586413     Delta-E=       -0.000000000005 Rises=F Damp=F
 DIIS: error= 4.09D-08 at cycle   5 NSaved=   5.
 NSaved= 5 IEnMin= 5 EnMin= -237.082996586413     IErMin= 5 ErrMin= 4.09D-08
 ErrMax= 4.09D-08 EMaxC= 1.00D-01 BMatC= 3.53D-13 BMatP= 4.96D-12
 IDIUse=1 WtCom= 1.00D+00 WtEn= 0.00D+00
 Coeff-Com: -0.520D-02 0.373D-02 0.136D+00 0.271D+00 0.595D+00
 Coeff:     -0.520D-02 0.373D-02 0.136D+00 0.271D+00 0.595D+00
 Gap=     0.390 Goal=   None    Shift=    0.000
 RMSDP=5.29D-09 MaxDP=8.74D-08 DE=-4.55D-12 OVMax= 1.20D-07

 SCF Done:  E(RB3LYP) =  -237.082996586     A.U. after   10 cycles
             Convg  =    0.5289D-08             -V/T =  2.0106
 KE= 2.346060101305D+02 PE=-1.056372004396D+03 EE= 3.299491440857D+02
 Leave Link  502 at Fri Sep 18 13:26:07 2015, MaxMem=  402653184 cpu:      93.9
 (Enter /share/apps/g09/l701.exe)
 Compute integral first derivatives.
 ... and contract with generalized density number  0.
 Leave Link  701 at Fri Sep 18 13:26:07 2015, MaxMem=  402653184 cpu:       0.4
 (Enter /share/apps/g09/l702.exe)
 L702 exits ... SP integral derivatives will be done elsewhere.
 Leave Link  702 at Fri Sep 18 13:26:07 2015, MaxMem=  402653184 cpu:       0.1
 (Enter /share/apps/g09/l703.exe)
 Compute integral first derivatives, UseDBF=F ICtDFT=           0.
 Integral derivatives from FoFDir, PRISM(SPDF).
 Calling FoFJK, ICntrl=      2127 FMM=F ISym2X=0 I1Cent= 0 IOpClX= 0 NMat=1 NMatS=1 NMatT=0.
 FoFCou: FMM=F IPFlag=           0 FMFlag=      100000 FMFlg1=         800
         NFxFlg=           0 DoJE=F BraDBF=F KetDBF=F FulRan=T
         Omega=  0.000000  0.000000  1.000000  0.000000  0.000000 ICntrl=    2127 IOpCl=  0
         NMat0=    1 NMatS0=    1 NMatT0=    0 NMatD0=    1 NMtDS0=    0 NMtDT0=    0
         I1Cent=           0 NGrid=           0.
 Symmetry not used in FoFCou.
 Leave Link  703 at Fri Sep 18 13:26:24 2015, MaxMem=  402653184 cpu:      25.8
 (Enter /share/apps/g09/l716.exe)
 Dipole        = 2.91823301D-05-1.93554296D-02-5.38408188D-03
 ***** Axes restored to original set *****
 -------------------------------------------------------------------
 Center     Atomic                   Forces (Hartrees/Bohr)
 Number     Number              X              Y              Z
 -------------------------------------------------------------------
      1        6           0.000719849    0.000755979   -0.000260954
      2        1           0.000033771    0.000054666   -0.000236235
      3        1           0.000052638    0.000084284    0.000079260
      4        1           0.000942849   -0.000400116    0.000405099
      5        6           0.001414111    0.000151046    0.000992244
      6        1          -0.000159686    0.000031518    0.000473757
      7        1           0.000002449    0.000017272   -0.000524182
      8        6          -0.000000032   -0.000276888   -0.001313413
      9        1          -0.000001629   -0.000400222   -0.000841786
     10        6          -0.001410333    0.000156142    0.001001095
     11        1          -0.000003665    0.000020391   -0.000532464
     12        1           0.000161416    0.000022280    0.000477610
     13        6          -0.000715940    0.000751865   -0.000260336
     14        1          -0.000054824    0.000079087    0.000074296
     15        1          -0.000941384   -0.000395533    0.000407891
     16        1          -0.000030650    0.000050266   -0.000236485
     17        6          -0.000003942   -0.000289423   -0.000096518
     18        1          -0.000171774   -0.000310366   -0.000031609
     19        1           0.000000772    0.000206809    0.000454445
     20        1           0.000166004   -0.000309058   -0.000031715
 -------------------------------------------------------------------
 Cartesian Forces:  Max     0.001414111 RMS     0.000503769
 Leave Link  716 at Fri Sep 18 13:26:24 2015, MaxMem=  402653184 cpu:       0.0
 (Enter /share/apps/g09/l103.exe)

 GradGradGradGradGradGradGradGradGradGradGradGradGradGradGradGradGradGrad
 Berny optimization.
 Using GEDIIS/GDIIS optimizer.
 Internal  Forces:  Max     0.002482352 RMS     0.000586191
 Search for a local minimum.
 Step number   2 out of a maximum of  110
 All quantities printed in internal units (Hartrees-Bohrs-Radians)
 RMS Force = .58619D-03 SwitMx=.10000D-02 MixMth= 2
 Mixed Optimization -- En-DIIS/RFO-DIIS
 Update second derivatives using D2CorX and points    1    2
 DE= -1.22D-03 DEPred=-1.46D-03 R= 8.32D-01
 SS=  1.41D+00  RLast= 2.24D-01 DXNew= 5.0454D-01 6.7247D-01
 Trust test= 8.32D-01 RLast= 2.24D-01 DXMaxT set to 5.05D-01
 Use linear search instead of GDIIS.
[...]

 Largest change from initial coordinates is atom    3       0.011 Angstoms.
 Leave Link  103 at Fri Sep 18 13:35:41 2015, MaxMem=  402653184 cpu:       0.1
 (Enter /share/apps/g09/l202.exe)
                          Input orientation:                          
 ---------------------------------------------------------------------
 Center     Atomic      Atomic             Coordinates (Angstroms)
 Number     Number       Type             X           Y           Z
 ---------------------------------------------------------------------
      1          6           0       -2.585447   -0.193060   -0.282337
      2          1           0       -2.569507   -0.309441   -1.373418
      3          1           0       -2.798625    0.859019   -0.064069
      4          1           0       -3.426395   -0.782494    0.100845
      5          6           0       -1.264322   -0.657446    0.342021
      6          1           0       -1.305083   -0.515728    1.432506
      7          1           0       -1.162000   -1.739941    0.181905
      8          6           0       -0.000002    0.037166   -0.205743
      9          1           0       -0.000031   -0.091743   -1.300804
     10          6           0        1.264276   -0.657564    0.341972
     11          1           0        1.161841   -1.740050    0.181864
     12          1           0        1.305098   -0.515847    1.432454
     13          6           0        2.585423   -0.193316   -0.282445
     14          1           0        2.798729    0.858736   -0.064170
     15          1           0        3.426323   -0.782848    0.100688
     16          1           0        2.569417   -0.309678   -1.373527
     17          6           0        0.000068    1.544743    0.092657
     18          1           0       -0.880860    2.041414   -0.327314
     19          1           0        0.000120    1.725856    1.176157
     20          1           0        0.880998    2.041348   -0.327388
 ---------------------------------------------------------------------
                    Distance matrix (angstroms):
                    1          2          3          4          5
     1  C    0.000000
     2  H    1.097386   0.000000
     3  H    1.095425   1.769799   0.000000
     4  H    1.096108   1.769601   1.765178   0.000000
     5  C    1.533248   2.183426   2.195145   2.179074   0.000000
     6  H    2.164286   3.084563   2.521970   2.518819   1.100410
     7  H    2.152804   2.538984   3.081175   2.459829   1.099047
     8  C    2.596805   2.843581   2.920241   3.536383   1.543061
     9  H    2.780633   2.579704   3.203996   3.765863   2.148797
    10  C    3.927582   4.214457   4.355693   4.698526   2.528598
    11  H    4.080543   4.288181   4.743515   4.687791   2.661569
    12  H    4.263923   4.788328   4.579343   4.922530   2.794819
    13  C    5.170870   5.270390   5.490270   6.052768   3.927583
    14  H    5.490284   5.647718   5.597354   6.439956   4.355707
    15  H    6.052764   6.192502   6.439942   6.852718   4.698523
    16  H    5.270381   5.138924   5.647691   6.192503   4.214452
    17  C    3.137749   3.491431   2.885735   4.142070   2.551568
    18  H    2.810786   3.077723   2.268299   3.825902   2.806938
    19  H    3.534771   4.152800   3.181594   4.380539   2.823955
    20  H    4.124422   4.304227   3.873870   5.168278   3.511979
                    6          7          8          9         10
     6  H    0.000000
     7  H    1.755897   0.000000
     8  C    2.166285   2.158384   0.000000
     9  H    3.058416   2.503030   1.102622   0.000000
    10  C    2.794815   2.661574   1.543062   2.148800   0.000000
    11  H    3.024695   2.323841   2.158382   2.503032   1.099046
    12  H    2.610181   3.024707   2.166287   3.058419   1.100410
    13  C    4.263923   4.080545   2.596811   2.780637   1.533248
    14  H    4.579352   4.743527   2.920259   3.204018   2.195145
    15  H    4.922530   4.687786   3.536387   3.765861   2.179074
    16  H    4.788322   4.288181   2.843577   2.579699   2.183427
    17  C    2.782832   3.485329   1.536825   2.149376   2.551575
    18  H    3.133035   3.825832   2.192647   2.504776   3.511985
    19  H    2.606524   3.788246   2.182046   3.072296   2.823942
    20  H    3.796685   4.327975   2.192648   2.504761   2.806968
                   11         12         13         14         15
    11  H    0.000000
    12  H    1.755896   0.000000
    13  C    2.152802   2.164287   0.000000
    14  H    3.081172   2.521963   1.095425   0.000000
    15  H    2.459818   2.518827   1.096108   1.765178   0.000000
    16  H    2.538991   3.084564   1.097386   1.769799   1.769601
    17  C    3.485332   2.782838   3.137771   2.885775   4.142097
    18  H    4.327974   3.796680   4.124457   3.873931   5.168314
    19  H    3.788234   2.606508   3.534760   3.181591   4.380536
    20  H    3.825857   3.133074   2.810837   2.268379   3.825966
                   16         17         18         19         20
    16  H    0.000000
    17  C    3.491436   0.000000
    18  H    4.304255   1.095031   0.000000
    19  H    4.152779   1.098533   1.770912   0.000000
    20  H    3.077741   1.095030   1.761858   1.770912   0.000000
 Stoichiometry    C6H14
 Framework group  C1[X(C6H14)]
 Deg. of freedom    54
 Full point group                 C1      NOp   1
 Largest Abelian subgroup         C1      NOp   1
 Largest concise Abelian subgroup C1      NOp   1
                         Standard orientation:                         
 ---------------------------------------------------------------------
 Center     Atomic      Atomic             Coordinates (Angstroms)
 Number     Number       Type             X           Y           Z
 ---------------------------------------------------------------------
      1          6           0       -2.585432   -0.173073   -0.291851
      2          1           0       -2.569463   -0.210638   -1.388478
      3          1           0       -2.798667    0.860562    0.001553
      4          1           0       -3.426358   -0.788593    0.047903
      5          6           0       -1.264296   -0.681118    0.297504
      6          1           0       -1.305087   -0.618240    1.395359
      7          1           0       -1.161916   -1.749281    0.059911
      8          6           0        0.000000    0.051171   -0.198826
      9          1           0        0.000000    0.001396   -1.300324
     10          6           0        1.264302   -0.681109    0.297508
     11          1           0        1.161925   -1.749272    0.059918
     12          1           0        1.305094   -0.618227    1.395362
     13          6           0        2.585438   -0.173067   -0.291851
     14          1           0        2.798686    0.860561    0.001567
     15          1           0        3.426361   -0.788600    0.047886
     16          1           0        2.569461   -0.210616   -1.388478
     17          6           0       -0.000012    1.533367    0.207284
     18          1           0       -0.880957    2.058929   -0.175879
     19          1           0        0.000009    1.636043    1.301009
     20          1           0        0.880901    2.058954   -0.175915
 ---------------------------------------------------------------------
 Rotational constants (GHZ):      6.5158270      1.8329377      1.5774524
 Leave Link  202 at Fri Sep 18 13:35:41 2015, MaxMem=  402653184 cpu:       0.0
 (Enter /share/apps/g09/l601.exe)
 Copying SCF densities to generalized density rwf, IOpCl= 0 IROHF=0.

 **********************************************************************

            Population analysis using the SCF density.

 **********************************************************************

 Orbital symmetries:
       Occupied  (A) (A) (A) (A) (A) (A) (A) (A) (A) (A) (A) (A)
                 (A) (A) (A) (A) (A) (A) (A) (A) (A) (A) (A) (A)
                 (A)
       Virtual   (A) (A) (A) (A) (A) (A) (A) (A) (A) (A) (A) (A)
                 (A) (A) (A) (A) (A) (A) (A) (A) (A) (A) (A) (A)
                 (A) (A) (A) (A) (A) (A) (A) (A) (A) (A) (A) (A)
                 (A) (A) (A) (A) (A) (A) (A) (A) (A) (A) (A) (A)
                 (A) (A) (A) (A) (A) (A) (A) (A) (A) (A) (A) (A)
                 (A) (A) (A) (A) (A) (A) (A) (A) (A) (A) (A) (A)
                 (A) (A) (A) (A) (A) (A) (A) (A) (A) (A) (A) (A)
                 (A) (A) (A) (A) (A) (A) (A) (A) (A)
 The electronic state is 1-A.
 Alpha  occ. eigenvalues --  -10.18101 -10.17449 -10.17448 -10.16972 -10.16972
 Alpha  occ. eigenvalues --  -10.16735  -0.80683  -0.74380  -0.70349  -0.64780
 Alpha  occ. eigenvalues --   -0.59318  -0.54914  -0.46164  -0.44911  -0.42620
 Alpha  occ. eigenvalues --   -0.41145  -0.39181  -0.38430  -0.36955  -0.35838
 Alpha  occ. eigenvalues --   -0.34587  -0.33097  -0.31362  -0.30832  -0.30319
 Alpha virt. eigenvalues --    0.08559   0.11937   0.12221   0.12831   0.15264
 Alpha virt. eigenvalues --    0.15423   0.16435   0.17413   0.17511   0.18225
 Alpha virt. eigenvalues --    0.18607   0.20279   0.22663   0.23234   0.24607
 Alpha virt. eigenvalues --    0.25180   0.25407   0.28409   0.29255   0.49401
 Alpha virt. eigenvalues --    0.51220   0.51244   0.52955   0.53331   0.59006
 Alpha virt. eigenvalues --    0.59044   0.63021   0.64128   0.65367   0.68200
 Alpha virt. eigenvalues --    0.69842   0.74332   0.78895   0.80849   0.84714
 Alpha virt. eigenvalues --    0.84890   0.87268   0.89022   0.90166   0.90168
 Alpha virt. eigenvalues --    0.91014   0.91865   0.93331   0.95108   0.95256
 Alpha virt. eigenvalues --    0.97232   0.97647   0.99262   0.99701   1.01142
 Alpha virt. eigenvalues --    1.03636   1.07983   1.29251   1.34150   1.41050
 Alpha virt. eigenvalues --    1.43180   1.53769   1.57749   1.61347   1.68123
 Alpha virt. eigenvalues --    1.74238   1.74831   1.83532   1.88224   1.90289
 Alpha virt. eigenvalues --    1.95171   1.95955   1.98692   1.99980   2.01604
 Alpha virt. eigenvalues --    2.02519   2.09959   2.12495   2.20167   2.27968
 Alpha virt. eigenvalues --    2.28951   2.31125   2.31848   2.34526   2.35910
 Alpha virt. eigenvalues --    2.42969   2.51536   2.52731   2.59637   2.68556
 Alpha virt. eigenvalues --    2.77415   2.79623   4.11758   4.21444   4.27111
 Alpha virt. eigenvalues --    4.41020   4.42371   4.60030
          Condensed to atoms (all electrons):
              1          2          3          4          5          6
     1  C    5.075507   0.376675   0.377307   0.371242   0.368132  -0.039683
     2  H    0.376675   0.580871  -0.033041  -0.031417  -0.035966   0.005362
     3  H    0.377307  -0.033041   0.573624  -0.031380  -0.032650  -0.004693
     4  H    0.371242  -0.031417  -0.031380   0.579446  -0.027028  -0.002222
     5  C    0.368132  -0.035966  -0.032650  -0.027028   4.991311   0.368971
     6  H   -0.039683   0.005362  -0.004693  -0.002222   0.368971   0.618723
     7  H   -0.039305  -0.003827   0.005140  -0.003781   0.372030  -0.038700
     8  C   -0.038409  -0.004690  -0.005161   0.003946   0.393079  -0.037973
     9  H   -0.005024   0.005764  -0.000196  -0.000013  -0.047730   0.006607
    10  C    0.003988   0.000060   0.000031  -0.000120  -0.042180  -0.004378
    11  H    0.000088   0.000001   0.000003  -0.000007  -0.005492  -0.000326
    12  H   -0.000028   0.000007   0.000003   0.000004  -0.004378   0.004764
    13  C   -0.000135  -0.000001   0.000001   0.000001   0.003988  -0.000028
    14  H    0.000001   0.000000   0.000000   0.000000   0.000031   0.000003
    15  H    0.000001   0.000000   0.000000   0.000000  -0.000120   0.000004
    16  H   -0.000001  -0.000001   0.000000   0.000000   0.000061   0.000007
    17  C   -0.003922  -0.000557   0.002139   0.000115  -0.049992  -0.008081
    18  H    0.002224   0.000400   0.003190  -0.000099  -0.005531  -0.000064
    19  H   -0.000303   0.000076   0.000272  -0.000023  -0.005416   0.005670
    20  H    0.000067  -0.000029  -0.000116   0.000001   0.004898  -0.000033
              7          8          9         10         11         12
     1  C   -0.039305  -0.038409  -0.005024   0.003988   0.000088  -0.000028
     2  H   -0.003827  -0.004690   0.005764   0.000060   0.000001   0.000007
     3  H    0.005140  -0.005161  -0.000196   0.000031   0.000003   0.000003
     4  H   -0.003781   0.003946  -0.000013  -0.000120  -0.000007   0.000004
     5  C    0.372030   0.393079  -0.047730  -0.042180  -0.005492  -0.004378
     6  H   -0.038700  -0.037973   0.006607  -0.004378  -0.000326   0.004764
     7  H    0.615846  -0.038203  -0.003504  -0.005492   0.007216  -0.000326
     8  C   -0.038203   4.854364   0.373562   0.393079  -0.038204  -0.037973
     9  H   -0.003504   0.373562   0.651624  -0.047730  -0.003504   0.006607
    10  C   -0.005492   0.393079  -0.047730   4.991310   0.372030   0.368970
    11  H    0.007216  -0.038204  -0.003504   0.372030   0.615847  -0.038700
    12  H   -0.000326  -0.037973   0.006607   0.368970  -0.038700   0.618722
    13  C    0.000088  -0.038408  -0.005024   0.368132  -0.039305  -0.039683
    14  H    0.000003  -0.005161  -0.000196  -0.032650   0.005140  -0.004693
    15  H   -0.000007   0.003946  -0.000013  -0.027028  -0.003781  -0.002222
    16  H    0.000001  -0.004690   0.005764  -0.035966  -0.003826   0.005362
    17  C    0.005780   0.377507  -0.050106  -0.049991   0.005780  -0.008082
    18  H   -0.000007  -0.028970  -0.003240   0.004898  -0.000175  -0.000033
    19  H   -0.000015  -0.035582   0.006020  -0.005416  -0.000015   0.005671
    20  H   -0.000175  -0.028969  -0.003241  -0.005531  -0.000007  -0.000064
             13         14         15         16         17         18
     1  C   -0.000135   0.000001   0.000001  -0.000001  -0.003922   0.002224
     2  H   -0.000001   0.000000   0.000000  -0.000001  -0.000557   0.000400
     3  H    0.000001   0.000000   0.000000   0.000000   0.002139   0.003190
     4  H    0.000001   0.000000   0.000000   0.000000   0.000115  -0.000099
     5  C    0.003988   0.000031  -0.000120   0.000061  -0.049992  -0.005531
     6  H   -0.000028   0.000003   0.000004   0.000007  -0.008081  -0.000064
     7  H    0.000088   0.000003  -0.000007   0.000001   0.005780  -0.000007
     8  C   -0.038408  -0.005161   0.003946  -0.004690   0.377507  -0.028970
     9  H   -0.005024  -0.000196  -0.000013   0.005764  -0.050106  -0.003240
    10  C    0.368132  -0.032650  -0.027028  -0.035966  -0.049991   0.004898
    11  H   -0.039305   0.005140  -0.003781  -0.003826   0.005780  -0.000175
    12  H   -0.039683  -0.004693  -0.002222   0.005362  -0.008082  -0.000033
    13  C    5.075505   0.377307   0.371243   0.376675  -0.003921   0.000067
    14  H    0.377307   0.573624  -0.031380  -0.033041   0.002139  -0.000116
    15  H    0.371243  -0.031380   0.579446  -0.031417   0.000115   0.000001
    16  H    0.376675  -0.033041  -0.031417   0.580871  -0.000557  -0.000029
    17  C   -0.003921   0.002139   0.000115  -0.000557   5.121867   0.370979
    18  H    0.000067  -0.000116   0.000001  -0.000029   0.370979   0.575089
    19  H   -0.000303   0.000272  -0.000023   0.000076   0.370795  -0.031943
    20  H    0.002224   0.003189  -0.000099   0.000400   0.370979  -0.030691
             19         20
     1  C   -0.000303   0.000067
     2  H    0.000076  -0.000029
     3  H    0.000272  -0.000116
     4  H   -0.000023   0.000001
     5  C   -0.005416   0.004898
     6  H    0.005670  -0.000033
     7  H   -0.000015  -0.000175
     8  C   -0.035582  -0.028969
     9  H    0.006020  -0.003241
    10  C   -0.005416  -0.005531
    11  H   -0.000015  -0.000007
    12  H    0.005671  -0.000064
    13  C   -0.000303   0.002224
    14  H    0.000272   0.003189
    15  H   -0.000023  -0.000099
    16  H    0.000076   0.000400
    17  C    0.370795   0.370979
    18  H   -0.031943  -0.030691
    19  H    0.585817  -0.031942
    20  H   -0.031942   0.575089
 Mulliken atomic charges:
              1
     1  C   -0.448423
     2  H    0.140311
     3  H    0.145528
     4  H    0.141337
     5  C   -0.246017
     6  H    0.126073
     7  H    0.127239
     8  C   -0.057091
     9  H    0.113571
    10  C   -0.246017
    11  H    0.127239
    12  H    0.126073
    13  C   -0.448423
    14  H    0.145528
    15  H    0.141337
    16  H    0.140311
    17  C   -0.452985
    18  H    0.144049
    19  H    0.136311
    20  H    0.144049
 Sum of Mulliken atomic charges =   0.00000
 Mulliken charges with hydrogens summed into heavy atoms:
              1
     1  C   -0.021247
     5  C    0.007295
     8  C    0.056481
    10  C    0.007295
    13  C   -0.021247
    17  C   -0.028576
 Sum of Mulliken charges with hydrogens summed into heavy atoms =   0.00000
 Electronic spatial extent (au):  <R**2>=            857.3265
 Charge=              0.0000 electrons
 Dipole moment (field-independent basis, Debye):
    X=              0.0000    Y=             -0.0545    Z=             -0.0148  Tot=              0.0564
 Quadrupole moment (field-independent basis, Debye-Ang):
   XX=            -41.9987   YY=            -41.5500   ZZ=            -41.2578
   XY=              0.0000   XZ=              0.0000   YZ=              0.1388
 Traceless Quadrupole moment (field-independent basis, Debye-Ang):
   XX=             -0.3965   YY=              0.0522   ZZ=              0.3444
   XY=              0.0000   XZ=              0.0000   YZ=              0.1388
 Octapole moment (field-independent basis, Debye-Ang**2):
  XXX=              0.0000  YYY=             -0.9921  ZZZ=             -0.1587  XYY=              0.0000
  XXY=             -0.4835  XXZ=              1.1763  XZZ=              0.0000  YZZ=              0.0255
  YYZ=             -0.5275  XYZ=              0.0000
 Hexadecapole moment (field-independent basis, Debye-Ang**3):
 XXXX=           -844.8602 YYYY=           -245.0996 ZZZZ=           -103.9987 XXXY=             -0.0001
 XXXZ=             -0.0001 YYYX=              0.0000 YYYZ=             -0.2965 ZZZX=              0.0000
 ZZZY=              1.1374 XXYY=           -175.5476 XXZZ=           -158.5912 YYZZ=            -60.2629
 XXYZ=             -0.8641 YYXZ=              0.0000 ZZXY=              0.0001
 N-N= 2.553004301485D+02 E-N=-1.057524484911D+03  KE= 2.346253847119D+02
 No NMR shielding tensors so no spin-rotation constants.
 Leave Link  601 at Fri Sep 18 13:35:42 2015, MaxMem=  402653184 cpu:       0.3
 (Enter /share/apps/g09/l9999.exe)
 1\1\GINC-COMPUTE-0-9\FOpt\RB3LYP\6-31G(d)\C6H14\HETANJIN\18-Sep-2015\0
 \\#p B3LYP/6-31G(d) opt=tight int=ultrafine\\using B3LYP/6-31G(d) to d
 o opt and freq calc.\\0,1\C,-2.5854474149,-0.1930603474,-0.2823374437\
 H,-2.5695067425,-0.3094409486,-1.3734182823\H,-2.7986253032,0.85901879
 75,-0.0640688209\H,-3.4263950153,-0.7824938508,0.1008449\C,-1.26432214
 11,-0.6574459009,0.3420213816\H,-1.3050834766,-0.5157279415,1.43250577
 04\H,-1.1620001155,-1.7399413765,0.1819053854\C,-0.0000020606,0.037165
 7857,-0.2057432614\H,-0.0000310058,-0.0917428798,-1.3008042266\C,1.264
 2762,-0.6575641363,0.3419718806\H,1.1618406702,-1.7400499939,0.1818644
 863\H,1.3050975689,-0.5158470035,1.4324543229\C,2.5854227873,-0.193315
 6546,-0.2824445844\H,2.7987285257,0.8587359348,-0.0641701817\H,3.42632
 33767,-0.7828483863,0.1006881982\H,2.5694170006,-0.3096783943,-1.37352
 65238\C,0.0000682252,1.5447427898,0.092656799\H,-0.8808600531,2.041414
 1049,-0.3273139884\H,0.0001200464,1.7258555332,1.1761574279\H,0.880997
 9276,2.0413478685,-0.3273882393\\Version=EM64L-G09RevA.01\State=1-A\HF
 =-237.0832255\RMSD=9.849e-09\RMSF=5.974e-07\Dipole=-0.0000011,-0.02178
 74,-0.0042672\Quadrupole=-0.2948133,0.0547182,0.2400951,0.0000127,0.00
 00178,0.1176943\PG=C01 [X(C6H14)]\\@


 THE ATTENTION SPAN OF A COMPUTER IS AS LONG
 AS ITS EXTENSION CORD.
 Job cpu time:  0 days  0 hours 17 minutes 57.0 seconds.
 File lengths (MBytes):  RWF=     15 Int=      0 D2E=      0 Chk=      2 Scr=      1
 Normal termination of Gaussian 09 at Fri Sep 18 13:35:42 2015.
