using PM6 to do opt and freq calc.                                      
FOpt      RPM6                                                        ZDO                 
Number of atoms                            I               20
Info1-9                                    I   N=           9
          33          29           0           0           0         110
           2           8         302
Charge                                     I                0
Multiplicity                               I                1
Number of electrons                        I               38
Number of alpha electrons                  I               19
Number of beta electrons                   I               19
Number of basis functions                  I               38
Number of independent functions            I               38
Number of point charges in /Mol/           I                0
Number of translation vectors              I                0
Atomic numbers                             I   N=          20
           6           1           1           1           6           1
           6           1           1           6           1           1
           6           1           1           1           6           1
           1           1
Nuclear charges                            R   N=          20
  4.00000000E+00  1.00000000E+00  1.00000000E+00  1.00000000E+00  4.00000000E+00
  1.00000000E+00  4.00000000E+00  1.00000000E+00  1.00000000E+00  4.00000000E+00
  1.00000000E+00  1.00000000E+00  4.00000000E+00  1.00000000E+00  1.00000000E+00
  1.00000000E+00  4.00000000E+00  1.00000000E+00  1.00000000E+00  1.00000000E+00
Current cartesian coordinates              R   N=          60
  4.06322380E+00 -1.94402598E+00  2.95097146E-02  3.65080923E+00 -3.80207163E+00
 -7.81333700E-01  4.25732938E+00 -2.18564115E+00  2.07569881E+00  5.90630430E+00
 -1.34602768E+00 -6.96982004E-01  1.99830578E+00 -1.46129570E-02 -6.28759423E-01
  1.85858856E+00  1.08157667E-01 -2.73447690E+00 -5.73886199E-01 -9.04524453E-01
  4.20229141E-01 -5.86851839E-01 -7.40835290E-01  2.50372940E+00 -8.25382687E-01
 -2.94169067E+00  1.74391793E-02 -2.79750085E+00  5.80560628E-01 -7.02044355E-01
 -2.77504080E+00  4.25810883E-01 -2.78912821E+00 -2.57712550E+00  2.61891963E+00
 -2.77453184E-01 -5.33087562E+00 -3.55649107E-01  3.16225788E-01 -5.44073684E+00
 -1.65852723E-01  2.37544550E+00 -6.90528240E+00  7.19146290E-01 -4.91138215E-01
 -5.64447384E+00 -2.35161624E+00 -1.37491471E-01  2.70814683E+00  2.60460882E+00
  3.92053140E-01  1.26742432E+00  4.01329468E+00 -8.12389939E-02  2.90539704E+00
  2.59183533E+00  2.45215447E+00  4.50455863E+00  3.25842924E+00 -3.98508702E-01
Force Field                                I                0
Int Atom Types                             I   N=          20
           0           0           0           0           0           0
           0           0           0           0           0           0
           0           0           0           0           0           0
           0           0
MM charges                                 R   N=          20
  0.00000000E+00  0.00000000E+00  0.00000000E+00  0.00000000E+00  0.00000000E+00
  0.00000000E+00  0.00000000E+00  0.00000000E+00  0.00000000E+00  0.00000000E+00
  0.00000000E+00  0.00000000E+00  0.00000000E+00  0.00000000E+00  0.00000000E+00
  0.00000000E+00  0.00000000E+00  0.00000000E+00  0.00000000E+00  0.00000000E+00
Integer atomic weights                     I   N=          20
          12           1           1           1          12           1
          12           1           1          12           1           1
          12           1           1           1          12           1
           1           1
Real atomic weights                        R   N=          20
  1.20000000E+01  1.00782504E+00  1.00782504E+00  1.00782504E+00  1.20000000E+01
  1.00782504E+00  1.20000000E+01  1.00782504E+00  1.00782504E+00  1.20000000E+01
  1.00782504E+00  1.00782504E+00  1.20000000E+01  1.00782504E+00  1.00782504E+00
  1.00782504E+00  1.20000000E+01  1.00782504E+00  1.00782504E+00  1.00782504E+00
Atom fragment info                         I   N=          20
           0           0           0           0           0           0
           0           0           0           0           0           0
           0           0           0           0           0           0
           0           0
Atom residue num                           I   N=          20
           0           0           0           0           0           0
           0           0           0           0           0           0
           0           0           0           0           0           0
           0           0
Nuclear spins                              I   N=          20
           0           1           1           1           0           1
           0           1           1           0           1           1
           0           1           1           1           0           1
           1           1
Nuclear ZEff                               R   N=          20
 -3.90000000E+00 -1.00000000E+00 -1.00000000E+00 -1.00000000E+00 -3.90000000E+00
 -1.00000000E+00 -3.90000000E+00 -1.00000000E+00 -1.00000000E+00 -3.90000000E+00
 -1.00000000E+00 -1.00000000E+00 -3.90000000E+00 -1.00000000E+00 -1.00000000E+00
 -1.00000000E+00 -3.90000000E+00 -1.00000000E+00 -1.00000000E+00 -1.00000000E+00
Nuclear QMom                               R   N=          20
  0.00000000E+00  0.00000000E+00  0.00000000E+00  0.00000000E+00  0.00000000E+00
  0.00000000E+00  0.00000000E+00  0.00000000E+00  0.00000000E+00  0.00000000E+00
  0.00000000E+00  0.00000000E+00  0.00000000E+00  0.00000000E+00  0.00000000E+00
  0.00000000E+00  0.00000000E+00  0.00000000E+00  0.00000000E+00  0.00000000E+00
Nuclear GFac                               R   N=          20
  0.00000000E+00  2.79284600E+00  2.79284600E+00  2.79284600E+00  0.00000000E+00
  2.79284600E+00  0.00000000E+00  2.79284600E+00  2.79284600E+00  0.00000000E+00
  2.79284600E+00  2.79284600E+00  0.00000000E+00  2.79284600E+00  2.79284600E+00
  2.79284600E+00  0.00000000E+00  2.79284600E+00  2.79284600E+00  2.79284600E+00
MicOpt                                     I   N=          20
          -1          -1          -1          -1          -1          -1
          -1          -1          -1          -1          -1          -1
          -1          -1          -1          -1          -1          -1
          -1          -1
Number of contracted shells                I               20
Number of primitive shells                 I              120
Pure/Cartesian d shells                    I                0
Pure/Cartesian f shells                    I                0
Highest angular momentum                   I                1
Largest degree of contraction              I                6
Shell types                                I   N=          20
          -1           0           0           0          -1           0
          -1           0           0          -1           0           0
          -1           0           0           0          -1           0
           0           0
Number of primitives per shell             I   N=          20
           6           6           6           6           6           6
           6           6           6           6           6           6
           6           6           6           6           6           6
           6           6
Shell to atom map                          I   N=          20
           1           2           3           4           5           6
           7           8           9          10          11          12
          13          14          15          16          17          18
          19          20
Primitive exponents                        R   N=         120
  1.14476344E+01  3.29633588E+00  1.29653143E+00  5.92558930E-01  2.94896438E-01
  1.51447622E-01  4.39461478E+00  1.26542531E+00  4.97723458E-01  2.27476537E-01
  1.13207340E-01  5.81389949E-02  4.39461478E+00  1.26542531E+00  4.97723458E-01
  2.27476537E-01  1.13207340E-01  5.81389949E-02  4.39461478E+00  1.26542531E+00
  4.97723458E-01  2.27476537E-01  1.13207340E-01  5.81389949E-02  1.14476344E+01
  3.29633588E+00  1.29653143E+00  5.92558930E-01  2.94896438E-01  1.51447622E-01
  4.39461478E+00  1.26542531E+00  4.97723458E-01  2.27476537E-01  1.13207340E-01
  5.81389949E-02  1.14476344E+01  3.29633588E+00  1.29653143E+00  5.92558930E-01
  2.94896438E-01  1.51447622E-01  4.39461478E+00  1.26542531E+00  4.97723458E-01
  2.27476537E-01  1.13207340E-01  5.81389949E-02  4.39461478E+00  1.26542531E+00
  4.97723458E-01  2.27476537E-01  1.13207340E-01  5.81389949E-02  1.14476344E+01
  3.29633588E+00  1.29653143E+00  5.92558930E-01  2.94896438E-01  1.51447622E-01
  4.39461478E+00  1.26542531E+00  4.97723458E-01  2.27476537E-01  1.13207340E-01
  5.81389949E-02  4.39461478E+00  1.26542531E+00  4.97723458E-01  2.27476537E-01
  1.13207340E-01  5.81389949E-02  1.14476344E+01  3.29633588E+00  1.29653143E+00
  5.92558930E-01  2.94896438E-01  1.51447622E-01  4.39461478E+00  1.26542531E+00
  4.97723458E-01  2.27476537E-01  1.13207340E-01  5.81389949E-02  4.39461478E+00
  1.26542531E+00  4.97723458E-01  2.27476537E-01  1.13207340E-01  5.81389949E-02
  4.39461478E+00  1.26542531E+00  4.97723458E-01  2.27476537E-01  1.13207340E-01
  5.81389949E-02  1.14476344E+01  3.29633588E+00  1.29653143E+00  5.92558930E-01
  2.94896438E-01  1.51447622E-01  4.39461478E+00  1.26542531E+00  4.97723458E-01
  2.27476537E-01  1.13207340E-01  5.81389949E-02  4.39461478E+00  1.26542531E+00
  4.97723458E-01  2.27476537E-01  1.13207340E-01  5.81389949E-02  4.39461478E+00
  1.26542531E+00  4.97723458E-01  2.27476537E-01  1.13207340E-01  5.81389949E-02
Contraction coefficients                   R   N=         120
 -9.73739553E-03 -7.26587678E-02 -1.71615520E-01  1.28977624E-01  7.28861451E-01
  3.01331742E-01 -9.73739553E-03 -7.26587678E-02 -1.71615520E-01  1.28977624E-01
  7.28861451E-01  3.01331742E-01 -9.73739553E-03 -7.26587678E-02 -1.71615520E-01
  1.28977624E-01  7.28861451E-01  3.01331742E-01 -9.73739553E-03 -7.26587678E-02
 -1.71615520E-01  1.28977624E-01  7.28861451E-01  3.01331742E-01 -9.73739553E-03
 -7.26587678E-02 -1.71615520E-01  1.28977624E-01  7.28861451E-01  3.01331742E-01
 -9.73739553E-03 -7.26587678E-02 -1.71615520E-01  1.28977624E-01  7.28861451E-01
  3.01331742E-01 -9.73739553E-03 -7.26587678E-02 -1.71615520E-01  1.28977624E-01
  7.28861451E-01  3.01331742E-01 -9.73739553E-03 -7.26587678E-02 -1.71615520E-01
  1.28977624E-01  7.28861451E-01  3.01331742E-01 -9.73739553E-03 -7.26587678E-02
 -1.71615520E-01  1.28977624E-01  7.28861451E-01  3.01331742E-01 -9.73739553E-03
 -7.26587678E-02 -1.71615520E-01  1.28977624E-01  7.28861451E-01  3.01331742E-01
 -9.73739553E-03 -7.26587678E-02 -1.71615520E-01  1.28977624E-01  7.28861451E-01
  3.01331742E-01 -9.73739553E-03 -7.26587678E-02 -1.71615520E-01  1.28977624E-01
  7.28861451E-01  3.01331742E-01 -9.73739553E-03 -7.26587678E-02 -1.71615520E-01
  1.28977624E-01  7.28861451E-01  3.01331742E-01 -9.73739553E-03 -7.26587678E-02
 -1.71615520E-01  1.28977624E-01  7.28861451E-01  3.01331742E-01 -9.73739553E-03
 -7.26587678E-02 -1.71615520E-01  1.28977624E-01  7.28861451E-01  3.01331742E-01
 -9.73739553E-03 -7.26587678E-02 -1.71615520E-01  1.28977624E-01  7.28861451E-01
  3.01331742E-01 -9.73739553E-03 -7.26587678E-02 -1.71615520E-01  1.28977624E-01
  7.28861451E-01  3.01331742E-01 -9.73739553E-03 -7.26587678E-02 -1.71615520E-01
  1.28977624E-01  7.28861451E-01  3.01331742E-01 -9.73739553E-03 -7.26587678E-02
 -1.71615520E-01  1.28977624E-01  7.28861451E-01  3.01331742E-01 -9.73739553E-03
 -7.26587678E-02 -1.71615520E-01  1.28977624E-01  7.28861451E-01  3.01331742E-01
P(S=P) Contraction coefficients            R   N=         120
 -8.10494336E-03 -1.71547892E-02  7.36978576E-02  3.96514999E-01  4.97808488E-01
  1.17482582E-01  0.00000000E+00  0.00000000E+00  0.00000000E+00  0.00000000E+00
  0.00000000E+00  0.00000000E+00  0.00000000E+00  0.00000000E+00  0.00000000E+00
  0.00000000E+00  0.00000000E+00  0.00000000E+00  0.00000000E+00  0.00000000E+00
  0.00000000E+00  0.00000000E+00  0.00000000E+00  0.00000000E+00 -8.10494336E-03
 -1.71547892E-02  7.36978576E-02  3.96514999E-01  4.97808488E-01  1.17482582E-01
  0.00000000E+00  0.00000000E+00  0.00000000E+00  0.00000000E+00  0.00000000E+00
  0.00000000E+00 -8.10494336E-03 -1.71547892E-02  7.36978576E-02  3.96514999E-01
  4.97808488E-01  1.17482582E-01  0.00000000E+00  0.00000000E+00  0.00000000E+00
  0.00000000E+00  0.00000000E+00  0.00000000E+00  0.00000000E+00  0.00000000E+00
  0.00000000E+00  0.00000000E+00  0.00000000E+00  0.00000000E+00 -8.10494336E-03
 -1.71547892E-02  7.36978576E-02  3.96514999E-01  4.97808488E-01  1.17482582E-01
  0.00000000E+00  0.00000000E+00  0.00000000E+00  0.00000000E+00  0.00000000E+00
  0.00000000E+00  0.00000000E+00  0.00000000E+00  0.00000000E+00  0.00000000E+00
  0.00000000E+00  0.00000000E+00 -8.10494336E-03 -1.71547892E-02  7.36978576E-02
  3.96514999E-01  4.97808488E-01  1.17482582E-01  0.00000000E+00  0.00000000E+00
  0.00000000E+00  0.00000000E+00  0.00000000E+00  0.00000000E+00  0.00000000E+00
  0.00000000E+00  0.00000000E+00  0.00000000E+00  0.00000000E+00  0.00000000E+00
  0.00000000E+00  0.00000000E+00  0.00000000E+00  0.00000000E+00  0.00000000E+00
  0.00000000E+00 -8.10494336E-03 -1.71547892E-02  7.36978576E-02  3.96514999E-01
  4.97808488E-01  1.17482582E-01  0.00000000E+00  0.00000000E+00  0.00000000E+00
  0.00000000E+00  0.00000000E+00  0.00000000E+00  0.00000000E+00  0.00000000E+00
  0.00000000E+00  0.00000000E+00  0.00000000E+00  0.00000000E+00  0.00000000E+00
  0.00000000E+00  0.00000000E+00  0.00000000E+00  0.00000000E+00  0.00000000E+00
Coordinates of each shell                  R   N=          60
  4.06322380E+00 -1.94402598E+00  2.95097146E-02  3.65080923E+00 -3.80207163E+00
 -7.81333700E-01  4.25732938E+00 -2.18564115E+00  2.07569881E+00  5.90630430E+00
 -1.34602768E+00 -6.96982004E-01  1.99830578E+00 -1.46129570E-02 -6.28759423E-01
  1.85858856E+00  1.08157667E-01 -2.73447690E+00 -5.73886199E-01 -9.04524453E-01
  4.20229141E-01 -5.86851839E-01 -7.40835290E-01  2.50372940E+00 -8.25382687E-01
 -2.94169067E+00  1.74391793E-02 -2.79750085E+00  5.80560628E-01 -7.02044355E-01
 -2.77504080E+00  4.25810883E-01 -2.78912821E+00 -2.57712550E+00  2.61891963E+00
 -2.77453184E-01 -5.33087562E+00 -3.55649107E-01  3.16225788E-01 -5.44073684E+00
 -1.65852723E-01  2.37544550E+00 -6.90528240E+00  7.19146290E-01 -4.91138215E-01
 -5.64447384E+00 -2.35161624E+00 -1.37491471E-01  2.70814683E+00  2.60460882E+00
  3.92053140E-01  1.26742432E+00  4.01329468E+00 -8.12389939E-02  2.90539704E+00
  2.59183533E+00  2.45215447E+00  4.50455863E+00  3.25842924E+00 -3.98508702E-01
Constraint Structure                       R   N=          60
  4.16499664E+00 -1.77801508E+00  1.40647435E-01  3.88077799E+00 -3.62672440E+00
 -6.27470907E-01  4.19373334E+00 -1.88412945E+00  2.15966355E+00  5.92630856E+00
 -1.03692587E+00 -5.20472255E-01  1.99772728E+00 -3.11460162E-02 -7.08192606E-01
  1.97127979E+00  7.78672435E-02 -2.72708557E+00 -5.37745467E-01 -1.10056568E+00
  2.38832668E-01 -5.11033408E-01 -1.21023952E+00  2.25768638E+00 -8.20353078E-01
 -2.94803859E+00 -5.32846640E-01 -2.70491889E+00  6.46842998E-01 -6.09141159E-01
 -2.73153201E+00  7.56639484E-01 -2.62798952E+00 -2.42239415E+00  2.49427551E+00
  1.62665168E-01 -5.24041277E+00 -4.22695356E-01  3.37693516E-01 -5.21379182E+00
 -5.32506863E-01  2.35654095E+00 -6.74617463E+00  7.91421636E-01 -2.51469663E-01
 -5.52294542E+00 -2.27012141E+00 -4.34125368E-01  2.40399626E+00  2.62824440E+00
  4.01638722E-01  1.33322765E+00  3.97346759E+00 -6.62476545E-01  1.79409885E+00
  2.65452019E+00  2.32929193E+00  4.36694002E+00  3.10450289E+00  3.09217036E-01
Num ILSW                                   I              100
ILSW                                       I   N=         100
           0           0           0           0           2           0
           0           0           0           0           0          -1
           0           0           0           0           0           0
           0           0           0           0           1           0
           1           0           0           0           0           0
           0           0      100000           0          -1           0
           0           0           0           0           0           0
           0           0           0          40           0           0
           0           0           1           0           0           0
           0           0           4          40           0           0
           0           0           0           0           0           0
           0           0           0           0           0           0
           0           0           0           0           0           0
           0           0           0           0           0           0
           0           0           0           0           0           0
           0           0           0           0           0           0
           0           0           0           0
Num RLSW                                   I               40
RLSW                                       R   N=          40
  1.00000000E+00  1.00000000E+00  1.00000000E+00  1.00000000E+00  1.00000000E+00
  0.00000000E+00  0.00000000E+00  1.00000000E+00  0.00000000E+00  0.00000000E+00
  0.00000000E+00  0.00000000E+00  1.00000000E+00  0.00000000E+00  0.00000000E+00
  0.00000000E+00  0.00000000E+00  1.00000000E+00  0.00000000E+00  0.00000000E+00
  0.00000000E+00  0.00000000E+00  1.00000000E+00  0.00000000E+00  0.00000000E+00
  0.00000000E+00  0.00000000E+00  1.00000000E+00  0.00000000E+00  0.00000000E+00
  0.00000000E+00  0.00000000E+00  0.00000000E+00  0.00000000E+00  0.00000000E+00
  0.00000000E+00  0.00000000E+00  0.00000000E+00  1.00000000E+00  1.00000000E+00
MxBond                                     I                4
NBond                                      I   N=          20
           4           1           1           1           4           1
           4           1           1           4           1           1
           4           1           1           1           4           1
           1           1
IBond                                      I   N=          80
           2           3           4           5           1           0
           0           0           1           0           0           0
           1           0           0           0           1           6
           7          17           5           0           0           0
           5           8           9          10           7           0
           0           0           7           0           0           0
           7          11          12          13          10           0
           0           0          10           0           0           0
          10          14          15          16          13           0
           0           0          13           0           0           0
          13           0           0           0           5          18
          19          20          17           0           0           0
          17           0           0           0          17           0
           0           0
RBond                                      R   N=          80
  1.00000000E+00  1.00000000E+00  1.00000000E+00  1.00000000E+00  1.00000000E+00
  0.00000000E+00  0.00000000E+00  0.00000000E+00  1.00000000E+00  0.00000000E+00
  0.00000000E+00  0.00000000E+00  1.00000000E+00  0.00000000E+00  0.00000000E+00
  0.00000000E+00  1.00000000E+00  1.00000000E+00  1.00000000E+00  1.00000000E+00
  1.00000000E+00  0.00000000E+00  0.00000000E+00  0.00000000E+00  1.00000000E+00
  1.00000000E+00  1.00000000E+00  1.00000000E+00  1.00000000E+00  0.00000000E+00
  0.00000000E+00  0.00000000E+00  1.00000000E+00  0.00000000E+00  0.00000000E+00
  0.00000000E+00  1.00000000E+00  1.00000000E+00  1.00000000E+00  1.00000000E+00
  1.00000000E+00  0.00000000E+00  0.00000000E+00  0.00000000E+00  1.00000000E+00
  0.00000000E+00  0.00000000E+00  0.00000000E+00  1.00000000E+00  1.00000000E+00
  1.00000000E+00  1.00000000E+00  1.00000000E+00  0.00000000E+00  0.00000000E+00
  0.00000000E+00  1.00000000E+00  0.00000000E+00  0.00000000E+00  0.00000000E+00
  1.00000000E+00  0.00000000E+00  0.00000000E+00  0.00000000E+00  1.00000000E+00
  1.00000000E+00  1.00000000E+00  1.00000000E+00  1.00000000E+00  0.00000000E+00
  0.00000000E+00  0.00000000E+00  1.00000000E+00  0.00000000E+00  0.00000000E+00
  0.00000000E+00  1.00000000E+00  0.00000000E+00  0.00000000E+00  0.00000000E+00
Virial Ratio                               R      9.989615294920452E-01
SCF Energy                                 R     -5.839151109074692E-02
Total Energy                               R     -5.839151109074692E-02
RMS Force                                  R      2.734268546298416E-06
RMS Density                                R      4.048021195323696E-09
External E-field                           R   N=          35
  0.00000000E+00  0.00000000E+00  0.00000000E+00  0.00000000E+00  0.00000000E+00
  0.00000000E+00  0.00000000E+00  0.00000000E+00  0.00000000E+00  0.00000000E+00
  0.00000000E+00  0.00000000E+00  0.00000000E+00  0.00000000E+00  0.00000000E+00
  0.00000000E+00  0.00000000E+00  0.00000000E+00  0.00000000E+00  0.00000000E+00
  0.00000000E+00  0.00000000E+00  0.00000000E+00  0.00000000E+00  0.00000000E+00
  0.00000000E+00  0.00000000E+00  0.00000000E+00  0.00000000E+00  0.00000000E+00
  0.00000000E+00  0.00000000E+00  0.00000000E+00  0.00000000E+00  0.00000000E+00
IOpCl                                      I                0
IROHF                                      I                0
Alpha Orbital Energies                     R   N=          38
 -1.06231534E+00 -9.90364379E-01 -8.84161632E-01 -8.63255340E-01 -7.50676784E-01
 -7.10082631E-01 -5.88109300E-01 -5.57236466E-01 -5.49031214E-01 -5.22513199E-01
 -4.98703259E-01 -4.82092893E-01 -4.80233321E-01 -4.62643181E-01 -4.46766583E-01
 -4.29568503E-01 -4.11619928E-01 -4.09275645E-01 -4.04715940E-01  1.53185820E-01
  1.56868916E-01  1.69695239E-01  1.75444871E-01  1.85515894E-01  2.07823092E-01
  2.17697123E-01  2.20765742E-01  2.22539547E-01  2.22887457E-01  2.24308997E-01
  2.25109556E-01  2.34847977E-01  2.36209916E-01  2.45048078E-01  2.50282546E-01
  2.56447645E-01  2.58053113E-01  2.62110163E-01
Alpha MO coefficients                      R   N=        1444
  2.88385429E-01 -7.56457874E-02  6.41727840E-02 -1.23858626E-02  1.19086448E-01
  1.24356756E-01  1.15085326E-01  4.55096670E-01 -2.95815117E-02 -3.59496265E-03
  4.76065838E-02  1.87572839E-01  4.15438623E-01  3.58177782E-02  5.50735769E-02
 -4.53304900E-02  1.75336689E-01  1.71351167E-01  3.34773048E-01  5.07338349E-02
 -4.03612477E-02  3.50806347E-02  1.41754758E-01  1.47262962E-01  2.03729674E-01
  6.86565283E-02  1.37926576E-02 -1.68575323E-02  8.78038506E-02  7.72491682E-02
  8.73452354E-02  3.04395238E-01 -3.47478599E-02 -9.13741432E-02 -2.61207598E-02
  1.33058043E-01  1.30853372E-01  1.20100277E-01 -3.08110262E-01  3.00793481E-02
 -5.30720566E-02  1.13655511E-02 -1.22871998E-01 -1.32185188E-01 -1.39853891E-01
 -2.76869712E-01 -1.14389770E-01 -3.90393783E-03 -2.57609659E-02 -1.04404227E-01
  1.18835055E-01 -1.83891219E-01  2.31515884E-02 -1.28832134E-02  4.92202811E-02
  5.53000372E-02  4.30180456E-01 -9.52036637E-02 -4.39962803E-02  4.17628214E-02
  1.74684675E-01  1.69391824E-01  4.62527123E-01  7.89350164E-02  2.62504229E-02
 -3.00385508E-02  1.97713405E-01  1.96549429E-01  1.98347773E-01 -2.47510662E-01
 -1.70992320E-02  6.21136688E-02  1.79065421E-02 -8.27218556E-02 -1.07114041E-01
 -1.17357710E-01 -4.87525441E-01 -8.54549914E-03  7.28027890E-02  7.04806389E-03
 -2.59546323E-01 -2.21970614E-01 -2.14114732E-01  2.39711230E-03 -6.07127639E-02
  2.82347322E-01  1.84275375E-02  2.67734117E-03 -5.43872364E-02 -1.80696130E-02
  8.68309599E-02  1.35814789E-03 -1.79098835E-02 -7.49564193E-02  2.25367141E-02
  2.96917952E-02  3.96854909E-02 -5.42402936E-03  1.09486599E-02  4.41163154E-02
 -6.14218224E-02  6.69313955E-03  1.14417875E-02 -2.66778773E-03 -2.92238681E-02
 -2.71411865E-02 -3.51943627E-02  5.32392219E-01 -2.18761144E-02  6.80112364E-02
  8.51638774E-04  2.77854719E-01  2.39798056E-01  2.42475769E-01 -2.44852385E-01
 -7.71980428E-02 -1.22908683E-02 -1.22251463E-03 -9.49790796E-02 -1.14683736E-01
 -1.52550029E-01  5.49144039E-02 -2.37319848E-01 -6.88987923E-02  6.55305935E-03
  2.75892396E-02  4.67389418E-01  5.59756614E-03 -4.12176600E-04 -2.25509173E-02
  1.93235812E-01  2.08017906E-01  8.42840996E-02  2.57849720E-01 -3.70908462E-02
  1.37972812E-03  4.04082610E-02  2.91493834E-02 -4.41560107E-01  9.44045796E-02
 -2.43522910E-03 -8.00996837E-03 -2.06543396E-01 -2.39690633E-01 -2.04713634E-01
 -2.32040541E-01 -7.06908120E-02 -2.89603825E-02 -2.85365942E-03 -8.69233660E-02
 -1.10292186E-01 -1.45478540E-01  1.82336335E-01  1.37376182E-01 -6.53311933E-02
  1.14488560E-02  9.79230719E-02  1.00734675E-01  1.42475704E-01 -1.89111896E-01
  9.73826382E-02  3.95399366E-02 -3.54781109E-02 -5.85564873E-02 -2.18073167E-01
 -1.79965068E-01  1.36518934E-01 -9.86374167E-02 -1.50624282E-01 -1.53727575E-01
  4.63869421E-01  3.40262531E-02  1.63824478E-01 -1.40539456E-01  2.84838317E-01
  2.90592089E-01 -2.78188647E-01  2.02836072E-01  1.26836118E-01 -1.24996512E-01
 -2.01414281E-01 -1.51547799E-01 -2.02815069E-01  3.82863383E-02  2.74296224E-02
  7.98210802E-02  6.83348474E-03  5.18125572E-02  2.15267039E-02  4.60873459E-02
 -1.44182244E-01 -1.46546394E-01  1.56641249E-01 -1.49893286E-01 -1.01802808E-01
 -1.79922464E-01 -8.89973979E-02  4.42361091E-01  4.91629079E-03  2.64773969E-02
 -2.45542454E-01  3.52255033E-01 -2.42364542E-01  1.53226094E-01  1.21852722E-01
 -2.21709827E-01 -2.44399213E-01 -1.71397351E-01  6.49887148E-02 -4.51049011E-02
  9.90274441E-02 -1.41809750E-01  1.17133120E-01  6.29354803E-02  2.86011921E-02
 -4.35325179E-02  4.37197717E-02 -5.68064331E-02 -2.00020354E-02  6.00577115E-02
 -2.61914968E-03 -1.81133239E-01 -6.43817009E-02 -2.01170168E-01 -1.84651863E-01
 -1.11713521E-01 -2.02196749E-01 -1.15572539E-01  7.41044973E-03 -5.42379811E-02
  1.00512228E-01  1.96590265E-01 -1.06317699E-01  1.22600170E-01 -5.90712727E-02
  8.91525866E-02 -1.89996356E-02  6.10569159E-02  2.93317971E-01 -1.58273888E-01
 -3.80711190E-02  1.77440163E-01  2.86736675E-01  2.52054998E-01  1.67422642E-01
 -2.56981358E-01  1.49337148E-02 -1.83372792E-02  3.39297260E-01  2.03305521E-01
 -1.50634238E-01  2.53527576E-01  6.62416035E-03 -4.17832439E-02  2.43017434E-01
  1.50241084E-01  1.20804594E-01  6.92240972E-02 -1.73080891E-01 -6.71170465E-02
 -1.58826760E-01 -2.31943396E-01  1.19540402E-01 -6.91187306E-02  4.13977232E-02
 -2.03711872E-01  1.26014180E-02  2.29085785E-01  3.18216484E-02 -2.28116094E-01
  1.51007325E-02 -1.35740572E-01  2.07501178E-01 -1.84145165E-02  9.83325824E-02
  1.46184101E-01 -2.59118505E-01  1.67263553E-01  2.68556363E-02 -2.64446826E-01
  1.19322772E-01  1.06098144E-01  9.13209800E-02 -6.12658289E-02  3.55572659E-03
  1.11520964E-01 -1.09560864E-04  3.85912230E-01 -2.59406180E-01  6.54573672E-02
 -3.82875077E-03  1.74209107E-01  1.61956623E-02  3.48431899E-01  2.29474700E-01
 -1.80003102E-01 -8.35252227E-02 -2.33988682E-02  3.75047604E-02  3.39063883E-02
 -2.68607598E-01  3.25722132E-02 -1.89684642E-01  9.24468594E-02 -2.93086295E-02
  2.57967138E-02  4.32525327E-01  8.21268285E-02 -3.06404523E-01  1.02216767E-02
  6.97226335E-02  6.61346751E-02  3.26602488E-01  6.18505056E-02  1.46698399E-01
 -8.52202025E-02 -1.58555544E-02 -1.54229457E-01 -7.17334089E-02  1.20461787E-01
  6.98170322E-02  2.78281702E-02  8.28562992E-02 -1.21234361E-01 -1.92498699E-01
  6.79193243E-03  4.24805153E-02 -1.16614116E-01 -1.71698840E-02  2.31766262E-01
 -9.61838569E-02 -1.01342802E-01 -9.03777264E-02 -1.37732612E-01  4.67162776E-02
 -1.62429976E-02  3.17389870E-01 -3.35796500E-01  4.21260978E-02 -3.29604183E-01
  4.43321085E-02  9.87347951E-02 -2.52978534E-02 -2.81365301E-01  1.06602809E-02
 -2.28366656E-01  8.76215201E-02 -1.87077567E-01 -1.25544256E-01 -7.78996042E-03
  1.55474803E-01 -2.68552687E-01 -7.47269990E-02  2.99564567E-02  3.07805050E-03
  6.40218850E-02 -2.90923072E-01  1.29732849E-01  7.35025244E-02  1.76236271E-01
  1.30434107E-02 -2.35402189E-01  2.00800416E-01  6.56309960E-02 -5.19982789E-02
  1.30905280E-01 -1.16788459E-02  3.12666081E-02  4.19022893E-01 -4.57688344E-03
  1.85510320E-02  1.33225820E-01 -2.89542951E-01  9.09337021E-03  3.01284739E-01
  1.49019281E-01  3.10536896E-02 -7.24107414E-02  4.36804755E-02  2.11532373E-01
 -1.44123221E-02  3.78968881E-01  1.37990744E-01  6.52528729E-03 -1.53088948E-01
  1.04120284E-02  2.67088969E-01 -5.85200917E-02 -2.63851163E-02  1.82199277E-01
 -3.29410485E-02  7.39521686E-03  1.23479710E-01  1.98146055E-02 -6.82957874E-02
  1.81538200E-01  1.81574331E-01  7.63100506E-02 -7.52278946E-02  2.74152959E-02
  1.00088399E-01 -1.31804504E-01  5.47014022E-02  1.88690176E-02 -1.89184935E-02
 -3.56696899E-01  2.04610857E-01 -3.01290429E-01 -1.96569378E-01  3.53374376E-01
 -6.46432962E-02 -1.60851465E-02 -7.39953585E-03 -2.80412442E-03 -3.00225592E-01
  4.53946854E-02 -2.19594845E-01  7.67293236E-02 -6.78054200E-04 -1.78902923E-01
 -7.22079193E-02  5.41475182E-01 -8.10818625E-02  3.80752724E-01 -2.69609573E-01
  1.12326609E-02 -1.07610335E-02  5.85074258E-02 -3.02900984E-04  8.32915968E-03
 -2.51426948E-02  3.74929703E-03 -1.02330638E-01 -6.77602246E-02 -7.06462127E-02
  7.03197108E-02  8.55944404E-03 -6.20012250E-02 -1.18196562E-02  1.93211408E-02
 -9.34706986E-03 -4.41483235E-03  5.88151658E-03  9.61200034E-02  5.82844295E-02
  9.84983273E-02  7.46427298E-02 -5.77988526E-02 -6.36674746E-02  6.08901693E-03
  1.02277953E-01  8.27647710E-02 -4.56475775E-01  6.78325941E-02 -3.18124509E-01