 Entering Gaussian System, Link 0=/share/apps/g09/g09
 Input=C6H14_2_1_opt_PM6.gjf
 Output=C6H14_2_1_opt_PM6.log
 Initial command:
 /share/apps/g09/l1.exe /state/partition1/Gau-18854.inp -scrdir=/state/partition1/
 Entering Link 1 = /share/apps/g09/l1.exe PID=     18857.
  
 Copyright (c) 1988,1990,1992,1993,1995,1998,2003,2009, Gaussian, Inc.
                  All Rights Reserved.
  
 This is part of the Gaussian(R) 09 program.  It is based on
 the Gaussian(R) 03 system (copyright 2003, Gaussian, Inc.),
 the Gaussian(R) 98 system (copyright 1998, Gaussian, Inc.),
 the Gaussian(R) 94 system (copyright 1995, Gaussian, Inc.),
 the Gaussian 92(TM) system (copyright 1992, Gaussian, Inc.),
 the Gaussian 90(TM) system (copyright 1990, Gaussian, Inc.),
 the Gaussian 88(TM) system (copyright 1988, Gaussian, Inc.),
 the Gaussian 86(TM) system (copyright 1986, Carnegie Mellon
 University), and the Gaussian 82(TM) system (copyright 1983,
 Carnegie Mellon University). Gaussian is a federally registered
 trademark of Gaussian, Inc.
  
 This software contains proprietary and confidential information,
 including trade secrets, belonging to Gaussian, Inc.
  
 This software is provided under written license and may be
 used, copied, transmitted, or stored only in accord with that
 written license.
  
 The following legend is applicable only to US Government
 contracts under FAR:
  
                    RESTRICTED RIGHTS LEGEND
  
 Use, reproduction and disclosure by the US Government is
 subject to restrictions as set forth in subparagraphs (a)
 and (c) of the Commercial Computer Software - Restricted
 Rights clause in FAR 52.227-19.
  
 Gaussian, Inc.
 340 Quinnipiac St., Bldg. 40, Wallingford CT 06492
  
  
 ---------------------------------------------------------------
 Warning -- This program may not be used in any manner that
 competes with the business of Gaussian, Inc. or will provide
 assistance to any competitor of Gaussian, Inc.  The licensee
 of this program is prohibited from giving any competitor of
 Gaussian, Inc. access to this program.  By using this program,
 the user acknowledges that Gaussian, Inc. is engaged in the
 business of creating and licensing software in the field of
 computational chemistry and represents and warrants to the
 licensee that it is not a competitor of Gaussian, Inc. and that
 it will not use this program in any manner prohibited above.
 ---------------------------------------------------------------
  

 Cite this work as:
 Gaussian 09, Revision A.01,
 M. J. Frisch, G. W. Trucks, H. B. Schlegel, G. E. Scuseria, 
 M. A. Robb, J. R. Cheeseman, G. Scalmani, V. Barone, B. Mennucci, 
 G. A. Petersson, H. Nakatsuji, M. Caricato, X. Li, H. P. Hratchian, 
 A. F. Izmaylov, J. Bloino, G. Zheng, J. L. Sonnenberg, M. Hada, 
 M. Ehara, K. Toyota, R. Fukuda, J. Hasegawa, M. Ishida, T. Nakajima, 
 Y. Honda, O. Kitao, H. Nakai, T. Vreven, J. A. Montgomery, Jr., 
 J. E. Peralta, F. Ogliaro, M. Bearpark, J. J. Heyd, E. Brothers, 
 K. N. Kudin, V. N. Staroverov, R. Kobayashi, J. Normand, 
 K. Raghavachari, A. Rendell, J. C. Burant, S. S. Iyengar, J. Tomasi, 
 M. Cossi, N. Rega, J. M. Millam, M. Klene, J. E. Knox, J. B. Cross, 
 V. Bakken, C. Adamo, J. Jaramillo, R. Gomperts, R. E. Stratmann, 
 O. Yazyev, A. J. Austin, R. Cammi, C. Pomelli, J. W. Ochterski, 
 R. L. Martin, K. Morokuma, V. G. Zakrzewski, G. A. Voth, 
 P. Salvador, J. J. Dannenberg, S. Dapprich, A. D. Daniels, 
 O. Farkas, J. B. Foresman, J. V. Ortiz, J. Cioslowski, 
 and D. J. Fox, Gaussian, Inc., Wallingford CT, 2009.
 
 ******************************************
 Gaussian 09:  EM64L-G09RevA.01  8-May-2009
                13-Sep-2015 
 ******************************************
 %mem=5GB
 %nprocshared=2
 Will use up to    2 processors via shared memory.
 %chk=C6H14_2_1_opt_PM6.chk
 ----------
 #p PM6 opt
 ----------
 1/14=-1,18=20,19=15,26=1,38=1/1,3;
 2/9=110,12=2,17=6,18=5,40=1/2;
 3/5=2,16=1,25=1,41=3900000,71=1/1,2,3;
 4/35=1/1;
 5/5=2,35=1,38=5/2;
 6/7=2,8=2,9=2,10=2,28=1/1;
 7//1,2,3,16;
 1/14=-1,18=20,19=15/3(2);
 2/9=110/2;
 99//99;
 2/9=110/2;
 3/5=2,16=1,25=1,41=3900000,71=1,135=20/1,2,3;
 4/5=5,16=3,35=1/1;
 5/5=2,35=1,38=5/2;
 7//1,2,3,16;
 1/14=-1,18=20,19=15/3(-5);
 2/9=110/2;
 6/7=2,8=2,9=2,10=2,19=2,28=1/1;
 99/9=1/99;
 Leave Link    1 at Sun Sep 13 11:18:50 2015, MaxMem=  671088640 cpu:       0.1
 (Enter /share/apps/g09/l101.exe)
 ----------------------------------
 using PM6 to do opt and freq calc.
 ----------------------------------
 Symbolic Z-matrix:
 Charge =  0 Multiplicity = 1
 C                    -3.89331  -0.17516   0. 
 H                    -3.53666  -1.18397   0. 
 H                    -3.53664   0.32924  -0.87365 
 H                    -4.96331  -0.17515   0. 
 C                    -3.37997   0.5508    1.2574 
 H                    -3.73824   0.04753   2.13106 
 C                    -1.83997   0.54834   1.25881 
 H                    -1.4817    1.05128   0.38497 
 H                    -1.48492  -0.46103   1.26017 
 C                    -1.32663   1.27477   2.51595 
 H                    -1.68497   0.77187   3.38978 
 H                    -1.68162   2.28416   2.51455 
 C                     0.21337   1.27221   2.51741 
 H                     0.5717    1.77509   1.64357 
 H                     0.57004   1.77694   3.39087 
 H                     0.56836   0.26281   2.51882 
 C                    -3.89099   2.00354   1.256 
 H                    -3.84243   2.39967   2.24878 
 H                    -3.28142   2.59542   0.60561 
 H                    -4.90417   2.0249    0.91262 
 
 NAtoms=     20 NQM=     20 NQMF=      0 NMic=      0 NMicF=      0 NTot=     20.
                    Isotopes and Nuclear Properties:
 (Nuclear quadrupole moments (NQMom) in fm**2, nuclear magnetic moments (NMagM)
  in nuclear magnetons)

  Atom         1           2           3           4           5           6           7           8           9          10
 IAtWgt=          12           1           1           1          12           1          12           1           1          12
 AtmWgt=  12.0000000   1.0078250   1.0078250   1.0078250  12.0000000   1.0078250  12.0000000   1.0078250   1.0078250  12.0000000
 NucSpn=           0           1           1           1           0           1           0           1           1           0
 AtZEff=   0.0000000   0.0000000   0.0000000   0.0000000   0.0000000   0.0000000   0.0000000   0.0000000   0.0000000   0.0000000
 NQMom=    0.0000000   0.0000000   0.0000000   0.0000000   0.0000000   0.0000000   0.0000000   0.0000000   0.0000000   0.0000000
 NMagM=    0.0000000   2.7928460   2.7928460   2.7928460   0.0000000   2.7928460   0.0000000   2.7928460   2.7928460   0.0000000

  Atom        11          12          13          14          15          16          17          18          19          20
 IAtWgt=           1           1          12           1           1           1          12           1           1           1
 AtmWgt=   1.0078250   1.0078250  12.0000000   1.0078250   1.0078250   1.0078250  12.0000000   1.0078250   1.0078250   1.0078250
 NucSpn=           1           1           0           1           1           1           0           1           1           1
 AtZEff=   0.0000000   0.0000000   0.0000000   0.0000000   0.0000000   0.0000000   0.0000000   0.0000000   0.0000000   0.0000000
 NQMom=    0.0000000   0.0000000   0.0000000   0.0000000   0.0000000   0.0000000   0.0000000   0.0000000   0.0000000   0.0000000
 NMagM=    2.7928460   2.7928460   0.0000000   2.7928460   2.7928460   2.7928460   0.0000000   2.7928460   2.7928460   2.7928460
 Leave Link  101 at Sun Sep 13 11:18:50 2015, MaxMem=  671088640 cpu:       0.1
 (Enter /share/apps/g09/l103.exe)

 GradGradGradGradGradGradGradGradGradGradGradGradGradGradGradGradGradGrad
 Berny optimization.
 Initialization pass.
                           ----------------------------
                           !    Initial Parameters    !
                           ! (Angstroms and Degrees)  !
 --------------------------                            --------------------------
 ! Name  Definition              Value          Derivative Info.                !
 --------------------------------------------------------------------------------
 ! R1    R(1,2)                  1.07           estimate D2E/DX2                !
 ! R2    R(1,3)                  1.07           estimate D2E/DX2                !
 ! R3    R(1,4)                  1.07           estimate D2E/DX2                !
 ! R4    R(1,5)                  1.54           estimate D2E/DX2                !
 ! R5    R(5,6)                  1.07           estimate D2E/DX2                !
 ! R6    R(5,7)                  1.54           estimate D2E/DX2                !
 ! R7    R(5,17)                 1.54           estimate D2E/DX2                !
 ! R8    R(7,8)                  1.07           estimate D2E/DX2                !
 ! R9    R(7,9)                  1.07           estimate D2E/DX2                !
 ! R10   R(7,10)                 1.54           estimate D2E/DX2                !
 ! R11   R(10,11)                1.07           estimate D2E/DX2                !
 ! R12   R(10,12)                1.07           estimate D2E/DX2                !
 ! R13   R(10,13)                1.54           estimate D2E/DX2                !
 ! R14   R(13,14)                1.07           estimate D2E/DX2                !
 ! R15   R(13,15)                1.07           estimate D2E/DX2                !
 ! R16   R(13,16)                1.07           estimate D2E/DX2                !
 ! R17   R(17,18)                1.07           estimate D2E/DX2                !
 ! R18   R(17,19)                1.07           estimate D2E/DX2                !
 ! R19   R(17,20)                1.07           estimate D2E/DX2                !
 ! A1    A(2,1,3)              109.4712         estimate D2E/DX2                !
 ! A2    A(2,1,4)              109.4712         estimate D2E/DX2                !
 ! A3    A(2,1,5)              109.4712         estimate D2E/DX2                !
 ! A4    A(3,1,4)              109.4712         estimate D2E/DX2                !
 ! A5    A(3,1,5)              109.4713         estimate D2E/DX2                !
 ! A6    A(4,1,5)              109.4712         estimate D2E/DX2                !
 ! A7    A(1,5,6)              109.4712         estimate D2E/DX2                !
 ! A8    A(1,5,7)              109.4712         estimate D2E/DX2                !
 ! A9    A(1,5,17)             109.4712         estimate D2E/DX2                !
 ! A10   A(6,5,7)              109.4712         estimate D2E/DX2                !
 ! A11   A(6,5,17)             109.4712         estimate D2E/DX2                !
 ! A12   A(7,5,17)             109.4713         estimate D2E/DX2                !
 ! A13   A(5,7,8)              109.4712         estimate D2E/DX2                !
 ! A14   A(5,7,9)              109.4712         estimate D2E/DX2                !
 ! A15   A(5,7,10)             109.4712         estimate D2E/DX2                !
 ! A16   A(8,7,9)              109.4712         estimate D2E/DX2                !
 ! A17   A(8,7,10)             109.4713         estimate D2E/DX2                !
 ! A18   A(9,7,10)             109.4712         estimate D2E/DX2                !
 ! A19   A(7,10,11)            109.4712         estimate D2E/DX2                !
 ! A20   A(7,10,12)            109.4712         estimate D2E/DX2                !
 ! A21   A(7,10,13)            109.4712         estimate D2E/DX2                !
 ! A22   A(11,10,12)           109.4712         estimate D2E/DX2                !
 ! A23   A(11,10,13)           109.4713         estimate D2E/DX2                !
 ! A24   A(12,10,13)           109.4712         estimate D2E/DX2                !
 ! A25   A(10,13,14)           109.4712         estimate D2E/DX2                !
 ! A26   A(10,13,15)           109.4712         estimate D2E/DX2                !
 ! A27   A(10,13,16)           109.4712         estimate D2E/DX2                !
 ! A28   A(14,13,15)           109.4713         estimate D2E/DX2                !
 ! A29   A(14,13,16)           109.4712         estimate D2E/DX2                !
 ! A30   A(15,13,16)           109.4712         estimate D2E/DX2                !
 ! A31   A(5,17,18)            109.4712         estimate D2E/DX2                !
 ! A32   A(5,17,19)            109.4712         estimate D2E/DX2                !
 ! A33   A(5,17,20)            109.4712         estimate D2E/DX2                !
 ! A34   A(18,17,19)           109.4713         estimate D2E/DX2                !
 ! A35   A(18,17,20)           109.4712         estimate D2E/DX2                !
 ! A36   A(19,17,20)           109.4712         estimate D2E/DX2                !
 ! D1    D(2,1,5,6)            -60.1111         estimate D2E/DX2                !
 ! D2    D(2,1,5,7)             59.8889         estimate D2E/DX2                !
 ! D3    D(2,1,5,17)           179.8889         estimate D2E/DX2                !
 ! D4    D(3,1,5,6)            179.8889         estimate D2E/DX2                !
 ! D5    D(3,1,5,7)            -60.1111         estimate D2E/DX2                !
 ! D6    D(3,1,5,17)            59.8889         estimate D2E/DX2                !
 ! D7    D(4,1,5,6)             59.8889         estimate D2E/DX2                !
 ! D8    D(4,1,5,7)            179.8889         estimate D2E/DX2                !
 ! D9    D(4,1,5,17)           -60.1111         estimate D2E/DX2                !
 ! D10   D(1,5,7,8)             59.9786         estimate D2E/DX2                !
 ! D11   D(1,5,7,9)            -60.0214         estimate D2E/DX2                !
 ! D12   D(1,5,7,10)           179.9786         estimate D2E/DX2                !
 ! D13   D(6,5,7,8)            179.9786         estimate D2E/DX2                !
 ! D14   D(6,5,7,9)             59.9786         estimate D2E/DX2                !
 ! D15   D(6,5,7,10)           -60.0214         estimate D2E/DX2                !
 ! D16   D(17,5,7,8)           -60.0214         estimate D2E/DX2                !
 ! D17   D(17,5,7,9)           179.9786         estimate D2E/DX2                !
 ! D18   D(17,5,7,10)           59.9786         estimate D2E/DX2                !
 ! D19   D(1,5,17,18)          160.1568         estimate D2E/DX2                !
 ! D20   D(1,5,17,19)          -79.8432         estimate D2E/DX2                !
 ! D21   D(1,5,17,20)           40.1568         estimate D2E/DX2                !
 ! D22   D(6,5,17,18)           40.1568         estimate D2E/DX2                !
 ! D23   D(6,5,17,19)          160.1568         estimate D2E/DX2                !
 ! D24   D(6,5,17,20)          -79.8432         estimate D2E/DX2                !
 ! D25   D(7,5,17,18)          -79.8432         estimate D2E/DX2                !
 ! D26   D(7,5,17,19)           40.1568         estimate D2E/DX2                !
 ! D27   D(7,5,17,20)          160.1568         estimate D2E/DX2                !
 ! D28   D(5,7,10,11)           59.9953         estimate D2E/DX2                !
 ! D29   D(5,7,10,12)          -60.0047         estimate D2E/DX2                !
 ! D30   D(5,7,10,13)          179.9953         estimate D2E/DX2                !
 ! D31   D(8,7,10,11)          179.9953         estimate D2E/DX2                !
 ! D32   D(8,7,10,12)           59.9953         estimate D2E/DX2                !
 ! D33   D(8,7,10,13)          -60.0047         estimate D2E/DX2                !
 ! D34   D(9,7,10,11)          -60.0047         estimate D2E/DX2                !
 ! D35   D(9,7,10,12)          179.9953         estimate D2E/DX2                !
 ! D36   D(9,7,10,13)           59.9953         estimate D2E/DX2                !
 ! D37   D(7,10,13,14)          59.9995         estimate D2E/DX2                !
 ! D38   D(7,10,13,15)         179.9995         estimate D2E/DX2                !
 ! D39   D(7,10,13,16)         -60.0005         estimate D2E/DX2                !
 ! D40   D(11,10,13,14)        179.9995         estimate D2E/DX2                !
 ! D41   D(11,10,13,15)        -60.0005         estimate D2E/DX2                !
 ! D42   D(11,10,13,16)         59.9995         estimate D2E/DX2                !
 ! D43   D(12,10,13,14)        -60.0005         estimate D2E/DX2                !
 ! D44   D(12,10,13,15)         59.9995         estimate D2E/DX2                !
 ! D45   D(12,10,13,16)        179.9995         estimate D2E/DX2                !
 --------------------------------------------------------------------------------
 Trust Radius=3.00D-01 FncErr=1.00D-07 GrdErr=1.00D-07
 Number of steps in this run= 110 maximum allowed number of steps= 120.
 GradGradGradGradGradGradGradGradGradGradGradGradGradGradGradGradGradGrad

 Leave Link  103 at Sun Sep 13 11:18:55 2015, MaxMem=  671088640 cpu:       0.0
 (Enter /share/apps/g09/l202.exe)
                          Input orientation:                          
 ---------------------------------------------------------------------
 Center     Atomic      Atomic             Coordinates (Angstroms)
 Number     Number       Type             X           Y           Z
 ---------------------------------------------------------------------
      1          6           0       -3.893312   -0.175159    0.000000
      2          1           0       -3.536658   -1.183969    0.000000
      3          1           0       -3.536639    0.329239   -0.873652
      4          1           0       -4.963312   -0.175146    0.000000
      5          6           0       -3.379970    0.550797    1.257405
      6          1           0       -3.738239    0.047529    2.131055
      7          6           0       -1.839972    0.548340    1.258813
      8          1           0       -1.481704    1.051281    0.384974
      9          1           0       -1.484917   -0.461033    1.260167
     10          6           0       -1.326629    1.274766    2.515946
     11          1           0       -1.684966    0.771872    3.389784
     12          1           0       -1.681617    2.284163    2.514551
     13          6           0        0.213368    1.272206    2.517414
     14          1           0        0.571704    1.775092    1.643572
     15          1           0        0.570042    1.776937    3.390873
     16          1           0        0.568356    0.262809    2.518818
     17          6           0       -3.890986    2.003540    1.255998
     18          1           0       -3.842429    2.399670    2.248784
     19          1           0       -3.281418    2.595420    0.605611
     20          1           0       -4.904167    2.024900    0.912623
 ---------------------------------------------------------------------
                    Distance matrix (angstroms):
                    1          2          3          4          5
     1  C    0.000000
     2  H    1.070000   0.000000
     3  H    1.070000   1.747302   0.000000
     4  H    1.070000   1.747303   1.747303   0.000000
     5  C    1.540000   2.148263   2.148263   2.148263   0.000000
     6  H    2.148263   2.469538   3.024610   2.468154   1.070000
     7  C    2.514809   2.732077   2.733878   3.444313   1.540000
     8  H    2.732803   3.060618   2.515600   3.711324   2.148263
     9  H    2.733151   2.514021   3.063866   3.710659   2.148263
    10  C    3.875581   4.154466   4.155423   4.653783   2.514809
    11  H    4.155033   4.329517   4.669208   4.809889   2.732939
    12  H    4.154856   4.668199   4.329290   4.810477   2.733016
    13  C    5.029618   5.141290   5.143060   5.935505   3.875581
    14  H    5.142098   5.323157   5.030446   6.094355   4.154967
    15  H    5.935505   6.093436   6.094820   6.776920   4.653783
    16  H    5.142251   5.028792   5.325810   6.093899   4.154922
    17  C    2.514809   3.444313   2.732078   2.733877   1.540000
    18  H    3.418971   4.241815   3.758962   3.597650   2.148263
    19  H    2.901257   3.836104   2.718259   3.297207   2.148263
    20  H    2.587464   3.605525   2.817122   2.382558   2.148263
                    6          7          8          9         10
     6  H    0.000000
     7  C    2.148263   0.000000
     8  H    3.024610   1.070000   0.000000
     9  H    2.468713   1.070000   1.747303   0.000000
    10  C    2.733151   1.540000   2.148263   2.148263   0.000000
    11  H    2.514956   2.148263   3.024610   2.468875   1.070000
    12  H    3.062563   2.148263   2.468817   3.024610   1.070000
    13  C    4.155033   2.514809   2.733016   2.732939   1.540000
    14  H    4.668803   2.732973   2.514846   3.062179   2.148263
    15  H    4.810330   3.444314   3.711019   3.710966   2.148263
    16  H    4.329372   2.732981   3.062307   2.514772   2.148263
    17  C    2.148263   2.514810   2.733151   3.444315   2.948645
    18  H    2.357389   2.901258   3.296204   3.836515   2.768760
    19  H    3.004566   2.587465   2.381599   3.605241   3.035574
    20  H    2.598839   3.418972   3.597166   4.241689   3.991507
                   11         12         13         14         15
    11  H    0.000000
    12  H    1.747303   0.000000
    13  C    2.148263   2.148263   0.000000
    14  H    3.024610   2.468849   1.070000   0.000000
    15  H    2.468849   2.468843   1.070000   1.747303   0.000000
    16  H    2.468843   3.024610   1.070000   1.747303   1.747303
    17  C    3.307049   2.558127   4.355656   4.485309   4.950738
    18  H    2.933642   2.180156   4.218154   4.498994   4.600224
    19  H    3.691288   2.510039   4.197549   4.073923   4.823001
    20  H    4.250843   3.608077   5.415817   5.530087   6.014164
                   16         17         18         19         20
    16  H    0.000000
    17  C    4.950817   0.000000
    18  H    4.908576   1.070000   0.000000
    19  H    4.891032   1.070000   1.747303   0.000000
    20  H    5.969367   1.070000   1.747303   1.747303   0.000000
 Stoichiometry    C6H14
 Framework group  C1[X(C6H14)]
 Deg. of freedom    54
 Full point group                 C1      NOp   1
 Largest Abelian subgroup         C1      NOp   1
 Largest concise Abelian subgroup C1      NOp   1
                         Standard orientation:                         
 ---------------------------------------------------------------------
 Center     Atomic      Atomic             Coordinates (Angstroms)
 Number     Number       Type             X           Y           Z
 ---------------------------------------------------------------------
      1          6           0        2.204021   -0.940885    0.074427
      2          1           0        2.053619   -1.919180   -0.332043
      3          1           0        2.219228   -0.997038    1.142845
      4          1           0        3.136067   -0.548718   -0.275422
      5          6           0        1.057152   -0.016482   -0.374759
      6          1           0        1.043156    0.041206   -1.443112
      7          6           0       -0.284563   -0.582394    0.126385
      8          1           0       -0.270427   -0.640431    1.194716
      9          1           0       -0.434112   -1.560035   -0.281970
     10          6           0       -1.431381    0.342295   -0.322344
     11          1           0       -1.445464    0.400396   -1.390672
     12          1           0       -1.281876    1.319914    0.086079
     13          6           0       -2.773107   -0.223681    0.178700
     14          1           0       -2.759020   -0.281790    1.247028
     15          1           0       -3.569922    0.418802   -0.133072
     16          1           0       -2.922617   -1.201297   -0.229729
     17          6           0        1.272140    1.390807    0.212538
     18          1           0        0.705514    2.102668   -0.350567
     19          1           0        0.949396    1.404712    1.232608
     20          1           0        2.310885    1.642832    0.163631
 ---------------------------------------------------------------------
 Rotational constants (GHZ):      6.7292199      1.7817890      1.5327544
 Leave Link  202 at Sun Sep 13 11:18:56 2015, MaxMem=  671088640 cpu:       0.0
 (Enter /share/apps/g09/l301.exe)
 Standard basis: VSTO-6G (5D, 7F)
 Ernie: Thresh=  0.10000D-02 Tol=  0.10000D-05 Strict=F.
  NNHCO=     0 NNPyr=     0 NCTC=     0               EPep=         0.000000000
    EC=       129.836645243  ECS=         3.450488808   EG=         0.310041712
   EHC=         0.000625939  EAt=       -31.187935768  AtH=         2.796400831
 EPDDG=         0.000000000  ECC=       133.597801703 EAtT=        33.984336599
 There are    38 symmetry adapted basis functions of A   symmetry.
 Integral buffers will be    131072 words long.
 Regular integral format.
 Two-electron integral symmetry is turned off.
    38 basis functions,   228 primitive gaussians,    38 cartesian basis functions
    19 alpha electrons       19 beta electrons
       nuclear repulsion energy       167.5821383016 Hartrees.
 IExCor=    0 DFT=F Ex=HF Corr=None ExCW=0 ScaHFX=  1.000000
 ScaDFX=  1.000000  1.000000  1.000000  1.000000 ScalE2=  1.000000  1.000000
 IRadAn=      0 IRanWt=     -1 IRanGd=            0 ICorTp=0
 Leave Link  301 at Sun Sep 13 11:18:59 2015, MaxMem=  671088640 cpu:       0.1
 (Enter /share/apps/g09/l302.exe)
 Do NDO integrals.
 NPDir=0 NMtPBC=     1 NCelOv=     1 NCel=       1 NClECP=     1 NCelD=      1
         NCelK=      1 NCelE2=     1 NClLst=     1 CellRange=     0.0.
 One-electron integrals computed using PRISM.
 NBasis=    38 RedAO= F  NBF=    38
 NBsUse=    38 1.00D-04 NBFU=    38
 Leave Link  302 at Sun Sep 13 11:19:00 2015, MaxMem=  671088640 cpu:       0.2
 (Enter /share/apps/g09/l303.exe)
 DipDrv:  MaxL=1.
 Leave Link  303 at Sun Sep 13 11:19:00 2015, MaxMem=  671088640 cpu:       0.0
 (Enter /share/apps/g09/l401.exe)
 Simple Huckel Guess.
 Initial guess orbital symmetries:
       Occupied  (A) (A) (A) (A) (A) (A) (A) (A) (A) (A) (A) (A)
                 (A) (A) (A) (A) (A) (A) (A)
       Virtual   (A) (A) (A) (A) (A) (A) (A) (A) (A) (A) (A) (A)
                 (A) (A) (A) (A) (A) (A) (A)
 The electronic state of the initial guess is 1-A.
 Leave Link  401 at Sun Sep 13 11:19:03 2015, MaxMem=  671088640 cpu:       0.1
 (Enter /share/apps/g09/l502.exe)
 Closed shell SCF:
 Requested convergence on RMS density matrix=1.00D-08 within 128 cycles.
 Requested convergence on MAX density matrix=1.00D-06.
 Requested convergence on             energy=1.00D-06.
 No special actions if energy rises.
 Using DIIS extrapolation, IDIIS=  1040.
 Overlap will be assumed to be unity.
 Two-electron integral symmetry not used.
 Keep J ints in memory in canonical form, NReq=884654.
 IEnd=       81865 IEndB=       81865 NGot=   671088640 MDV=   671022095
 LenX=   671022095 LenY=   671020210
 Symmetry not used in FoFDir.
 MinBra= 0 MaxBra= 1 Meth=40.
 IRaf=       0 NMat=   1 IRICut=       1 DoRegI=T DoRafI=F ISym2E= 0 JSym2E=0.

 Cycle   1  Pass 1  IDiag  1:
 E= 0.713412318704059E-01
 DIIS: error= 2.22D-02 at cycle   1 NSaved=   1.
 NSaved= 1 IEnMin= 1 EnMin= 0.713412318704059E-01 IErMin= 1 ErrMin= 2.22D-02
 ErrMax= 2.22D-02 EMaxC= 1.00D-01 BMatC= 4.24D-02 BMatP= 4.24D-02
 IDIUse=3 WtCom= 7.78D-01 WtEn= 2.22D-01
 Coeff-Com:  0.100D+01
 Coeff-En:   0.100D+01
 Coeff:      0.100D+01
 GapD=    2.000 DampG=2.000 DampE=0.500 DampFc=1.0000 IDamp=-1.
 RMSDP=7.91D-03 MaxDP=6.74D-02              OVMax= 0.00D+00

 Cycle   2  Pass 1  IDiag  1:
 E=-0.372446379615212E-01 Delta-E=       -0.108585869832 Rises=F Damp=F
 DIIS: error= 5.61D-03 at cycle   2 NSaved=   2.
 NSaved= 2 IEnMin= 2 EnMin=-0.372446379615212E-01 IErMin= 2 ErrMin= 5.61D-03
 ErrMax= 5.61D-03 EMaxC= 1.00D-01 BMatC= 3.09D-03 BMatP= 4.24D-02
 IDIUse=3 WtCom= 9.44D-01 WtEn= 5.61D-02
 Coeff-Com: -0.335D+00 0.133D+01
 Coeff-En:   0.000D+00 0.100D+01
 Coeff:     -0.316D+00 0.132D+01
 RMSDP=3.04D-03 MaxDP=2.18D-02 DE=-1.09D-01 OVMax= 0.00D+00

 Cycle   3  Pass 1  IDiag  3:
 E=-0.472950043632920E-01 Delta-E=       -0.010050366402 Rises=F Damp=F
 DIIS: error= 1.70D-03 at cycle   3 NSaved=   3.
 NSaved= 3 IEnMin= 3 EnMin=-0.472950043632920E-01 IErMin= 3 ErrMin= 1.70D-03
 ErrMax= 1.70D-03 EMaxC= 1.00D-01 BMatC= 1.43D-04 BMatP= 3.09D-03
 IDIUse=3 WtCom= 9.83D-01 WtEn= 1.70D-02
 Coeff-Com:  0.293D+00-0.123D+01 0.194D+01
 Coeff-En:   0.000D+00 0.000D+00 0.100D+01
 Coeff:      0.288D+00-0.121D+01 0.192D+01
 Gap=     0.554 Goal=   None    Shift=    0.000
 RMSDP=1.26D-03 MaxDP=1.15D-02 DE=-1.01D-02 OVMax= 0.00D+00

 Cycle   4  Pass 1  IDiag  3:
 E=-0.482937881221233E-01 Delta-E=       -0.000998783759 Rises=F Damp=F
 DIIS: error= 4.99D-04 at cycle   4 NSaved=   4.
 NSaved= 4 IEnMin= 4 EnMin=-0.482937881221233E-01 IErMin= 4 ErrMin= 4.99D-04
 ErrMax= 4.99D-04 EMaxC= 1.00D-01 BMatC= 1.32D-05 BMatP= 1.43D-04
 IDIUse=3 WtCom= 9.95D-01 WtEn= 4.99D-03
 Coeff-Com: -0.164D+00 0.699D+00-0.134D+01 0.181D+01
 Coeff-En:   0.000D+00 0.000D+00 0.000D+00 0.100D+01
 Coeff:     -0.163D+00 0.696D+00-0.133D+01 0.180D+01
 Gap=     0.555 Goal=   None    Shift=    0.000
 RMSDP=4.87D-04 MaxDP=4.90D-03 DE=-9.99D-04 OVMax= 0.00D+00

 Cycle   5  Pass 1  IDiag  3:
 E=-0.484045460665357E-01 Delta-E=       -0.000110757944 Rises=F Damp=F
 DIIS: error= 2.14D-04 at cycle   5 NSaved=   5.
 NSaved= 5 IEnMin= 5 EnMin=-0.484045460665357E-01 IErMin= 5 ErrMin= 2.14D-04
 ErrMax= 2.14D-04 EMaxC= 1.00D-01 BMatC= 1.17D-06 BMatP= 1.32D-05
 IDIUse=3 WtCom= 9.98D-01 WtEn= 2.14D-03
 Coeff-Com:  0.113D+00-0.483D+00 0.977D+00-0.156D+01 0.195D+01
 Coeff-En:   0.000D+00 0.000D+00 0.000D+00 0.000D+00 0.100D+01
 Coeff:      0.112D+00-0.482D+00 0.975D+00-0.156D+01 0.195D+01
 Gap=     0.554 Goal=   None    Shift=    0.000
 RMSDP=1.49D-04 MaxDP=1.71D-03 DE=-1.11D-04 OVMax= 0.00D+00

 Cycle   6  Pass 1  IDiag  3:
 E=-0.484142828670429E-01 Delta-E=       -0.000009736801 Rises=F Damp=F
 DIIS: error= 3.89D-05 at cycle   6 NSaved=   6.
 NSaved= 6 IEnMin= 6 EnMin=-0.484142828670429E-01 IErMin= 6 ErrMin= 3.89D-05
 ErrMax= 3.89D-05 EMaxC= 1.00D-01 BMatC= 6.67D-08 BMatP= 1.17D-06
 IDIUse=1 WtCom= 1.00D+00 WtEn= 0.00D+00
 Coeff-Com: -0.601D-02 0.265D-01-0.666D-01 0.148D+00-0.382D+00 0.128D+01
 Coeff:     -0.601D-02 0.265D-01-0.666D-01 0.148D+00-0.382D+00 0.128D+01
 Gap=     0.555 Goal=   None    Shift=    0.000
 RMSDP=2.86D-05 MaxDP=3.31D-04 DE=-9.74D-06 OVMax= 0.00D+00

 Cycle   7  Pass 1  IDiag  3:
 E=-0.484147475456780E-01 Delta-E=       -0.000000464679 Rises=F Damp=F
 DIIS: error= 2.15D-05 at cycle   7 NSaved=   7.
 NSaved= 7 IEnMin= 7 EnMin=-0.484147475456780E-01 IErMin= 7 ErrMin= 2.15D-05
 ErrMax= 2.15D-05 EMaxC= 1.00D-01 BMatC= 8.92D-09 BMatP= 6.67D-08
 IDIUse=1 WtCom= 1.00D+00 WtEn= 0.00D+00
 Coeff-Com:  0.159D-02-0.720D-02 0.210D-01-0.527D-01 0.164D+00-0.842D+00
 Coeff-Com:  0.171D+01
 Coeff:      0.159D-02-0.720D-02 0.210D-01-0.527D-01 0.164D+00-0.842D+00
 Coeff:      0.171D+01
 Gap=     0.555 Goal=   None    Shift=    0.000
 RMSDP=1.10D-05 MaxDP=1.38D-04 DE=-4.65D-07 OVMax= 0.00D+00

 Cycle   8  Pass 1  IDiag  3:
 E=-0.484148098333037E-01 Delta-E=       -0.000000062288 Rises=F Damp=F
 DIIS: error= 5.51D-06 at cycle   8 NSaved=   8.
 NSaved= 8 IEnMin= 8 EnMin=-0.484148098333037E-01 IErMin= 8 ErrMin= 5.51D-06
 ErrMax= 5.51D-06 EMaxC= 1.00D-01 BMatC= 5.65D-10 BMatP= 8.92D-09
 IDIUse=1 WtCom= 1.00D+00 WtEn= 0.00D+00
 Coeff-Com: -0.593D-03 0.279D-02-0.943D-02 0.261D-01-0.861D-01 0.478D+00
 Coeff-Com: -0.114D+01 0.173D+01
 Coeff:     -0.593D-03 0.279D-02-0.943D-02 0.261D-01-0.861D-01 0.478D+00
 Coeff:     -0.114D+01 0.173D+01
 Gap=     0.555 Goal=   None    Shift=    0.000
 RMSDP=2.73D-06 MaxDP=3.87D-05 DE=-6.23D-08 OVMax= 0.00D+00

 Cycle   9  Pass 1  IDiag  3:
 E=-0.484148135413136E-01 Delta-E=       -0.000000003708 Rises=F Damp=F
 DIIS: error= 5.15D-07 at cycle   9 NSaved=   9.
 NSaved= 9 IEnMin= 9 EnMin=-0.484148135413136E-01 IErMin= 9 ErrMin= 5.15D-07
 ErrMax= 5.15D-07 EMaxC= 1.00D-01 BMatC= 1.88D-11 BMatP= 5.65D-10
 IDIUse=1 WtCom= 1.00D+00 WtEn= 0.00D+00
 Coeff-Com: -0.193D-04-0.644D-05 0.138D-02-0.617D-02 0.258D-01-0.160D+00
 Coeff-Com:  0.403D+00-0.723D+00 0.146D+01
 Coeff:     -0.193D-04-0.644D-05 0.138D-02-0.617D-02 0.258D-01-0.160D+00
 Coeff:      0.403D+00-0.723D+00 0.146D+01
 Gap=     0.555 Goal=   None    Shift=    0.000
 RMSDP=4.13D-07 MaxDP=4.53D-06 DE=-3.71D-09 OVMax= 0.00D+00

 Cycle  10  Pass 1  IDiag  3:
 E=-0.484148136548583E-01 Delta-E=       -0.000000000114 Rises=F Damp=F
 DIIS: error= 2.54D-07 at cycle  10 NSaved=  10.
 NSaved=10 IEnMin=10 EnMin=-0.484148136548583E-01 IErMin=10 ErrMin= 2.54D-07
 ErrMax= 2.54D-07 EMaxC= 1.00D-01 BMatC= 2.11D-12 BMatP= 1.88D-11
 IDIUse=1 WtCom= 1.00D+00 WtEn= 0.00D+00
 Coeff-Com:  0.234D-04-0.423D-04-0.808D-03 0.386D-02-0.164D-01 0.103D+00
 Coeff-Com: -0.262D+00 0.484D+00-0.118D+01 0.187D+01
 Coeff:      0.234D-04-0.423D-04-0.808D-03 0.386D-02-0.164D-01 0.103D+00
 Coeff:     -0.262D+00 0.484D+00-0.118D+01 0.187D+01
 Gap=     0.555 Goal=   None    Shift=    0.000
 RMSDP=1.67D-07 MaxDP=2.05D-06 DE=-1.14D-10 OVMax= 0.00D+00

 Cycle  11  Pass 1  IDiag  3:
 E=-0.484148136705187E-01 Delta-E=       -0.000000000016 Rises=F Damp=F
 DIIS: error= 7.30D-08 at cycle  11 NSaved=  11.
 NSaved=11 IEnMin=11 EnMin=-0.484148136705187E-01 IErMin=11 ErrMin= 7.30D-08
 ErrMax= 7.30D-08 EMaxC= 1.00D-01 BMatC= 1.73D-13 BMatP= 2.11D-12
 IDIUse=1 WtCom= 1.00D+00 WtEn= 0.00D+00
 Coeff-Com:  0.622D-05-0.535D-04 0.519D-03-0.201D-02 0.786D-02-0.478D-01
 Coeff-Com:  0.120D+00-0.223D+00 0.571D+00-0.116D+01 0.173D+01
 Coeff:      0.622D-05-0.535D-04 0.519D-03-0.201D-02 0.786D-02-0.478D-01
 Coeff:      0.120D+00-0.223D+00 0.571D+00-0.116D+01 0.173D+01
 Gap=     0.555 Goal=   None    Shift=    0.000
 RMSDP=5.53D-08 MaxDP=6.65D-07 DE=-1.57D-11 OVMax= 0.00D+00

 Cycle  12  Pass 1  IDiag  3:
 E=-0.484148136715135E-01 Delta-E=       -0.000000000001 Rises=F Damp=F
 DIIS: error= 8.96D-09 at cycle  12 NSaved=  12.
 NSaved=12 IEnMin=12 EnMin=-0.484148136715135E-01 IErMin=12 ErrMin= 8.96D-09
 ErrMax= 8.96D-09 EMaxC= 1.00D-01 BMatC= 3.89D-15 BMatP= 1.73D-13
 IDIUse=1 WtCom= 1.00D+00 WtEn= 0.00D+00
 Coeff-Com: -0.181D-05 0.172D-04-0.180D-03 0.699D-03-0.274D-02 0.167D-01
 Coeff-Com: -0.421D-01 0.783D-01-0.203D+00 0.430D+00-0.742D+00 0.146D+01
 Coeff:     -0.181D-05 0.172D-04-0.180D-03 0.699D-03-0.274D-02 0.167D-01
 Coeff:     -0.421D-01 0.783D-01-0.203D+00 0.430D+00-0.742D+00 0.146D+01
 Gap=     0.555 Goal=   None    Shift=    0.000
 RMSDP=6.19D-09 MaxDP=8.21D-08 DE=-9.95D-13 OVMax= 0.00D+00

 Cycle  13  Pass 2  IDiag  1:
 RMSDP=6.19D-09 MaxDP=8.21D-08 DE=-9.95D-13 OVMax= 0.00D+00

 SCF Done:  E(RPM6) = -0.484148136715E-01 A.U. after   13 cycles
             Convg  =    0.6187D-08             -V/T =  0.9991
 KE=-5.644917585030D+01 PE=-2.554178859428D+02 EE= 1.442365086779D+02
 Leave Link  502 at Sun Sep 13 11:19:05 2015, MaxMem=  671088640 cpu:       1.6
 (Enter /share/apps/g09/l601.exe)
 Copying SCF densities to generalized density rwf, IOpCl= 0 IROHF=0.

 **********************************************************************

            Population analysis using the SCF density.

 **********************************************************************

 Orbital symmetries:
       Occupied  (A) (A) (A) (A) (A) (A) (A) (A) (A) (A) (A) (A)
                 (A) (A) (A) (A) (A) (A) (A)
       Virtual   (A) (A) (A) (A) (A) (A) (A) (A) (A) (A) (A) (A)
                 (A) (A) (A) (A) (A) (A) (A)
 The electronic state is 1-A.
 Alpha  occ. eigenvalues --   -1.09059  -1.00784  -0.89955  -0.87616  -0.76270
 Alpha  occ. eigenvalues --   -0.72202  -0.60407  -0.56347  -0.55675  -0.52942
 Alpha  occ. eigenvalues --   -0.50512  -0.49234  -0.48542  -0.46700  -0.45280
 Alpha  occ. eigenvalues --   -0.43627  -0.41952  -0.41689  -0.40909
 Alpha virt. eigenvalues --    0.14539   0.15055   0.16394   0.17112   0.17919
 Alpha virt. eigenvalues --    0.21622   0.22328   0.22570   0.22719   0.22855
 Alpha virt. eigenvalues --    0.22865   0.23090   0.24044   0.24449   0.25160
 Alpha virt. eigenvalues --    0.25514   0.26227   0.26359   0.26765
          Condensed to atoms (all electrons):
              1          2          3          4          5          6
     1  C    4.504178   0.000000   0.000000   0.000000   0.000000   0.000000
     2  H    0.000000   0.850678   0.000000   0.000000   0.000000   0.000000
     3  H    0.000000   0.000000   0.846086   0.000000   0.000000   0.000000
     4  H    0.000000   0.000000   0.000000   0.849541   0.000000   0.000000
     5  C    0.000000   0.000000   0.000000   0.000000   3.981608   0.000000
     6  H    0.000000   0.000000   0.000000   0.000000   0.000000   0.892325
     7  C    0.000000   0.000000   0.000000   0.000000   0.000000   0.000000
     8  H    0.000000   0.000000   0.000000   0.000000   0.000000   0.000000
     9  H    0.000000   0.000000   0.000000   0.000000   0.000000   0.000000
    10  C    0.000000   0.000000   0.000000   0.000000   0.000000   0.000000
    11  H    0.000000   0.000000   0.000000   0.000000   0.000000   0.000000
    12  H    0.000000   0.000000   0.000000   0.000000   0.000000   0.000000
    13  C    0.000000   0.000000   0.000000   0.000000   0.000000   0.000000
    14  H    0.000000   0.000000   0.000000   0.000000   0.000000   0.000000
    15  H    0.000000   0.000000   0.000000   0.000000   0.000000   0.000000
    16  H    0.000000   0.000000   0.000000   0.000000   0.000000   0.000000
    17  C    0.000000   0.000000   0.000000   0.000000   0.000000   0.000000
    18  H    0.000000   0.000000   0.000000   0.000000   0.000000   0.000000
    19  H    0.000000   0.000000   0.000000   0.000000   0.000000   0.000000
    20  H    0.000000   0.000000   0.000000   0.000000   0.000000   0.000000
              7          8          9         10         11         12
     1  C    0.000000   0.000000   0.000000   0.000000   0.000000   0.000000
     2  H    0.000000   0.000000   0.000000   0.000000   0.000000   0.000000
     3  H    0.000000   0.000000   0.000000   0.000000   0.000000   0.000000
     4  H    0.000000   0.000000   0.000000   0.000000   0.000000   0.000000
     5  C    0.000000   0.000000   0.000000   0.000000   0.000000   0.000000
     6  H    0.000000   0.000000   0.000000   0.000000   0.000000   0.000000
     7  C    4.308307   0.000000   0.000000   0.000000   0.000000   0.000000
     8  H    0.000000   0.861696   0.000000   0.000000   0.000000   0.000000
     9  H    0.000000   0.000000   0.865450   0.000000   0.000000   0.000000
    10  C    0.000000   0.000000   0.000000   4.216870   0.000000   0.000000
    11  H    0.000000   0.000000   0.000000   0.000000   0.875597   0.000000
    12  H    0.000000   0.000000   0.000000   0.000000   0.000000   0.871119
    13  C    0.000000   0.000000   0.000000   0.000000   0.000000   0.000000
    14  H    0.000000   0.000000   0.000000   0.000000   0.000000   0.000000
    15  H    0.000000   0.000000   0.000000   0.000000   0.000000   0.000000
    16  H    0.000000   0.000000   0.000000   0.000000   0.000000   0.000000
    17  C    0.000000   0.000000   0.000000   0.000000   0.000000   0.000000
    18  H    0.000000   0.000000   0.000000   0.000000   0.000000   0.000000
    19  H    0.000000   0.000000   0.000000   0.000000   0.000000   0.000000
    20  H    0.000000   0.000000   0.000000   0.000000   0.000000   0.000000
             13         14         15         16         17         18
     1  C    0.000000   0.000000   0.000000   0.000000   0.000000   0.000000
     2  H    0.000000   0.000000   0.000000   0.000000   0.000000   0.000000
     3  H    0.000000   0.000000   0.000000   0.000000   0.000000   0.000000
     4  H    0.000000   0.000000   0.000000   0.000000   0.000000   0.000000
     5  C    0.000000   0.000000   0.000000   0.000000   0.000000   0.000000
     6  H    0.000000   0.000000   0.000000   0.000000   0.000000   0.000000
     7  C    0.000000   0.000000   0.000000   0.000000   0.000000   0.000000
     8  H    0.000000   0.000000   0.000000   0.000000   0.000000   0.000000
     9  H    0.000000   0.000000   0.000000   0.000000   0.000000   0.000000
    10  C    0.000000   0.000000   0.000000   0.000000   0.000000   0.000000
    11  H    0.000000   0.000000   0.000000   0.000000   0.000000   0.000000
    12  H    0.000000   0.000000   0.000000   0.000000   0.000000   0.000000
    13  C    4.467965   0.000000   0.000000   0.000000   0.000000   0.000000
    14  H    0.000000   0.852308   0.000000   0.000000   0.000000   0.000000
    15  H    0.000000   0.000000   0.855540   0.000000   0.000000   0.000000
    16  H    0.000000   0.000000   0.000000   0.852509   0.000000   0.000000
    17  C    0.000000   0.000000   0.000000   0.000000   4.500994   0.000000
    18  H    0.000000   0.000000   0.000000   0.000000   0.000000   0.851533
    19  H    0.000000   0.000000   0.000000   0.000000   0.000000   0.000000
    20  H    0.000000   0.000000   0.000000   0.000000   0.000000   0.000000
             19         20
     1  C    0.000000   0.000000
     2  H    0.000000   0.000000
     3  H    0.000000   0.000000
     4  H    0.000000   0.000000
     5  C    0.000000   0.000000
     6  H    0.000000   0.000000
     7  C    0.000000   0.000000
     8  H    0.000000   0.000000
     9  H    0.000000   0.000000
    10  C    0.000000   0.000000
    11  H    0.000000   0.000000
    12  H    0.000000   0.000000
    13  C    0.000000   0.000000
    14  H    0.000000   0.000000
    15  H    0.000000   0.000000
    16  H    0.000000   0.000000
    17  C    0.000000   0.000000
    18  H    0.000000   0.000000
    19  H    0.845830   0.000000
    20  H    0.000000   0.849866
 Mulliken atomic charges:
              1
     1  C   -0.504178
     2  H    0.149322
     3  H    0.153914
     4  H    0.150459
     5  C    0.018392
     6  H    0.107675
     7  C   -0.308307
     8  H    0.138304
     9  H    0.134550
    10  C   -0.216870
    11  H    0.124403
    12  H    0.128881
    13  C   -0.467965
    14  H    0.147692
    15  H    0.144460
    16  H    0.147491
    17  C   -0.500994
    18  H    0.148467
    19  H    0.154170
    20  H    0.150134
 Sum of Mulliken atomic charges =   0.00000
 Mulliken charges with hydrogens summed into heavy atoms:
              1
     1  C   -0.050483
     5  C    0.126067
     7  C   -0.035453
    10  C    0.036414
    13  C   -0.028322
    17  C   -0.048223
 Sum of Mulliken charges with hydrogens summed into heavy atoms =   0.00000
 Charge=              0.0000 electrons
 Dipole moment (field-independent basis, Debye):
    X=              0.0116    Y=              0.0067    Z=              0.0639  Tot=              0.0653
 N-N= 1.675821383016D+02 E-N=-2.554178858967D+02  KE=-5.644917585030D+01
 Leave Link  601 at Sun Sep 13 11:19:08 2015, MaxMem=  671088640 cpu:       0.1
 (Enter /share/apps/g09/l701.exe)
 Compute integral first derivatives.
 ... and contract with generalized density number  0.
 Leave Link  701 at Sun Sep 13 11:19:08 2015, MaxMem=  671088640 cpu:       0.1
 (Enter /share/apps/g09/l702.exe)
 L702 exits ... SP integral derivatives will be done elsewhere.
 Leave Link  702 at Sun Sep 13 11:19:10 2015, MaxMem=  671088640 cpu:       0.0
 (Enter /share/apps/g09/l703.exe)
 Compute integral first derivatives, UseDBF=F ICtDFT=           0.
 Integral derivatives from FoFDir, PRISM(SPDF).
 Calling FoFJK, ICntrl=      2127 FMM=F ISym2X=0 I1Cent= 0 IOpClX= 0 NMat=1 NMatS=1 NMatT=0.
 FoFCou: FMM=F IPFlag=           0 FMFlag=      100000 FMFlg1=         800
         NFxFlg=           0 DoJE=F BraDBF=F KetDBF=F FulRan=T
         Omega=  0.000000  0.000000  1.000000  0.000000  0.000000 ICntrl=    2127 IOpCl=  0
         NMat0=    1 NMatS0=    1 NMatT0=    0 NMatD0=    1 NMtDS0=    0 NMtDT0=    0
         I1Cent=           0 NGrid=           0.
 Symmetry not used in FoFCou.
 Leave Link  703 at Sun Sep 13 11:19:12 2015, MaxMem=  671088640 cpu:       0.1
 (Enter /share/apps/g09/l716.exe)
 Dipole        = 4.55082954D-03 2.61657335D-03 2.51415848D-02
 ***** Axes restored to original set *****
 -------------------------------------------------------------------
 Center     Atomic                   Forces (Hartrees/Bohr)
 Number     Number              X              Y              Z
 -------------------------------------------------------------------
      1        6           0.006032336    0.006271739    0.015036711
      2        1           0.002501931   -0.013630859   -0.003496111
      3        1           0.002402051    0.003691525   -0.013927981
      4        1          -0.013591926   -0.002206409   -0.003386850
      5        6           0.004474247    0.009366630   -0.017985870
      6        1          -0.008532090   -0.011261586    0.018592202
      7        6          -0.011804061    0.007848392    0.017354929
      8        1           0.008583521    0.005543515   -0.016418185
      9        1           0.007834435   -0.017041768   -0.003087875
     10        6           0.018326531   -0.010533459   -0.014804762
     11        1          -0.007460567   -0.006060172    0.016620318
     12        1          -0.006151512    0.017851633    0.003623847
     13        6          -0.019103488    0.000881687    0.001673082
     14        1           0.008522778    0.005942012   -0.010076056
     15        1           0.007868975    0.005828004    0.010097035
     16        1           0.008534484   -0.011718778    0.000147176
     17        6           0.001541288   -0.015907609    0.000449233
     18        1          -0.001237047    0.008679835    0.011232518
     19        1           0.004542464    0.011543195   -0.008281604
     20        1          -0.013284350    0.004912473   -0.003361756
 -------------------------------------------------------------------
 Cartesian Forces:  Max     0.019103488 RMS     0.010342359
 Leave Link  716 at Sun Sep 13 11:19:14 2015, MaxMem=  671088640 cpu:       0.1
 (Enter /share/apps/g09/l103.exe)

 GradGradGradGradGradGradGradGradGradGradGradGradGradGradGradGradGradGrad
 Berny optimization.
 Internal  Forces:  Max     0.023334075 RMS     0.007012880
 Search for a local minimum.
 Step number   1 out of a maximum of  110
 All quantities printed in internal units (Hartrees-Bohrs-Radians)
 RMS Force = .70129D-02 SwitMx=.10000D-02 MixMth= 1
 Mixed Optimization -- RFO/linear search
 Second derivative matrix not updated -- first step.
     Eigenvalues ---    0.00237   0.00237   0.00237   0.00237   0.00237
     Eigenvalues ---    0.03840   0.03840   0.03921   0.04607   0.04607
     Eigenvalues ---    0.04896   0.04896   0.05720   0.05720   0.05720
     Eigenvalues ---    0.05720   0.05720   0.05720   0.07655   0.07655
     Eigenvalues ---    0.11701   0.11701   0.16000   0.16000   0.16000
     Eigenvalues ---    0.16000   0.16000   0.16000   0.16000   0.16000
     Eigenvalues ---    0.16000   0.16074   0.16074   0.21948   0.21948
     Eigenvalues ---    0.28519   0.28519   0.28519   0.28519   0.28519
     Eigenvalues ---    0.37230   0.37230   0.37230   0.37230   0.37230
     Eigenvalues ---    0.37230   0.37230   0.37230   0.37230   0.37230
     Eigenvalues ---    0.37230   0.37230   0.37230   0.372301000.00000
     Eigenvalues --- 1000.000001000.000001000.000001000.000001000.00000
     Eigenvalues --- 1000.000001000.000001000.000001000.000001000.00000
     Eigenvalues --- 1000.000001000.000001000.000001000.000001000.00000
     Eigenvalues --- 1000.000001000.000001000.000001000.000001000.00000
     Eigenvalues --- 1000.000001000.000001000.000001000.000001000.00000
     Eigenvalues --- 1000.000001000.000001000.000001000.000001000.00000
     Eigenvalues --- 1000.000001000.000001000.000001000.000001000.00000
     Eigenvalues --- 1000.000001000.000001000.000001000.000001000.00000
     Eigenvalues --- 1000.000001000.000001000.000001000.000001000.00000
 RFO step:  Lambda=-1.61548738D-02 EMin= 2.36824100D-03
 Linear search not attempted -- first point.
 Iteration  1 RMS(Cart)=  0.08432907 RMS(Int)=  0.00142658
 Iteration  2 RMS(Cart)=  0.00192268 RMS(Int)=  0.00024329
 Iteration  3 RMS(Cart)=  0.00000302 RMS(Int)=  0.00024328
 Iteration  4 RMS(Cart)=  0.00000000 RMS(Int)=  0.00024328
 Variable       Old X    -DE/DX   Delta X   Delta X   Delta X     New X
                                 (Linear)    (Quad)   (Total)
    R1        2.02201   0.01369   0.00000   0.03523   0.03523   2.05724
    R2        2.02201   0.01391   0.00000   0.03582   0.03582   2.05782
    R3        2.02201   0.01359   0.00000   0.03499   0.03499   2.05700
    R4        2.91018   0.00837   0.00000   0.02777   0.02777   2.93795
    R5        2.02201   0.02333   0.00000   0.06007   0.06007   2.08208
    R6        2.91018   0.01516   0.00000   0.05030   0.05030   2.96048
    R7        2.91018   0.01150   0.00000   0.03818   0.03818   2.94836
    R8        2.02201   0.01889   0.00000   0.04862   0.04862   2.07063
    R9        2.02201   0.01867   0.00000   0.04807   0.04807   2.07007
   R10        2.91018   0.01049   0.00000   0.03481   0.03481   2.94499
   R11        2.02201   0.01892   0.00000   0.04871   0.04871   2.07071
   R12        2.02201   0.01888   0.00000   0.04859   0.04859   2.07060
   R13        2.91018   0.00582   0.00000   0.01932   0.01932   2.92950
   R14        2.02201   0.01388   0.00000   0.03572   0.03572   2.05773
   R15        2.02201   0.01361   0.00000   0.03505   0.03505   2.05705
   R16        2.02201   0.01389   0.00000   0.03575   0.03575   2.05776
   R17        2.02201   0.01358   0.00000   0.03496   0.03496   2.05696
   R18        2.02201   0.01401   0.00000   0.03606   0.03606   2.05806
   R19        2.02201   0.01376   0.00000   0.03541   0.03541   2.05742
    A1        1.91063  -0.00425   0.00000  -0.02308  -0.02343   1.88720
    A2        1.91063  -0.00422   0.00000  -0.02526  -0.02547   1.88516
    A3        1.91063   0.00410   0.00000   0.02312   0.02283   1.93346
    A4        1.91063  -0.00428   0.00000  -0.02400  -0.02431   1.88633
    A5        1.91063   0.00473   0.00000   0.02752   0.02717   1.93781
    A6        1.91063   0.00391   0.00000   0.02170   0.02143   1.93206
    A7        1.91063   0.00055   0.00000  -0.01859  -0.01879   1.89185
    A8        1.91063  -0.00243   0.00000  -0.00644  -0.00697   1.90366
    A9        1.91063  -0.00132   0.00000   0.00107   0.00076   1.91140
   A10        1.91063  -0.00140   0.00000  -0.01370  -0.01385   1.89679
   A11        1.91063  -0.00153   0.00000  -0.01057  -0.01054   1.90009
   A12        1.91063   0.00613   0.00000   0.04824   0.04824   1.95888
   A13        1.91063  -0.00201   0.00000   0.00656   0.00550   1.91614
   A14        1.91063  -0.00312   0.00000  -0.01551  -0.01527   1.89537
   A15        1.91063   0.01097   0.00000   0.05704   0.05648   1.96711
   A16        1.91063  -0.00033   0.00000  -0.03519  -0.03533   1.87531
   A17        1.91063  -0.00203   0.00000   0.00578   0.00468   1.91531
   A18        1.91063  -0.00346   0.00000  -0.01869  -0.01853   1.89211
   A19        1.91063  -0.00049   0.00000   0.00301   0.00302   1.91365
   A20        1.91063   0.00066   0.00000   0.01375   0.01374   1.92438
   A21        1.91063   0.00345   0.00000   0.02127   0.02113   1.93176
   A22        1.91063  -0.00115   0.00000  -0.02621  -0.02629   1.88434
   A23        1.91063  -0.00085   0.00000  -0.00405  -0.00421   1.90642
   A24        1.91063  -0.00162   0.00000  -0.00777  -0.00809   1.90255
   A25        1.91063   0.00431   0.00000   0.02479   0.02449   1.93513
   A26        1.91063   0.00324   0.00000   0.01764   0.01743   1.92806
   A27        1.91063   0.00440   0.00000   0.02535   0.02505   1.93569
   A28        1.91063  -0.00390   0.00000  -0.02290  -0.02310   1.88754
   A29        1.91063  -0.00412   0.00000  -0.02196  -0.02232   1.88832
   A30        1.91063  -0.00392   0.00000  -0.02292  -0.02313   1.88751
   A31        1.91063   0.00415   0.00000   0.02373   0.02336   1.93399
   A32        1.91063   0.00542   0.00000   0.03203   0.03157   1.94221
   A33        1.91063   0.00463   0.00000   0.02486   0.02454   1.93517
   A34        1.91063  -0.00433   0.00000  -0.02172  -0.02220   1.88844
   A35        1.91063  -0.00479   0.00000  -0.02973  -0.02994   1.88069
   A36        1.91063  -0.00508   0.00000  -0.02916  -0.02954   1.88109
    D1       -1.04914   0.00028   0.00000   0.00210   0.00211  -1.04702
    D2        1.04526  -0.00259   0.00000  -0.03001  -0.02985   1.01541
    D3        3.13965   0.00262   0.00000   0.02578   0.02572  -3.11782
    D4        3.13965   0.00007   0.00000  -0.00064  -0.00068   3.13898
    D5       -1.04914  -0.00279   0.00000  -0.03275  -0.03264  -1.08178
    D6        1.04526   0.00241   0.00000   0.02304   0.02293   1.06818
    D7        1.04526   0.00002   0.00000  -0.00139  -0.00144   1.04382
    D8        3.13965  -0.00285   0.00000  -0.03350  -0.03340   3.10625
    D9       -1.04914   0.00236   0.00000   0.02229   0.02217  -1.02697
   D10        1.04682  -0.00081   0.00000   0.02153   0.02138   1.06820
   D11       -1.04757   0.00274   0.00000   0.07011   0.07009  -0.97748
   D12        3.14122   0.00218   0.00000   0.06756   0.06778  -3.07419
   D13        3.14122  -0.00248   0.00000  -0.01358  -0.01369   3.12753
   D14        1.04682   0.00107   0.00000   0.03500   0.03502   1.08184
   D15       -1.04757   0.00051   0.00000   0.03245   0.03271  -1.01486
   D16       -1.04757  -0.00145   0.00000  -0.00537  -0.00561  -1.05318
   D17        3.14122   0.00210   0.00000   0.04320   0.04310  -3.09887
   D18        1.04682   0.00154   0.00000   0.04066   0.04079   1.08761
   D19        2.79526  -0.00040   0.00000  -0.00613  -0.00632   2.78894
   D20       -1.39353   0.00015   0.00000   0.00141   0.00131  -1.39222
   D21        0.70087   0.00009   0.00000   0.00054   0.00045   0.70132
   D22        0.70087   0.00067   0.00000   0.02247   0.02240   0.72327
   D23        2.79526   0.00122   0.00000   0.03001   0.03003   2.82530
   D24       -1.39353   0.00116   0.00000   0.02913   0.02918  -1.36435
   D25       -1.39353  -0.00044   0.00000   0.01618   0.01624  -1.37729
   D26        0.70087   0.00011   0.00000   0.02372   0.02387   0.72474
   D27        2.79526   0.00005   0.00000   0.02285   0.02302   2.81828
   D28        1.04712  -0.00163   0.00000  -0.03534  -0.03561   1.01151
   D29       -1.04728  -0.00033   0.00000  -0.01350  -0.01362  -1.06090
   D30        3.14151  -0.00086   0.00000  -0.02543  -0.02570   3.11581
   D31        3.14151   0.00137   0.00000   0.01117   0.01125  -3.13042
   D32        1.04711   0.00267   0.00000   0.03300   0.03324   1.08036
   D33       -1.04728   0.00214   0.00000   0.02107   0.02116  -1.02612
   D34       -1.04728  -0.00241   0.00000  -0.03983  -0.03980  -1.08708
   D35        3.14151  -0.00110   0.00000  -0.01799  -0.01781   3.12370
   D36        1.04712  -0.00164   0.00000  -0.02992  -0.02989   1.01723
   D37        1.04719   0.00046   0.00000   0.00559   0.00561   1.05280
   D38        3.14158   0.00031   0.00000   0.00352   0.00350  -3.13811
   D39       -1.04721   0.00018   0.00000   0.00178   0.00171  -1.04549
   D40        3.14158   0.00145   0.00000   0.01982   0.01981  -3.12179
   D41       -1.04721   0.00130   0.00000   0.01776   0.01770  -1.02950
   D42        1.04719   0.00117   0.00000   0.01601   0.01592   1.06311
   D43       -1.04721  -0.00147   0.00000  -0.01952  -0.01940  -1.06661
   D44        1.04719  -0.00163   0.00000  -0.02159  -0.02151   1.02568
   D45        3.14158  -0.00175   0.00000  -0.02333  -0.02330   3.11829
         Item               Value     Threshold  Converged?
 Maximum Force            0.023334     0.000450     NO 
 RMS     Force            0.007013     0.000300     NO 
 Maximum Displacement     0.302877     0.001800     NO 
 RMS     Displacement     0.084761     0.001200     NO 
 Predicted change in Energy=-8.768608D-03
 GradGradGradGradGradGradGradGradGradGradGradGradGradGradGradGradGradGrad

 Leave Link  103 at Sun Sep 13 11:19:14 2015, MaxMem=  671088640 cpu:       0.1
 (Enter /share/apps/g09/l202.exe)
                          Input orientation:                          
 ---------------------------------------------------------------------
 Center     Atomic      Atomic             Coordinates (Angstroms)
 Number     Number       Type             X           Y           Z
 ---------------------------------------------------------------------
      1          6           0       -3.891019   -0.197862   -0.005505
      2          1           0       -3.505498   -1.215906    0.004617
      3          1           0       -3.554610    0.282740   -0.922930
      4          1           0       -4.978010   -0.249815   -0.030364
      5          6           0       -3.406888    0.587716    1.245720
      6          1           0       -3.772087    0.067470    2.145670
      7          6           0       -1.840493    0.594812    1.271243
      8          1           0       -1.457194    1.096183    0.375512
      9          1           0       -1.485980   -0.441334    1.244752
     10          6           0       -1.262704    1.280234    2.546009
     11          1           0       -1.637941    0.770521    3.440498
     12          1           0       -1.584633    2.326527    2.593172
     13          6           0        0.286647    1.228417    2.540959
     14          1           0        0.689338    1.745833    1.671575
     15          1           0        0.686388    1.704874    3.434339
     16          1           0        0.640940    0.199000    2.518219
     17          6           0       -4.003472    2.029110    1.219178
     18          1           0       -3.986890    2.472852    2.212982
     19          1           0       -3.441693    2.677107    0.547910
     20          1           0       -5.037663    2.014775    0.879182
 ---------------------------------------------------------------------
                    Distance matrix (angstroms):
                    1          2          3          4          5
     1  C    0.000000
     2  H    1.088643   0.000000
     3  H    1.088953   1.763150   0.000000
     4  H    1.088516   1.761491   1.762486   0.000000
     5  C    1.554696   2.191601   2.194966   2.190497   0.000000
     6  H    2.170737   2.510425   3.083819   2.507996   1.101787
     7  C    2.542258   2.766818   2.801782   3.500227   1.566618
     8  H    2.782667   3.111088   2.597460   3.791121   2.194791
     9  H    2.721514   2.493261   3.082590   3.722483   2.179181
    10  C    3.950067   4.209455   4.275671   4.773075   2.601510
    11  H    4.229546   4.386221   4.790725   4.923822   2.824825
    12  H    4.294774   4.789486   4.518943   5.003548   2.856519
    13  C    5.096238   5.175723   5.258145   6.042639   3.966149
    14  H    5.250735   5.398824   5.184900   6.244841   4.278043
    15  H    6.033705   6.153524   6.244544   6.921733   4.774202
    16  H    5.202436   5.051049   5.426892   6.186219   4.260899
    17  C    2.543992   3.500466   2.799984   2.775712   1.560203
    18  H    3.473268   4.326148   3.849338   3.664401   2.196756
    19  H    2.962028   3.931259   2.812315   3.355823   2.203113
    20  H    2.644470   3.680991   2.906372   2.441147   2.197789
                    6          7          8          9         10
     6  H    0.000000
     7  C    2.184895   0.000000
     8  H    3.090379   1.095730   0.000000
     9  H    2.509347   1.095436   1.766456   0.000000
    10  C    2.815683   1.558420   2.186952   2.169543   0.000000
    11  H    2.593345   2.185765   3.087534   2.512565   1.095774
    12  H    3.176248   2.193581   2.539292   3.080425   1.095715
    13  C    4.239973   2.557021   2.783456   2.758700   1.550225
    14  H    4.790196   2.808053   2.590255   3.114143   2.189038
    15  H    4.921358   3.506616   3.784425   3.757617   2.183669
    16  H    4.430677   2.805197   3.130223   2.560377   2.189452
    17  C    2.181732   2.595842   2.840011   3.527253   3.135778
    18  H    2.415892   3.003486   3.416267   3.960366   2.992396
    19  H    3.077694   2.724519   2.543085   3.746342   3.269808
    20  H    2.645311   3.520213   3.730583   4.333654   4.191441
                   11         12         13         14         15
    11  H    0.000000
    12  H    1.772557   0.000000
    13  C    2.173218   2.170313   0.000000
    14  H    3.081648   2.521407   1.088902   0.000000
    15  H    2.505107   2.500310   1.088547   1.763243   0.000000
    16  H    2.523992   3.079800   1.088917   1.764042   1.763236
    17  C    3.480523   2.797695   4.559971   4.723069   5.196812
    18  H    3.149966   2.436554   4.463105   4.763275   4.890913
    19  H    3.905849   2.784722   4.468944   4.381245   5.130084
    20  H    4.434706   3.867605   5.632773   5.787811   6.276115
                   16         17         18         19         20
    16  H    0.000000
    17  C    5.158234   0.000000
    18  H    5.165306   1.088498   0.000000
    19  H    5.166336   1.089081   1.763923   0.000000
    20  H    6.183042   1.088739   1.758688   1.759415   0.000000
 Stoichiometry    C6H14
 Framework group  C1[X(C6H14)]
 Deg. of freedom    54
 Full point group                 C1      NOp   1
 Largest Abelian subgroup         C1      NOp   1
 Largest concise Abelian subgroup C1      NOp   1
                         Standard orientation:                         
 ---------------------------------------------------------------------
 Center     Atomic      Atomic             Coordinates (Angstroms)
 Number     Number       Type             X           Y           Z
 ---------------------------------------------------------------------
      1          6           0        2.185183   -1.021758    0.056967
      2          1           0        1.980097   -2.009861   -0.351366
      3          1           0        2.244905   -1.108736    1.140796
      4          1           0        3.158413   -0.701146   -0.310317
      5          6           0        1.079874   -0.011709   -0.361572
      6          1           0        1.058831    0.044553   -1.461721
      7          6           0       -0.308667   -0.535159    0.140668
      8          1           0       -0.302894   -0.611861    1.233695
      9          1           0       -0.467281   -1.542888   -0.258461
     10          6           0       -1.493437    0.367727   -0.317361
     11          1           0       -1.504590    0.434097   -1.411066
     12          1           0       -1.374296    1.381279    0.081525
     13          6           0       -2.845000   -0.212134    0.172779
     14          1           0       -2.870512   -0.271156    1.259781
     15          1           0       -3.670226    0.419121   -0.151955
     16          1           0       -3.006052   -1.212567   -0.225889
     17          6           0        1.420415    1.399770    0.209386
     18          1           0        0.890163    2.176717   -0.338351
     19          1           0        1.146644    1.477493    1.260626
     20          1           0        2.486586    1.604533    0.127507
 ---------------------------------------------------------------------
 Rotational constants (GHZ):      6.4557870      1.6888928      1.4512587
 Leave Link  202 at Sun Sep 13 11:19:15 2015, MaxMem=  671088640 cpu:       0.0
 (Enter /share/apps/g09/l301.exe)
 Standard basis: VSTO-6G (5D, 7F)
 Ernie: Thresh=  0.10000D-02 Tol=  0.10000D-05 Strict=F.
  NNHCO=     0 NNPyr=     0 NCTC=     0               EPep=         0.000000000
    EC=       127.472284988  ECS=         3.242013067   EG=         0.298189410
   EHC=         0.000497262  EAt=       -31.187935768  AtH=         2.796400831
 EPDDG=         0.000000000  ECC=       131.012984727 EAtT=        33.984336599
 There are    38 symmetry adapted basis functions of A   symmetry.
 Integral buffers will be    131072 words long.
 Regular integral format.
 Two-electron integral symmetry is turned off.
    38 basis functions,   228 primitive gaussians,    38 cartesian basis functions
    19 alpha electrons       19 beta electrons
       nuclear repulsion energy       164.9973213259 Hartrees.
 IExCor=    0 DFT=F Ex=HF Corr=None ExCW=0 ScaHFX=  1.000000
 ScaDFX=  1.000000  1.000000  1.000000  1.000000 ScalE2=  1.000000  1.000000
 IRadAn=      0 IRanWt=     -1 IRanGd=            0 ICorTp=0
 Leave Link  301 at Sun Sep 13 11:19:17 2015, MaxMem=  671088640 cpu:       0.2
 (Enter /share/apps/g09/l302.exe)
 Do NDO integrals.
 NPDir=0 NMtPBC=     1 NCelOv=     1 NCel=       1 NClECP=     1 NCelD=      1
         NCelK=      1 NCelE2=     1 NClLst=     1 CellRange=     0.0.
 One-electron integrals computed using PRISM.
 NBasis=    38 RedAO= F  NBF=    38
 NBsUse=    38 1.00D-04 NBFU=    38
 Leave Link  302 at Sun Sep 13 11:19:18 2015, MaxMem=  671088640 cpu:       0.2
 (Enter /share/apps/g09/l303.exe)
 DipDrv:  MaxL=1.
 Leave Link  303 at Sun Sep 13 11:19:18 2015, MaxMem=  671088640 cpu:       0.1
 (Enter /share/apps/g09/l401.exe)
 Initial guess read from the read-write file.
 B after Tr=     0.000000    0.000000    0.000000
         Rot=    1.000000    0.000000    0.000000    0.000000 Ang=   0.00 deg.
 Guess basis will be translated and rotated to current coordinates.
 Initial guess orbital symmetries:
       Occupied  (A) (A) (A) (A) (A) (A) (A) (A) (A) (A) (A) (A)
                 (A) (A) (A) (A) (A) (A) (A)
       Virtual   (A) (A) (A) (A) (A) (A) (A) (A) (A) (A) (A) (A)
                 (A) (A) (A) (A) (A) (A) (A)
 The electronic state of the initial guess is 1-A.
 Leave Link  401 at Sun Sep 13 11:19:18 2015, MaxMem=  671088640 cpu:       0.2
 (Enter /share/apps/g09/l502.exe)
 Closed shell SCF:
 Requested convergence on RMS density matrix=1.00D-08 within 128 cycles.
 Requested convergence on MAX density matrix=1.00D-06.
 Requested convergence on             energy=1.00D-06.
 No special actions if energy rises.
 Using DIIS extrapolation, IDIIS=  1040.
 Overlap will be assumed to be unity.
 Two-electron integral symmetry not used.
 Keep J ints in memory in canonical form, NReq=884654.
 IEnd=       81865 IEndB=       81865 NGot=   671088640 MDV=   671022095
 LenX=   671022095 LenY=   671020210
 Symmetry not used in FoFDir.
 MinBra= 0 MaxBra= 1 Meth=40.
 IRaf=       0 NMat=   1 IRICut=       1 DoRegI=T DoRafI=F ISym2E= 0 JSym2E=0.

 Cycle   1  Pass 1  IDiag  1:
 E=-0.471204889929311E-01
 DIIS: error= 7.95D-03 at cycle   1 NSaved=   1.
 NSaved= 1 IEnMin= 1 EnMin=-0.471204889929311E-01 IErMin= 1 ErrMin= 7.95D-03
 ErrMax= 7.95D-03 EMaxC= 1.00D-01 BMatC= 2.01D-03 BMatP= 2.01D-03
 IDIUse=3 WtCom= 9.20D-01 WtEn= 7.95D-02
 Coeff-Com:  0.100D+01
 Coeff-En:   0.100D+01
 Coeff:      0.100D+01
 GapD=    2.000 DampG=2.000 DampE=1.000 DampFc=2.0000 IDamp=-1.
 RMSDP=2.15D-03 MaxDP=1.62D-02              OVMax= 0.00D+00

 Cycle   2  Pass 1  IDiag  3:
 E=-0.542384776435938E-01 Delta-E=       -0.007117988651 Rises=F Damp=F
 DIIS: error= 3.36D-03 at cycle   2 NSaved=   2.
 NSaved= 2 IEnMin= 2 EnMin=-0.542384776435938E-01 IErMin= 2 ErrMin= 3.36D-03
 ErrMax= 3.36D-03 EMaxC= 1.00D-01 BMatC= 3.17D-04 BMatP= 2.01D-03
 IDIUse=3 WtCom= 9.66D-01 WtEn= 3.36D-02
 Coeff-Com: -0.585D+00 0.159D+01
 Coeff-En:   0.000D+00 0.100D+01
 Coeff:     -0.566D+00 0.157D+01
 Gap=     0.556 Goal=   None    Shift=    0.000
 RMSDP=1.43D-03 MaxDP=1.11D-02 DE=-7.12D-03 OVMax= 0.00D+00

 Cycle   3  Pass 1  IDiag  3:
 E=-0.557474567150109E-01 Delta-E=       -0.001508979071 Rises=F Damp=F
 DIIS: error= 4.26D-04 at cycle   3 NSaved=   3.
 NSaved= 3 IEnMin= 3 EnMin=-0.557474567150109E-01 IErMin= 3 ErrMin= 4.26D-04
 ErrMax= 4.26D-04 EMaxC= 1.00D-01 BMatC= 5.86D-06 BMatP= 3.17D-04
 IDIUse=3 WtCom= 9.96D-01 WtEn= 4.26D-03
 Coeff-Com:  0.197D+00-0.624D+00 0.143D+01
 Coeff-En:   0.000D+00 0.000D+00 0.100D+01
 Coeff:      0.196D+00-0.621D+00 0.143D+01
 Gap=     0.555 Goal=   None    Shift=    0.000
 RMSDP=2.23D-04 MaxDP=1.73D-03 DE=-1.51D-03 OVMax= 0.00D+00

 Cycle   4  Pass 1  IDiag  3:
 E=-0.557768810360812E-01 Delta-E=       -0.000029424321 Rises=F Damp=F
 DIIS: error= 2.53D-05 at cycle   4 NSaved=   4.
 NSaved= 4 IEnMin= 4 EnMin=-0.557768810360812E-01 IErMin= 4 ErrMin= 2.53D-05
 ErrMax= 2.53D-05 EMaxC= 1.00D-01 BMatC= 5.33D-08 BMatP= 5.86D-06
 IDIUse=1 WtCom= 1.00D+00 WtEn= 0.00D+00
 Coeff-Com: -0.745D-01 0.238D+00-0.577D+00 0.141D+01
 Coeff:     -0.745D-01 0.238D+00-0.577D+00 0.141D+01
 Gap=     0.555 Goal=   None    Shift=    0.000
 RMSDP=1.80D-05 MaxDP=1.02D-04 DE=-2.94D-05 OVMax= 0.00D+00

 Cycle   5  Pass 1  IDiag  3:
 E=-0.557771357799481E-01 Delta-E=       -0.000000254744 Rises=F Damp=F
 DIIS: error= 7.86D-06 at cycle   5 NSaved=   5.
 NSaved= 5 IEnMin= 5 EnMin=-0.557771357799481E-01 IErMin= 5 ErrMin= 7.86D-06
 ErrMax= 7.86D-06 EMaxC= 1.00D-01 BMatC= 2.78D-09 BMatP= 5.33D-08
 IDIUse=1 WtCom= 1.00D+00 WtEn= 0.00D+00
 Coeff-Com:  0.273D-01-0.876D-01 0.216D+00-0.657D+00 0.150D+01
 Coeff:      0.273D-01-0.876D-01 0.216D+00-0.657D+00 0.150D+01
 Gap=     0.555 Goal=   None    Shift=    0.000
 RMSDP=4.96D-06 MaxDP=3.84D-05 DE=-2.55D-07 OVMax= 0.00D+00

 Cycle   6  Pass 1  IDiag  3:
 E=-0.557771519580967E-01 Delta-E=       -0.000000016178 Rises=F Damp=F
 DIIS: error= 1.63D-06 at cycle   6 NSaved=   6.
 NSaved= 6 IEnMin= 6 EnMin=-0.557771519580967E-01 IErMin= 6 ErrMin= 1.63D-06
 ErrMax= 1.63D-06 EMaxC= 1.00D-01 BMatC= 1.72D-10 BMatP= 2.78D-09
 IDIUse=1 WtCom= 1.00D+00 WtEn= 0.00D+00
 Coeff-Com: -0.882D-02 0.283D-01-0.701D-01 0.228D+00-0.665D+00 0.149D+01
 Coeff:     -0.882D-02 0.283D-01-0.701D-01 0.228D+00-0.665D+00 0.149D+01
 Gap=     0.555 Goal=   None    Shift=    0.000
 RMSDP=1.30D-06 MaxDP=1.34D-05 DE=-1.62D-08 OVMax= 0.00D+00

 Cycle   7  Pass 1  IDiag  3:
 E=-0.557771531262006E-01 Delta-E=       -0.000000001168 Rises=F Damp=F
 DIIS: error= 8.53D-07 at cycle   7 NSaved=   7.
 NSaved= 7 IEnMin= 7 EnMin=-0.557771531262006E-01 IErMin= 7 ErrMin= 8.53D-07
 ErrMax= 8.53D-07 EMaxC= 1.00D-01 BMatC= 2.61D-11 BMatP= 1.72D-10
 IDIUse=1 WtCom= 1.00D+00 WtEn= 0.00D+00
 Coeff-Com:  0.333D-02-0.107D-01 0.266D-01-0.890D-01 0.291D+00-0.950D+00
 Coeff-Com:  0.173D+01
 Coeff:      0.333D-02-0.107D-01 0.266D-01-0.890D-01 0.291D+00-0.950D+00
 Coeff:      0.173D+01
 Gap=     0.555 Goal=   None    Shift=    0.000
 RMSDP=6.09D-07 MaxDP=7.39D-06 DE=-1.17D-09 OVMax= 0.00D+00

 Cycle   8  Pass 1  IDiag  3:
 E=-0.557771533399603E-01 Delta-E=       -0.000000000214 Rises=F Damp=F
 DIIS: error= 2.99D-07 at cycle   8 NSaved=   8.
 NSaved= 8 IEnMin= 8 EnMin=-0.557771533399603E-01 IErMin= 8 ErrMin= 2.99D-07
 ErrMax= 2.99D-07 EMaxC= 1.00D-01 BMatC= 3.41D-12 BMatP= 2.61D-11
 IDIUse=1 WtCom= 1.00D+00 WtEn= 0.00D+00
 Coeff-Com: -0.614D-03 0.196D-02-0.497D-02 0.186D-01-0.749D-01 0.355D+00
 Coeff-Com: -0.108D+01 0.179D+01
 Coeff:     -0.614D-03 0.196D-02-0.497D-02 0.186D-01-0.749D-01 0.355D+00
 Coeff:     -0.108D+01 0.179D+01
 Gap=     0.555 Goal=   None    Shift=    0.000
 RMSDP=2.80D-07 MaxDP=3.19D-06 DE=-2.14D-10 OVMax= 0.00D+00

 Cycle   9  Pass 1  IDiag  3:
 E=-0.557771533699167E-01 Delta-E=       -0.000000000030 Rises=F Damp=F
 DIIS: error= 4.66D-08 at cycle   9 NSaved=   9.
 NSaved= 9 IEnMin= 9 EnMin=-0.557771533699167E-01 IErMin= 9 ErrMin= 4.66D-08
 ErrMax= 4.66D-08 EMaxC= 1.00D-01 BMatC= 1.58D-13 BMatP= 3.41D-12
 IDIUse=1 WtCom= 1.00D+00 WtEn= 0.00D+00
 Coeff-Com:  0.996D-04-0.318D-03 0.838D-03-0.370D-02 0.179D-01-0.106D+00
 Coeff-Com:  0.391D+00-0.819D+00 0.152D+01
 Coeff:      0.996D-04-0.318D-03 0.838D-03-0.370D-02 0.179D-01-0.106D+00
 Coeff:      0.391D+00-0.819D+00 0.152D+01
 Gap=     0.555 Goal=   None    Shift=    0.000
 RMSDP=4.59D-08 MaxDP=4.04D-07 DE=-3.00D-11 OVMax= 0.00D+00

 Cycle  10  Pass 1  IDiag  3:
 E=-0.557771533712810E-01 Delta-E=       -0.000000000001 Rises=F Damp=F
 DIIS: error= 1.54D-08 at cycle  10 NSaved=  10.
 NSaved=10 IEnMin=10 EnMin=-0.557771533712810E-01 IErMin=10 ErrMin= 1.54D-08
 ErrMax= 1.54D-08 EMaxC= 1.00D-01 BMatC= 1.29D-14 BMatP= 1.58D-13
 IDIUse=1 WtCom= 1.00D+00 WtEn= 0.00D+00
 Coeff-Com:  0.143D-05-0.497D-05-0.556D-05 0.368D-03-0.328D-02 0.277D-01
 Coeff-Com: -0.121D+00 0.287D+00-0.773D+00 0.158D+01
 Coeff:      0.143D-05-0.497D-05-0.556D-05 0.368D-03-0.328D-02 0.277D-01
 Coeff:     -0.121D+00 0.287D+00-0.773D+00 0.158D+01
 Gap=     0.555 Goal=   None    Shift=    0.000
 RMSDP=1.25D-08 MaxDP=1.12D-07 DE=-1.36D-12 OVMax= 0.00D+00

 Cycle  11  Pass 1  IDiag  3:
 E=-0.557771533712241E-01 Delta-E=        0.000000000000 Rises=F Damp=F
 DIIS: error= 3.84D-09 at cycle  11 NSaved=  11.
 NSaved=11 IEnMin=10 EnMin=-0.557771533712810E-01 IErMin=11 ErrMin= 3.84D-09
 ErrMax= 3.84D-09 EMaxC= 1.00D-01 BMatC= 6.92D-16 BMatP= 1.29D-14
 IDIUse=1 WtCom= 1.00D+00 WtEn= 0.00D+00
 Coeff-Com:  0.152D-05-0.469D-05 0.191D-04-0.204D-03 0.147D-02-0.114D-01
 Coeff-Com:  0.495D-01-0.117D+00 0.334D+00-0.844D+00 0.159D+01
 Coeff:      0.152D-05-0.469D-05 0.191D-04-0.204D-03 0.147D-02-0.114D-01
 Coeff:      0.495D-01-0.117D+00 0.334D+00-0.844D+00 0.159D+01
 Gap=     0.555 Goal=   None    Shift=    0.000
 RMSDP=2.77D-09 MaxDP=2.31D-08 DE= 5.68D-14 OVMax= 0.00D+00

 Cycle  12  Pass 2  IDiag  1:
 RMSDP=2.77D-09 MaxDP=2.31D-08 DE= 5.68D-14 OVMax= 0.00D+00

 SCF Done:  E(RPM6) = -0.557771533712E-01 A.U. after   12 cycles
             Convg  =    0.2772D-08             -V/T =  0.9990
 KE=-5.621475703253D+01 PE=-2.508652997911D+02 EE= 1.420269583444D+02
 Leave Link  502 at Sun Sep 13 11:19:24 2015, MaxMem=  671088640 cpu:       0.7
 (Enter /share/apps/g09/l701.exe)
 Compute integral first derivatives.
 ... and contract with generalized density number  0.
 Leave Link  701 at Sun Sep 13 11:19:25 2015, MaxMem=  671088640 cpu:       0.1
 (Enter /share/apps/g09/l702.exe)
 L702 exits ... SP integral derivatives will be done elsewhere.
 Leave Link  702 at Sun Sep 13 11:19:27 2015, MaxMem=  671088640 cpu:       0.0
 (Enter /share/apps/g09/l703.exe)
 Compute integral first derivatives, UseDBF=F ICtDFT=           0.
 Integral derivatives from FoFDir, PRISM(SPDF).
 Calling FoFJK, ICntrl=      2127 FMM=F ISym2X=0 I1Cent= 0 IOpClX= 0 NMat=1 NMatS=1 NMatT=0.
 FoFCou: FMM=F IPFlag=           0 FMFlag=      100000 FMFlg1=         800
         NFxFlg=           0 DoJE=F BraDBF=F KetDBF=F FulRan=T
         Omega=  0.000000  0.000000  1.000000  0.000000  0.000000 ICntrl=    2127 IOpCl=  0
         NMat0=    1 NMatS0=    1 NMatT0=    0 NMatD0=    1 NMtDS0=    0 NMtDT0=    0
         I1Cent=           0 NGrid=           0.
 Symmetry not used in FoFCou.
 Leave Link  703 at Sun Sep 13 11:19:33 2015, MaxMem=  671088640 cpu:       0.1
 (Enter /share/apps/g09/l716.exe)
 Dipole        = 7.04235217D-03-1.41651652D-02 2.94644148D-02
 ***** Axes restored to original set *****
 -------------------------------------------------------------------
 Center     Atomic                   Forces (Hartrees/Bohr)
 Number     Number              X              Y              Z
 -------------------------------------------------------------------
      1        6           0.005424865    0.006960506    0.011911874
      2        1           0.000680034   -0.002577055   -0.000515441
      3        1           0.000466704    0.000905134   -0.002338620
      4        1          -0.002625051   -0.000330453   -0.000462055
      5        6           0.006338286    0.010386919   -0.013242679
      6        1          -0.001678754   -0.001542831    0.004535322
      7        6          -0.012202865    0.009141066    0.014861287
      8        1           0.001099238    0.001237241   -0.002474502
      9        1           0.001653274   -0.003994765   -0.001762642
     10        6           0.009302982   -0.008390375   -0.014991213
     11        1          -0.002419192   -0.000815760    0.003254423
     12        1          -0.002521854    0.003137308    0.000381413
     13        6          -0.015661778    0.000212990   -0.000176917
     14        1           0.001563779    0.001096136   -0.002081595
     15        1           0.001502548    0.001162612    0.002202938
     16        1           0.001518417   -0.002380437   -0.000145614
     17        6           0.008120966   -0.016370144    0.001004209
     18        1           0.000702473    0.001132630    0.002000155
     19        1           0.001137293    0.001044556   -0.001437888
     20        1          -0.002401367   -0.000015276   -0.000522457
 -------------------------------------------------------------------
 Cartesian Forces:  Max     0.016370144 RMS     0.005930423
 Leave Link  716 at Sun Sep 13 11:19:35 2015, MaxMem=  671088640 cpu:       0.0
 (Enter /share/apps/g09/l103.exe)

 GradGradGradGradGradGradGradGradGradGradGradGradGradGradGradGradGradGrad
 Berny optimization.
 Using GEDIIS/GDIIS optimizer.
 Internal  Forces:  Max     0.016176491 RMS     0.003395000
 Search for a local minimum.
 Step number   2 out of a maximum of  110
 All quantities printed in internal units (Hartrees-Bohrs-Radians)
 RMS Force = .33950D-02 SwitMx=.10000D-02 MixMth= 1
 Mixed Optimization -- RFO/linear search
 Update second derivatives using D2CorX and points    1    2
 DE= -7.36D-03 DEPred=-8.77D-03 R= 8.40D-01
 SS=  1.41D+00  RLast= 2.91D-01 DXNew= 5.0454D-01 8.7253D-01
 Trust test= 8.40D-01 RLast= 2.91D-01 DXMaxT set to 5.05D-01
 Use linear search instead of GDIIS.
     Eigenvalues ---    0.00237   0.00237   0.00237   0.00237   0.00240
     Eigenvalues ---    0.03481   0.03661   0.03679   0.04545   0.04789
     Eigenvalues ---    0.04815   0.04854   0.05409   0.05447   0.05458
     Eigenvalues ---    0.05473   0.05487   0.05508   0.07931   0.08249
     Eigenvalues ---    0.11900   0.12160   0.14974   0.16000   0.16000
     Eigenvalues ---    0.16000   0.16000   0.16000   0.16000   0.16000
     Eigenvalues ---    0.16009   0.16259   0.16714   0.21844   0.21990
     Eigenvalues ---    0.26480   0.28519   0.28519   0.28519   0.28639
     Eigenvalues ---    0.37209   0.37230   0.37230   0.37230   0.37230
     Eigenvalues ---    0.37230   0.37230   0.37230   0.37230   0.37230
     Eigenvalues ---    0.37230   0.37230   0.37230   0.466601000.00000
     Eigenvalues --- 1000.000001000.000001000.000001000.000001000.00000
     Eigenvalues --- 1000.000001000.000001000.000001000.000001000.00000
     Eigenvalues --- 1000.000001000.000001000.000001000.000001000.00000
     Eigenvalues --- 1000.000001000.000001000.000001000.000001000.00000
     Eigenvalues --- 1000.000001000.000001000.000001000.000001000.00000
     Eigenvalues --- 1000.000001000.000001000.000001000.000001000.00000
     Eigenvalues --- 1000.000001000.000001000.000001000.000001000.00000
     Eigenvalues --- 1000.000001000.000001000.000001000.000001000.00000
     Eigenvalues --- 1000.000001000.000001000.000001000.000001000.00000
 RFO step:  Lambda=-3.61927715D-03 EMin= 2.36676507D-03
 Quartic linear search produced a step of -0.05684.
 Iteration  1 RMS(Cart)=  0.02752890 RMS(Int)=  0.00036774
 Iteration  2 RMS(Cart)=  0.00036989 RMS(Int)=  0.00002005
 Iteration  3 RMS(Cart)=  0.00000013 RMS(Int)=  0.00002005
 Variable       Old X    -DE/DX   Delta X   Delta X   Delta X     New X
                                 (Linear)    (Quad)   (Total)
    R1        2.05724   0.00265  -0.00200   0.01618   0.01418   2.07141
    R2        2.05782   0.00251  -0.00204   0.01601   0.01397   2.07180
    R3        2.05700   0.00265  -0.00199   0.01612   0.01413   2.07113
    R4        2.93795  -0.01065  -0.00158  -0.02705  -0.02863   2.90932
    R5        2.08208   0.00499  -0.00341   0.02878   0.02537   2.10744
    R6        2.96048  -0.01618  -0.00286  -0.03888  -0.04174   2.91874
    R7        2.94836  -0.01603  -0.00217  -0.04171  -0.04388   2.90448
    R8        2.07063   0.00297  -0.00276   0.02064   0.01788   2.08851
    R9        2.07007   0.00436  -0.00273   0.02394   0.02120   2.09128
   R10        2.94499  -0.01457  -0.00198  -0.03787  -0.03985   2.90514
   R11        2.07071   0.00386  -0.00277   0.02288   0.02012   2.09083
   R12        2.07060   0.00375  -0.00276   0.02258   0.01981   2.09041
   R13        2.92950  -0.01107  -0.00110  -0.03071  -0.03181   2.89769
   R14        2.05773   0.00276  -0.00203   0.01660   0.01457   2.07230
   R15        2.05705   0.00287  -0.00199   0.01669   0.01469   2.07175
   R16        2.05776   0.00275  -0.00203   0.01657   0.01454   2.07230
[...]
 ! D15   D(6,5,7,10)           -47.9829         -DE/DX =    0.0                 !
 ! D16   D(17,5,7,8)           -51.5607         -DE/DX =    0.0                 !
 ! D17   D(17,5,7,9)          -167.0199         -DE/DX =    0.0                 !
 ! D18   D(17,5,7,10)           71.1908         -DE/DX =    0.0                 !
 ! D19   D(1,5,17,18)          179.2562         -DE/DX =    0.0                 !
 ! D20   D(1,5,17,19)          -60.8071         -DE/DX =    0.0                 !
 ! D21   D(1,5,17,20)           59.2245         -DE/DX =    0.0                 !
 ! D22   D(6,5,17,18)           61.0689         -DE/DX =    0.0                 !
 ! D23   D(6,5,17,19)         -178.9944         -DE/DX =    0.0                 !
 ! D24   D(6,5,17,20)          -58.9629         -DE/DX =    0.0                 !
 ! D25   D(7,5,17,18)          -58.2209         -DE/DX =    0.0                 !
 ! D26   D(7,5,17,19)           61.7158         -DE/DX =    0.0                 !
 ! D27   D(7,5,17,20)         -178.2526         -DE/DX =    0.0                 !
 ! D28   D(5,7,10,11)           56.9004         -DE/DX =    0.0                 !
 ! D29   D(5,7,10,12)          -59.1425         -DE/DX =    0.0                 !
 ! D30   D(5,7,10,13)          178.9124         -DE/DX =    0.0                 !
 ! D31   D(8,7,10,11)          179.6224         -DE/DX =    0.0                 !
 ! D32   D(8,7,10,12)           63.5795         -DE/DX =    0.0                 !
 ! D33   D(8,7,10,13)          -58.3656         -DE/DX =    0.0                 !
 ! D34   D(9,7,10,11)          -64.9533         -DE/DX =    0.0                 !
 ! D35   D(9,7,10,12)          179.0037         -DE/DX =    0.0                 !
 ! D36   D(9,7,10,13)           57.0586         -DE/DX =    0.0                 !
 ! D37   D(7,10,13,14)          59.8884         -DE/DX =    0.0                 !
 ! D38   D(7,10,13,15)         179.8302         -DE/DX =    0.0                 !
 ! D39   D(7,10,13,16)         -60.2076         -DE/DX =    0.0                 !
 ! D40   D(11,10,13,14)       -178.0088         -DE/DX =    0.0                 !
 ! D41   D(11,10,13,15)        -58.067          -DE/DX =    0.0                 !
 ! D42   D(11,10,13,16)         61.8952         -DE/DX =    0.0                 !
 ! D43   D(12,10,13,14)        -62.1536         -DE/DX =    0.0                 !
 ! D44   D(12,10,13,15)         57.7882         -DE/DX =    0.0                 !
 ! D45   D(12,10,13,16)        177.7504         -DE/DX =    0.0                 !
 --------------------------------------------------------------------------------
 GradGradGradGradGradGradGradGradGradGradGradGradGradGradGradGradGradGrad

 Largest change from initial coordinates is atom   19       0.390 Angstoms.
 Leave Link  103 at Sun Sep 13 11:21:02 2015, MaxMem=  671088640 cpu:       0.0
 (Enter /share/apps/g09/l202.exe)
                          Input orientation:                          
 ---------------------------------------------------------------------
 Center     Atomic      Atomic             Coordinates (Angstroms)
 Number     Number       Type             X           Y           Z
 ---------------------------------------------------------------------
      1          6           0       -3.875141   -0.221052    0.044948
      2          1           0       -3.512936   -1.251821    0.114330
      3          1           0       -3.536107    0.184033   -0.914379
      4          1           0       -4.969103   -0.259232    0.013880
      5          6           0       -3.381876    0.629238    1.224563
      6          1           0       -3.736536    0.150818    2.171494
      7          6           0       -1.838845    0.666298    1.241963
      8          1           0       -1.467843    1.280130    0.400111
      9          1           0       -1.442657   -0.351728    1.063261
     10          6           0       -1.282214    1.204360    2.566928
     11          1           0       -1.659846    0.593050    3.409734
     12          1           0       -1.660103    2.230652    2.744413
     13          6           0        0.245155    1.209722    2.578291
     14          1           0        0.651812    1.835720    1.776011
     15          1           0        0.632792    1.598044    3.526492
     16          1           0        0.653238    0.201539    2.444792
     17          6           0       -3.974955    2.042083    1.146345
     18          1           0       -3.644367    2.660286    1.987892
     19          1           0       -3.674737    2.555119    0.226535
     20          1           0       -5.069197    2.015995    1.165134
 ---------------------------------------------------------------------
                    Distance matrix (angstroms):
                    1          2          3          4          5
     1  C    0.000000
     2  H    1.094756   0.000000
     3  H    1.095147   1.766481   0.000000
     4  H    1.095069   1.765147   1.763981   0.000000
     5  C    1.535511   2.188190   2.190221   2.185045   0.000000
     6  H    2.163260   2.499863   3.092553   2.518463   1.118636
     7  C    2.523238   2.784477   2.786232   3.487593   1.543574
     8  H    2.859155   3.267239   2.684591   3.844169   2.183324
     9  H    2.640268   2.448815   2.929272   3.680432   2.179193
    10  C    3.887859   4.126037   4.270901   4.717341   2.557594
    11  H    4.109997   4.206802   4.731343   4.817613   2.782386
    12  H    4.266656   4.741091   4.592908   4.960324   2.799817
    13  C    5.043985   5.123822   5.248688   5.993540   3.914703
    14  H    5.264996   5.444191   5.244514   6.252089   4.246214
    15  H    5.979274   6.078786   6.253038   6.867980   4.728110
    16  H    5.142378   4.990022   5.369818   6.142667   4.237220
    17  C    2.518892   3.482573   2.809185   2.750792   1.534272
    18  H    3.482872   4.339595   3.816638   3.765001   2.185573
    19  H    2.789312   3.812028   2.634948   3.105025   2.188800
    20  H    2.772177   3.768920   3.167148   2.551874   2.184875
                    6          7          8          9         10
     6  H    0.000000
     7  C    2.175081   0.000000
     8  H    3.091943   1.105960   0.000000
     9  H    2.596655   1.106921   1.761636   0.000000
    10  C    2.700003   1.534563   2.176073   2.169831   0.000000
    11  H    2.457936   2.176382   3.093020   2.538841   1.107533
    12  H    2.994248   2.176353   2.536968   3.089051   1.107960
    13  C    4.140124   2.534589   2.771964   2.753570   1.527421
    14  H    4.717298   2.802878   2.587415   3.111227   2.182801
    15  H    4.798074   3.492308   3.779946   3.765183   2.177843
    16  H    4.398566   2.805936   3.137365   2.570507   2.183242
    17  C    2.164406   2.542615   2.724527   3.485652   3.157640
    18  H    2.517863   2.791471   3.027067   3.843787   2.834567
    19  H    3.093112   2.822984   2.554625   3.759262   3.609176
    20  H    2.503524   3.501823   3.754532   4.332238   4.118862
                   11         12         13         14         15
    11  H    0.000000
    12  H    1.767595   0.000000
    13  C    2.168090   2.167926   0.000000
    14  H    3.091447   2.537464   1.095854   0.000000
    15  H    2.505960   2.503838   1.095509   1.766645   0.000000
    16  H    2.536682   3.091701   1.095804   1.765734   1.766555
    17  C    3.547162   2.819206   4.533500   4.673974   5.205152
    18  H    3.198973   2.166614   4.192981   4.379721   4.667948
    19  H    4.247618   3.240948   4.765124   4.651605   5.510038
    20  H    4.322810   3.763260   5.557826   5.756354   6.185740
                   16         17         18         19         20
    16  H    0.000000
    17  C    5.147207   0.000000
    18  H    4.972284   1.095292   0.000000
    19  H    5.402904   1.095165   1.764755   0.000000
    20  H    6.138082   1.094715   1.766970   1.765260   0.000000
 Stoichiometry    C6H14
 Framework group  C1[X(C6H14)]
 Deg. of freedom    54
 Full point group                 C1      NOp   1
 Largest Abelian subgroup         C1      NOp   1
 Largest concise Abelian subgroup C1      NOp   1
                         Standard orientation:                         
 ---------------------------------------------------------------------
 Center     Atomic      Atomic             Coordinates (Angstroms)
 Number     Number       Type             X           Y           Z
 ---------------------------------------------------------------------
      1          6           0        2.150165   -1.028734    0.015616
      2          1           0        1.931925   -2.011970   -0.413464
      3          1           0        2.252882   -1.156591    1.098412
      4          1           0        3.125482   -0.712287   -0.368827
      5          6           0        1.057458   -0.007733   -0.332725
      6          1           0        0.983523    0.057235   -1.447023
      7          6           0       -0.303687   -0.478654    0.222376
      8          1           0       -0.310549   -0.392033    1.324917
      9          1           0       -0.436774   -1.556676    0.009228
     10          6           0       -1.480374    0.307219   -0.371506
     11          1           0       -1.468488    0.225329   -1.475943
     12          1           0       -1.363756    1.385873   -0.146822
     13          6           0       -2.820978   -0.188201    0.167339
     14          1           0       -2.879114   -0.087765    1.257032
     15          1           0       -3.654118    0.380556   -0.259899
     16          1           0       -2.986927   -1.244422   -0.072757
     17          6           0        1.433090    1.378300    0.207466
     18          1           0        0.670692    2.123744   -0.042990
     19          1           0        1.537470    1.371540    1.297624
     20          1           0        2.383710    1.724286   -0.210882
 ---------------------------------------------------------------------
 Rotational constants (GHZ):      6.5681499      1.7113992      1.4806482
 Leave Link  202 at Sun Sep 13 11:21:02 2015, MaxMem=  671088640 cpu:       0.0
 (Enter /share/apps/g09/l601.exe)
 Copying SCF densities to generalized density rwf, IOpCl= 0 IROHF=0.

 **********************************************************************

            Population analysis using the SCF density.

 **********************************************************************

 Orbital symmetries:
       Occupied  (A) (A) (A) (A) (A) (A) (A) (A) (A) (A) (A) (A)
                 (A) (A) (A) (A) (A) (A) (A)
       Virtual   (A) (A) (A) (A) (A) (A) (A) (A) (A) (A) (A) (A)
                 (A) (A) (A) (A) (A) (A) (A)
 The electronic state is 1-A.
 Alpha  occ. eigenvalues --   -1.06232  -0.99036  -0.88416  -0.86326  -0.75068
 Alpha  occ. eigenvalues --   -0.71008  -0.58811  -0.55724  -0.54903  -0.52251
 Alpha  occ. eigenvalues --   -0.49870  -0.48209  -0.48023  -0.46264  -0.44677
 Alpha  occ. eigenvalues --   -0.42957  -0.41162  -0.40928  -0.40472
 Alpha virt. eigenvalues --    0.15319   0.15687   0.16970   0.17544   0.18552
 Alpha virt. eigenvalues --    0.20782   0.21770   0.22077   0.22254   0.22289
 Alpha virt. eigenvalues --    0.22431   0.22511   0.23485   0.23621   0.24505
 Alpha virt. eigenvalues --    0.25028   0.25645   0.25805   0.26211
          Condensed to atoms (all electrons):
              1          2          3          4          5          6
     1  C    4.504029   0.000000   0.000000   0.000000   0.000000   0.000000
     2  H    0.000000   0.852196   0.000000   0.000000   0.000000   0.000000
     3  H    0.000000   0.000000   0.848442   0.000000   0.000000   0.000000
     4  H    0.000000   0.000000   0.000000   0.850462   0.000000   0.000000
     5  C    0.000000   0.000000   0.000000   0.000000   3.972527   0.000000
     6  H    0.000000   0.000000   0.000000   0.000000   0.000000   0.891417
     7  C    0.000000   0.000000   0.000000   0.000000   0.000000   0.000000
     8  H    0.000000   0.000000   0.000000   0.000000   0.000000   0.000000
     9  H    0.000000   0.000000   0.000000   0.000000   0.000000   0.000000
    10  C    0.000000   0.000000   0.000000   0.000000   0.000000   0.000000
    11  H    0.000000   0.000000   0.000000   0.000000   0.000000   0.000000
    12  H    0.000000   0.000000   0.000000   0.000000   0.000000   0.000000
    13  C    0.000000   0.000000   0.000000   0.000000   0.000000   0.000000
    14  H    0.000000   0.000000   0.000000   0.000000   0.000000   0.000000
    15  H    0.000000   0.000000   0.000000   0.000000   0.000000   0.000000
    16  H    0.000000   0.000000   0.000000   0.000000   0.000000   0.000000
    17  C    0.000000   0.000000   0.000000   0.000000   0.000000   0.000000
    18  H    0.000000   0.000000   0.000000   0.000000   0.000000   0.000000
    19  H    0.000000   0.000000   0.000000   0.000000   0.000000   0.000000
    20  H    0.000000   0.000000   0.000000   0.000000   0.000000   0.000000
              7          8          9         10         11         12
     1  C    0.000000   0.000000   0.000000   0.000000   0.000000   0.000000
     2  H    0.000000   0.000000   0.000000   0.000000   0.000000   0.000000
     3  H    0.000000   0.000000   0.000000   0.000000   0.000000   0.000000
     4  H    0.000000   0.000000   0.000000   0.000000   0.000000   0.000000
     5  C    0.000000   0.000000   0.000000   0.000000   0.000000   0.000000
     6  H    0.000000   0.000000   0.000000   0.000000   0.000000   0.000000
     7  C    4.308959   0.000000   0.000000   0.000000   0.000000   0.000000
     8  H    0.000000   0.862072   0.000000   0.000000   0.000000   0.000000
     9  H    0.000000   0.000000   0.864664   0.000000   0.000000   0.000000
    10  C    0.000000   0.000000   0.000000   4.213068   0.000000   0.000000
    11  H    0.000000   0.000000   0.000000   0.000000   0.876074   0.000000
    12  H    0.000000   0.000000   0.000000   0.000000   0.000000   0.874251
    13  C    0.000000   0.000000   0.000000   0.000000   0.000000   0.000000
    14  H    0.000000   0.000000   0.000000   0.000000   0.000000   0.000000
    15  H    0.000000   0.000000   0.000000   0.000000   0.000000   0.000000
    16  H    0.000000   0.000000   0.000000   0.000000   0.000000   0.000000
    17  C    0.000000   0.000000   0.000000   0.000000   0.000000   0.000000
    18  H    0.000000   0.000000   0.000000   0.000000   0.000000   0.000000
    19  H    0.000000   0.000000   0.000000   0.000000   0.000000   0.000000
    20  H    0.000000   0.000000   0.000000   0.000000   0.000000   0.000000
             13         14         15         16         17         18
     1  C    0.000000   0.000000   0.000000   0.000000   0.000000   0.000000
     2  H    0.000000   0.000000   0.000000   0.000000   0.000000   0.000000
     3  H    0.000000   0.000000   0.000000   0.000000   0.000000   0.000000
     4  H    0.000000   0.000000   0.000000   0.000000   0.000000   0.000000
     5  C    0.000000   0.000000   0.000000   0.000000   0.000000   0.000000
     6  H    0.000000   0.000000   0.000000   0.000000   0.000000   0.000000
     7  C    0.000000   0.000000   0.000000   0.000000   0.000000   0.000000
     8  H    0.000000   0.000000   0.000000   0.000000   0.000000   0.000000
     9  H    0.000000   0.000000   0.000000   0.000000   0.000000   0.000000
    10  C    0.000000   0.000000   0.000000   0.000000   0.000000   0.000000
    11  H    0.000000   0.000000   0.000000   0.000000   0.000000   0.000000
    12  H    0.000000   0.000000   0.000000   0.000000   0.000000   0.000000
    13  C    4.465824   0.000000   0.000000   0.000000   0.000000   0.000000
    14  H    0.000000   0.853523   0.000000   0.000000   0.000000   0.000000
    15  H    0.000000   0.000000   0.856569   0.000000   0.000000   0.000000
    16  H    0.000000   0.000000   0.000000   0.853890   0.000000   0.000000
    17  C    0.000000   0.000000   0.000000   0.000000   4.498729   0.000000
    18  H    0.000000   0.000000   0.000000   0.000000   0.000000   0.851356
    19  H    0.000000   0.000000   0.000000   0.000000   0.000000   0.000000
    20  H    0.000000   0.000000   0.000000   0.000000   0.000000   0.000000
             19         20
     1  C    0.000000   0.000000
     2  H    0.000000   0.000000
     3  H    0.000000   0.000000
     4  H    0.000000   0.000000
     5  C    0.000000   0.000000
     6  H    0.000000   0.000000
     7  C    0.000000   0.000000
     8  H    0.000000   0.000000
     9  H    0.000000   0.000000
    10  C    0.000000   0.000000
    11  H    0.000000   0.000000
    12  H    0.000000   0.000000
    13  C    0.000000   0.000000
    14  H    0.000000   0.000000
    15  H    0.000000   0.000000
    16  H    0.000000   0.000000
    17  C    0.000000   0.000000
    18  H    0.000000   0.000000
    19  H    0.848960   0.000000
    20  H    0.000000   0.852988
 Mulliken atomic charges:
              1
     1  C   -0.504029
     2  H    0.147804
     3  H    0.151558
     4  H    0.149538
     5  C    0.027473
     6  H    0.108583
     7  C   -0.308959
     8  H    0.137928
     9  H    0.135336
    10  C   -0.213068
    11  H    0.123926
    12  H    0.125749
    13  C   -0.465824
    14  H    0.146477
    15  H    0.143431
    16  H    0.146110
    17  C   -0.498729
    18  H    0.148644
    19  H    0.151040
    20  H    0.147012
 Sum of Mulliken atomic charges =   0.00000
 Mulliken charges with hydrogens summed into heavy atoms:
              1
     1  C   -0.055130
     5  C    0.136056
     7  C   -0.035695
    10  C    0.036607
    13  C   -0.029805
    17  C   -0.052033
 Sum of Mulliken charges with hydrogens summed into heavy atoms =   0.00000
 Charge=              0.0000 electrons
 Dipole moment (field-independent basis, Debye):
    X=              0.0158    Y=             -0.0225    Z=              0.1014  Tot=              0.1050
 N-N= 1.656352369179D+02 E-N=-2.521521489283D+02  KE=-5.622837687105D+01
 Leave Link  601 at Sun Sep 13 11:21:02 2015, MaxMem=  671088640 cpu:       0.0
 (Enter /share/apps/g09/l9999.exe)
 1\1\GINC-COMPUTE-0-14\FOpt\RPM6\ZDO\C6H14\HETANJIN\13-Sep-2015\0\\#p P
 M6 opt\\using PM6 to do opt and freq calc.\\0,1\C,-3.875140626,-0.2210
 517703,0.0449479878\H,-3.5129359222,-1.2518205081,0.1143297019\H,-3.53
 61067397,0.1840334615,-0.9143791857\H,-4.9691030538,-0.2592322022,0.01
 38803807\C,-3.3818759808,0.6292380811,1.2245632992\H,-3.7365362159,0.1
 508184326,2.1714937566\C,-1.8388451993,0.6662976222,1.2419627613\H,-1.
 4678426666,1.2801296611,0.400111304\H,-1.4426565083,-0.351727559,1.063
 2612399\C,-1.2822142448,1.2043601035,2.5669280837\H,-1.6598460342,0.59
 30496135,3.4097344123\H,-1.6601027476,2.2306516454,2.7444134989\C,0.24
 51553397,1.2097223338,2.5782912179\H,0.6518117313,1.8357199144,1.77601
 08828\H,0.6327921556,1.5980437523,3.5264918179\H,0.6532383353,0.201539
 2909,2.4447916008\C,-3.9749549289,2.0420828824,1.1463447234\H,-3.64436
 67827,2.6602861881,1.9878917937\H,-3.6747368797,2.5551188286,0.2265349
 017\H,-5.0691973714,2.0159952784,1.1651338014\\Version=EM64L-G09RevA.0
 1\State=1-A\HF=-0.0583915\RMSD=4.048e-09\RMSF=2.734e-06\Dipole=0.01173
 43,0.0110572,-0.0380544\PG=C01 [X(C6H14)]\\@


 THESE ARE THE TIMES THAT TRY MENS SOULS.
 THE SUMMER SOLDIER AND THE SUNSHINE PATRIOT WILL IN THIS CRISIS,
 SHRINK FROM THE SERVICE OF HIS COUNTRY.  BUT HE THAT STANDS NOW,
 DESERVES THE LOVE AND THANKS OF MAN AND WOMAN.
 TYRANNY, LIKE HELL, IS NOT EASILY CONQUERED,
 YET WE HAVE THIS CONSOLATION WITH US,
 THAT THE HARDER THE CONFLICT, THE MORE GLORIOUS THE TRIUMPH.
 WHAT WE OBTAIN TOO CHEAP, WE ESTEEM TOO LIGHTLY, 
 'TIS DEARNESS ONLY THAT GIVES EVERYTHING ITS VALUE.

                                              -- TOM PAINE
 Job cpu time:  0 days  0 hours  0 minutes 23.8 seconds.
 File lengths (MBytes):  RWF=      5 Int=      0 D2E=      0 Chk=      3 Scr=      1
 Normal termination of Gaussian 09 at Sun Sep 13 11:21:03 2015.
