using PM6 to do opt and freq calc.                                      
FOpt      RPM6                                                        ZDO                 
Number of atoms                            I               20
Info1-9                                    I   N=           9
          33          29           0           0           0         110
           2           8         302
Charge                                     I                0
Multiplicity                               I                1
Number of electrons                        I               38
Number of alpha electrons                  I               19
Number of beta electrons                   I               19
Number of basis functions                  I               38
Number of independent functions            I               38
Number of point charges in /Mol/           I                0
Number of translation vectors              I                0
Atomic numbers                             I   N=          20
           6           1           1           1           6           1
           1           6           1           1           6           1
           1           6           1           1           6           1
           1           1
Nuclear charges                            R   N=          20
  4.00000000E+00  1.00000000E+00  1.00000000E+00  1.00000000E+00  4.00000000E+00
  1.00000000E+00  1.00000000E+00  4.00000000E+00  1.00000000E+00  1.00000000E+00
  4.00000000E+00  1.00000000E+00  1.00000000E+00  4.00000000E+00  1.00000000E+00
  1.00000000E+00  4.00000000E+00  1.00000000E+00  1.00000000E+00  1.00000000E+00
Current cartesian coordinates              R   N=          60
 -4.62196972E+00  1.60189248E+00  5.33147249E-01 -4.34806961E+00  3.13295968E+00
 -8.33895409E-01 -3.61878431E+00  2.13841533E+00  2.26410841E+00 -6.64063779E+00
  1.51847083E+00  9.82404105E-01 -3.67410102E+00 -9.21199546E-01 -4.99052639E-01
 -4.05046394E+00 -2.43909435E+00  8.91990688E-01 -4.77666938E+00 -1.43137132E+00
 -2.20488805E+00 -8.51851912E-01 -8.77599963E-01 -1.17317184E+00 -4.29144036E-01
  7.98384951E-01 -2.35209529E+00 -4.01626751E-01 -2.53634466E+00 -2.36639658E+00
  8.51850842E-01 -8.77593553E-01  1.17317403E+00  4.01624454E-01 -2.53633043E+00
  2.36640898E+00  4.29144436E-01  7.98398810E-01  2.35208744E+00  3.67409982E+00
 -9.21198996E-01  4.99054456E-01  4.05046034E+00 -2.43909743E+00 -8.91985597E-01
  4.77666771E+00 -1.43136937E+00  2.20489055E+00  4.62197176E+00  1.60188991E+00
 -5.33150818E-01  4.34809456E+00  3.13295614E+00  8.33897585E-01  6.64063467E+00
  1.51845828E+00 -9.82428985E-01  3.61877106E+00  2.13842156E+00 -2.26410047E+00
Force Field                                I                0
Int Atom Types                             I   N=          20
           0           0           0           0           0           0
           0           0           0           0           0           0
           0           0           0           0           0           0
           0           0
MM charges                                 R   N=          20
  0.00000000E+00  0.00000000E+00  0.00000000E+00  0.00000000E+00  0.00000000E+00
  0.00000000E+00  0.00000000E+00  0.00000000E+00  0.00000000E+00  0.00000000E+00
  0.00000000E+00  0.00000000E+00  0.00000000E+00  0.00000000E+00  0.00000000E+00
  0.00000000E+00  0.00000000E+00  0.00000000E+00  0.00000000E+00  0.00000000E+00
Integer atomic weights                     I   N=          20
          12           1           1           1          12           1
           1          12           1           1          12           1
           1          12           1           1          12           1
           1           1
Real atomic weights                        R   N=          20
  1.20000000E+01  1.00782504E+00  1.00782504E+00  1.00782504E+00  1.20000000E+01
  1.00782504E+00  1.00782504E+00  1.20000000E+01  1.00782504E+00  1.00782504E+00
  1.20000000E+01  1.00782504E+00  1.00782504E+00  1.20000000E+01  1.00782504E+00
  1.00782504E+00  1.20000000E+01  1.00782504E+00  1.00782504E+00  1.00782504E+00
Atom fragment info                         I   N=          20
           0           0           0           0           0           0
           0           0           0           0           0           0
           0           0           0           0           0           0
           0           0
Atom residue num                           I   N=          20
           0           0           0           0           0           0
           0           0           0           0           0           0
           0           0           0           0           0           0
           0           0
Nuclear spins                              I   N=          20
           0           1           1           1           0           1
           1           0           1           1           0           1
           1           0           1           1           0           1
           1           1
Nuclear ZEff                               R   N=          20
 -3.90000000E+00 -1.00000000E+00 -1.00000000E+00 -1.00000000E+00 -3.90000000E+00
 -1.00000000E+00 -1.00000000E+00 -3.90000000E+00 -1.00000000E+00 -1.00000000E+00
 -3.90000000E+00 -1.00000000E+00 -1.00000000E+00 -3.90000000E+00 -1.00000000E+00
 -1.00000000E+00 -3.90000000E+00 -1.00000000E+00 -1.00000000E+00 -1.00000000E+00
Nuclear QMom                               R   N=          20
  0.00000000E+00  0.00000000E+00  0.00000000E+00  0.00000000E+00  0.00000000E+00
  0.00000000E+00  0.00000000E+00  0.00000000E+00  0.00000000E+00  0.00000000E+00
  0.00000000E+00  0.00000000E+00  0.00000000E+00  0.00000000E+00  0.00000000E+00
  0.00000000E+00  0.00000000E+00  0.00000000E+00  0.00000000E+00  0.00000000E+00
Nuclear GFac                               R   N=          20
  0.00000000E+00  2.79284600E+00  2.79284600E+00  2.79284600E+00  0.00000000E+00
  2.79284600E+00  2.79284600E+00  0.00000000E+00  2.79284600E+00  2.79284600E+00
  0.00000000E+00  2.79284600E+00  2.79284600E+00  0.00000000E+00  2.79284600E+00
  2.79284600E+00  0.00000000E+00  2.79284600E+00  2.79284600E+00  2.79284600E+00
MicOpt                                     I   N=          20
          -1          -1          -1          -1          -1          -1
          -1          -1          -1          -1          -1          -1
          -1          -1          -1          -1          -1          -1
          -1          -1
Number of contracted shells                I               20
Number of primitive shells                 I              120
Pure/Cartesian d shells                    I                0
Pure/Cartesian f shells                    I                0
Highest angular momentum                   I                1
Largest degree of contraction              I                6
Shell types                                I   N=          20
          -1           0           0           0          -1           0
           0          -1           0           0          -1           0
           0          -1           0           0          -1           0
           0           0
Number of primitives per shell             I   N=          20
           6           6           6           6           6           6
           6           6           6           6           6           6
           6           6           6           6           6           6
           6           6
Shell to atom map                          I   N=          20
           1           2           3           4           5           6
           7           8           9          10          11          12
          13          14          15          16          17          18
          19          20
Primitive exponents                        R   N=         120
  1.14476344E+01  3.29633588E+00  1.29653143E+00  5.92558930E-01  2.94896438E-01
  1.51447622E-01  4.39461478E+00  1.26542531E+00  4.97723458E-01  2.27476537E-01
  1.13207340E-01  5.81389949E-02  4.39461478E+00  1.26542531E+00  4.97723458E-01
  2.27476537E-01  1.13207340E-01  5.81389949E-02  4.39461478E+00  1.26542531E+00
  4.97723458E-01  2.27476537E-01  1.13207340E-01  5.81389949E-02  1.14476344E+01
  3.29633588E+00  1.29653143E+00  5.92558930E-01  2.94896438E-01  1.51447622E-01
  4.39461478E+00  1.26542531E+00  4.97723458E-01  2.27476537E-01  1.13207340E-01
  5.81389949E-02  4.39461478E+00  1.26542531E+00  4.97723458E-01  2.27476537E-01
  1.13207340E-01  5.81389949E-02  1.14476344E+01  3.29633588E+00  1.29653143E+00
  5.92558930E-01  2.94896438E-01  1.51447622E-01  4.39461478E+00  1.26542531E+00
  4.97723458E-01  2.27476537E-01  1.13207340E-01  5.81389949E-02  4.39461478E+00
  1.26542531E+00  4.97723458E-01  2.27476537E-01  1.13207340E-01  5.81389949E-02
  1.14476344E+01  3.29633588E+00  1.29653143E+00  5.92558930E-01  2.94896438E-01
  1.51447622E-01  4.39461478E+00  1.26542531E+00  4.97723458E-01  2.27476537E-01
  1.13207340E-01  5.81389949E-02  4.39461478E+00  1.26542531E+00  4.97723458E-01
  2.27476537E-01  1.13207340E-01  5.81389949E-02  1.14476344E+01  3.29633588E+00
  1.29653143E+00  5.92558930E-01  2.94896438E-01  1.51447622E-01  4.39461478E+00
  1.26542531E+00  4.97723458E-01  2.27476537E-01  1.13207340E-01  5.81389949E-02
  4.39461478E+00  1.26542531E+00  4.97723458E-01  2.27476537E-01  1.13207340E-01
  5.81389949E-02  1.14476344E+01  3.29633588E+00  1.29653143E+00  5.92558930E-01
  2.94896438E-01  1.51447622E-01  4.39461478E+00  1.26542531E+00  4.97723458E-01
  2.27476537E-01  1.13207340E-01  5.81389949E-02  4.39461478E+00  1.26542531E+00
  4.97723458E-01  2.27476537E-01  1.13207340E-01  5.81389949E-02  4.39461478E+00
  1.26542531E+00  4.97723458E-01  2.27476537E-01  1.13207340E-01  5.81389949E-02
Contraction coefficients                   R   N=         120
 -9.73739553E-03 -7.26587678E-02 -1.71615520E-01  1.28977624E-01  7.28861451E-01
  3.01331742E-01 -9.73739553E-03 -7.26587678E-02 -1.71615520E-01  1.28977624E-01
  7.28861451E-01  3.01331742E-01 -9.73739553E-03 -7.26587678E-02 -1.71615520E-01
  1.28977624E-01  7.28861451E-01  3.01331742E-01 -9.73739553E-03 -7.26587678E-02
 -1.71615520E-01  1.28977624E-01  7.28861451E-01  3.01331742E-01 -9.73739553E-03
 -7.26587678E-02 -1.71615520E-01  1.28977624E-01  7.28861451E-01  3.01331742E-01
 -9.73739553E-03 -7.26587678E-02 -1.71615520E-01  1.28977624E-01  7.28861451E-01
  3.01331742E-01 -9.73739553E-03 -7.26587678E-02 -1.71615520E-01  1.28977624E-01
  7.28861451E-01  3.01331742E-01 -9.73739553E-03 -7.26587678E-02 -1.71615520E-01
  1.28977624E-01  7.28861451E-01  3.01331742E-01 -9.73739553E-03 -7.26587678E-02
 -1.71615520E-01  1.28977624E-01  7.28861451E-01  3.01331742E-01 -9.73739553E-03
 -7.26587678E-02 -1.71615520E-01  1.28977624E-01  7.28861451E-01  3.01331742E-01
 -9.73739553E-03 -7.26587678E-02 -1.71615520E-01  1.28977624E-01  7.28861451E-01
  3.01331742E-01 -9.73739553E-03 -7.26587678E-02 -1.71615520E-01  1.28977624E-01
  7.28861451E-01  3.01331742E-01 -9.73739553E-03 -7.26587678E-02 -1.71615520E-01
  1.28977624E-01  7.28861451E-01  3.01331742E-01 -9.73739553E-03 -7.26587678E-02
 -1.71615520E-01  1.28977624E-01  7.28861451E-01  3.01331742E-01 -9.73739553E-03
 -7.26587678E-02 -1.71615520E-01  1.28977624E-01  7.28861451E-01  3.01331742E-01
 -9.73739553E-03 -7.26587678E-02 -1.71615520E-01  1.28977624E-01  7.28861451E-01
  3.01331742E-01 -9.73739553E-03 -7.26587678E-02 -1.71615520E-01  1.28977624E-01
  7.28861451E-01  3.01331742E-01 -9.73739553E-03 -7.26587678E-02 -1.71615520E-01
  1.28977624E-01  7.28861451E-01  3.01331742E-01 -9.73739553E-03 -7.26587678E-02
 -1.71615520E-01  1.28977624E-01  7.28861451E-01  3.01331742E-01 -9.73739553E-03
 -7.26587678E-02 -1.71615520E-01  1.28977624E-01  7.28861451E-01  3.01331742E-01
P(S=P) Contraction coefficients            R   N=         120
 -8.10494336E-03 -1.71547892E-02  7.36978576E-02  3.96514999E-01  4.97808488E-01
  1.17482582E-01  0.00000000E+00  0.00000000E+00  0.00000000E+00  0.00000000E+00
  0.00000000E+00  0.00000000E+00  0.00000000E+00  0.00000000E+00  0.00000000E+00
  0.00000000E+00  0.00000000E+00  0.00000000E+00  0.00000000E+00  0.00000000E+00
  0.00000000E+00  0.00000000E+00  0.00000000E+00  0.00000000E+00 -8.10494336E-03
 -1.71547892E-02  7.36978576E-02  3.96514999E-01  4.97808488E-01  1.17482582E-01
  0.00000000E+00  0.00000000E+00  0.00000000E+00  0.00000000E+00  0.00000000E+00
  0.00000000E+00  0.00000000E+00  0.00000000E+00  0.00000000E+00  0.00000000E+00
  0.00000000E+00  0.00000000E+00 -8.10494336E-03 -1.71547892E-02  7.36978576E-02
  3.96514999E-01  4.97808488E-01  1.17482582E-01  0.00000000E+00  0.00000000E+00
  0.00000000E+00  0.00000000E+00  0.00000000E+00  0.00000000E+00  0.00000000E+00
  0.00000000E+00  0.00000000E+00  0.00000000E+00  0.00000000E+00  0.00000000E+00
 -8.10494336E-03 -1.71547892E-02  7.36978576E-02  3.96514999E-01  4.97808488E-01
  1.17482582E-01  0.00000000E+00  0.00000000E+00  0.00000000E+00  0.00000000E+00
  0.00000000E+00  0.00000000E+00  0.00000000E+00  0.00000000E+00  0.00000000E+00
  0.00000000E+00  0.00000000E+00  0.00000000E+00 -8.10494336E-03 -1.71547892E-02
  7.36978576E-02  3.96514999E-01  4.97808488E-01  1.17482582E-01  0.00000000E+00
  0.00000000E+00  0.00000000E+00  0.00000000E+00  0.00000000E+00  0.00000000E+00
  0.00000000E+00  0.00000000E+00  0.00000000E+00  0.00000000E+00  0.00000000E+00
  0.00000000E+00 -8.10494336E-03 -1.71547892E-02  7.36978576E-02  3.96514999E-01
  4.97808488E-01  1.17482582E-01  0.00000000E+00  0.00000000E+00  0.00000000E+00
  0.00000000E+00  0.00000000E+00  0.00000000E+00  0.00000000E+00  0.00000000E+00
  0.00000000E+00  0.00000000E+00  0.00000000E+00  0.00000000E+00  0.00000000E+00
  0.00000000E+00  0.00000000E+00  0.00000000E+00  0.00000000E+00  0.00000000E+00
Coordinates of each shell                  R   N=          60
 -4.62196972E+00  1.60189248E+00  5.33147249E-01 -4.34806961E+00  3.13295968E+00
 -8.33895409E-01 -3.61878431E+00  2.13841533E+00  2.26410841E+00 -6.64063779E+00
  1.51847083E+00  9.82404105E-01 -3.67410102E+00 -9.21199546E-01 -4.99052639E-01
 -4.05046394E+00 -2.43909435E+00  8.91990688E-01 -4.77666938E+00 -1.43137132E+00
 -2.20488805E+00 -8.51851912E-01 -8.77599963E-01 -1.17317184E+00 -4.29144036E-01
  7.98384951E-01 -2.35209529E+00 -4.01626751E-01 -2.53634466E+00 -2.36639658E+00
  8.51850842E-01 -8.77593553E-01  1.17317403E+00  4.01624454E-01 -2.53633043E+00
  2.36640898E+00  4.29144436E-01  7.98398810E-01  2.35208744E+00  3.67409982E+00
 -9.21198996E-01  4.99054456E-01  4.05046034E+00 -2.43909743E+00 -8.91985597E-01
  4.77666771E+00 -1.43136937E+00  2.20489055E+00  4.62197176E+00  1.60188991E+00
 -5.33150818E-01  4.34809456E+00  3.13295614E+00  8.33897585E-01  6.64063467E+00
  1.51845828E+00 -9.82428985E-01  3.61877106E+00  2.13842156E+00 -2.26410047E+00
Constraint Structure                       R   N=          60
  4.82642817E+00  1.35619979E+00 -6.65315083E-01  4.42723246E+00  3.14794310E+00
  3.64049860E-01  4.06931077E+00  1.49566864E+00 -2.62270862E+00  6.91119413E+00
  1.09570847E+00 -7.80856000E-01  3.65379493E+00 -8.87675123E-01  7.23144670E-01
  4.02473370E+00 -2.64844770E+00 -3.72161167E-01  4.62085579E+00 -1.07774034E+00
  2.58495224E+00  8.05553683E-01 -6.21725805E-01  1.20951319E+00  4.61036206E-01
  1.15030845E+00  2.29420259E+00  2.14807820E-01 -2.24382879E+00  2.41768882E+00
 -8.05614759E-01 -6.21815574E-01 -1.20947271E+00 -2.14674209E-01 -2.24385152E+00
 -2.41762135E+00 -4.61093308E-01  1.15014581E+00 -2.29410346E+00 -3.65375510E+00
 -8.87754198E-01 -7.23120762E-01 -4.02466923E+00 -2.64847481E+00  3.72252626E-01
 -4.62084492E+00 -1.07769180E+00 -2.58485665E+00 -4.82643530E+00  1.35625433E+00
  6.65228483E-01 -4.42715539E+00  3.14787321E+00 -3.64138526E-01 -6.91120251E+00
  1.09570279E+00  7.80821834E-01 -4.06936102E+00  1.49578394E+00  2.62261105E+00
Num ILSW                                   I              100
ILSW                                       I   N=         100
           0           0           0           0           2           0
           0           0           0           0           0          -1
           0           0           0           0           0           0
           0           0           0           0           1           0
           1           0           0           0           0           0
           0           0      100000           0          -1           0
           0           0           0           0           0           0
           0           0           0          40           0           0
           0           0           1           0           0           0
           0           0           4          40           0           0
           0           0           0           0           0           0
           0           0           0           0           0           0
           0           0           0           0           0           0
           0           0           0           0           0           0
           0           0           0           0           0           0
           0           0           0           0           0           0
           0           0           0           0
Num RLSW                                   I               40
RLSW                                       R   N=          40
  1.00000000E+00  1.00000000E+00  1.00000000E+00  1.00000000E+00  1.00000000E+00
  0.00000000E+00  0.00000000E+00  1.00000000E+00  0.00000000E+00  0.00000000E+00
  0.00000000E+00  0.00000000E+00  1.00000000E+00  0.00000000E+00  0.00000000E+00
  0.00000000E+00  0.00000000E+00  1.00000000E+00  0.00000000E+00  0.00000000E+00
  0.00000000E+00  0.00000000E+00  1.00000000E+00  0.00000000E+00  0.00000000E+00
  0.00000000E+00  0.00000000E+00  1.00000000E+00  0.00000000E+00  0.00000000E+00
  0.00000000E+00  0.00000000E+00  0.00000000E+00  0.00000000E+00  0.00000000E+00
  0.00000000E+00  0.00000000E+00  0.00000000E+00  1.00000000E+00  1.00000000E+00
MxBond                                     I                4
NBond                                      I   N=          20
           4           1           1           1           4           1
           1           4           1           1           4           1
           1           4           1           1           4           1
           1           1
IBond                                      I   N=          80
           2           3           4           5           1           0
           0           0           1           0           0           0
           1           0           0           0           1           6
           7           8           5           0           0           0
           5           0           0           0           5           9
          10          11           8           0           0           0
           8           0           0           0           8          12
          13          14          11           0           0           0
          11           0           0           0          11          15
          16          17          14           0           0           0
          14           0           0           0          14          18
          19          20          17           0           0           0
          17           0           0           0          17           0
           0           0
RBond                                      R   N=          80
  1.00000000E+00  1.00000000E+00  1.00000000E+00  1.00000000E+00  1.00000000E+00
  0.00000000E+00  0.00000000E+00  0.00000000E+00  1.00000000E+00  0.00000000E+00
  0.00000000E+00  0.00000000E+00  1.00000000E+00  0.00000000E+00  0.00000000E+00
  0.00000000E+00  1.00000000E+00  1.00000000E+00  1.00000000E+00  1.00000000E+00
  1.00000000E+00  0.00000000E+00  0.00000000E+00  0.00000000E+00  1.00000000E+00
  0.00000000E+00  0.00000000E+00  0.00000000E+00  1.00000000E+00  1.00000000E+00
  1.00000000E+00  1.00000000E+00  1.00000000E+00  0.00000000E+00  0.00000000E+00
  0.00000000E+00  1.00000000E+00  0.00000000E+00  0.00000000E+00  0.00000000E+00
  1.00000000E+00  1.00000000E+00  1.00000000E+00  1.00000000E+00  1.00000000E+00
  0.00000000E+00  0.00000000E+00  0.00000000E+00  1.00000000E+00  0.00000000E+00
  0.00000000E+00  0.00000000E+00  1.00000000E+00  1.00000000E+00  1.00000000E+00
  1.00000000E+00  1.00000000E+00  0.00000000E+00  0.00000000E+00  0.00000000E+00
  1.00000000E+00  0.00000000E+00  0.00000000E+00  0.00000000E+00  1.00000000E+00
  1.00000000E+00  1.00000000E+00  1.00000000E+00  1.00000000E+00  0.00000000E+00
  0.00000000E+00  0.00000000E+00  1.00000000E+00  0.00000000E+00  0.00000000E+00
  0.00000000E+00  1.00000000E+00  0.00000000E+00  0.00000000E+00  0.00000000E+00
Virial Ratio                               R      9.990126242954566E-01
SCF Energy                                 R     -5.540380246736731E-02
Total Energy                               R     -5.540380246736731E-02
RMS Force                                  R      1.907541186063083E-06
RMS Density                                R      8.157539170122059E-09
External E-field                           R   N=          35
  0.00000000E+00  0.00000000E+00  0.00000000E+00  0.00000000E+00  0.00000000E+00
  0.00000000E+00  0.00000000E+00  0.00000000E+00  0.00000000E+00  0.00000000E+00
  0.00000000E+00  0.00000000E+00  0.00000000E+00  0.00000000E+00  0.00000000E+00
  0.00000000E+00  0.00000000E+00  0.00000000E+00  0.00000000E+00  0.00000000E+00
  0.00000000E+00  0.00000000E+00  0.00000000E+00  0.00000000E+00  0.00000000E+00
  0.00000000E+00  0.00000000E+00  0.00000000E+00  0.00000000E+00  0.00000000E+00
  0.00000000E+00  0.00000000E+00  0.00000000E+00  0.00000000E+00  0.00000000E+00
IOpCl                                      I                0
IROHF                                      I                0
Alpha Orbital Energies                     R   N=          38
 -1.05711237E+00 -9.96948815E-01 -9.03094886E-01 -8.33649362E-01 -7.53161993E-01
 -7.14425801E-01 -5.80285824E-01 -5.63898358E-01 -5.54324870E-01 -5.33086547E-01
 -4.98402746E-01 -4.86080285E-01 -4.77343933E-01 -4.50114505E-01 -4.41336351E-01
 -4.29399611E-01 -4.14874612E-01 -4.06803152E-01 -4.02096520E-01  1.53866005E-01
  1.65656990E-01  1.66440756E-01  1.73770868E-01  1.80451062E-01  2.10901899E-01
  2.12388842E-01  2.14346431E-01  2.21673687E-01  2.23364077E-01  2.29486914E-01
  2.30642814E-01  2.32796724E-01  2.41704382E-01  2.44991869E-01  2.47860025E-01
  2.48108457E-01  2.58125183E-01  2.60019399E-01
Alpha MO coefficients                      R   N=        1444
  2.41697077E-01  4.36291380E-02 -5.94796921E-02 -2.39694556E-02  1.03696848E-01
  1.11769094E-01  9.12423092E-02  3.45386058E-01  7.11787681E-02  3.36619548E-02
  6.94248675E-03  1.46093040E-01  1.34939974E-01  4.14948541E-01 -2.28796864E-03
  7.57229884E-03  7.26651364E-02  1.79696378E-01  1.70555830E-01  4.14948445E-01
  2.28788791E-03  7.57186789E-03 -7.26651890E-02  1.70555799E-01  1.79696339E-01
  3.45385798E-01 -7.11787506E-02  3.36619337E-02 -6.94253633E-03  1.46092969E-01
  1.34939864E-01  2.41696771E-01 -4.36291904E-02 -5.94795201E-02  2.39695455E-02
  1.03696560E-01  9.12422030E-02  1.11769119E-01  3.74719753E-01  2.64008486E-02
 -7.15762062E-02 -3.24451234E-02  1.59541804E-01  1.55135007E-01  1.58996759E-01
  4.04492685E-01 -1.16952133E-02  6.32057125E-02  1.41219491E-02  1.66346753E-01
  1.74276847E-01  1.52596651E-01 -1.52164509E-01  7.25780706E-03 -4.34898774E-03
  5.42298443E-02  4.97016603E-02 -1.52597108E-01 -1.52164482E-01 -7.25775056E-03
 -4.34888036E-03 -4.97018490E-02 -5.42300640E-02 -4.04492854E-01 -1.16951564E-02
 -6.32056605E-02  1.41220510E-02 -1.66346809E-01 -1.74276901E-01 -3.74719762E-01
  2.64009855E-02  7.15761104E-02 -3.24452857E-02 -1.59541833E-01 -1.58996723E-01
 -1.55135014E-01  4.10206511E-01 -3.61366701E-02  1.16132742E-03 -3.57556088E-04
  1.84515505E-01  1.72993759E-01  2.06793979E-01  9.70232432E-02 -1.67264002E-01
  1.10935143E-01  5.19239542E-02  3.27438014E-02  5.38471935E-02 -3.37204275E-01
 -8.98082266E-02  4.08282585E-02 -4.98975762E-02 -1.19582859E-01 -1.64598405E-01
 -3.37203969E-01  8.98083199E-02  4.08285173E-02  4.98975229E-02 -1.64598224E-01
 -1.19582636E-01  9.70234033E-02  1.67264059E-01  1.10934849E-01 -5.19241514E-02
  3.27437980E-02  5.38472489E-02  4.10206625E-01  3.61366435E-02  1.16127477E-03
  3.57583864E-04  1.84515812E-01  2.06793972E-01  1.72993593E-01  3.28277294E-01
 -4.93781795E-02  9.41392097E-02  6.03952185E-02  1.60499072E-01  1.82571902E-01
  1.81665627E-01 -2.15943662E-01 -1.19330303E-01  1.24759315E-01  1.12376030E-01
 -9.03860130E-02 -1.30327820E-01 -2.99697432E-01  1.24971781E-01  2.34720961E-02
  1.19304704E-01 -1.51099213E-01 -1.67091534E-01  2.99697600E-01  1.24971557E-01
 -2.34715494E-02  1.19304701E-01  1.67091651E-01  1.51099221E-01  2.15943427E-01
 -1.19330510E-01 -1.24758758E-01  1.12376292E-01  9.03858375E-02  1.30327693E-01
 -3.28277365E-01 -4.93783375E-02 -9.41389924E-02  6.03953770E-02 -1.60499158E-01
 -1.81665790E-01 -1.82571766E-01 -1.89797817E-01  2.31405887E-03 -1.86993653E-01
 -7.50282672E-02 -1.40066039E-01 -1.57123659E-01 -9.38705648E-02  3.64763561E-01
 -1.14147424E-01 -1.50504438E-01 -4.81984665E-02  2.21369869E-01  2.45638473E-01
 -1.68742830E-01 -1.81703546E-01 -8.46042249E-02 -3.72466437E-02 -1.33868978E-01
 -4.35975071E-02 -1.68743154E-01  1.81703749E-01 -8.46041920E-02  3.72466933E-02
 -4.35978460E-02 -1.33869314E-01  3.64764079E-01  1.14147334E-01 -1.50504668E-01
  4.81987856E-02  2.21370182E-01  2.45638807E-01 -1.89798160E-01 -2.31437333E-03
 -1.86993757E-01  7.50287504E-02 -1.40065810E-01 -9.38708784E-02 -1.57124254E-01
  1.36988372E-01 -2.34601401E-02  1.67219714E-01 -2.92715787E-03  1.40114851E-01
  7.04668089E-02  7.36466048E-02 -2.27467024E-01  1.09964028E-01  1.20731929E-01
 -1.03278690E-01 -2.15105572E-01 -1.05099518E-01  2.96929617E-01  9.14009452E-02
  2.60293545E-02 -2.58067787E-01  2.45716529E-01  2.28308804E-01 -2.96929551E-01
  9.14005284E-02 -2.60307250E-02 -2.58067847E-01 -2.28308939E-01 -2.45716358E-01
  2.27466447E-01  1.09963768E-01 -1.20732331E-01 -1.03278619E-01  2.15105421E-01
  1.05099175E-01 -1.36987911E-01 -2.34602304E-02 -1.67219203E-01 -2.92699074E-03
 -1.40114412E-01 -7.36459541E-02 -7.04668595E-02 -4.35852380E-02  1.57628900E-01
 -1.62576944E-02 -2.21233262E-01  8.58686309E-02 -8.75245541E-02 -1.56170699E-01
  5.81914832E-02  2.39639505E-02  2.23391520E-01 -2.07380917E-01 -1.82014310E-01
  9.73435163E-02 -1.03601723E-02 -1.27493527E-01  3.69514307E-01 -1.05636185E-01
  2.15479849E-01 -1.86154409E-01 -1.03593629E-02  1.27495165E-01  3.69514379E-01
  1.05633278E-01 -1.86154209E-01  2.15479415E-01  5.81913821E-02 -2.39660641E-02
  2.23392023E-01  2.07378152E-01 -1.82013650E-01  9.73412638E-02 -4.35852693E-02
 -1.57630912E-01 -1.62571120E-02  2.21231286E-01  8.58673426E-02 -1.56172981E-01
 -8.75209782E-02  2.03369975E-03  2.98541584E-01  5.92684959E-02  1.64432619E-01
 -1.74031040E-02  2.04286885E-01 -1.74566483E-01 -1.03787461E-02  3.54611203E-01
  5.65171975E-02  1.73115549E-01  4.80845985E-03 -2.42477420E-01  8.77854686E-02
 -2.36943527E-01  1.66974366E-02  1.42552883E-01 -4.57704385E-02 -5.85290141E-02
 -8.77854333E-02 -2.36942043E-01 -1.66952339E-02  1.42554838E-01  5.85288649E-02
  4.57715118E-02  1.03789386E-02  3.54610880E-01 -5.65156120E-02  1.73118817E-01
 -4.81072087E-03  2.42478928E-01 -2.03382704E-03  2.98540615E-01 -5.92675354E-02
  1.64435392E-01  1.74074285E-02  1.74563854E-01 -2.04289007E-01 -2.25943672E-02
  1.99518342E-01 -2.10477926E-01  1.81967322E-01 -1.79915142E-01  1.23301568E-01
 -1.12207883E-01  6.84262927E-02  4.49693069E-02  6.31779920E-02  3.23603903E-01
  1.40341609E-01 -1.79189099E-01 -2.77312304E-02  5.36646229E-02  2.30098232E-01
  2.22060398E-01  3.93844122E-02 -2.17785322E-01 -2.77314353E-02 -5.36659516E-02
  2.30097138E-01 -2.22060754E-01 -2.17784900E-01  3.93850274E-02  6.84262428E-02
 -4.49674375E-02  6.31765647E-02 -3.23603892E-01  1.40342091E-01 -1.79188228E-01
 -2.25943397E-02 -1.99516666E-01 -2.10478610E-01 -1.81966940E-01 -1.79917302E-01
 -1.12204426E-01  1.23300448E-01  5.65352326E-03 -1.72067894E-01 -6.22550763E-02
  3.73749166E-01 -2.16673283E-01  1.49313526E-01  1.80427117E-01 -4.04020513E-02
 -2.97128169E-02 -2.38380736E-01  2.10446855E-01  2.01310977E-01 -8.94692227E-02
  7.31755720E-02  1.04697947E-01 -1.38393421E-01 -9.96751716E-02  2.04561462E-03
  1.65626601E-01 -7.31757721E-02  1.04698903E-01  1.38393841E-01 -9.96755699E-02
 -1.65627283E-01 -2.04499756E-03  4.04023535E-02 -2.97132016E-02  2.38381954E-01
  2.10445940E-01 -2.01311090E-01  8.94686831E-02 -5.65355803E-03 -1.72069618E-01
  6.22559449E-02  3.73749063E-01  2.16673228E-01 -1.80430970E-01 -1.49310186E-01
  1.48887109E-02  3.93085169E-01  2.32034403E-01  3.08826494E-02  1.52627076E-01
  1.98582663E-01 -2.75781093E-01  4.31360978E-02  2.00674422E-01 -4.49065817E-02
 -1.66878581E-02  1.24332331E-02 -3.82488110E-02 -5.86156414E-02 -2.02173652E-01
 -1.90765460E-01 -1.79769781E-02 -1.46366087E-01  5.64961614E-02 -5.86152593E-02
  2.02173962E-01 -1.90766052E-01  1.79779442E-02  5.64965142E-02 -1.46366461E-01
  4.31359547E-02 -2.00675214E-01 -4.49068259E-02  1.66876676E-02  1.24334615E-02
 -3.82492029E-02  1.48887016E-02 -3.93084679E-01  2.32034926E-01 -3.08844647E-02
  1.52623225E-01 -2.75780325E-01  1.98586225E-01 -3.16106875E-02 -7.47395676E-02
  4.14008619E-01 -3.50518226E-03  1.99461782E-01  4.33579081E-02  2.49939719E-02
 -2.65818668E-02  1.10870205E-01 -3.21377539E-01 -1.99373133E-01  4.56668360E-02
  1.25492690E-01 -2.08234907E-02 -1.22746284E-01 -2.13001743E-01  8.43376498E-02
 -1.85127156E-01  5.99072210E-02  2.08231909E-02 -1.22744323E-01  2.13002763E-01
  8.43407892E-02 -5.99059837E-02  1.85128859E-01  2.65816677E-02  1.10870324E-01
  3.21375830E-01 -1.99372988E-01 -4.56667577E-02 -1.25492242E-01  3.16105257E-02
 -7.47400836E-02 -4.14008449E-01 -3.50803615E-03 -1.99463615E-01 -2.49922754E-02