 Entering Gaussian System, Link 0=/share/apps/g09/g09
 Input=C6H14_1_07_1_opt_PM6.gjf
 Output=C6H14_1_07_1_opt_PM6.log
 Initial command:
 /share/apps/g09/l1.exe /state/partition1/Gau-17073.inp -scrdir=/state/partition1/
 Entering Link 1 = /share/apps/g09/l1.exe PID=     17083.
  
 Copyright (c) 1988,1990,1992,1993,1995,1998,2003,2009, Gaussian, Inc.
                  All Rights Reserved.
  
 This is part of the Gaussian(R) 09 program.  It is based on
 the Gaussian(R) 03 system (copyright 2003, Gaussian, Inc.),
 the Gaussian(R) 98 system (copyright 1998, Gaussian, Inc.),
 the Gaussian(R) 94 system (copyright 1995, Gaussian, Inc.),
 the Gaussian 92(TM) system (copyright 1992, Gaussian, Inc.),
 the Gaussian 90(TM) system (copyright 1990, Gaussian, Inc.),
 the Gaussian 88(TM) system (copyright 1988, Gaussian, Inc.),
 the Gaussian 86(TM) system (copyright 1986, Carnegie Mellon
 University), and the Gaussian 82(TM) system (copyright 1983,
 Carnegie Mellon University). Gaussian is a federally registered
 trademark of Gaussian, Inc.
  
 This software contains proprietary and confidential information,
 including trade secrets, belonging to Gaussian, Inc.
  
 This software is provided under written license and may be
 used, copied, transmitted, or stored only in accord with that
 written license.
  
 The following legend is applicable only to US Government
 contracts under FAR:
  
                    RESTRICTED RIGHTS LEGEND
  
 Use, reproduction and disclosure by the US Government is
 subject to restrictions as set forth in subparagraphs (a)
 and (c) of the Commercial Computer Software - Restricted
 Rights clause in FAR 52.227-19.
  
 Gaussian, Inc.
 340 Quinnipiac St., Bldg. 40, Wallingford CT 06492
  
  
 ---------------------------------------------------------------
 Warning -- This program may not be used in any manner that
 competes with the business of Gaussian, Inc. or will provide
 assistance to any competitor of Gaussian, Inc.  The licensee
 of this program is prohibited from giving any competitor of
 Gaussian, Inc. access to this program.  By using this program,
 the user acknowledges that Gaussian, Inc. is engaged in the
 business of creating and licensing software in the field of
 computational chemistry and represents and warrants to the
 licensee that it is not a competitor of Gaussian, Inc. and that
 it will not use this program in any manner prohibited above.
 ---------------------------------------------------------------
  

 Cite this work as:
 Gaussian 09, Revision A.01,
 M. J. Frisch, G. W. Trucks, H. B. Schlegel, G. E. Scuseria, 
 M. A. Robb, J. R. Cheeseman, G. Scalmani, V. Barone, B. Mennucci, 
 G. A. Petersson, H. Nakatsuji, M. Caricato, X. Li, H. P. Hratchian, 
 A. F. Izmaylov, J. Bloino, G. Zheng, J. L. Sonnenberg, M. Hada, 
 M. Ehara, K. Toyota, R. Fukuda, J. Hasegawa, M. Ishida, T. Nakajima, 
 Y. Honda, O. Kitao, H. Nakai, T. Vreven, J. A. Montgomery, Jr., 
 J. E. Peralta, F. Ogliaro, M. Bearpark, J. J. Heyd, E. Brothers, 
 K. N. Kudin, V. N. Staroverov, R. Kobayashi, J. Normand, 
 K. Raghavachari, A. Rendell, J. C. Burant, S. S. Iyengar, J. Tomasi, 
 M. Cossi, N. Rega, J. M. Millam, M. Klene, J. E. Knox, J. B. Cross, 
 V. Bakken, C. Adamo, J. Jaramillo, R. Gomperts, R. E. Stratmann, 
 O. Yazyev, A. J. Austin, R. Cammi, C. Pomelli, J. W. Ochterski, 
 R. L. Martin, K. Morokuma, V. G. Zakrzewski, G. A. Voth, 
 P. Salvador, J. J. Dannenberg, S. Dapprich, A. D. Daniels, 
 O. Farkas, J. B. Foresman, J. V. Ortiz, J. Cioslowski, 
 and D. J. Fox, Gaussian, Inc., Wallingford CT, 2009.
 
 ******************************************
 Gaussian 09:  EM64L-G09RevA.01  8-May-2009
                14-Sep-2015 
 ******************************************
 %mem=3GB
 %nprocshared=2
 Will use up to    2 processors via shared memory.
 %chk=C6H14_1_07_1_opt_PM6.chk
 ----------
 #p PM6 opt
 ----------
 1/14=-1,18=20,19=15,26=1,38=1/1,3;
 2/9=110,12=2,17=6,18=5,40=1/2;
 3/5=2,16=1,25=1,41=3900000,71=1/1,2,3;
 4/35=1/1;
 5/5=2,35=1,38=5/2;
 6/7=2,8=2,9=2,10=2,28=1/1;
 7//1,2,3,16;
 1/14=-1,18=20,19=15/3(2);
 2/9=110/2;
 99//99;
 2/9=110/2;
 3/5=2,16=1,25=1,41=3900000,71=1,135=20/1,2,3;
 4/5=5,16=3,35=1/1;
 5/5=2,35=1,38=5/2;
 7//1,2,3,16;
 1/14=-1,18=20,19=15/3(-5);
 2/9=110/2;
 6/7=2,8=2,9=2,10=2,19=2,28=1/1;
 99/9=1/99;
 Leave Link    1 at Mon Sep 14 19:11:54 2015, MaxMem=  402653184 cpu:       3.0
 (Enter /share/apps/g09/l101.exe)
 ----------------------------------
 using PM6 to do opt and freq calc.
 ----------------------------------
 Symbolic Z-matrix:
 Charge =  0 Multiplicity = 1
 C                     1.148     2.681    -0.6818 
 H                     0.4476    3.2262   -1.3545 
 H                     1.4145    1.7035   -1.1426 
 H                     2.0792    3.2819   -0.5741 
 C                     0.5149    2.474     0.6934 
 H                     1.2199    1.8991    1.3377 
 H                     0.3708    3.476     1.1602 
 C                    -0.8465    1.7648    0.656 
 H                    -1.5387    2.3461    0.0041 
 H                    -1.2601    1.7781    1.6914 
 C                    -0.7758    0.3073    0.17 
 H                     0.0377   -0.2166    0.7241 
 H                    -0.5204    0.2839   -0.9145 
 C                    -2.0716   -0.4856    0.3932 
 H                    -2.3426   -0.465     1.4743 
 H                    -1.8807   -1.5474    0.1126 
 C                    -3.2578    0.0138   -0.4305 
 H                    -2.999     0.0327   -1.5135 
 H                    -4.1248   -0.6691   -0.2829 
 H                    -3.5587    1.0352   -0.1064 
 
 NAtoms=     20 NQM=     20 NQMF=      0 NMic=      0 NMicF=      0 NTot=     20.
                    Isotopes and Nuclear Properties:
 (Nuclear quadrupole moments (NQMom) in fm**2, nuclear magnetic moments (NMagM)
  in nuclear magnetons)

  Atom         1           2           3           4           5           6           7           8           9          10
 IAtWgt=          12           1           1           1          12           1           1          12           1           1
 AtmWgt=  12.0000000   1.0078250   1.0078250   1.0078250  12.0000000   1.0078250   1.0078250  12.0000000   1.0078250   1.0078250
 NucSpn=           0           1           1           1           0           1           1           0           1           1
 AtZEff=   0.0000000   0.0000000   0.0000000   0.0000000   0.0000000   0.0000000   0.0000000   0.0000000   0.0000000   0.0000000
 NQMom=    0.0000000   0.0000000   0.0000000   0.0000000   0.0000000   0.0000000   0.0000000   0.0000000   0.0000000   0.0000000
 NMagM=    0.0000000   2.7928460   2.7928460   2.7928460   0.0000000   2.7928460   2.7928460   0.0000000   2.7928460   2.7928460

  Atom        11          12          13          14          15          16          17          18          19          20
 IAtWgt=          12           1           1          12           1           1          12           1           1           1
 AtmWgt=  12.0000000   1.0078250   1.0078250  12.0000000   1.0078250   1.0078250  12.0000000   1.0078250   1.0078250   1.0078250
 NucSpn=           0           1           1           0           1           1           0           1           1           1
 AtZEff=   0.0000000   0.0000000   0.0000000   0.0000000   0.0000000   0.0000000   0.0000000   0.0000000   0.0000000   0.0000000
 NQMom=    0.0000000   0.0000000   0.0000000   0.0000000   0.0000000   0.0000000   0.0000000   0.0000000   0.0000000   0.0000000
 NMagM=    0.0000000   2.7928460   2.7928460   0.0000000   2.7928460   2.7928460   0.0000000   2.7928460   2.7928460   2.7928460
 Leave Link  101 at Mon Sep 14 19:11:56 2015, MaxMem=  402653184 cpu:       0.1
 (Enter /share/apps/g09/l103.exe)

 GradGradGradGradGradGradGradGradGradGradGradGradGradGradGradGradGradGrad
 Berny optimization.
 Initialization pass.
                           ----------------------------
                           !    Initial Parameters    !
                           ! (Angstroms and Degrees)  !
 --------------------------                            --------------------------
 ! Name  Definition              Value          Derivative Info.                !
 --------------------------------------------------------------------------------
 ! R1    R(1,2)                  1.1137         estimate D2E/DX2                !
 ! R2    R(1,3)                  1.113          estimate D2E/DX2                !
 ! R3    R(1,4)                  1.1135         estimate D2E/DX2                !
 ! R4    R(1,5)                  1.528          estimate D2E/DX2                !
 ! R5    R(5,6)                  1.1147         estimate D2E/DX2                !
 ! R6    R(5,7)                  1.1148         estimate D2E/DX2                !
 ! R7    R(5,8)                  1.5355         estimate D2E/DX2                !
 ! R8    R(8,9)                  1.1145         estimate D2E/DX2                !
 ! R9    R(8,10)                 1.115          estimate D2E/DX2                !
 ! R10   R(8,11)                 1.538          estimate D2E/DX2                !
 ! R11   R(11,12)                1.115          estimate D2E/DX2                !
 ! R12   R(11,13)                1.1144         estimate D2E/DX2                !
 ! R13   R(11,14)                1.5354         estimate D2E/DX2                !
 ! R14   R(14,15)                1.1147         estimate D2E/DX2                !
 ! R15   R(14,16)                1.1147         estimate D2E/DX2                !
 ! R16   R(14,17)                1.5281         estimate D2E/DX2                !
 ! R17   R(17,18)                1.1137         estimate D2E/DX2                !
 ! R18   R(17,19)                1.1135         estimate D2E/DX2                !
 ! R19   R(17,20)                1.113          estimate D2E/DX2                !
 ! A1    A(2,1,3)              109.2953         estimate D2E/DX2                !
 ! A2    A(2,1,4)              108.6741         estimate D2E/DX2                !
 ! A3    A(2,1,5)              110.4484         estimate D2E/DX2                !
 ! A4    A(3,1,4)              108.2854         estimate D2E/DX2                !
 ! A5    A(3,1,5)              110.6603         estimate D2E/DX2                !
 ! A6    A(4,1,5)              109.4243         estimate D2E/DX2                !
 ! A7    A(1,5,6)              109.1478         estimate D2E/DX2                !
 ! A8    A(1,5,7)              107.9785         estimate D2E/DX2                !
 ! A9    A(1,5,8)              114.0791         estimate D2E/DX2                !
 ! A10   A(6,5,7)              107.655          estimate D2E/DX2                !
 ! A11   A(6,5,8)              109.6701         estimate D2E/DX2                !
 ! A12   A(7,5,8)              108.104          estimate D2E/DX2                !
 ! A13   A(5,8,9)              108.9063         estimate D2E/DX2                !
 ! A14   A(5,8,10)             107.5024         estimate D2E/DX2                !
 ! A15   A(5,8,11)             113.8679         estimate D2E/DX2                !
 ! A16   A(9,8,10)             107.8522         estimate D2E/DX2                !
 ! A17   A(9,8,11)             109.7553         estimate D2E/DX2                !
 ! A18   A(10,8,11)            108.7705         estimate D2E/DX2                !
 ! A19   A(8,11,12)            108.7698         estimate D2E/DX2                !
 ! A20   A(8,11,13)            109.7516         estimate D2E/DX2                !
 ! A21   A(8,11,14)            113.8682         estimate D2E/DX2                !
 ! A22   A(12,11,13)           107.8503         estimate D2E/DX2                !
 ! A23   A(12,11,14)           107.5081         estimate D2E/DX2                !
 ! A24   A(13,11,14)           108.9067         estimate D2E/DX2                !
 ! A25   A(11,14,15)           109.6697         estimate D2E/DX2                !
 ! A26   A(11,14,16)           108.1053         estimate D2E/DX2                !
 ! A27   A(11,14,17)           114.0788         estimate D2E/DX2                !
 ! A28   A(15,14,16)           107.6596         estimate D2E/DX2                !
 ! A29   A(15,14,17)           109.149          estimate D2E/DX2                !
 ! A30   A(16,14,17)           107.9722         estimate D2E/DX2                !
 ! A31   A(14,17,18)           110.4483         estimate D2E/DX2                !
 ! A32   A(14,17,19)           109.4236         estimate D2E/DX2                !
 ! A33   A(14,17,20)           110.6594         estimate D2E/DX2                !
 ! A34   A(18,17,19)           108.679          estimate D2E/DX2                !
 ! A35   A(18,17,20)           109.2944         estimate D2E/DX2                !
 ! A36   A(19,17,20)           108.2832         estimate D2E/DX2                !
 ! D1    D(2,1,5,6)            178.2128         estimate D2E/DX2                !
 ! D2    D(2,1,5,7)            -65.0306         estimate D2E/DX2                !
 ! D3    D(2,1,5,8)             55.1579         estimate D2E/DX2                !
 ! D4    D(3,1,5,6)             57.0485         estimate D2E/DX2                !
 ! D5    D(3,1,5,7)            173.805          estimate D2E/DX2                !
 ! D6    D(3,1,5,8)            -66.0065         estimate D2E/DX2                !
 ! D7    D(4,1,5,6)            -62.195          estimate D2E/DX2                !
 ! D8    D(4,1,5,7)             54.5615         estimate D2E/DX2                !
 ! D9    D(4,1,5,8)            174.75           estimate D2E/DX2                !
 ! D10   D(1,5,8,9)            -56.8778         estimate D2E/DX2                !
 ! D11   D(1,5,8,10)          -173.4791         estimate D2E/DX2                !
 ! D12   D(1,5,8,11)            65.9581         estimate D2E/DX2                !
 ! D13   D(6,5,8,9)           -179.6484         estimate D2E/DX2                !
 ! D14   D(6,5,8,10)            63.7502         estimate D2E/DX2                !
 ! D15   D(6,5,8,11)           -56.8125         estimate D2E/DX2                !
 ! D16   D(7,5,8,9)             63.2404         estimate D2E/DX2                !
 ! D17   D(7,5,8,10)           -53.361          estimate D2E/DX2                !
 ! D18   D(7,5,8,11)          -173.9237         estimate D2E/DX2                !
 ! D19   D(5,8,11,12)           48.6398         estimate D2E/DX2                !
 ! D20   D(5,8,11,13)          -69.1359         estimate D2E/DX2                !
 ! D21   D(5,8,11,14)          168.4958         estimate D2E/DX2                !
 ! D22   D(9,8,11,12)          171.01           estimate D2E/DX2                !
 ! D23   D(9,8,11,13)           53.2344         estimate D2E/DX2                !
 ! D24   D(9,8,11,14)          -69.1339         estimate D2E/DX2                !
 ! D25   D(10,8,11,12)         -71.2095         estimate D2E/DX2                !
 ! D26   D(10,8,11,13)         171.0149         estimate D2E/DX2                !
 ! D27   D(10,8,11,14)          48.6466         estimate D2E/DX2                !
 ! D28   D(8,11,14,15)         -56.8139         estimate D2E/DX2                !
 ! D29   D(8,11,14,16)        -173.9312         estimate D2E/DX2                !
 ! D30   D(8,11,14,17)          65.9579         estimate D2E/DX2                !
 ! D31   D(12,11,14,15)         63.7521         estimate D2E/DX2                !
 ! D32   D(12,11,14,16)        -53.3652         estimate D2E/DX2                !
 ! D33   D(12,11,14,17)       -173.4762         estimate D2E/DX2                !
 ! D34   D(13,11,14,15)       -179.6455         estimate D2E/DX2                !
 ! D35   D(13,11,14,16)         63.2372         estimate D2E/DX2                !
 ! D36   D(13,11,14,17)        -56.8738         estimate D2E/DX2                !
 ! D37   D(11,14,17,18)         55.1542         estimate D2E/DX2                !
 ! D38   D(11,14,17,19)        174.7519         estimate D2E/DX2                !
 ! D39   D(11,14,17,20)        -66.0083         estimate D2E/DX2                !
 ! D40   D(15,14,17,18)        178.2094         estimate D2E/DX2                !
 ! D41   D(15,14,17,19)        -62.193          estimate D2E/DX2                !
 ! D42   D(15,14,17,20)         57.0468         estimate D2E/DX2                !
 ! D43   D(16,14,17,18)        -65.0314         estimate D2E/DX2                !
 ! D44   D(16,14,17,19)         54.5662         estimate D2E/DX2                !
 ! D45   D(16,14,17,20)        173.806          estimate D2E/DX2                !
 --------------------------------------------------------------------------------
 Trust Radius=3.00D-01 FncErr=1.00D-07 GrdErr=1.00D-07
 Number of steps in this run= 110 maximum allowed number of steps= 120.
 GradGradGradGradGradGradGradGradGradGradGradGradGradGradGradGradGradGrad

 Leave Link  103 at Mon Sep 14 19:11:56 2015, MaxMem=  402653184 cpu:       0.0
 (Enter /share/apps/g09/l202.exe)
                          Input orientation:                          
 ---------------------------------------------------------------------
 Center     Atomic      Atomic             Coordinates (Angstroms)
 Number     Number       Type             X           Y           Z
 ---------------------------------------------------------------------
      1          6           0        1.148000    2.681000   -0.681800
      2          1           0        0.447600    3.226200   -1.354500
      3          1           0        1.414500    1.703500   -1.142600
      4          1           0        2.079200    3.281900   -0.574100
      5          6           0        0.514900    2.474000    0.693400
      6          1           0        1.219900    1.899100    1.337700
      7          1           0        0.370800    3.476000    1.160200
      8          6           0       -0.846500    1.764800    0.656000
      9          1           0       -1.538700    2.346100    0.004100
     10          1           0       -1.260100    1.778100    1.691400
     11          6           0       -0.775800    0.307300    0.170000
     12          1           0        0.037700   -0.216600    0.724100
     13          1           0       -0.520400    0.283900   -0.914500
     14          6           0       -2.071600   -0.485600    0.393200
     15          1           0       -2.342600   -0.465000    1.474300
     16          1           0       -1.880700   -1.547400    0.112600
     17          6           0       -3.257800    0.013800   -0.430500
     18          1           0       -2.999000    0.032700   -1.513500
     19          1           0       -4.124800   -0.669100   -0.282900
     20          1           0       -3.558700    1.035200   -0.106400
 ---------------------------------------------------------------------
                    Distance matrix (angstroms):
                    1          2          3          4          5
     1  C    0.000000
     2  H    1.113700   0.000000
     3  H    1.113043   1.816153   0.000000
     4  H    1.113469   1.809488   1.804540   0.000000
     5  C    1.528018   2.182711   2.184913   2.169399   0.000000
     6  H    2.166776   3.099287   2.495599   2.511078   1.114745
     7  H    2.151518   2.528243   3.087710   2.442151   1.114752
     8  C    2.570440   2.802230   2.889782   3.517735   1.535504
     9  H    2.793022   2.562373   3.232529   3.781433   2.169969
    10  H    3.499465   3.780309   3.897513   4.306371   2.151954
    11  C    3.171911   3.512945   2.910276   4.189625   2.575741
    12  H    3.406671   4.042458   3.011135   4.253534   2.732762
    13  H    2.929812   3.128539   2.410629   3.982687   2.907529
    14  C    4.642069   4.814383   4.393601   5.688485   3.941996
    15  H    5.170142   5.423309   5.066198   6.147155   4.172869
    16  H    5.261508   5.510047   4.796063   6.282874   4.716766
    17  C    5.156373   4.990319   5.019219   6.259766   4.642090
    18  H    4.990273   4.701359   4.733722   6.101466   4.814338
    19  H    6.259769   6.101519   6.087048   7.361034   5.688502
    20  H    5.019240   4.733780   5.123773   6.087062   4.393637
                    6          7          8          9         10
     6  H    0.000000
     7  H    1.799747   0.000000
     8  C    2.180083   2.159686   0.000000
     9  H    3.096477   2.501886   1.114461   0.000000
    10  H    2.508016   2.413477   1.115031   1.802005   0.000000
    11  C    2.807164   3.512242   1.538018   2.183173   2.170819
    12  H    2.500058   3.733153   2.170805   3.093682   2.568809
    13  H    3.272601   3.910003   2.183089   2.476576   3.093623
    14  C    4.172870   4.716766   2.575701   2.907560   2.732800
    15  H    4.277737   4.795068   2.807123   3.272618   2.500087
    16  H    4.795097   5.603683   3.512196   3.909997   3.733190
    17  C    5.170173   5.261549   3.171884   2.929813   3.406761
    18  H    5.423275   5.510040   3.512856   3.128483   4.042472
    19  H    6.147179   6.282898   4.189589   3.982677   4.253605
    20  H    5.066238   4.796118   2.910258   2.410616   3.011237
                   11         12         13         14         15
    11  C    0.000000
    12  H    1.115025   0.000000
    13  H    1.114413   1.801939   0.000000
    14  C    1.535450   2.151976   2.169892   0.000000
    15  H    2.180025   2.508053   3.096390   1.114739   0.000000
    16  H    2.159632   2.413549   2.501801   1.114719   1.799769
    17  C    2.570421   3.499501   2.792950   1.528055   2.166819
    18  H    2.802177   3.780285   2.562296   2.182707   3.099277
    19  H    3.517709   4.306415   3.781379   2.169427   2.511104
    20  H    2.889770   3.897541   3.232452   2.184925   2.495619
                   16         17         18         19         20
    16  H    0.000000
    17  C    2.151443   0.000000
    18  H    2.528144   1.113653   0.000000
    19  H    2.442093   1.113475   1.809510   0.000000
    20  H    3.087631   1.113032   1.816095   1.804511   0.000000
 Stoichiometry    C6H14
 Framework group  C1[X(C6H14)]
 Deg. of freedom    54
 Full point group                 C1      NOp   1
 Largest Abelian subgroup         C1      NOp   1
 Largest concise Abelian subgroup C1      NOp   1
                         Standard orientation:                         
 ---------------------------------------------------------------------
 Center     Atomic      Atomic             Coordinates (Angstroms)
 Number     Number       Type             X           Y           Z
 ---------------------------------------------------------------------
      1          6           0        2.554036    0.717670   -0.352070
      2          1           0        2.342791    1.665820    0.192647
      3          1           0        2.153387    0.791474   -1.387878
      4          1           0        3.657246    0.579824   -0.413211
      5          6           0        1.933505   -0.469737    0.382672
      6          1           0        2.129797   -1.401498   -0.196939
      7          1           0        2.445252   -0.570316    1.367898
      8          6           0        0.426281   -0.329003    0.640047
      9          1           0        0.243970    0.608717    1.214040
     10          1           0        0.113671   -1.187383    1.279386
     11          6           0       -0.426313   -0.329051   -0.640025
     12          1           0       -0.113601   -1.187395   -1.279350
     13          1           0       -0.244000    0.608631   -1.213987
     14          6           0       -1.933484   -0.469779   -0.382659
     15          1           0       -2.129763   -1.401513    0.196988
     16          1           0       -2.445246   -0.570290   -1.367847
     17          6           0       -2.554040    0.717699    0.352024
     18          1           0       -2.342750    1.665783   -0.192694
     19          1           0       -3.657251    0.579821    0.413193
     20          1           0       -2.153413    0.791535    1.387826
 ---------------------------------------------------------------------
 Rotational constants (GHZ):      7.5749447      1.4435682      1.4222510
 Leave Link  202 at Mon Sep 14 19:11:56 2015, MaxMem=  402653184 cpu:       0.0
 (Enter /share/apps/g09/l301.exe)
 Standard basis: VSTO-6G (5D, 7F)
 Ernie: Thresh=  0.10000D-02 Tol=  0.10000D-05 Strict=F.
  NNHCO=     0 NNPyr=     0 NCTC=     0               EPep=         0.000000000
    EC=       126.332369391  ECS=         3.144117033   EG=         0.308622714
   EHC=         0.000409531  EAt=       -31.187935768  AtH=         2.796400831
 EPDDG=         0.000000000  ECC=       129.785518669 EAtT=        33.984336599
 There are    38 symmetry adapted basis functions of A   symmetry.
 Integral buffers will be    131072 words long.
 Regular integral format.
 Two-electron integral symmetry is turned off.
    38 basis functions,   228 primitive gaussians,    38 cartesian basis functions
    19 alpha electrons       19 beta electrons
       nuclear repulsion energy       163.7698552684 Hartrees.
 IExCor=    0 DFT=F Ex=HF Corr=None ExCW=0 ScaHFX=  1.000000
 ScaDFX=  1.000000  1.000000  1.000000  1.000000 ScalE2=  1.000000  1.000000
 IRadAn=      0 IRanWt=     -1 IRanGd=            0 ICorTp=0
 Leave Link  301 at Mon Sep 14 19:12:00 2015, MaxMem=  402653184 cpu:       0.2
 (Enter /share/apps/g09/l302.exe)
 Do NDO integrals.
 NPDir=0 NMtPBC=     1 NCelOv=     1 NCel=       1 NClECP=     1 NCelD=      1
         NCelK=      1 NCelE2=     1 NClLst=     1 CellRange=     0.0.
 One-electron integrals computed using PRISM.
 NBasis=    38 RedAO= F  NBF=    38
 NBsUse=    38 1.00D-04 NBFU=    38
 Leave Link  302 at Mon Sep 14 19:12:06 2015, MaxMem=  402653184 cpu:       0.1
 (Enter /share/apps/g09/l303.exe)
 DipDrv:  MaxL=1.
 Leave Link  303 at Mon Sep 14 19:12:10 2015, MaxMem=  402653184 cpu:       0.1
 (Enter /share/apps/g09/l401.exe)
 Simple Huckel Guess.
 Initial guess orbital symmetries:
       Occupied  (A) (A) (A) (A) (A) (A) (A) (A) (A) (A) (A) (A)
                 (A) (A) (A) (A) (A) (A) (A)
       Virtual   (A) (A) (A) (A) (A) (A) (A) (A) (A) (A) (A) (A)
                 (A) (A) (A) (A) (A) (A) (A)
 The electronic state of the initial guess is 1-A.
 Leave Link  401 at Mon Sep 14 19:12:10 2015, MaxMem=  402653184 cpu:       0.1
 (Enter /share/apps/g09/l502.exe)
 Closed shell SCF:
 Requested convergence on RMS density matrix=1.00D-08 within 128 cycles.
 Requested convergence on MAX density matrix=1.00D-06.
 Requested convergence on             energy=1.00D-06.
 No special actions if energy rises.
 Using DIIS extrapolation, IDIIS=  1040.
 Overlap will be assumed to be unity.
 Two-electron integral symmetry not used.
 Keep J ints in memory in canonical form, NReq=884654.
 IEnd=       81865 IEndB=       81865 NGot=   402653184 MDV=   402586639
 LenX=   402586639 LenY=   402584754
 Symmetry not used in FoFDir.
 MinBra= 0 MaxBra= 1 Meth=40.
 IRaf=       0 NMat=   1 IRICut=       1 DoRegI=T DoRafI=F ISym2E= 0 JSym2E=0.

 Cycle   1  Pass 1  IDiag  1:
 E= 0.735136767890481E-01
 DIIS: error= 2.19D-02 at cycle   1 NSaved=   1.
 NSaved= 1 IEnMin= 1 EnMin= 0.735136767890481E-01 IErMin= 1 ErrMin= 2.19D-02
 ErrMax= 2.19D-02 EMaxC= 1.00D-01 BMatC= 4.39D-02 BMatP= 4.39D-02
 IDIUse=3 WtCom= 7.81D-01 WtEn= 2.19D-01
 Coeff-Com:  0.100D+01
 Coeff-En:   0.100D+01
 Coeff:      0.100D+01
 GapD=    2.000 DampG=2.000 DampE=0.500 DampFc=1.0000 IDamp=-1.
 RMSDP=8.41D-03 MaxDP=6.95D-02              OVMax= 0.00D+00

 Cycle   2  Pass 1  IDiag  1:
 E=-0.430194305764360E-01 Delta-E=       -0.116533107365 Rises=F Damp=F
 DIIS: error= 5.35D-03 at cycle   2 NSaved=   2.
 NSaved= 2 IEnMin= 2 EnMin=-0.430194305764360E-01 IErMin= 2 ErrMin= 5.35D-03
 ErrMax= 5.35D-03 EMaxC= 1.00D-01 BMatC= 2.90D-03 BMatP= 4.39D-02
 IDIUse=3 WtCom= 9.46D-01 WtEn= 5.35D-02
 Coeff-Com: -0.321D+00 0.132D+01
 Coeff-En:   0.000D+00 0.100D+01
 Coeff:     -0.303D+00 0.130D+01
 RMSDP=3.01D-03 MaxDP=2.13D-02 DE=-1.17D-01 OVMax= 0.00D+00

 Cycle   3  Pass 1  IDiag  3:
 E=-0.523775536229039E-01 Delta-E=       -0.009358123046 Rises=F Damp=F
 DIIS: error= 1.41D-03 at cycle   3 NSaved=   3.
 NSaved= 3 IEnMin= 3 EnMin=-0.523775536229039E-01 IErMin= 3 ErrMin= 1.41D-03
 ErrMax= 1.41D-03 EMaxC= 1.00D-01 BMatC= 8.12D-05 BMatP= 2.90D-03
 IDIUse=3 WtCom= 9.86D-01 WtEn= 1.41D-02
 Coeff-Com:  0.236D+00-0.102D+01 0.178D+01
 Coeff-En:   0.000D+00 0.000D+00 0.100D+01
 Coeff:      0.232D+00-0.100D+01 0.177D+01
 Gap=     0.556 Goal=   None    Shift=    0.000
 RMSDP=8.50D-04 MaxDP=8.70D-03 DE=-9.36D-03 OVMax= 0.00D+00

 Cycle   4  Pass 1  IDiag  3:
 E=-0.528565560436789E-01 Delta-E=       -0.000479002421 Rises=F Damp=F
 DIIS: error= 3.71D-04 at cycle   4 NSaved=   4.
 NSaved= 4 IEnMin= 4 EnMin=-0.528565560436789E-01 IErMin= 4 ErrMin= 3.71D-04
 ErrMax= 3.71D-04 EMaxC= 1.00D-01 BMatC= 4.35D-06 BMatP= 8.12D-05
 IDIUse=3 WtCom= 9.96D-01 WtEn= 3.71D-03
 Coeff-Com: -0.116D+00 0.506D+00-0.105D+01 0.166D+01
 Coeff-En:   0.000D+00 0.000D+00 0.000D+00 0.100D+01
 Coeff:     -0.115D+00 0.504D+00-0.104D+01 0.166D+01
 Gap=     0.557 Goal=   None    Shift=    0.000
 RMSDP=2.30D-04 MaxDP=2.41D-03 DE=-4.79D-04 OVMax= 0.00D+00

 Cycle   5  Pass 1  IDiag  3:
 E=-0.528857857196670E-01 Delta-E=       -0.000029229676 Rises=F Damp=F
 DIIS: error= 6.90D-05 at cycle   5 NSaved=   5.
 NSaved= 5 IEnMin= 5 EnMin=-0.528857857196670E-01 IErMin= 5 ErrMin= 6.90D-05
 ErrMax= 6.90D-05 EMaxC= 1.00D-01 BMatC= 3.26D-07 BMatP= 4.35D-06
 IDIUse=1 WtCom= 1.00D+00 WtEn= 0.00D+00
 Coeff-Com:  0.612D-01-0.269D+00 0.590D+00-0.112D+01 0.173D+01
 Coeff:      0.612D-01-0.269D+00 0.590D+00-0.112D+01 0.173D+01
 Gap=     0.556 Goal=   None    Shift=    0.000
 RMSDP=6.38D-05 MaxDP=5.57D-04 DE=-2.92D-05 OVMax= 0.00D+00

 Cycle   6  Pass 1  IDiag  3:
 E=-0.528881871885574E-01 Delta-E=       -0.000002401469 Rises=F Damp=F
 DIIS: error= 2.80D-05 at cycle   6 NSaved=   6.
 NSaved= 6 IEnMin= 6 EnMin=-0.528881871885574E-01 IErMin= 6 ErrMin= 2.80D-05
 ErrMax= 2.80D-05 EMaxC= 1.00D-01 BMatC= 2.96D-08 BMatP= 3.26D-07
 IDIUse=1 WtCom= 1.00D+00 WtEn= 0.00D+00
 Coeff-Com: -0.968D-03 0.480D-02-0.237D-01 0.915D-01-0.473D+00 0.140D+01
 Coeff:     -0.968D-03 0.480D-02-0.237D-01 0.915D-01-0.473D+00 0.140D+01
 Gap=     0.556 Goal=   None    Shift=    0.000
 RMSDP=2.09D-05 MaxDP=2.04D-04 DE=-2.40D-06 OVMax= 0.00D+00

 Cycle   7  Pass 1  IDiag  3:
 E=-0.528884028867651E-01 Delta-E=       -0.000000215698 Rises=F Damp=F
 DIIS: error= 6.17D-06 at cycle   7 NSaved=   7.
 NSaved= 7 IEnMin= 7 EnMin=-0.528884028867651E-01 IErMin= 7 ErrMin= 6.17D-06
 ErrMax= 6.17D-06 EMaxC= 1.00D-01 BMatC= 2.02D-09 BMatP= 2.96D-08
 IDIUse=1 WtCom= 1.00D+00 WtEn= 0.00D+00
 Coeff-Com:  0.125D-02-0.572D-02 0.179D-01-0.505D-01 0.226D+00-0.791D+00
 Coeff-Com:  0.160D+01
 Coeff:      0.125D-02-0.572D-02 0.179D-01-0.505D-01 0.226D+00-0.791D+00
 Coeff:      0.160D+01
 Gap=     0.556 Goal=   None    Shift=    0.000
 RMSDP=4.84D-06 MaxDP=4.94D-05 DE=-2.16D-07 OVMax= 0.00D+00

 Cycle   8  Pass 1  IDiag  3:
 E=-0.528884154738307E-01 Delta-E=       -0.000000012587 Rises=F Damp=F
 DIIS: error= 1.44D-06 at cycle   8 NSaved=   8.
 NSaved= 8 IEnMin= 8 EnMin=-0.528884154738307E-01 IErMin= 8 ErrMin= 1.44D-06
 ErrMax= 1.44D-06 EMaxC= 1.00D-01 BMatC= 1.08D-10 BMatP= 2.02D-09
 IDIUse=1 WtCom= 1.00D+00 WtEn= 0.00D+00
 Coeff-Com: -0.347D-03 0.170D-02-0.737D-02 0.250D-01-0.132D+00 0.501D+00
 Coeff-Com: -0.115D+01 0.177D+01
 Coeff:     -0.347D-03 0.170D-02-0.737D-02 0.250D-01-0.132D+00 0.501D+00
 Coeff:     -0.115D+01 0.177D+01
 Gap=     0.556 Goal=   None    Shift=    0.000
 RMSDP=1.11D-06 MaxDP=1.11D-05 DE=-1.26D-08 OVMax= 0.00D+00

 Cycle   9  Pass 1  IDiag  3:
 E=-0.528884161419398E-01 Delta-E=       -0.000000000668 Rises=F Damp=F
 DIIS: error= 2.05D-07 at cycle   9 NSaved=   9.
 NSaved= 9 IEnMin= 9 EnMin=-0.528884161419398E-01 IErMin= 9 ErrMin= 2.05D-07
 ErrMax= 2.05D-07 EMaxC= 1.00D-01 BMatC= 2.81D-12 BMatP= 1.08D-10
 IDIUse=1 WtCom= 1.00D+00 WtEn= 0.00D+00
 Coeff-Com: -0.476D-04 0.157D-03 0.746D-03-0.470D-02 0.335D-01-0.139D+00
 Coeff-Com:  0.337D+00-0.632D+00 0.140D+01
 Coeff:     -0.476D-04 0.157D-03 0.746D-03-0.470D-02 0.335D-01-0.139D+00
 Coeff:      0.337D+00-0.632D+00 0.140D+01
 Gap=     0.556 Goal=   None    Shift=    0.000
 RMSDP=1.60D-07 MaxDP=1.62D-06 DE=-6.68D-10 OVMax= 0.00D+00

 Cycle  10  Pass 1  IDiag  3:
 E=-0.528884161561791E-01 Delta-E=       -0.000000000014 Rises=F Damp=F
 DIIS: error= 2.73D-08 at cycle  10 NSaved=  10.
 NSaved=10 IEnMin=10 EnMin=-0.528884161561791E-01 IErMin=10 ErrMin= 2.73D-08
 ErrMax= 2.73D-08 EMaxC= 1.00D-01 BMatC= 6.43D-14 BMatP= 2.81D-12
 IDIUse=1 WtCom= 1.00D+00 WtEn= 0.00D+00
 Coeff-Com: -0.480D-05 0.378D-04-0.429D-03 0.184D-02-0.113D-01 0.452D-01
 Coeff-Com: -0.108D+00 0.207D+00-0.525D+00 0.139D+01
 Coeff:     -0.480D-05 0.378D-04-0.429D-03 0.184D-02-0.113D-01 0.452D-01
 Coeff:     -0.108D+00 0.207D+00-0.525D+00 0.139D+01
 Gap=     0.556 Goal=   None    Shift=    0.000
 RMSDP=2.04D-08 MaxDP=1.99D-07 DE=-1.42D-11 OVMax= 0.00D+00

 Cycle  11  Pass 1  IDiag  3:
 E=-0.528884161564918E-01 Delta-E=        0.000000000000 Rises=F Damp=F
 DIIS: error= 1.05D-08 at cycle  11 NSaved=  11.
 NSaved=11 IEnMin=11 EnMin=-0.528884161564918E-01 IErMin=11 ErrMin= 1.05D-08
 ErrMax= 1.05D-08 EMaxC= 1.00D-01 BMatC= 4.97D-15 BMatP= 6.43D-14
 IDIUse=1 WtCom= 1.00D+00 WtEn= 0.00D+00
 Coeff-Com:  0.319D-05-0.228D-04 0.229D-03-0.967D-03 0.586D-02-0.234D-01
 Coeff-Com:  0.562D-01-0.107D+00 0.278D+00-0.866D+00 0.166D+01
 Coeff:      0.319D-05-0.228D-04 0.229D-03-0.967D-03 0.586D-02-0.234D-01
 Coeff:      0.562D-01-0.107D+00 0.278D+00-0.866D+00 0.166D+01
 Gap=     0.556 Goal=   None    Shift=    0.000
 RMSDP=7.20D-09 MaxDP=6.78D-08 DE=-3.13D-13 OVMax= 0.00D+00

 Cycle  12  Pass 2  IDiag  1:
 RMSDP=7.20D-09 MaxDP=6.78D-08 DE=-3.13D-13 OVMax= 0.00D+00

 SCF Done:  E(RPM6) = -0.528884161565E-01 A.U. after   12 cycles
             Convg  =    0.7200D-08             -V/T =  0.9991
 KE=-5.604167385840D+01 PE=-2.487464268187D+02 EE= 1.409653569926D+02
 Leave Link  502 at Mon Sep 14 19:12:11 2015, MaxMem=  402653184 cpu:       0.1
 (Enter /share/apps/g09/l601.exe)
 Copying SCF densities to generalized density rwf, IOpCl= 0 IROHF=0.

 **********************************************************************

            Population analysis using the SCF density.

 **********************************************************************

 Orbital symmetries:
       Occupied  (A) (A) (A) (A) (A) (A) (A) (A) (A) (A) (A) (A)
                 (A) (A) (A) (A) (A) (A) (A)
       Virtual   (A) (A) (A) (A) (A) (A) (A) (A) (A) (A) (A) (A)
                 (A) (A) (A) (A) (A) (A) (A)
 The electronic state is 1-A.
 Alpha  occ. eigenvalues --   -1.05000  -0.99148  -0.89487  -0.82862  -0.74623
 Alpha  occ. eigenvalues --   -0.69974  -0.58600  -0.56247  -0.54393  -0.53615
 Alpha  occ. eigenvalues --   -0.49995  -0.47885  -0.47843  -0.44651  -0.43500
 Alpha  occ. eigenvalues --   -0.43097  -0.41112  -0.40654  -0.40182
 Alpha virt. eigenvalues --    0.15456   0.16368   0.16679   0.17493   0.18013
 Alpha virt. eigenvalues --    0.20929   0.21147   0.21544   0.21885   0.22057
 Alpha virt. eigenvalues --    0.22903   0.22968   0.23279   0.23968   0.24178
 Alpha virt. eigenvalues --    0.24470   0.24532   0.25183   0.25435
          Condensed to atoms (all electrons):
              1          2          3          4          5          6
     1  C    4.457260   0.000000   0.000000   0.000000   0.000000   0.000000
     2  H    0.000000   0.852723   0.000000   0.000000   0.000000   0.000000
     3  H    0.000000   0.000000   0.852572   0.000000   0.000000   0.000000
     4  H    0.000000   0.000000   0.000000   0.858726   0.000000   0.000000
     5  C    0.000000   0.000000   0.000000   0.000000   4.229952   0.000000
     6  H    0.000000   0.000000   0.000000   0.000000   0.000000   0.873690
     7  H    0.000000   0.000000   0.000000   0.000000   0.000000   0.000000
     8  C    0.000000   0.000000   0.000000   0.000000   0.000000   0.000000
     9  H    0.000000   0.000000   0.000000   0.000000   0.000000   0.000000
    10  H    0.000000   0.000000   0.000000   0.000000   0.000000   0.000000
    11  C    0.000000   0.000000   0.000000   0.000000   0.000000   0.000000
    12  H    0.000000   0.000000   0.000000   0.000000   0.000000   0.000000
    13  H    0.000000   0.000000   0.000000   0.000000   0.000000   0.000000
    14  C    0.000000   0.000000   0.000000   0.000000   0.000000   0.000000
    15  H    0.000000   0.000000   0.000000   0.000000   0.000000   0.000000
    16  H    0.000000   0.000000   0.000000   0.000000   0.000000   0.000000
    17  C    0.000000   0.000000   0.000000   0.000000   0.000000   0.000000
    18  H    0.000000   0.000000   0.000000   0.000000   0.000000   0.000000
    19  H    0.000000   0.000000   0.000000   0.000000   0.000000   0.000000
    20  H    0.000000   0.000000   0.000000   0.000000   0.000000   0.000000
              7          8          9         10         11         12
     1  C    0.000000   0.000000   0.000000   0.000000   0.000000   0.000000
     2  H    0.000000   0.000000   0.000000   0.000000   0.000000   0.000000
     3  H    0.000000   0.000000   0.000000   0.000000   0.000000   0.000000
     4  H    0.000000   0.000000   0.000000   0.000000   0.000000   0.000000
     5  C    0.000000   0.000000   0.000000   0.000000   0.000000   0.000000
     6  H    0.000000   0.000000   0.000000   0.000000   0.000000   0.000000
     7  H    0.876827   0.000000   0.000000   0.000000   0.000000   0.000000
     8  C    0.000000   4.258717   0.000000   0.000000   0.000000   0.000000
     9  H    0.000000   0.000000   0.866763   0.000000   0.000000   0.000000
    10  H    0.000000   0.000000   0.000000   0.872770   0.000000   0.000000
    11  C    0.000000   0.000000   0.000000   0.000000   4.258728   0.000000
    12  H    0.000000   0.000000   0.000000   0.000000   0.000000   0.872763
    13  H    0.000000   0.000000   0.000000   0.000000   0.000000   0.000000
    14  C    0.000000   0.000000   0.000000   0.000000   0.000000   0.000000
    15  H    0.000000   0.000000   0.000000   0.000000   0.000000   0.000000
    16  H    0.000000   0.000000   0.000000   0.000000   0.000000   0.000000
    17  C    0.000000   0.000000   0.000000   0.000000   0.000000   0.000000
    18  H    0.000000   0.000000   0.000000   0.000000   0.000000   0.000000
    19  H    0.000000   0.000000   0.000000   0.000000   0.000000   0.000000
    20  H    0.000000   0.000000   0.000000   0.000000   0.000000   0.000000
             13         14         15         16         17         18
     1  C    0.000000   0.000000   0.000000   0.000000   0.000000   0.000000
     2  H    0.000000   0.000000   0.000000   0.000000   0.000000   0.000000
     3  H    0.000000   0.000000   0.000000   0.000000   0.000000   0.000000
     4  H    0.000000   0.000000   0.000000   0.000000   0.000000   0.000000
     5  C    0.000000   0.000000   0.000000   0.000000   0.000000   0.000000
     6  H    0.000000   0.000000   0.000000   0.000000   0.000000   0.000000
     7  H    0.000000   0.000000   0.000000   0.000000   0.000000   0.000000
     8  C    0.000000   0.000000   0.000000   0.000000   0.000000   0.000000
     9  H    0.000000   0.000000   0.000000   0.000000   0.000000   0.000000
    10  H    0.000000   0.000000   0.000000   0.000000   0.000000   0.000000
    11  C    0.000000   0.000000   0.000000   0.000000   0.000000   0.000000
    12  H    0.000000   0.000000   0.000000   0.000000   0.000000   0.000000
    13  H    0.866764   0.000000   0.000000   0.000000   0.000000   0.000000
    14  C    0.000000   4.229945   0.000000   0.000000   0.000000   0.000000
    15  H    0.000000   0.000000   0.873686   0.000000   0.000000   0.000000
    16  H    0.000000   0.000000   0.000000   0.876826   0.000000   0.000000
    17  C    0.000000   0.000000   0.000000   0.000000   4.457263   0.000000
    18  H    0.000000   0.000000   0.000000   0.000000   0.000000   0.852725
    19  H    0.000000   0.000000   0.000000   0.000000   0.000000   0.000000
    20  H    0.000000   0.000000   0.000000   0.000000   0.000000   0.000000
             19         20
     1  C    0.000000   0.000000
     2  H    0.000000   0.000000
     3  H    0.000000   0.000000
     4  H    0.000000   0.000000
     5  C    0.000000   0.000000
     6  H    0.000000   0.000000
     7  H    0.000000   0.000000
     8  C    0.000000   0.000000
     9  H    0.000000   0.000000
    10  H    0.000000   0.000000
    11  C    0.000000   0.000000
    12  H    0.000000   0.000000
    13  H    0.000000   0.000000
    14  C    0.000000   0.000000
    15  H    0.000000   0.000000
    16  H    0.000000   0.000000
    17  C    0.000000   0.000000
    18  H    0.000000   0.000000
    19  H    0.858724   0.000000
    20  H    0.000000   0.852575
 Mulliken atomic charges:
              1
     1  C   -0.457260
     2  H    0.147277
     3  H    0.147428
     4  H    0.141274
     5  C   -0.229952
     6  H    0.126310
     7  H    0.123173
     8  C   -0.258717
     9  H    0.133237
    10  H    0.127230
    11  C   -0.258728
    12  H    0.127237
    13  H    0.133236
    14  C   -0.229945
    15  H    0.126314
    16  H    0.123174
    17  C   -0.457263
    18  H    0.147275
    19  H    0.141276
    20  H    0.147425
 Sum of Mulliken atomic charges =   0.00000
 Mulliken charges with hydrogens summed into heavy atoms:
              1
     1  C   -0.021282
     5  C    0.019530
     8  C    0.001751
    11  C    0.001745
    14  C    0.019543
    17  C   -0.021287
 Sum of Mulliken charges with hydrogens summed into heavy atoms =   0.00000
 Charge=              0.0000 electrons
 Dipole moment (field-independent basis, Debye):
    X=              0.0001    Y=             -0.0040    Z=              0.0001  Tot=              0.0040
 N-N= 1.637698552684D+02 E-N=-2.487464268270D+02  KE=-5.604167385840D+01
 Leave Link  601 at Mon Sep 14 19:12:11 2015, MaxMem=  402653184 cpu:       0.0
 (Enter /share/apps/g09/l701.exe)
 Compute integral first derivatives.
 ... and contract with generalized density number  0.
 Leave Link  701 at Mon Sep 14 19:12:11 2015, MaxMem=  402653184 cpu:       0.1
 (Enter /share/apps/g09/l702.exe)
 L702 exits ... SP integral derivatives will be done elsewhere.
 Leave Link  702 at Mon Sep 14 19:12:15 2015, MaxMem=  402653184 cpu:       0.0
 (Enter /share/apps/g09/l703.exe)
 Compute integral first derivatives, UseDBF=F ICtDFT=           0.
 Integral derivatives from FoFDir, PRISM(SPDF).
 Calling FoFJK, ICntrl=      2127 FMM=F ISym2X=0 I1Cent= 0 IOpClX= 0 NMat=1 NMatS=1 NMatT=0.
 FoFCou: FMM=F IPFlag=           0 FMFlag=      100000 FMFlg1=         800
         NFxFlg=           0 DoJE=F BraDBF=F KetDBF=F FulRan=T
         Omega=  0.000000  0.000000  1.000000  0.000000  0.000000 ICntrl=    2127 IOpCl=  0
         NMat0=    1 NMatS0=    1 NMatT0=    0 NMatD0=    1 NMtDS0=    0 NMtDT0=    0
         I1Cent=           0 NGrid=           0.
 Symmetry not used in FoFCou.
 Leave Link  703 at Mon Sep 14 19:12:15 2015, MaxMem=  402653184 cpu:       0.0
 (Enter /share/apps/g09/l716.exe)
 Dipole        = 3.30668466D-05-1.56704800D-03 2.70093803D-05
 ***** Axes restored to original set *****
 -------------------------------------------------------------------
 Center     Atomic                   Forces (Hartrees/Bohr)
 Number     Number              X              Y              Z
 -------------------------------------------------------------------
      1        6           0.001719237    0.000215367   -0.002266833
      2        1           0.007936217   -0.005695519    0.003825827
      3        1          -0.002440958    0.009689168    0.001629713
      4        1          -0.007445912   -0.005085041   -0.004026307
      5        6           0.001609674   -0.000170304    0.000021995
      6        1          -0.002730912    0.003211349   -0.001106739
      7        1           0.001450997   -0.003564442    0.001395989
      8        6          -0.002227479   -0.001065706    0.000307851
      9        1           0.000966459   -0.003154425    0.003709505
     10        1          -0.001576438    0.000798311   -0.004346345
     11        6           0.002283839    0.001047800   -0.000149210
     12        1          -0.000581923    0.001950028   -0.004219569
     13        1           0.001182949    0.000415161    0.004777457
     14        6          -0.001437610   -0.000093588    0.000795819
     15        1           0.001507842   -0.001658316   -0.003736069
     16        1          -0.000191340    0.001944359    0.003590747
     17        6          -0.002536801    0.000832327   -0.000963568
     18        1          -0.004633999    0.001476792    0.009273671
     19        1           0.005610753    0.007434340   -0.003291187
     20        1           0.001535406   -0.008527660   -0.005222747
 -------------------------------------------------------------------
 Cartesian Forces:  Max     0.009689168 RMS     0.003692694
 Leave Link  716 at Mon Sep 14 19:12:15 2015, MaxMem=  402653184 cpu:       0.1
 (Enter /share/apps/g09/l103.exe)

 GradGradGradGradGradGradGradGradGradGradGradGradGradGradGradGradGradGrad
 Berny optimization.
 Internal  Forces:  Max     0.010090108 RMS     0.003072399
 Search for a local minimum.
 Step number   1 out of a maximum of  110
 All quantities printed in internal units (Hartrees-Bohrs-Radians)
 RMS Force = .30724D-02 SwitMx=.10000D-02 MixMth= 1
 Mixed Optimization -- RFO/linear search
 Second derivative matrix not updated -- first step.
     Eigenvalues ---    0.00263   0.00296   0.00297   0.00395   0.00395
     Eigenvalues ---    0.03400   0.03401   0.03425   0.03425   0.04788
     Eigenvalues ---    0.04789   0.04832   0.04832   0.05608   0.05608
     Eigenvalues ---    0.05776   0.05776   0.08443   0.08443   0.08515
     Eigenvalues ---    0.08515   0.12294   0.12294   0.12342   0.12342
     Eigenvalues ---    0.16000   0.16000   0.16000   0.16000   0.16000
     Eigenvalues ---    0.16000   0.21986   0.21986   0.21988   0.21988
     Eigenvalues ---    0.28695   0.28921   0.28926   0.29604   0.29607
     Eigenvalues ---    0.32073   0.32074   0.32102   0.32103   0.32103
     Eigenvalues ---    0.32105   0.32132   0.32137   0.32211   0.32216
     Eigenvalues ---    0.32235   0.32235   0.32280   0.322811000.00000
     Eigenvalues --- 1000.000001000.000001000.000001000.000001000.00000
     Eigenvalues --- 1000.000001000.000001000.000001000.000001000.00000
     Eigenvalues --- 1000.000001000.000001000.000001000.000001000.00000
     Eigenvalues --- 1000.000001000.000001000.000001000.000001000.00000
     Eigenvalues --- 1000.000001000.000001000.000001000.000001000.00000
     Eigenvalues --- 1000.000001000.000001000.000001000.000001000.00000
     Eigenvalues --- 1000.000001000.000001000.000001000.000001000.00000
     Eigenvalues --- 1000.000001000.000001000.000001000.000001000.00000
     Eigenvalues --- 1000.000001000.000001000.000001000.000001000.00000
 RFO step:  Lambda=-3.85293006D-03 EMin= 2.63036283D-03
 Linear search not attempted -- first point.
 Iteration  1 RMS(Cart)=  0.04030516 RMS(Int)=  0.00053634
 Iteration  2 RMS(Cart)=  0.00083334 RMS(Int)=  0.00007961
 Iteration  3 RMS(Cart)=  0.00000033 RMS(Int)=  0.00007961
 Variable       Old X    -DE/DX   Delta X   Delta X   Delta X     New X
                                 (Linear)    (Quad)   (Total)
    R1        2.10459  -0.01009   0.00000  -0.03095  -0.03095   2.07363
    R2        2.10335  -0.00977   0.00000  -0.02990  -0.02990   2.07344
    R3        2.10415  -0.00936   0.00000  -0.02870  -0.02870   2.07546
    R4        2.88754   0.00054   0.00000   0.00180   0.00180   2.88933
    R5        2.10656  -0.00402   0.00000  -0.01238  -0.01238   2.09418
    R6        2.10658  -0.00281   0.00000  -0.00864  -0.00864   2.09794
    R7        2.90168  -0.00057   0.00000  -0.00195  -0.00195   2.89973
    R8        2.10603  -0.00442   0.00000  -0.01358  -0.01358   2.09245
    R9        2.10710  -0.00344   0.00000  -0.01060  -0.01060   2.09650
   R10        2.90643  -0.00471   0.00000  -0.01621  -0.01621   2.89023
   R11        2.10709  -0.00344   0.00000  -0.01059  -0.01059   2.09650
   R12        2.10594  -0.00439   0.00000  -0.01349  -0.01349   2.09245
   R13        2.90158  -0.00054   0.00000  -0.00184  -0.00184   2.89974
   R14        2.10655  -0.00402   0.00000  -0.01238  -0.01238   2.09418
   R15        2.10651  -0.00279   0.00000  -0.00858  -0.00858   2.09793
   R16        2.88761   0.00053   0.00000   0.00176   0.00176   2.88936
   R17        2.10450  -0.01007   0.00000  -0.03089  -0.03089   2.07361
   R18        2.10416  -0.00936   0.00000  -0.02871  -0.02871   2.07546
   R19        2.10333  -0.00976   0.00000  -0.02988  -0.02988   2.07344
    A1        1.90756  -0.00327   0.00000  -0.02612  -0.02611   1.88146
    A2        1.89672  -0.00292   0.00000  -0.01497  -0.01523   1.88149
    A3        1.92769   0.00264   0.00000   0.01430   0.01417   1.94185
    A4        1.88994  -0.00258   0.00000  -0.01218  -0.01241   1.87752
    A5        1.93139   0.00212   0.00000   0.01144   0.01132   1.94271
    A6        1.90981   0.00380   0.00000   0.02649   0.02623   1.93604
    A7        1.90499   0.00132   0.00000   0.00439   0.00435   1.90934
    A8        1.88458   0.00208   0.00000   0.02008   0.02009   1.90467
    A9        1.99106  -0.00344   0.00000  -0.01202  -0.01202   1.97903
   A10        1.87893  -0.00174   0.00000  -0.01970  -0.01970   1.85923
   A11        1.91410   0.00084   0.00000  -0.00190  -0.00190   1.91220
   A12        1.88677   0.00099   0.00000   0.00870   0.00872   1.89549
   A13        1.90077   0.00224   0.00000   0.01090   0.01077   1.91155
   A14        1.87627   0.00255   0.00000   0.02446   0.02446   1.90073
   A15        1.98737  -0.00450   0.00000  -0.01663  -0.01661   1.97076
   A16        1.88238  -0.00198   0.00000  -0.02075  -0.02084   1.86154
   A17        1.91559   0.00054   0.00000  -0.00724  -0.00721   1.90838
   A18        1.89840   0.00125   0.00000   0.00920   0.00928   1.90768
   A19        1.89839   0.00125   0.00000   0.00919   0.00927   1.90766
   A20        1.91553   0.00054   0.00000  -0.00718  -0.00715   1.90837
   A21        1.98737  -0.00450   0.00000  -0.01663  -0.01661   1.97076
   A22        1.88234  -0.00198   0.00000  -0.02074  -0.02083   1.86151
   A23        1.87637   0.00254   0.00000   0.02437   0.02438   1.90075
   A24        1.90078   0.00224   0.00000   0.01093   0.01080   1.91158
   A25        1.91410   0.00085   0.00000  -0.00189  -0.00189   1.91221
   A26        1.88679   0.00099   0.00000   0.00870   0.00873   1.89552
   A27        1.99105  -0.00344   0.00000  -0.01202  -0.01202   1.97903
   A28        1.87902  -0.00174   0.00000  -0.01975  -0.01975   1.85926
   A29        1.90501   0.00132   0.00000   0.00434   0.00430   1.90931
   A30        1.88447   0.00209   0.00000   0.02016   0.02016   1.90463
   A31        1.92769   0.00264   0.00000   0.01430   0.01416   1.94185
   A32        1.90980   0.00380   0.00000   0.02648   0.02621   1.93602
   A33        1.93137   0.00212   0.00000   0.01145   0.01133   1.94270
   A34        1.89681  -0.00293   0.00000  -0.01501  -0.01527   1.88154
   A35        1.90755  -0.00327   0.00000  -0.02610  -0.02609   1.88146
   A36        1.88990  -0.00257   0.00000  -0.01216  -0.01239   1.87751
    D1        3.11040  -0.00046   0.00000  -0.00182  -0.00190   3.10850
    D2       -1.13500  -0.00066   0.00000  -0.01175  -0.01181  -1.14681
    D3        0.96269  -0.00013   0.00000   0.00580   0.00572   0.96841
    D4        0.99568   0.00049   0.00000   0.01392   0.01398   1.00966
    D5        3.03347   0.00028   0.00000   0.00399   0.00406   3.03753
    D6       -1.15203   0.00082   0.00000   0.02154   0.02160  -1.13043
    D7       -1.08551  -0.00004   0.00000   0.00522   0.00522  -1.08029
    D8        0.95228  -0.00024   0.00000  -0.00471  -0.00470   0.94758
    D9        3.04996   0.00029   0.00000   0.01283   0.01284   3.06280
   D10       -0.99271  -0.00002   0.00000   0.00321   0.00328  -0.98942
   D11       -3.02778  -0.00023   0.00000   0.00875   0.00872  -3.01907
   D12        1.15119  -0.00077   0.00000  -0.00953  -0.00953   1.14166
   D13       -3.13546   0.00007   0.00000   0.00749   0.00753  -3.12793
   D14        1.11265  -0.00015   0.00000   0.01302   0.01296   1.12562
   D15       -0.99157  -0.00068   0.00000  -0.00526  -0.00528  -0.99685
   D16        1.10375   0.00112   0.00000   0.02714   0.02720   1.13095
   D17       -0.93132   0.00091   0.00000   0.03268   0.03263  -0.89869
   D18       -3.03554   0.00037   0.00000   0.01439   0.01439  -3.02115
   D19        0.84892  -0.00041   0.00000   0.00618   0.00614   0.85506
   D20       -1.20665   0.00094   0.00000   0.02996   0.02996  -1.17669
   D21        2.94081   0.00080   0.00000   0.03287   0.03279   2.97360
   D22        2.98469  -0.00027   0.00000   0.00319   0.00323   2.98792
   D23        0.92912   0.00108   0.00000   0.02697   0.02705   0.95617
   D24       -1.20661   0.00094   0.00000   0.02988   0.02989  -1.17673
   D25       -1.24284  -0.00162   0.00000  -0.02063  -0.02063  -1.26347
   D26        2.98477  -0.00027   0.00000   0.00315   0.00319   2.98796
   D27        0.84904  -0.00042   0.00000   0.00606   0.00603   0.85507
   D28       -0.99159  -0.00068   0.00000  -0.00521  -0.00523  -0.99682
   D29       -3.03567   0.00038   0.00000   0.01449   0.01448  -3.02119
   D30        1.15118  -0.00077   0.00000  -0.00954  -0.00953   1.14165
   D31        1.11268  -0.00015   0.00000   0.01300   0.01294   1.12562
   D32       -0.93140   0.00091   0.00000   0.03270   0.03265  -0.89874
   D33       -3.02773  -0.00024   0.00000   0.00867   0.00864  -3.01909
   D34       -3.13541   0.00007   0.00000   0.00745   0.00749  -3.12792
   D35        1.10370   0.00113   0.00000   0.02715   0.02720   1.13090
   D36       -0.99264  -0.00002   0.00000   0.00312   0.00319  -0.98945
   D37        0.96262  -0.00012   0.00000   0.00586   0.00578   0.96841
   D38        3.05000   0.00029   0.00000   0.01284   0.01285   3.06284
   D39       -1.15206   0.00082   0.00000   0.02156   0.02163  -1.13043
   D40        3.11034  -0.00045   0.00000  -0.00178  -0.00186   3.10848
   D41       -1.08547  -0.00004   0.00000   0.00521   0.00520  -1.08027
   D42        0.99566   0.00049   0.00000   0.01393   0.01399   1.00964
   D43       -1.13501  -0.00066   0.00000  -0.01175  -0.01181  -1.14683
   D44        0.95236  -0.00025   0.00000  -0.00477  -0.00475   0.94761
   D45        3.03349   0.00028   0.00000   0.00396   0.00403   3.03752
         Item               Value     Threshold  Converged?
 Maximum Force            0.010090     0.000450     NO 
 RMS     Force            0.003072     0.000300     NO 
 Maximum Displacement     0.133524     0.001800     NO 
 RMS     Displacement     0.040518     0.001200     NO 
 Predicted change in Energy=-1.979483D-03
 GradGradGradGradGradGradGradGradGradGradGradGradGradGradGradGradGradGrad

 Leave Link  103 at Mon Sep 14 19:12:15 2015, MaxMem=  402653184 cpu:       0.1
 (Enter /share/apps/g09/l202.exe)
                          Input orientation:                          
 ---------------------------------------------------------------------
 Center     Atomic      Atomic             Coordinates (Angstroms)
 Number     Number       Type             X           Y           Z
 ---------------------------------------------------------------------
      1          6           0        1.105217    2.661519   -0.691391
      2          1           0        0.410686    3.190622   -1.356062
      3          1           0        1.347729    1.698404   -1.157745
      4          1           0        2.032557    3.247670   -0.639466
      5          6           0        0.502336    2.468767    0.700416
      6          1           0        1.213561    1.902842    1.334435
      7          1           0        0.371548    3.461026    1.180848
      8          6           0       -0.853723    1.750854    0.682802
      9          1           0       -1.559667    2.309194    0.037853
     10          1           0       -1.280430    1.763483    1.706801
     11          6           0       -0.755835    0.305039    0.193691
     12          1           0        0.064460   -0.210256    0.734431
     13          1           0       -0.481933    0.298576   -0.879154
     14          6           0       -2.056664   -0.483423    0.395655
     15          1           0       -2.338915   -0.465405    1.467147
     16          1           0       -1.870386   -1.546602    0.135957
     17          6           0       -3.221106    0.041063   -0.445048
     18          1           0       -2.961875    0.067948   -1.510957
     19          1           0       -4.106666   -0.598442   -0.330837
     20          1           0       -3.504992    1.057021   -0.143175
 ---------------------------------------------------------------------
                    Distance matrix (angstroms):
                    1          2          3          4          5
     1  C    0.000000
     2  H    1.097320   0.000000
     3  H    1.097218   1.773159   0.000000
     4  H    1.098284   1.774043   1.771392   0.000000
     5  C    1.528970   2.181417   2.181952   2.177969   0.000000
     6  H    2.165941   3.088974   2.504148   2.524995   1.108193
     7  H    2.163969   2.551580   3.086873   2.473462   1.110179
     8  C    2.560305   2.797968   2.869974   3.509908   1.534471
     9  H    2.785236   2.569476   3.202416   3.774065   2.171706
    10  H    3.499872   3.778588   3.888069   4.322460   2.165292
    11  C    3.130476   3.476937   2.862311   4.138641   2.553719
    12  H    3.370940   4.006994   2.978270   4.209305   2.714785
    13  H    2.852683   3.064007   2.320516   3.882945   2.858943
    14  C    4.590187   4.759720   4.331663   5.631541   3.918773
    15  H    5.128253   5.375625   5.016320   6.110197   4.155712
    16  H    5.219866   5.465410   4.749736   6.230513   4.698043
    17  C    5.064044   4.892809   4.912124   6.158011   4.590191
    18  H    4.892805   4.598832   4.621237   5.984520   4.759712
    19  H    6.158008   5.984527   5.975759   7.251061   5.631532
    20  H    4.912126   4.621243   4.998962   5.975759   4.331668
                    6          7          8          9         10
     6  H    0.000000
     7  H    1.777783   0.000000
     8  C    2.172875   2.161949   0.000000
     9  H    3.088210   2.522448   1.107276   0.000000
    10  H    2.525484   2.426378   1.109420   1.777965   0.000000
    11  C    2.780790   3.493669   1.529442   2.164964   2.166047
    12  H    2.479037   3.711052   2.166028   3.077440   2.578736
    13  H    3.216884   3.869512   2.164958   2.458657   3.077452
    14  C    4.155712   4.698023   2.553726   2.858975   2.714817
    15  H    4.271568   4.779690   2.780791   3.216909   2.479065
    16  H    4.779722   5.585195   3.493689   3.869540   3.711100
    17  C    5.128260   5.219851   3.130485   2.852716   3.370965
    18  H    5.375626   5.465391   3.476932   3.064014   4.007001
    19  H    6.110185   6.230479   4.138635   3.882973   4.209307
    20  H    5.016322   4.749720   2.862319   2.320560   2.978284
                   11         12         13         14         15
    11  C    0.000000
    12  H    1.109420   0.000000
    13  H    1.107275   1.777951   0.000000
    14  C    1.534476   2.165308   2.171735   0.000000
    15  H    2.172882   2.525507   3.088231   1.108190   0.000000
    16  H    2.161975   2.426442   2.522486   1.110177   1.777800
    17  C    2.560319   3.499897   2.785288   1.528984   2.165931
    18  H    2.797972   3.778607   2.569529   2.181418   3.088955
    19  H    3.509911   4.322473   3.774119   2.177964   2.524953
    20  H    2.869986   3.888081   3.202466   2.181962   2.504126
                   16         17         18         19         20
    16  H    0.000000
    17  C    2.163953   0.000000
    18  H    2.551558   1.097308   0.000000
    19  H    2.473429   1.098284   1.774064   0.000000
    20  H    3.086860   1.097219   1.773152   1.771380   0.000000
 Stoichiometry    C6H14
 Framework group  C1[X(C6H14)]
 Deg. of freedom    54
 Full point group                 C1      NOp   1
 Largest Abelian subgroup         C1      NOp   1
 Largest concise Abelian subgroup C1      NOp   1
                         Standard orientation:                         
 ---------------------------------------------------------------------
 Center     Atomic      Atomic             Coordinates (Angstroms)
 Number     Number       Type             X           Y           Z
 ---------------------------------------------------------------------
      1          6           0        2.507686    0.734588   -0.350201
      2          1           0        2.292126    1.669146    0.182946
      3          1           0        2.095134    0.823405   -1.363020
      4          1           0        3.598354    0.644894   -0.443078
      5          6           0        1.921211   -0.470999    0.384888
      6          1           0        2.126756   -1.392017   -0.196117
      7          1           0        2.439335   -0.590201    1.359484
      8          6           0        0.413328   -0.352419    0.643399
      9          1           0        0.207144    0.575233    1.211737
     10          1           0        0.091304   -1.197393    1.286153
     11          6           0       -0.413324   -0.352436   -0.643396
     12          1           0       -0.091278   -1.197431   -1.286111
     13          1           0       -0.207105    0.575185   -1.211772
     14          6           0       -1.921213   -0.471011   -0.384886
     15          1           0       -2.126762   -1.391998    0.196163
     16          1           0       -2.439366   -0.590204   -1.359465
     17          6           0       -2.507691    0.734602    0.350189
     18          1           0       -2.292126    1.669138   -0.182969
     19          1           0       -3.598354    0.644870    0.443086
     20          1           0       -2.095141    0.823430    1.363007
 ---------------------------------------------------------------------
 Rotational constants (GHZ):      7.4365701      1.4816214      1.4539208
 Leave Link  202 at Mon Sep 14 19:12:21 2015, MaxMem=  402653184 cpu:       0.0
 (Enter /share/apps/g09/l301.exe)
 Standard basis: VSTO-6G (5D, 7F)
 Ernie: Thresh=  0.10000D-02 Tol=  0.10000D-05 Strict=F.
  NNHCO=     0 NNPyr=     0 NCTC=     0               EPep=         0.000000000
    EC=       126.983060489  ECS=         3.219054232   EG=         0.309351860
   EHC=         0.000451994  EAt=       -31.187935768  AtH=         2.796400831
 EPDDG=         0.000000000  ECC=       130.511918575 EAtT=        33.984336599
 There are    38 symmetry adapted basis functions of A   symmetry.
 Integral buffers will be    131072 words long.
 Regular integral format.
 Two-electron integral symmetry is turned off.
    38 basis functions,   228 primitive gaussians,    38 cartesian basis functions
    19 alpha electrons       19 beta electrons
       nuclear repulsion energy       164.4962551745 Hartrees.
 IExCor=    0 DFT=F Ex=HF Corr=None ExCW=0 ScaHFX=  1.000000
 ScaDFX=  1.000000  1.000000  1.000000  1.000000 ScalE2=  1.000000  1.000000
 IRadAn=      0 IRanWt=     -1 IRanGd=            0 ICorTp=0
 Leave Link  301 at Mon Sep 14 19:12:23 2015, MaxMem=  402653184 cpu:       1.5
 (Enter /share/apps/g09/l302.exe)
 Do NDO integrals.
 NPDir=0 NMtPBC=     1 NCelOv=     1 NCel=       1 NClECP=     1 NCelD=      1
         NCelK=      1 NCelE2=     1 NClLst=     1 CellRange=     0.0.
 One-electron integrals computed using PRISM.
 NBasis=    38 RedAO= F  NBF=    38
 NBsUse=    38 1.00D-04 NBFU=    38
 Leave Link  302 at Mon Sep 14 19:12:23 2015, MaxMem=  402653184 cpu:       0.2
 (Enter /share/apps/g09/l303.exe)
 DipDrv:  MaxL=1.
 Leave Link  303 at Mon Sep 14 19:12:23 2015, MaxMem=  402653184 cpu:       0.1
 (Enter /share/apps/g09/l401.exe)
 Initial guess read from the read-write file.
 B after Tr=     0.000000    0.000000    0.000000
         Rot=    1.000000    0.000000    0.000000    0.000000 Ang=   0.00 deg.
 Guess basis will be translated and rotated to current coordinates.
 Initial guess orbital symmetries:
       Occupied  (A) (A) (A) (A) (A) (A) (A) (A) (A) (A) (A) (A)
                 (A) (A) (A) (A) (A) (A) (A)
       Virtual   (A) (A) (A) (A) (A) (A) (A) (A) (A) (A) (A) (A)
                 (A) (A) (A) (A) (A) (A) (A)
 The electronic state of the initial guess is 1-A.
 Leave Link  401 at Mon Sep 14 19:12:23 2015, MaxMem=  402653184 cpu:       0.2
 (Enter /share/apps/g09/l502.exe)
 Closed shell SCF:
 Requested convergence on RMS density matrix=1.00D-08 within 128 cycles.
 Requested convergence on MAX density matrix=1.00D-06.
 Requested convergence on             energy=1.00D-06.
 No special actions if energy rises.
 Using DIIS extrapolation, IDIIS=  1040.
 Overlap will be assumed to be unity.
 Two-electron integral symmetry not used.
 Keep J ints in memory in canonical form, NReq=884654.
 IEnd=       81865 IEndB=       81865 NGot=   402653184 MDV=   402586639
 LenX=   402586639 LenY=   402584754
 Symmetry not used in FoFDir.
 MinBra= 0 MaxBra= 1 Meth=40.
 IRaf=       0 NMat=   1 IRICut=       1 DoRegI=T DoRafI=F ISym2E= 0 JSym2E=0.

 Cycle   1  Pass 1  IDiag  1:
 E=-0.533461532848207E-01
 DIIS: error= 2.63D-03 at cycle   1 NSaved=   1.
 NSaved= 1 IEnMin= 1 EnMin=-0.533461532848207E-01 IErMin= 1 ErrMin= 2.63D-03
 ErrMax= 2.63D-03 EMaxC= 1.00D-01 BMatC= 3.93D-04 BMatP= 3.93D-04
 IDIUse=3 WtCom= 9.74D-01 WtEn= 2.63D-02
 Coeff-Com:  0.100D+01
 Coeff-En:   0.100D+01
 Coeff:      0.100D+01
 GapD=    2.000 DampG=2.000 DampE=1.000 DampFc=2.0000 IDamp=-1.
 RMSDP=9.56D-04 MaxDP=6.61D-03              OVMax= 0.00D+00

 Cycle   2  Pass 1  IDiag  3:
 E=-0.547571855622380E-01 Delta-E=       -0.001411032277 Rises=F Damp=F
 DIIS: error= 1.14D-03 at cycle   2 NSaved=   2.
 NSaved= 2 IEnMin= 2 EnMin=-0.547571855622380E-01 IErMin= 2 ErrMin= 1.14D-03
 ErrMax= 1.14D-03 EMaxC= 1.00D-01 BMatC= 6.41D-05 BMatP= 3.93D-04
 IDIUse=3 WtCom= 9.89D-01 WtEn= 1.14D-02
 Coeff-Com: -0.619D+00 0.162D+01
 Coeff-En:   0.000D+00 0.100D+01
 Coeff:     -0.612D+00 0.161D+01
 Gap=     0.557 Goal=   None    Shift=    0.000
 RMSDP=6.62D-04 MaxDP=4.73D-03 DE=-1.41D-03 OVMax= 0.00D+00

 Cycle   3  Pass 1  IDiag  3:
 E=-0.550642212743639E-01 Delta-E=       -0.000307035712 Rises=F Damp=F
 DIIS: error= 1.14D-04 at cycle   3 NSaved=   3.
 NSaved= 3 IEnMin= 3 EnMin=-0.550642212743639E-01 IErMin= 3 ErrMin= 1.14D-04
 ErrMax= 1.14D-04 EMaxC= 1.00D-01 BMatC= 9.40D-07 BMatP= 6.41D-05
 IDIUse=3 WtCom= 9.99D-01 WtEn= 1.14D-03
 Coeff-Com:  0.231D+00-0.669D+00 0.144D+01
 Coeff-En:   0.000D+00 0.000D+00 0.100D+01
 Coeff:      0.231D+00-0.669D+00 0.144D+01
 Gap=     0.557 Goal=   None    Shift=    0.000
 RMSDP=8.80D-05 MaxDP=5.59D-04 DE=-3.07D-04 OVMax= 0.00D+00

 Cycle   4  Pass 1  IDiag  3:
 E=-0.550689963997968E-01 Delta-E=       -0.000004775125 Rises=F Damp=F
 DIIS: error= 1.61D-05 at cycle   4 NSaved=   4.
 NSaved= 4 IEnMin= 4 EnMin=-0.550689963997968E-01 IErMin= 4 ErrMin= 1.61D-05
 ErrMax= 1.61D-05 EMaxC= 1.00D-01 BMatC= 2.26D-08 BMatP= 9.40D-07
 IDIUse=1 WtCom= 1.00D+00 WtEn= 0.00D+00
 Coeff-Com: -0.121D+00 0.353D+00-0.800D+00 0.157D+01
 Coeff:     -0.121D+00 0.353D+00-0.800D+00 0.157D+01
 Gap=     0.557 Goal=   None    Shift=    0.000
 RMSDP=1.39D-05 MaxDP=9.16D-05 DE=-4.78D-06 OVMax= 0.00D+00

 Cycle   5  Pass 1  IDiag  3:
 E=-0.550691378518877E-01 Delta-E=       -0.000000141452 Rises=F Damp=F
 DIIS: error= 5.85D-06 at cycle   5 NSaved=   5.
 NSaved= 5 IEnMin= 5 EnMin=-0.550691378518877E-01 IErMin= 5 ErrMin= 5.85D-06
 ErrMax= 5.85D-06 EMaxC= 1.00D-01 BMatC= 2.78D-09 BMatP= 2.26D-08
 IDIUse=1 WtCom= 1.00D+00 WtEn= 0.00D+00
 Coeff-Com:  0.738D-01-0.215D+00 0.495D+00-0.120D+01 0.185D+01
 Coeff:      0.738D-01-0.215D+00 0.495D+00-0.120D+01 0.185D+01
 Gap=     0.557 Goal=   None    Shift=    0.000
 RMSDP=6.40D-06 MaxDP=5.11D-05 DE=-1.41D-07 OVMax= 0.00D+00

 Cycle   6  Pass 1  IDiag  3:
 E=-0.550691589506869E-01 Delta-E=       -0.000000021099 Rises=F Damp=F
 DIIS: error= 1.83D-06 at cycle   6 NSaved=   6.
 NSaved= 6 IEnMin= 6 EnMin=-0.550691589506869E-01 IErMin= 6 ErrMin= 1.83D-06
 ErrMax= 1.83D-06 EMaxC= 1.00D-01 BMatC= 2.02D-10 BMatP= 2.78D-09
 IDIUse=1 WtCom= 1.00D+00 WtEn= 0.00D+00
 Coeff-Com: -0.378D-01 0.110D+00-0.254D+00 0.649D+00-0.120D+01 0.173D+01
 Coeff:     -0.378D-01 0.110D+00-0.254D+00 0.649D+00-0.120D+01 0.173D+01
 Gap=     0.557 Goal=   None    Shift=    0.000
 RMSDP=1.78D-06 MaxDP=1.50D-05 DE=-2.11D-08 OVMax= 0.00D+00

 Cycle   7  Pass 1  IDiag  3:
 E=-0.550691604647398E-01 Delta-E=       -0.000000001514 Rises=F Damp=F
 DIIS: error= 3.94D-07 at cycle   7 NSaved=   7.
 NSaved= 7 IEnMin= 7 EnMin=-0.550691604647398E-01 IErMin= 7 ErrMin= 3.94D-07
 ErrMax= 3.94D-07 EMaxC= 1.00D-01 BMatC= 9.72D-12 BMatP= 2.02D-10
 IDIUse=1 WtCom= 1.00D+00 WtEn= 0.00D+00
 Coeff-Com:  0.124D-01-0.361D-01 0.835D-01-0.217D+00 0.422D+00-0.772D+00
 Coeff-Com:  0.151D+01
 Coeff:      0.124D-01-0.361D-01 0.835D-01-0.217D+00 0.422D+00-0.772D+00
 Coeff:      0.151D+01
 Gap=     0.557 Goal=   None    Shift=    0.000
 RMSDP=3.51D-07 MaxDP=2.80D-06 DE=-1.51D-09 OVMax= 0.00D+00

 Cycle   8  Pass 1  IDiag  3:
 E=-0.550691605288591E-01 Delta-E=       -0.000000000064 Rises=F Damp=F
 DIIS: error= 7.18D-08 at cycle   8 NSaved=   8.
 NSaved= 8 IEnMin= 8 EnMin=-0.550691605288591E-01 IErMin= 8 ErrMin= 7.18D-08
 ErrMax= 7.18D-08 EMaxC= 1.00D-01 BMatC= 3.65D-13 BMatP= 9.72D-12
 IDIUse=1 WtCom= 1.00D+00 WtEn= 0.00D+00
 Coeff-Com: -0.222D-02 0.644D-02-0.149D-01 0.390D-01-0.778D-01 0.154D+00
 Coeff-Com: -0.455D+00 0.135D+01
 Coeff:     -0.222D-02 0.644D-02-0.149D-01 0.390D-01-0.778D-01 0.154D+00
 Coeff:     -0.455D+00 0.135D+01
 Gap=     0.557 Goal=   None    Shift=    0.000
 RMSDP=6.28D-08 MaxDP=4.67D-07 DE=-6.41D-11 OVMax= 0.00D+00

 Cycle   9  Pass 1  IDiag  3:
 E=-0.550691605312466E-01 Delta-E=       -0.000000000002 Rises=F Damp=F
 DIIS: error= 1.57D-08 at cycle   9 NSaved=   9.
 NSaved= 9 IEnMin= 9 EnMin=-0.550691605312466E-01 IErMin= 9 ErrMin= 1.57D-08
 ErrMax= 1.57D-08 EMaxC= 1.00D-01 BMatC= 1.68D-14 BMatP= 3.65D-13
 IDIUse=1 WtCom= 1.00D+00 WtEn= 0.00D+00
 Coeff-Com:  0.258D-03-0.746D-03 0.172D-02-0.472D-02 0.102D-01-0.235D-01
 Coeff-Com:  0.105D+00-0.500D+00 0.141D+01
 Coeff:      0.258D-03-0.746D-03 0.172D-02-0.472D-02 0.102D-01-0.235D-01
 Coeff:      0.105D+00-0.500D+00 0.141D+01
 Gap=     0.557 Goal=   None    Shift=    0.000
 RMSDP=1.18D-08 MaxDP=7.28D-08 DE=-2.39D-12 OVMax= 0.00D+00

 Cycle  10  Pass 1  IDiag  3:
 E=-0.550691605312750E-01 Delta-E=        0.000000000000 Rises=F Damp=F
 DIIS: error= 4.50D-09 at cycle  10 NSaved=  10.
 NSaved=10 IEnMin=10 EnMin=-0.550691605312750E-01 IErMin=10 ErrMin= 4.50D-09
 ErrMax= 4.50D-09 EMaxC= 1.00D-01 BMatC= 8.63D-16 BMatP= 1.68D-14
 IDIUse=1 WtCom= 1.00D+00 WtEn= 0.00D+00
 Coeff-Com: -0.322D-04 0.919D-04-0.211D-03 0.656D-03-0.166D-02 0.466D-02
 Coeff-Com: -0.282D-01 0.163D+00-0.612D+00 0.147D+01
 Coeff:     -0.322D-04 0.919D-04-0.211D-03 0.656D-03-0.166D-02 0.466D-02
 Coeff:     -0.282D-01 0.163D+00-0.612D+00 0.147D+01
 Gap=     0.557 Goal=   None    Shift=    0.000
 RMSDP=2.73D-09 MaxDP=2.62D-08 DE=-2.84D-14 OVMax= 0.00D+00

 Cycle  11  Pass 2  IDiag  1:
 RMSDP=2.73D-09 MaxDP=2.62D-08 DE=-2.84D-14 OVMax= 0.00D+00

 SCF Done:  E(RPM6) = -0.550691605313E-01 A.U. after   11 cycles
             Convg  =    0.2733D-08             -V/T =  0.9990
 KE=-5.610970935423D+01 PE=-2.500137162507D+02 EE= 1.415721012699D+02
 Leave Link  502 at Mon Sep 14 19:12:29 2015, MaxMem=  402653184 cpu:       1.6
 (Enter /share/apps/g09/l701.exe)
 Compute integral first derivatives.
 ... and contract with generalized density number  0.
 Leave Link  701 at Mon Sep 14 19:12:30 2015, MaxMem=  402653184 cpu:       0.1
 (Enter /share/apps/g09/l702.exe)
 L702 exits ... SP integral derivatives will be done elsewhere.
 Leave Link  702 at Mon Sep 14 19:12:30 2015, MaxMem=  402653184 cpu:       0.0
 (Enter /share/apps/g09/l703.exe)
 Compute integral first derivatives, UseDBF=F ICtDFT=           0.
 Integral derivatives from FoFDir, PRISM(SPDF).
 Calling FoFJK, ICntrl=      2127 FMM=F ISym2X=0 I1Cent= 0 IOpClX= 0 NMat=1 NMatS=1 NMatT=0.
 FoFCou: FMM=F IPFlag=           0 FMFlag=      100000 FMFlg1=         800
         NFxFlg=           0 DoJE=F BraDBF=F KetDBF=F FulRan=T
         Omega=  0.000000  0.000000  1.000000  0.000000  0.000000 ICntrl=    2127 IOpCl=  0
         NMat0=    1 NMatS0=    1 NMatT0=    0 NMatD0=    1 NMtDS0=    0 NMtDT0=    0
         I1Cent=           0 NGrid=           0.
 Symmetry not used in FoFCou.
 Leave Link  703 at Mon Sep 14 19:12:31 2015, MaxMem=  402653184 cpu:       0.0
 (Enter /share/apps/g09/l716.exe)
 Dipole        = 1.37214773D-05 2.18601378D-02 1.59501449D-05
 ***** Axes restored to original set *****
 -------------------------------------------------------------------
 Center     Atomic                   Forces (Hartrees/Bohr)
 Number     Number              X              Y              Z
 -------------------------------------------------------------------
      1        6           0.000045686    0.000472507    0.000986878
      2        1           0.000983240   -0.000687419    0.000132030
      3        1          -0.000334890    0.001074728   -0.000171718
      4        1          -0.001312158   -0.000792113   -0.000509937
      5        6           0.000998365    0.000616765   -0.000472165
      6        1          -0.000041467    0.000925036    0.000284457
      7        1           0.000829605   -0.001044893    0.000236944
      8        6          -0.000828730    0.002043169    0.001039328
      9        1          -0.000652379    0.000372205    0.000934846
     10        1          -0.000424199    0.000957143   -0.001011435
     11        6           0.000902719   -0.002140507   -0.000736636
     12        1          -0.000191948   -0.000174758   -0.001432350
     13        1           0.000929741   -0.000732320    0.000181382
     14        6          -0.001182617   -0.000378743   -0.000254387
     15        1           0.000033680   -0.000913742   -0.000323020
     16        1          -0.000489116    0.000614688    0.001104692
     17        6           0.000323346   -0.000938618    0.000475395
     18        1          -0.000724707    0.000355785    0.000892192
     19        1           0.001059454    0.001114189   -0.000497001
     20        1           0.000076375   -0.000743101   -0.000859495
 -------------------------------------------------------------------
 Cartesian Forces:  Max     0.002140507 RMS     0.000825416
 Leave Link  716 at Mon Sep 14 19:12:31 2015, MaxMem=  402653184 cpu:       0.0
 (Enter /share/apps/g09/l103.exe)

 GradGradGradGradGradGradGradGradGradGradGradGradGradGradGradGradGradGrad
 Berny optimization.
 Using GEDIIS/GDIIS optimizer.
 Internal  Forces:  Max     0.004232476 RMS     0.000686160
 Search for a local minimum.
 Step number   2 out of a maximum of  110
 All quantities printed in internal units (Hartrees-Bohrs-Radians)
 RMS Force = .68616D-03 SwitMx=.10000D-02 MixMth= 2
 Mixed Optimization -- En-DIIS/RFO-DIIS
 Update second derivatives using D2CorX and points    1    2
 DE= -2.18D-03 DEPred=-1.98D-03 R= 1.10D+00
 SS=  1.41D+00  RLast= 1.65D-01 DXNew= 5.0454D-01 4.9453D-01
 Trust test= 1.10D+00 RLast= 1.65D-01 DXMaxT set to 4.95D-01
 Use linear search instead of GDIIS.
     Eigenvalues ---    0.00263   0.00294   0.00297   0.00395   0.00395
     Eigenvalues ---    0.03443   0.03445   0.03448   0.03530   0.04473
     Eigenvalues ---    0.04771   0.04798   0.04807   0.05483   0.05489
     Eigenvalues ---    0.05535   0.05536   0.08334   0.08408   0.08448
     Eigenvalues ---    0.08557   0.12214   0.12215   0.12290   0.12296
     Eigenvalues ---    0.15156   0.16000   0.16000   0.16000   0.16000
     Eigenvalues ---    0.16027   0.20907   0.21917   0.21923   0.21954
     Eigenvalues ---    0.27843   0.28893   0.28924   0.29576   0.29606
     Eigenvalues ---    0.31773   0.32073   0.32082   0.32103   0.32104
     Eigenvalues ---    0.32108   0.32133   0.32136   0.32208   0.32214
     Eigenvalues ---    0.32235   0.32254   0.32281   0.343451000.00000
     Eigenvalues --- 1000.000001000.000001000.000001000.000001000.00000
     Eigenvalues --- 1000.000001000.000001000.000001000.000001000.00000
     Eigenvalues --- 1000.000001000.000001000.000001000.000001000.00000
     Eigenvalues --- 1000.000001000.000001000.000001000.000001000.00000
     Eigenvalues --- 1000.000001000.000001000.000001000.000001000.00000
     Eigenvalues --- 1000.000001000.000001000.000001000.000001000.00000
     Eigenvalues --- 1000.000001000.000001000.000001000.000001000.00000
     Eigenvalues --- 1000.000001000.000001000.000001000.000001000.00000
     Eigenvalues --- 1000.000001000.000001000.000001000.000001000.00000
 RFO step:  Lambda=-3.38908544D-04 EMin= 2.62919285D-03
 Quartic linear search produced a step of  0.14347.
 Iteration  1 RMS(Cart)=  0.04447071 RMS(Int)=  0.00078748
 Iteration  2 RMS(Cart)=  0.00108815 RMS(Int)=  0.00001649
 Iteration  3 RMS(Cart)=  0.00000053 RMS(Int)=  0.00001649
 Variable       Old X    -DE/DX   Delta X   Delta X   Delta X     New X
                                 (Linear)    (Quad)   (Total)
    R1        2.07363  -0.00103  -0.00444  -0.00161  -0.00605   2.06759
    R2        2.07344  -0.00094  -0.00429  -0.00135  -0.00564   2.06780
    R3        2.07546  -0.00155  -0.00412  -0.00360  -0.00771   2.06774
    R4        2.88933  -0.00063   0.00026  -0.00256  -0.00230   2.88703
    R5        2.09418  -0.00034  -0.00178  -0.00037  -0.00215   2.09203
    R6        2.09794  -0.00093  -0.00124  -0.00273  -0.00397   2.09397
    R7        2.89973   0.00130  -0.00028   0.00527   0.00499   2.90472
    R8        2.09245   0.00006  -0.00195   0.00111  -0.00084   2.09161
    R9        2.09650  -0.00076  -0.00152  -0.00200  -0.00352   2.09298
   R10        2.89023   0.00423  -0.00233   0.01791   0.01558   2.90581
   R11        2.09650  -0.00076  -0.00152  -0.00200  -0.00352   2.09298
   R12        2.09245   0.00006  -0.00194   0.00110  -0.00083   2.09162
   R13        2.89974   0.00129  -0.00026   0.00523   0.00496   2.90470
   R14        2.09418  -0.00034  -0.00178  -0.00037  -0.00215   2.09203
   R15        2.09793  -0.00093  -0.00123  -0.00273  -0.00396   2.09397
   R16        2.88936  -0.00064   0.00025  -0.00258  -0.00232   2.88704
   R17        2.07361  -0.00103  -0.00443  -0.00159  -0.00603   2.06759
   R18        2.07546  -0.00155  -0.00412  -0.00360  -0.00772   2.06774
   R19        2.07344  -0.00094  -0.00429  -0.00135  -0.00564   2.06780
    A1        1.88146  -0.00073  -0.00375  -0.00478  -0.00853   1.87293
    A2        1.88149  -0.00050  -0.00218  -0.00227  -0.00451   1.87699
    A3        1.94185   0.00058   0.00203   0.00255   0.00456   1.94641
    A4        1.87752  -0.00038  -0.00178  -0.00071  -0.00255   1.87498
    A5        1.94271   0.00053   0.00162   0.00284   0.00444   1.94714
    A6        1.93604   0.00042   0.00376   0.00194   0.00565   1.94169
    A7        1.90934   0.00043   0.00062   0.00394   0.00455   1.91389
    A8        1.90467   0.00019   0.00288  -0.00166   0.00123   1.90590
    A9        1.97903  -0.00092  -0.00172  -0.00200  -0.00372   1.97531
   A10        1.85923  -0.00065  -0.00283  -0.00892  -0.01174   1.84749
   A11        1.91220   0.00045  -0.00027   0.00522   0.00494   1.91715
   A12        1.89549   0.00052   0.00125   0.00288   0.00414   1.89963
   A13        1.91155   0.00016   0.00155   0.00133   0.00284   1.91439
   A14        1.90073   0.00010   0.00351  -0.00232   0.00119   1.90192
   A15        1.97076  -0.00053  -0.00238   0.00130  -0.00109   1.96967
   A16        1.86154  -0.00072  -0.00299  -0.01226  -0.01526   1.84628
   A17        1.90838   0.00053  -0.00103   0.00763   0.00660   1.91498
   A18        1.90768   0.00044   0.00133   0.00347   0.00481   1.91249
   A19        1.90766   0.00044   0.00133   0.00350   0.00484   1.91250
[...]
 ! D10   D(1,5,8,9)            -49.3376         -DE/DX =    0.0                 !
 ! D11   D(1,5,8,10)          -164.8296         -DE/DX =    0.0                 !
 ! D12   D(1,5,8,11)            73.2108         -DE/DX =    0.0                 !
 ! D13   D(6,5,8,9)           -172.1752         -DE/DX =    0.0                 !
 ! D14   D(6,5,8,10)            72.3328         -DE/DX =    0.0                 !
 ! D15   D(6,5,8,11)           -49.6268         -DE/DX =    0.0                 !
 ! D16   D(7,5,8,9)             72.4385         -DE/DX =    0.0                 !
 ! D17   D(7,5,8,10)           -43.0535         -DE/DX =    0.0                 !
 ! D18   D(7,5,8,11)          -165.0132         -DE/DX =    0.0                 !
 ! D19   D(5,8,11,12)           56.3553         -DE/DX =    0.0                 !
 ! D20   D(5,8,11,13)          -59.2417         -DE/DX =    0.0                 !
 ! D21   D(5,8,11,14)          178.1357         -DE/DX =    0.0                 !
 ! D22   D(9,8,11,12)          178.978          -DE/DX =    0.0                 !
 ! D23   D(9,8,11,13)           63.381          -DE/DX =    0.0                 !
 ! D24   D(9,8,11,14)          -59.2417         -DE/DX =    0.0                 !
 ! D25   D(10,8,11,12)         -65.425          -DE/DX =    0.0                 !
 ! D26   D(10,8,11,13)         178.978          -DE/DX =    0.0                 !
 ! D27   D(10,8,11,14)          56.3553         -DE/DX =    0.0                 !
 ! D28   D(8,11,14,15)         -49.6266         -DE/DX =    0.0                 !
 ! D29   D(8,11,14,16)        -165.0129         -DE/DX =    0.0                 !
 ! D30   D(8,11,14,17)          73.211          -DE/DX =    0.0                 !
 ! D31   D(12,11,14,15)         72.333          -DE/DX =    0.0                 !
 ! D32   D(12,11,14,16)        -43.0533         -DE/DX =    0.0                 !
 ! D33   D(12,11,14,17)       -164.8294         -DE/DX =    0.0                 !
 ! D34   D(13,11,14,15)       -172.175          -DE/DX =    0.0                 !
 ! D35   D(13,11,14,16)         72.4387         -DE/DX =    0.0                 !
 ! D36   D(13,11,14,17)        -49.3374         -DE/DX =    0.0                 !
 ! D37   D(11,14,17,18)         59.4214         -DE/DX =    0.0                 !
 ! D38   D(11,14,17,19)        179.5502         -DE/DX =    0.0                 !
 ! D39   D(11,14,17,20)        -60.3978         -DE/DX =    0.0                 !
 ! D40   D(15,14,17,18)       -177.6421         -DE/DX =    0.0                 !
 ! D41   D(15,14,17,19)        -57.5133         -DE/DX =    0.0                 !
 ! D42   D(15,14,17,20)         62.5387         -DE/DX =    0.0                 !
 ! D43   D(16,14,17,18)        -62.1867         -DE/DX =    0.0                 !
 ! D44   D(16,14,17,19)         57.9421         -DE/DX =    0.0                 !
 ! D45   D(16,14,17,20)        177.9941         -DE/DX =    0.0                 !
 --------------------------------------------------------------------------------
 GradGradGradGradGradGradGradGradGradGradGradGradGradGradGradGradGradGrad

 Largest change from initial coordinates is atom   19       4.833 Angstoms.
 Leave Link  103 at Mon Sep 14 19:14:32 2015, MaxMem=  402653184 cpu:       0.0
 (Enter /share/apps/g09/l202.exe)
                          Input orientation:                          
 ---------------------------------------------------------------------
 Center     Atomic      Atomic             Coordinates (Angstroms)
 Number     Number       Type             X           Y           Z
 ---------------------------------------------------------------------
      1          6           0        0.966422    2.745618   -0.743311
      2          1           0        0.235656    3.407101   -1.222040
      3          1           0        1.037280    1.841106   -1.358362
      4          1           0        1.939741    3.246546   -0.779523
      5          6           0        0.566487    2.415336    0.693203
      6          1           0        1.344889    1.781570    1.161326
      7          1           0        0.540742    3.348176    1.290947
      8          6           0       -0.799782    1.720781    0.788809
      9          1           0       -1.549712    2.284141    0.200551
     10          1           0       -1.154439    1.755290    1.837127
     11          6           0       -0.754047    0.263932    0.309265
     12          1           0        0.009464   -0.292778    0.886385
     13          1           0       -0.417223    0.228204   -0.744817
     14          6           0       -2.109570   -0.444349    0.447598
     15          1           0       -2.513835   -0.288442    1.466897
     16          1           0       -1.958075   -1.537799    0.349782
     17          6           0       -3.131405    0.019679   -0.588324
     18          1           0       -2.778028   -0.159808   -1.609925
     19          1           0       -4.084166   -0.507503   -0.470356
     20          1           0       -3.334498    1.093100   -0.499031
 ---------------------------------------------------------------------
                    Distance matrix (angstroms):
                    1          2          3          4          5
     1  C    0.000000
     2  H    1.095792   0.000000
     3  H    1.096108   1.764519   0.000000
     4  H    1.095258   1.767910   1.767697   0.000000
     5  C    1.527287   2.182018   2.181813   2.178453   0.000000
     6  H    2.168010   3.090822   2.539094   2.503377   1.107569
     7  H    2.163905   2.532125   3.088147   2.500875   1.108220
     8  C    2.552873   2.821226   2.828360   3.506082   1.535656
     9  H    2.726677   2.544079   3.052707   3.750073   2.176745
    10  H    3.483886   3.744241   3.875841   4.317945   2.169288
    11  C    3.197921   3.633719   2.911582   4.163885   2.553382
    12  H    3.578202   4.264472   3.263243   4.362113   2.771548
    13  H    2.872604   3.280149   2.256872   3.829735   2.796272
    14  C    4.588669   4.808476   4.288060   5.614753   3.924208
    15  H    5.118860   5.333584   5.012732   6.113663   4.171020
    16  H    5.300491   5.633393   4.827723   6.273616   4.703045
    17  C    4.924120   4.818020   4.613945   6.013797   4.588670
    18  H    4.818032   4.685678   4.315497   5.877938   4.808487
    19  H    6.013796   5.877925   5.703834   7.104640   5.614751
    20  H    4.613936   4.315476   4.517788   5.703823   4.288055
                    6          7          8          9         10
     6  H    0.000000
     7  H    1.765703   0.000000
     8  C    2.177632   2.167386   0.000000
     9  H    3.091017   2.586722   1.107166   0.000000
    10  H    2.589216   2.389401   1.107223   1.764739   0.000000
    11  C    2.726677   3.486078   1.534426   2.173970   2.172285
    12  H    2.482312   3.701685   2.172285   3.088998   2.540308
    13  H    3.025123   3.846590   2.173970   2.530441   3.088999
    14  C    4.171021   4.703045   2.553382   2.796271   2.771548
    15  H    4.389542   4.752513   2.726675   3.025120   2.482311
    16  H    4.752514   5.568000   3.486077   3.846591   3.701683
    17  C    5.118862   5.300492   3.197923   2.872606   3.578205
    18  H    5.333595   5.633404   3.633731   3.280164   4.264482
    19  H    6.113663   6.273612   4.163883   3.829732   4.362110
    20  H    5.012728   4.827719   2.911580   2.256868   3.263248
                   11         12         13         14         15
    11  C    0.000000
    12  H    1.107223   0.000000
    13  H    1.107166   1.764739   0.000000
    14  C    1.535656   2.169288   2.176745   0.000000
    15  H    2.177632   2.589218   3.091016   1.107569   0.000000
    16  H    2.167386   2.389400   2.586724   1.108220   1.765703
    17  C    2.552873   3.483885   2.726675   1.527287   2.168010
    18  H    2.821231   3.744243   2.544084   2.182018   3.090823
    19  H    3.506082   4.317946   3.750075   2.178453   2.503373
    20  H    2.828354   3.875838   3.052695   2.181813   2.539099
                   16         17         18         19         20
    16  H    0.000000
    17  C    2.163905   0.000000
    18  H    2.532121   1.095792   0.000000
    19  H    2.500879   1.095258   1.767910   0.000000
    20  H    3.088147   1.096108   1.764519   1.767697   0.000000
 Stoichiometry    C6H14
 Framework group  C1[X(C6H14)]
 Deg. of freedom    54
 Full point group                 C1      NOp   1
 Largest Abelian subgroup         C1      NOp   1
 Largest concise Abelian subgroup C1      NOp   1
                         Standard orientation:                         
 ---------------------------------------------------------------------
 Center     Atomic      Atomic             Coordinates (Angstroms)
 Number     Number       Type             X           Y           Z
 ---------------------------------------------------------------------
      1          6           0       -2.445841    0.847685    0.282129
      2          1           0       -2.300899    1.657891   -0.441278
      3          1           0       -1.914978    1.131601    1.198115
      4          1           0       -3.514074    0.803540    0.519866
      5          6           0       -1.944251   -0.487478   -0.264087
      6          1           0       -2.143413   -1.290713    0.472021
      7          1           0       -2.527705   -0.757449   -1.166777
      8          6           0       -0.450781   -0.464406   -0.620816
      9          1           0       -0.227093    0.422487   -1.244675
     10          1           0       -0.212532   -1.342176   -1.252243
     11          6           0        0.450780   -0.464403    0.620817
     12          1           0        0.212531   -1.342168    1.252250
     13          1           0        0.227093    0.422494    1.244671
     14          6           0        1.944250   -0.487478    0.264088
     15          1           0        2.143411   -1.290715   -0.472018
     16          1           0        2.527704   -0.757448    1.166778
     17          6           0        2.445842    0.847684   -0.282131
     18          1           0        2.300913    1.657889    0.441280
     19          1           0        3.514073    0.803534   -0.519879
     20          1           0        1.914971    1.131604   -1.198110
 ---------------------------------------------------------------------
 Rotational constants (GHZ):      7.0025226      1.5286739      1.4418851
 Leave Link  202 at Mon Sep 14 19:14:32 2015, MaxMem=  402653184 cpu:       0.0
 (Enter /share/apps/g09/l601.exe)
 Copying SCF densities to generalized density rwf, IOpCl= 0 IROHF=0.

 **********************************************************************

            Population analysis using the SCF density.

 **********************************************************************

 Orbital symmetries:
       Occupied  (A) (A) (A) (A) (A) (A) (A) (A) (A) (A) (A) (A)
                 (A) (A) (A) (A) (A) (A) (A)
       Virtual   (A) (A) (A) (A) (A) (A) (A) (A) (A) (A) (A) (A)
                 (A) (A) (A) (A) (A) (A) (A)
 The electronic state is 1-A.
 Alpha  occ. eigenvalues --   -1.05711  -0.99695  -0.90309  -0.83365  -0.75316
 Alpha  occ. eigenvalues --   -0.71443  -0.58029  -0.56390  -0.55432  -0.53309
 Alpha  occ. eigenvalues --   -0.49840  -0.48608  -0.47734  -0.45011  -0.44134
 Alpha  occ. eigenvalues --   -0.42940  -0.41487  -0.40680  -0.40210
 Alpha virt. eigenvalues --    0.15387   0.16566   0.16644   0.17377   0.18045
 Alpha virt. eigenvalues --    0.21090   0.21239   0.21435   0.22167   0.22336
 Alpha virt. eigenvalues --    0.22949   0.23064   0.23280   0.24170   0.24499
 Alpha virt. eigenvalues --    0.24786   0.24811   0.25813   0.26002
          Condensed to atoms (all electrons):
              1          2          3          4          5          6
     1  C    4.458864   0.000000   0.000000   0.000000   0.000000   0.000000
     2  H    0.000000   0.854494   0.000000   0.000000   0.000000   0.000000
     3  H    0.000000   0.000000   0.853152   0.000000   0.000000   0.000000
     4  H    0.000000   0.000000   0.000000   0.858849   0.000000   0.000000
     5  C    0.000000   0.000000   0.000000   0.000000   4.223557   0.000000
     6  H    0.000000   0.000000   0.000000   0.000000   0.000000   0.874038
     7  H    0.000000   0.000000   0.000000   0.000000   0.000000   0.000000
     8  C    0.000000   0.000000   0.000000   0.000000   0.000000   0.000000
     9  H    0.000000   0.000000   0.000000   0.000000   0.000000   0.000000
    10  H    0.000000   0.000000   0.000000   0.000000   0.000000   0.000000
    11  C    0.000000   0.000000   0.000000   0.000000   0.000000   0.000000
    12  H    0.000000   0.000000   0.000000   0.000000   0.000000   0.000000
    13  H    0.000000   0.000000   0.000000   0.000000   0.000000   0.000000
    14  C    0.000000   0.000000   0.000000   0.000000   0.000000   0.000000
    15  H    0.000000   0.000000   0.000000   0.000000   0.000000   0.000000
    16  H    0.000000   0.000000   0.000000   0.000000   0.000000   0.000000
    17  C    0.000000   0.000000   0.000000   0.000000   0.000000   0.000000
    18  H    0.000000   0.000000   0.000000   0.000000   0.000000   0.000000
    19  H    0.000000   0.000000   0.000000   0.000000   0.000000   0.000000
    20  H    0.000000   0.000000   0.000000   0.000000   0.000000   0.000000
              7          8          9         10         11         12
     1  C    0.000000   0.000000   0.000000   0.000000   0.000000   0.000000
     2  H    0.000000   0.000000   0.000000   0.000000   0.000000   0.000000
     3  H    0.000000   0.000000   0.000000   0.000000   0.000000   0.000000
     4  H    0.000000   0.000000   0.000000   0.000000   0.000000   0.000000
     5  C    0.000000   0.000000   0.000000   0.000000   0.000000   0.000000
     6  H    0.000000   0.000000   0.000000   0.000000   0.000000   0.000000
     7  H    0.877494   0.000000   0.000000   0.000000   0.000000   0.000000
     8  C    0.000000   4.259476   0.000000   0.000000   0.000000   0.000000
     9  H    0.000000   0.000000   0.865948   0.000000   0.000000   0.000000
    10  H    0.000000   0.000000   0.000000   0.874127   0.000000   0.000000
    11  C    0.000000   0.000000   0.000000   0.000000   4.259476   0.000000
    12  H    0.000000   0.000000   0.000000   0.000000   0.000000   0.874127
    13  H    0.000000   0.000000   0.000000   0.000000   0.000000   0.000000
    14  C    0.000000   0.000000   0.000000   0.000000   0.000000   0.000000
    15  H    0.000000   0.000000   0.000000   0.000000   0.000000   0.000000
    16  H    0.000000   0.000000   0.000000   0.000000   0.000000   0.000000
    17  C    0.000000   0.000000   0.000000   0.000000   0.000000   0.000000
    18  H    0.000000   0.000000   0.000000   0.000000   0.000000   0.000000
    19  H    0.000000   0.000000   0.000000   0.000000   0.000000   0.000000
    20  H    0.000000   0.000000   0.000000   0.000000   0.000000   0.000000
             13         14         15         16         17         18
     1  C    0.000000   0.000000   0.000000   0.000000   0.000000   0.000000
     2  H    0.000000   0.000000   0.000000   0.000000   0.000000   0.000000
     3  H    0.000000   0.000000   0.000000   0.000000   0.000000   0.000000
     4  H    0.000000   0.000000   0.000000   0.000000   0.000000   0.000000
     5  C    0.000000   0.000000   0.000000   0.000000   0.000000   0.000000
     6  H    0.000000   0.000000   0.000000   0.000000   0.000000   0.000000
     7  H    0.000000   0.000000   0.000000   0.000000   0.000000   0.000000
     8  C    0.000000   0.000000   0.000000   0.000000   0.000000   0.000000
     9  H    0.000000   0.000000   0.000000   0.000000   0.000000   0.000000
    10  H    0.000000   0.000000   0.000000   0.000000   0.000000   0.000000
    11  C    0.000000   0.000000   0.000000   0.000000   0.000000   0.000000
    12  H    0.000000   0.000000   0.000000   0.000000   0.000000   0.000000
    13  H    0.865948   0.000000   0.000000   0.000000   0.000000   0.000000
    14  C    0.000000   4.223557   0.000000   0.000000   0.000000   0.000000
    15  H    0.000000   0.000000   0.874038   0.000000   0.000000   0.000000
    16  H    0.000000   0.000000   0.000000   0.877494   0.000000   0.000000
    17  C    0.000000   0.000000   0.000000   0.000000   4.458864   0.000000
    18  H    0.000000   0.000000   0.000000   0.000000   0.000000   0.854494
    19  H    0.000000   0.000000   0.000000   0.000000   0.000000   0.000000
    20  H    0.000000   0.000000   0.000000   0.000000   0.000000   0.000000
             19         20
     1  C    0.000000   0.000000
     2  H    0.000000   0.000000
     3  H    0.000000   0.000000
     4  H    0.000000   0.000000
     5  C    0.000000   0.000000
     6  H    0.000000   0.000000
     7  H    0.000000   0.000000
     8  C    0.000000   0.000000
     9  H    0.000000   0.000000
    10  H    0.000000   0.000000
    11  C    0.000000   0.000000
    12  H    0.000000   0.000000
    13  H    0.000000   0.000000
    14  C    0.000000   0.000000
    15  H    0.000000   0.000000
    16  H    0.000000   0.000000
    17  C    0.000000   0.000000
    18  H    0.000000   0.000000
    19  H    0.858849   0.000000
    20  H    0.000000   0.853152
 Mulliken atomic charges:
              1
     1  C   -0.458864
     2  H    0.145506
     3  H    0.146848
     4  H    0.141151
     5  C   -0.223557
     6  H    0.125962
     7  H    0.122506
     8  C   -0.259476
     9  H    0.134052
    10  H    0.125873
    11  C   -0.259476
    12  H    0.125873
    13  H    0.134052
    14  C   -0.223557
    15  H    0.125962
    16  H    0.122506
    17  C   -0.458864
    18  H    0.145506
    19  H    0.141151
    20  H    0.146848
 Sum of Mulliken atomic charges =   0.00000
 Mulliken charges with hydrogens summed into heavy atoms:
              1
     1  C   -0.025359
     5  C    0.024911
     8  C    0.000449
    11  C    0.000449
    14  C    0.024911
    17  C   -0.025359
 Sum of Mulliken charges with hydrogens summed into heavy atoms =   0.00000
 Charge=              0.0000 electrons
 Dipole moment (field-independent basis, Debye):
    X=              0.0000    Y=              0.0812    Z=              0.0000  Tot=              0.0812
 N-N= 1.644431298704D+02 E-N=-2.498920070607D+02  KE=-5.611217919625D+01
 Leave Link  601 at Mon Sep 14 19:14:32 2015, MaxMem=  402653184 cpu:       0.0
 (Enter /share/apps/g09/l9999.exe)
 1\1\GINC-COMPUTE-0-10\FOpt\RPM6\ZDO\C6H14\HETANJIN\14-Sep-2015\0\\#p P
 M6 opt\\using PM6 to do opt and freq calc.\\0,1\C,0.9664221092,2.74561
 81638,-0.7433108175\H,0.2356555204,3.4071005632,-1.2220401115\H,1.0372
 799857,1.841105538,-1.3583623803\H,1.9397410265,3.246545694,-0.7795230
 077\C,0.5664873799,2.415336156,0.6932028028\H,1.3448893009,1.781570149
 3,1.1613261702\H,0.5407416736,3.3481757514,1.2909472261\C,-0.799782389
 ,1.720781364,0.7888085557\H,-1.5497120679,2.2841412732,0.2005510138\H,
 -1.1544390175,1.755289808,1.8371266543\C,-0.7540472407,0.2639320702,0.
 3092650517\H,0.0094638301,-0.2927782142,0.8863849412\H,-0.417223345,0.
 2282037591,-0.7448170167\C,-2.1095698128,-0.444349314,0.4475980322\H,-
 2.5138346349,-0.2884421218,1.4668974564\H,-1.9580754115,-1.53779911,0.
 3497823933\C,-3.1314054293,0.0196792811,-0.5883243706\H,-2.778027644,-
 0.1598084629,-1.6099254975\H,-4.0841657464,-0.5075025616,-0.4703561163
 \H,-3.3344980872,1.0931002134,-0.4990309797\\Version=EM64L-G09RevA.01\
 State=1-A\HF=-0.0554038\RMSD=8.158e-09\RMSF=1.908e-06\Dipole=-0.007438
 9,0.0095013,-0.0295744\PG=C01 [X(C6H14)]\\@


 CHRISTMAS IS ON TOP OF A STEEP HILL.
 THE CLOSER YOU GET, THE STEEPER THE HILL IS.
          -- LINUS, OF PEANUTS
 Job cpu time:  0 days  0 hours  0 minutes 24.6 seconds.
 File lengths (MBytes):  RWF=      5 Int=      0 D2E=      0 Chk=      3 Scr=      1
 Normal termination of Gaussian 09 at Mon Sep 14 19:14:39 2015.
