 Entering Gaussian System, Link 0=/share/apps/g09/g09
 Input=C6H14_2_00_1_opt_PM6.gjf
 Output=C6H14_2_00_1_opt_PM6.log
 Initial command:
 /share/apps/g09/l1.exe /state/partition1/Gau-6004.inp -scrdir=/state/partition1/
 Entering Link 1 = /share/apps/g09/l1.exe PID=      6010.
  
 Copyright (c) 1988,1990,1992,1993,1995,1998,2003,2009, Gaussian, Inc.
                  All Rights Reserved.
  
 This is part of the Gaussian(R) 09 program.  It is based on
 the Gaussian(R) 03 system (copyright 2003, Gaussian, Inc.),
 the Gaussian(R) 98 system (copyright 1998, Gaussian, Inc.),
 the Gaussian(R) 94 system (copyright 1995, Gaussian, Inc.),
 the Gaussian 92(TM) system (copyright 1992, Gaussian, Inc.),
 the Gaussian 90(TM) system (copyright 1990, Gaussian, Inc.),
 the Gaussian 88(TM) system (copyright 1988, Gaussian, Inc.),
 the Gaussian 86(TM) system (copyright 1986, Carnegie Mellon
 University), and the Gaussian 82(TM) system (copyright 1983,
 Carnegie Mellon University). Gaussian is a federally registered
 trademark of Gaussian, Inc.
  
 This software contains proprietary and confidential information,
 including trade secrets, belonging to Gaussian, Inc.
  
 This software is provided under written license and may be
 used, copied, transmitted, or stored only in accord with that
 written license.
  
 The following legend is applicable only to US Government
 contracts under FAR:
  
                    RESTRICTED RIGHTS LEGEND
  
 Use, reproduction and disclosure by the US Government is
 subject to restrictions as set forth in subparagraphs (a)
 and (c) of the Commercial Computer Software - Restricted
 Rights clause in FAR 52.227-19.
  
 Gaussian, Inc.
 340 Quinnipiac St., Bldg. 40, Wallingford CT 06492
  
  
 ---------------------------------------------------------------
 Warning -- This program may not be used in any manner that
 competes with the business of Gaussian, Inc. or will provide
 assistance to any competitor of Gaussian, Inc.  The licensee
 of this program is prohibited from giving any competitor of
 Gaussian, Inc. access to this program.  By using this program,
 the user acknowledges that Gaussian, Inc. is engaged in the
 business of creating and licensing software in the field of
 computational chemistry and represents and warrants to the
 licensee that it is not a competitor of Gaussian, Inc. and that
 it will not use this program in any manner prohibited above.
 ---------------------------------------------------------------
  

 Cite this work as:
 Gaussian 09, Revision A.01,
 M. J. Frisch, G. W. Trucks, H. B. Schlegel, G. E. Scuseria, 
 M. A. Robb, J. R. Cheeseman, G. Scalmani, V. Barone, B. Mennucci, 
 G. A. Petersson, H. Nakatsuji, M. Caricato, X. Li, H. P. Hratchian, 
 A. F. Izmaylov, J. Bloino, G. Zheng, J. L. Sonnenberg, M. Hada, 
 M. Ehara, K. Toyota, R. Fukuda, J. Hasegawa, M. Ishida, T. Nakajima, 
 Y. Honda, O. Kitao, H. Nakai, T. Vreven, J. A. Montgomery, Jr., 
 J. E. Peralta, F. Ogliaro, M. Bearpark, J. J. Heyd, E. Brothers, 
 K. N. Kudin, V. N. Staroverov, R. Kobayashi, J. Normand, 
 K. Raghavachari, A. Rendell, J. C. Burant, S. S. Iyengar, J. Tomasi, 
 M. Cossi, N. Rega, J. M. Millam, M. Klene, J. E. Knox, J. B. Cross, 
 V. Bakken, C. Adamo, J. Jaramillo, R. Gomperts, R. E. Stratmann, 
 O. Yazyev, A. J. Austin, R. Cammi, C. Pomelli, J. W. Ochterski, 
 R. L. Martin, K. Morokuma, V. G. Zakrzewski, G. A. Voth, 
 P. Salvador, J. J. Dannenberg, S. Dapprich, A. D. Daniels, 
 O. Farkas, J. B. Foresman, J. V. Ortiz, J. Cioslowski, 
 and D. J. Fox, Gaussian, Inc., Wallingford CT, 2009.
 
 ******************************************
 Gaussian 09:  EM64L-G09RevA.01  8-May-2009
                14-Sep-2015 
 ******************************************
 %mem=3GB
 %nprocshared=2
 Will use up to    2 processors via shared memory.
 %chk=C6H14_2_00_1_opt_PM6.chk
 ----------
 #p PM6 opt
 ----------
 1/14=-1,18=20,19=15,26=1,38=1/1,3;
 2/9=110,12=2,17=6,18=5,40=1/2;
 3/5=2,16=1,25=1,41=3900000,71=1/1,2,3;
 4/35=1/1;
 5/5=2,35=1,38=5/2;
 6/7=2,8=2,9=2,10=2,28=1/1;
 7//1,2,3,16;
 1/14=-1,18=20,19=15/3(2);
 2/9=110/2;
 99//99;
 2/9=110/2;
 3/5=2,16=1,25=1,41=3900000,71=1,135=20/1,2,3;
 4/5=5,16=3,35=1/1;
 5/5=2,35=1,38=5/2;
 7//1,2,3,16;
 1/14=-1,18=20,19=15/3(-5);
 2/9=110/2;
 6/7=2,8=2,9=2,10=2,19=2,28=1/1;
 99/9=1/99;
 Leave Link    1 at Mon Sep 14 19:12:02 2015, MaxMem=  402653184 cpu:       0.0
 (Enter /share/apps/g09/l101.exe)
 ----------------------------------
 using PM6 to do opt and freq calc.
 ----------------------------------
 Symbolic Z-matrix:
 Charge =  0 Multiplicity = 1
 C                     2.1576   -1.0077    0.0603 
 H                     1.9148   -2.0086   -0.3644 
 H                     2.2525   -1.1017    1.1666 
 H                     3.1398   -0.6886   -0.3578 
 C                     1.0642    0.0073   -0.3058 
 H                     1.0173    0.0505   -1.4197 
 C                    -0.3086   -0.4644    0.2251 
 H                    -0.3099   -0.4242    1.3399 
 H                    -0.4583   -1.5283   -0.076 
 C                    -1.5021    0.3404   -0.3127 
 H                    -1.4851    0.3322   -1.4273 
 H                    -1.4394    1.3963    0.0343 
 C                    -2.8387   -0.2288    0.1575 
 H                    -2.8988   -0.2062    1.2696 
 H                    -3.6713    0.3834   -0.2572 
 H                    -2.9599   -1.2789   -0.1938 
 C                     1.4526    1.4038    0.2056 
 H                     0.7403    2.173    -0.1667 
 H                     1.4587    1.4267    1.3195 
 H                     2.4666    1.683    -0.1619 
 
 NAtoms=     20 NQM=     20 NQMF=      0 NMic=      0 NMicF=      0 NTot=     20.
                    Isotopes and Nuclear Properties:
 (Nuclear quadrupole moments (NQMom) in fm**2, nuclear magnetic moments (NMagM)
  in nuclear magnetons)

  Atom         1           2           3           4           5           6           7           8           9          10
 IAtWgt=          12           1           1           1          12           1          12           1           1          12
 AtmWgt=  12.0000000   1.0078250   1.0078250   1.0078250  12.0000000   1.0078250  12.0000000   1.0078250   1.0078250  12.0000000
 NucSpn=           0           1           1           1           0           1           0           1           1           0
 AtZEff=   0.0000000   0.0000000   0.0000000   0.0000000   0.0000000   0.0000000   0.0000000   0.0000000   0.0000000   0.0000000
 NQMom=    0.0000000   0.0000000   0.0000000   0.0000000   0.0000000   0.0000000   0.0000000   0.0000000   0.0000000   0.0000000
 NMagM=    0.0000000   2.7928460   2.7928460   2.7928460   0.0000000   2.7928460   0.0000000   2.7928460   2.7928460   0.0000000

  Atom        11          12          13          14          15          16          17          18          19          20
 IAtWgt=           1           1          12           1           1           1          12           1           1           1
 AtmWgt=   1.0078250   1.0078250  12.0000000   1.0078250   1.0078250   1.0078250  12.0000000   1.0078250   1.0078250   1.0078250
 NucSpn=           1           1           0           1           1           1           0           1           1           1
 AtZEff=   0.0000000   0.0000000   0.0000000   0.0000000   0.0000000   0.0000000   0.0000000   0.0000000   0.0000000   0.0000000
 NQMom=    0.0000000   0.0000000   0.0000000   0.0000000   0.0000000   0.0000000   0.0000000   0.0000000   0.0000000   0.0000000
 NMagM=    2.7928460   2.7928460   0.0000000   2.7928460   2.7928460   2.7928460   0.0000000   2.7928460   2.7928460   2.7928460
 Leave Link  101 at Mon Sep 14 19:12:04 2015, MaxMem=  402653184 cpu:       0.2
 (Enter /share/apps/g09/l103.exe)

 GradGradGradGradGradGradGradGradGradGradGradGradGradGradGradGradGradGrad
 Berny optimization.
 Initialization pass.
                           ----------------------------
                           !    Initial Parameters    !
                           ! (Angstroms and Degrees)  !
 --------------------------                            --------------------------
 ! Name  Definition              Value          Derivative Info.                !
 --------------------------------------------------------------------------------
 ! R1    R(1,2)                  1.1141         estimate D2E/DX2                !
 ! R2    R(1,3)                  1.1143         estimate D2E/DX2                !
 ! R3    R(1,4)                  1.1142         estimate D2E/DX2                !
 ! R4    R(1,5)                  1.5362         estimate D2E/DX2                !
 ! R5    R(5,6)                  1.1157         estimate D2E/DX2                !
 ! R6    R(5,7)                  1.5456         estimate D2E/DX2                !
 ! R7    R(5,17)                 1.5371         estimate D2E/DX2                !
 ! R8    R(7,8)                  1.1155         estimate D2E/DX2                !
 ! R9    R(7,9)                  1.1158         estimate D2E/DX2                !
 ! R10   R(7,10)                 1.5367         estimate D2E/DX2                !
 ! R11   R(10,11)                1.1148         estimate D2E/DX2                !
 ! R12   R(10,12)                1.1132         estimate D2E/DX2                !
 ! R13   R(10,13)                1.5269         estimate D2E/DX2                !
 ! R14   R(13,14)                1.114          estimate D2E/DX2                !
 ! R15   R(13,15)                1.1135         estimate D2E/DX2                !
 ! R16   R(13,16)                1.1139         estimate D2E/DX2                !
 ! R17   R(17,18)                1.1125         estimate D2E/DX2                !
 ! R18   R(17,19)                1.1142         estimate D2E/DX2                !
 ! R19   R(17,20)                1.1141         estimate D2E/DX2                !
 ! A1    A(2,1,3)              108.7382         estimate D2E/DX2                !
 ! A2    A(2,1,4)              107.8416         estimate D2E/DX2                !
 ! A3    A(2,1,5)              110.3435         estimate D2E/DX2                !
 ! A4    A(3,1,4)              108.762          estimate D2E/DX2                !
 ! A5    A(3,1,5)              110.6683         estimate D2E/DX2                !
 ! A6    A(4,1,5)              110.4141         estimate D2E/DX2                !
 ! A7    A(1,5,6)              107.0638         estimate D2E/DX2                !
 ! A8    A(1,5,7)              110.4068         estimate D2E/DX2                !
 ! A9    A(1,5,17)             109.9477         estimate D2E/DX2                !
 ! A10   A(6,5,7)              108.5062         estimate D2E/DX2                !
 ! A11   A(6,5,17)             107.9153         estimate D2E/DX2                !
 ! A12   A(7,5,17)             112.7945         estimate D2E/DX2                !
 ! A13   A(5,7,8)              109.4693         estimate D2E/DX2                !
 ! A14   A(5,7,9)              108.51           estimate D2E/DX2                !
 ! A15   A(5,7,10)             114.1915         estimate D2E/DX2                !
 ! A16   A(8,7,9)              107.6912         estimate D2E/DX2                !
 ! A17   A(8,7,10)             109.267          estimate D2E/DX2                !
 ! A18   A(9,7,10)             107.5015         estimate D2E/DX2                !
 ! A19   A(7,10,11)            109.5257         estimate D2E/DX2                !
 ! A20   A(7,10,12)            110.1162         estimate D2E/DX2                !
 ! A21   A(7,10,13)            112.1391         estimate D2E/DX2                !
 ! A22   A(11,10,12)           108.5288         estimate D2E/DX2                !
 ! A23   A(11,10,13)           108.572          estimate D2E/DX2                !
 ! A24   A(12,10,13)           107.8719         estimate D2E/DX2                !
 ! A25   A(10,13,14)           110.3092         estimate D2E/DX2                !
 ! A26   A(10,13,15)           109.5649         estimate D2E/DX2                !
 ! A27   A(10,13,16)           110.4592         estimate D2E/DX2                !
 ! A28   A(14,13,15)           108.6811         estimate D2E/DX2                !
 ! A29   A(14,13,16)           109.1538         estimate D2E/DX2                !
 ! A30   A(15,13,16)           108.6311         estimate D2E/DX2                !
 ! A31   A(5,17,18)            110.7967         estimate D2E/DX2                !
 ! A32   A(5,17,19)            110.6521         estimate D2E/DX2                !
 ! A33   A(5,17,20)            110.3604         estimate D2E/DX2                !
 ! A34   A(18,17,19)           108.8972         estimate D2E/DX2                !
 ! A35   A(18,17,20)           107.4026         estimate D2E/DX2                !
 ! A36   A(19,17,20)           108.6421         estimate D2E/DX2                !
 ! D1    D(2,1,5,6)            -59.3477         estimate D2E/DX2                !
 ! D2    D(2,1,5,7)             58.586          estimate D2E/DX2                !
 ! D3    D(2,1,5,17)          -176.3299         estimate D2E/DX2                !
 ! D4    D(3,1,5,6)           -179.7489         estimate D2E/DX2                !
 ! D5    D(3,1,5,7)            -61.8152         estimate D2E/DX2                !
 ! D6    D(3,1,5,17)            63.2688         estimate D2E/DX2                !
 ! D7    D(4,1,5,6)             59.7737         estimate D2E/DX2                !
 ! D8    D(4,1,5,7)            177.7074         estimate D2E/DX2                !
 ! D9    D(4,1,5,17)           -57.2086         estimate D2E/DX2                !
 ! D10   D(1,5,7,8)             68.0894         estimate D2E/DX2                !
 ! D11   D(1,5,7,9)            -49.1851         estimate D2E/DX2                !
 ! D12   D(1,5,7,10)          -169.0574         estimate D2E/DX2                !
 ! D13   D(6,5,7,8)           -174.8662         estimate D2E/DX2                !
 ! D14   D(6,5,7,9)             67.8594         estimate D2E/DX2                !
 ! D15   D(6,5,7,10)           -52.0129         estimate D2E/DX2                !
 ! D16   D(17,5,7,8)           -55.3593         estimate D2E/DX2                !
 ! D17   D(17,5,7,9)          -172.6337         estimate D2E/DX2                !
 ! D18   D(17,5,7,10)           67.4939         estimate D2E/DX2                !
 ! D19   D(1,5,17,18)          172.4805         estimate D2E/DX2                !
 ! D20   D(1,5,17,19)          -66.6299         estimate D2E/DX2                !
 ! D21   D(1,5,17,20)           53.6516         estimate D2E/DX2                !
 ! D22   D(6,5,17,18)           56.0313         estimate D2E/DX2                !
 ! D23   D(6,5,17,19)          176.9209         estimate D2E/DX2                !
 ! D24   D(6,5,17,20)          -62.7976         estimate D2E/DX2                !
 ! D25   D(7,5,17,18)          -63.8167         estimate D2E/DX2                !
 ! D26   D(7,5,17,19)           57.0729         estimate D2E/DX2                !
 ! D27   D(7,5,17,20)          177.3544         estimate D2E/DX2                !
 ! D28   D(5,7,10,11)           55.1151         estimate D2E/DX2                !
 ! D29   D(5,7,10,12)          -64.1573         estimate D2E/DX2                !
 ! D30   D(5,7,10,13)          175.7195         estimate D2E/DX2                !
 ! D31   D(8,7,10,11)          178.0782         estimate D2E/DX2                !
 ! D32   D(8,7,10,12)           58.8058         estimate D2E/DX2                !
 ! D33   D(8,7,10,13)          -61.3173         estimate D2E/DX2                !
 ! D34   D(9,7,10,11)          -65.3215         estimate D2E/DX2                !
 ! D35   D(9,7,10,12)          175.4061         estimate D2E/DX2                !
 ! D36   D(9,7,10,13)           55.283          estimate D2E/DX2                !
 ! D37   D(7,10,13,14)          60.5073         estimate D2E/DX2                !
 ! D38   D(7,10,13,15)        -179.8897         estimate D2E/DX2                !
 ! D39   D(7,10,13,16)         -60.2552         estimate D2E/DX2                !
 ! D40   D(11,10,13,14)       -178.3377         estimate D2E/DX2                !
 ! D41   D(11,10,13,15)        -58.7346         estimate D2E/DX2                !
 ! D42   D(11,10,13,16)         60.8999         estimate D2E/DX2                !
 ! D43   D(12,10,13,14)        -60.9133         estimate D2E/DX2                !
 ! D44   D(12,10,13,15)         58.6898         estimate D2E/DX2                !
 ! D45   D(12,10,13,16)        178.3243         estimate D2E/DX2                !
 --------------------------------------------------------------------------------
 Trust Radius=3.00D-01 FncErr=1.00D-07 GrdErr=1.00D-07
 Number of steps in this run= 110 maximum allowed number of steps= 120.
 GradGradGradGradGradGradGradGradGradGradGradGradGradGradGradGradGradGrad

 Leave Link  103 at Mon Sep 14 19:12:04 2015, MaxMem=  402653184 cpu:       0.0
 (Enter /share/apps/g09/l202.exe)
                          Input orientation:                          
 ---------------------------------------------------------------------
 Center     Atomic      Atomic             Coordinates (Angstroms)
 Number     Number       Type             X           Y           Z
 ---------------------------------------------------------------------
      1          6           0        2.157600   -1.007700    0.060300
      2          1           0        1.914800   -2.008600   -0.364400
      3          1           0        2.252500   -1.101700    1.166600
      4          1           0        3.139800   -0.688600   -0.357800
      5          6           0        1.064200    0.007300   -0.305800
      6          1           0        1.017300    0.050500   -1.419700
      7          6           0       -0.308600   -0.464400    0.225100
      8          1           0       -0.309900   -0.424200    1.339900
      9          1           0       -0.458300   -1.528300   -0.076000
     10          6           0       -1.502100    0.340400   -0.312700
     11          1           0       -1.485100    0.332200   -1.427300
     12          1           0       -1.439400    1.396300    0.034300
     13          6           0       -2.838700   -0.228800    0.157500
     14          1           0       -2.898800   -0.206200    1.269600
     15          1           0       -3.671300    0.383400   -0.257200
     16          1           0       -2.959900   -1.278900   -0.193800
     17          6           0        1.452600    1.403800    0.205600
     18          1           0        0.740300    2.173000   -0.166700
     19          1           0        1.458700    1.426700    1.319500
     20          1           0        2.466600    1.683000   -0.161900
 ---------------------------------------------------------------------
                    Distance matrix (angstroms):
                    1          2          3          4          5
     1  C    0.000000
     2  H    1.114057   0.000000
     3  H    1.114335   1.811207   0.000000
     4  H    1.114159   1.800852   1.811560   0.000000
     5  C    1.536157   2.188791   2.193148   2.189771   0.000000
     6  H    2.147201   2.481745   3.089050   2.485741   1.115724
     7  C    2.530707   2.770482   2.802108   3.504497   1.545618
     8  H    2.840142   3.219356   2.656112   3.853897   2.186932
     9  H    2.670681   2.438333   3.012388   3.705514   2.174599
    10  C    3.917896   4.146767   4.285441   4.754799   2.587837
    11  H    4.156627   4.262443   4.770120   4.855467   2.803971
    12  H    4.326465   4.796140   4.599156   5.046744   2.883228
    13  C    5.057583   5.102532   5.263132   6.018257   3.937387
    14  H    5.260417   5.393454   5.229572   6.272625   4.269993
    15  H    6.001003   6.077637   6.270896   6.895679   4.750660
    16  H    5.130977   4.931964   5.389917   6.130391   4.226137
    17  C    2.516639   3.490416   2.800159   2.746307   1.537074
    18  H    3.489573   4.347909   3.845530   3.739368   2.194201
    19  H    2.828489   3.852899   2.654487   3.180240   2.193610
    20  H    2.717484   3.738101   3.092783   2.473067   2.189841
                    6          7          8          9         10
     6  H    0.000000
     7  C    2.174511   0.000000
     8  H    3.098740   1.115525   0.000000
     9  H    2.544707   1.115775   1.801619   0.000000
    10  C    2.767105   1.536676   2.176474   2.153505   0.000000
    11  H    2.518217   2.179254   3.100102   2.518291   1.114760
    12  H    3.156053   2.185708   2.508901   3.086747   1.113223
    13  C    4.175441   2.541945   2.798407   2.722045   1.526950
    14  H    4.757528   2.804779   2.599013   3.084579   2.180187
    15  H    4.842024   3.501304   3.808143   3.743100   2.170336
    16  H    4.369011   2.805045   3.178875   2.516760   2.182075
    17  C    2.159284   2.567562   2.781120   3.511132   3.182720
    18  H    2.480271   2.865236   3.180914   3.891592   2.899672
    19  H    3.097092   2.810217   2.560116   3.788711   3.551121
    20  H    2.519442   3.530273   3.795345   4.344521   4.192362
                   11         12         13         14         15
    11  H    0.000000
    12  H    1.808500   0.000000
    13  C    2.158366   2.148062   0.000000
    14  H    3.092199   2.494759   1.113952   0.000000
    15  H    2.480167   2.468262   1.113547   1.809835   0.000000
    16  H    2.508426   3.085554   1.113917   1.815477   1.809240
    17  C    3.527715   2.897079   4.591618   4.760134   5.244974
    18  H    3.151200   2.322661   4.322382   4.578930   4.761625
    19  H    4.172385   3.170433   4.749586   4.653672   5.467299
    20  H    4.363695   3.921419   5.648292   5.865645   6.274700
                   16         17         18         19         20
    16  H    0.000000
    17  C    5.179436   0.000000
    18  H    5.060418   1.112496   0.000000
    19  H    5.397627   1.114152   1.811588   0.000000
    20  H    6.182295   1.114094   1.794501   1.809999   0.000000
 Stoichiometry    C6H14
 Framework group  C1[X(C6H14)]
 Deg. of freedom    54
 Full point group                 C1      NOp   1
 Largest Abelian subgroup         C1      NOp   1
 Largest concise Abelian subgroup C1      NOp   1
                         Standard orientation:                         
 ---------------------------------------------------------------------
 Center     Atomic      Atomic             Coordinates (Angstroms)
 Number     Number       Type             X           Y           Z
 ---------------------------------------------------------------------
      1          6           0        2.146610   -1.044922    0.024595
      2          1           0        1.889752   -2.038797   -0.408253
      3          1           0        2.244667   -1.150249    1.129599
      4          1           0        3.131049   -0.734166   -0.394524
      5          6           0        1.064461   -0.013154   -0.327806
      6          1           0        1.013740    0.040855   -1.441067
      7          6           0       -0.311996   -0.472697    0.204286
      8          1           0       -0.308433   -0.442728    1.319403
      9          1           0       -0.476060   -1.531852   -0.105918
     10          6           0       -1.497517    0.351711   -0.321324
     11          1           0       -1.484983    0.353543   -1.436012
     12          1           0       -1.420365    1.403522    0.035056
     13          6           0       -2.839224   -0.205210    0.149034
     14          1           0       -2.894685   -0.192087    1.261527
     15          1           0       -3.665783    0.421026   -0.256696
     16          1           0       -2.974815   -1.250458   -0.211357
     17          6           0        1.472154    1.373677    0.194766
     18          1           0        0.767998    2.155017   -0.167616
     19          1           0        1.482898    1.386264    1.308795
     20          1           0        2.488093    1.643679   -0.174248
 ---------------------------------------------------------------------
 Rotational constants (GHZ):      6.5550570      1.6922318      1.4600709
 Leave Link  202 at Mon Sep 14 19:12:04 2015, MaxMem=  402653184 cpu:       0.0
 (Enter /share/apps/g09/l301.exe)
 Standard basis: VSTO-6G (5D, 7F)
 Ernie: Thresh=  0.10000D-02 Tol=  0.10000D-05 Strict=F.
  NNHCO=     0 NNPyr=     0 NCTC=     0               EPep=         0.000000000
    EC=       127.597816369  ECS=         3.136760328   EG=         0.306105314
   EHC=         0.000407637  EAt=       -31.187935768  AtH=         2.796400831
 EPDDG=         0.000000000  ECC=       131.041089649 EAtT=        33.984336599
 There are    38 symmetry adapted basis functions of A   symmetry.
 Integral buffers will be    131072 words long.
 Regular integral format.
 Two-electron integral symmetry is turned off.
    38 basis functions,   228 primitive gaussians,    38 cartesian basis functions
    19 alpha electrons       19 beta electrons
       nuclear repulsion energy       165.0254262479 Hartrees.
 IExCor=    0 DFT=F Ex=HF Corr=None ExCW=0 ScaHFX=  1.000000
 ScaDFX=  1.000000  1.000000  1.000000  1.000000 ScalE2=  1.000000  1.000000
 IRadAn=      0 IRanWt=     -1 IRanGd=            0 ICorTp=0
 Leave Link  301 at Mon Sep 14 19:12:06 2015, MaxMem=  402653184 cpu:       0.1
 (Enter /share/apps/g09/l302.exe)
 Do NDO integrals.
 NPDir=0 NMtPBC=     1 NCelOv=     1 NCel=       1 NClECP=     1 NCelD=      1
         NCelK=      1 NCelE2=     1 NClLst=     1 CellRange=     0.0.
 One-electron integrals computed using PRISM.
 NBasis=    38 RedAO= F  NBF=    38
 NBsUse=    38 1.00D-04 NBFU=    38
 Leave Link  302 at Mon Sep 14 19:12:07 2015, MaxMem=  402653184 cpu:       0.1
 (Enter /share/apps/g09/l303.exe)
 DipDrv:  MaxL=1.
 Leave Link  303 at Mon Sep 14 19:12:07 2015, MaxMem=  402653184 cpu:       0.0
 (Enter /share/apps/g09/l401.exe)
 Simple Huckel Guess.
 Initial guess orbital symmetries:
       Occupied  (A) (A) (A) (A) (A) (A) (A) (A) (A) (A) (A) (A)
                 (A) (A) (A) (A) (A) (A) (A)
       Virtual   (A) (A) (A) (A) (A) (A) (A) (A) (A) (A) (A) (A)
                 (A) (A) (A) (A) (A) (A) (A)
 The electronic state of the initial guess is 1-A.
 Leave Link  401 at Mon Sep 14 19:12:08 2015, MaxMem=  402653184 cpu:       0.1
 (Enter /share/apps/g09/l502.exe)
 Closed shell SCF:
 Requested convergence on RMS density matrix=1.00D-08 within 128 cycles.
 Requested convergence on MAX density matrix=1.00D-06.
 Requested convergence on             energy=1.00D-06.
 No special actions if energy rises.
 Using DIIS extrapolation, IDIIS=  1040.
 Overlap will be assumed to be unity.
 Two-electron integral symmetry not used.
 Keep J ints in memory in canonical form, NReq=884654.
 IEnd=       81865 IEndB=       81865 NGot=   402653184 MDV=   402586639
 LenX=   402586639 LenY=   402584754
 Symmetry not used in FoFDir.
 MinBra= 0 MaxBra= 1 Meth=40.
 IRaf=       0 NMat=   1 IRICut=       1 DoRegI=T DoRafI=F ISym2E= 0 JSym2E=0.

 Cycle   1  Pass 1  IDiag  1:
 E= 0.725399310396426E-01
 DIIS: error= 2.20D-02 at cycle   1 NSaved=   1.
 NSaved= 1 IEnMin= 1 EnMin= 0.725399310396426E-01 IErMin= 1 ErrMin= 2.20D-02
 ErrMax= 2.20D-02 EMaxC= 1.00D-01 BMatC= 4.39D-02 BMatP= 4.39D-02
 IDIUse=3 WtCom= 7.80D-01 WtEn= 2.20D-01
 Coeff-Com:  0.100D+01
 Coeff-En:   0.100D+01
 Coeff:      0.100D+01
 GapD=    2.000 DampG=2.000 DampE=0.500 DampFc=1.0000 IDamp=-1.
 RMSDP=8.41D-03 MaxDP=6.95D-02              OVMax= 0.00D+00

 Cycle   2  Pass 1  IDiag  1:
 E=-0.441810172428916E-01 Delta-E=       -0.116720948283 Rises=F Damp=F
 DIIS: error= 5.36D-03 at cycle   2 NSaved=   2.
 NSaved= 2 IEnMin= 2 EnMin=-0.441810172428916E-01 IErMin= 2 ErrMin= 5.36D-03
 ErrMax= 5.36D-03 EMaxC= 1.00D-01 BMatC= 3.02D-03 BMatP= 4.39D-02
 IDIUse=3 WtCom= 9.46D-01 WtEn= 5.36D-02
 Coeff-Com: -0.320D+00 0.132D+01
 Coeff-En:   0.000D+00 0.100D+01
 Coeff:     -0.303D+00 0.130D+01
 RMSDP=3.11D-03 MaxDP=2.15D-02 DE=-1.17D-01 OVMax= 0.00D+00

 Cycle   3  Pass 1  IDiag  3:
 E=-0.543550109358080E-01 Delta-E=       -0.010173993693 Rises=F Damp=F
 DIIS: error= 1.59D-03 at cycle   3 NSaved=   3.
 NSaved= 3 IEnMin= 3 EnMin=-0.543550109358080E-01 IErMin= 3 ErrMin= 1.59D-03
 ErrMax= 1.59D-03 EMaxC= 1.00D-01 BMatC= 1.40D-04 BMatP= 3.02D-03
 IDIUse=3 WtCom= 9.84D-01 WtEn= 1.59D-02
 Coeff-Com:  0.256D+00-0.111D+01 0.186D+01
 Coeff-En:   0.000D+00 0.000D+00 0.100D+01
 Coeff:      0.252D+00-0.110D+01 0.185D+01
 Gap=     0.557 Goal=   None    Shift=    0.000
 RMSDP=1.21D-03 MaxDP=1.13D-02 DE=-1.02D-02 OVMax= 0.00D+00

 Cycle   4  Pass 1  IDiag  3:
 E=-0.553212983874971E-01 Delta-E=       -0.000966287452 Rises=F Damp=F
 DIIS: error= 5.06D-04 at cycle   4 NSaved=   4.
 NSaved= 4 IEnMin= 4 EnMin=-0.553212983874971E-01 IErMin= 4 ErrMin= 5.06D-04
 ErrMax= 5.06D-04 EMaxC= 1.00D-01 BMatC= 1.42D-05 BMatP= 1.40D-04
 IDIUse=3 WtCom= 9.95D-01 WtEn= 5.06D-03
 Coeff-Com: -0.144D+00 0.636D+00-0.132D+01 0.183D+01
 Coeff-En:   0.000D+00 0.000D+00 0.000D+00 0.100D+01
 Coeff:     -0.143D+00 0.633D+00-0.131D+01 0.182D+01
 Gap=     0.558 Goal=   None    Shift=    0.000
 RMSDP=5.08D-04 MaxDP=5.18D-03 DE=-9.66D-04 OVMax= 0.00D+00

 Cycle   5  Pass 1  IDiag  3:
 E=-0.554404140541180E-01 Delta-E=       -0.000119115667 Rises=F Damp=F
 DIIS: error= 2.05D-04 at cycle   5 NSaved=   5.
 NSaved= 5 IEnMin= 5 EnMin=-0.554404140541180E-01 IErMin= 5 ErrMin= 2.05D-04
 ErrMax= 2.05D-04 EMaxC= 1.00D-01 BMatC= 1.17D-06 BMatP= 1.42D-05
 IDIUse=3 WtCom= 9.98D-01 WtEn= 2.05D-03
 Coeff-Com:  0.970D-01-0.433D+00 0.949D+00-0.154D+01 0.193D+01
 Coeff-En:   0.000D+00 0.000D+00 0.000D+00 0.000D+00 0.100D+01
 Coeff:      0.968D-01-0.433D+00 0.947D+00-0.154D+01 0.193D+01
 Gap=     0.558 Goal=   None    Shift=    0.000
 RMSDP=1.49D-04 MaxDP=1.69D-03 DE=-1.19D-04 OVMax= 0.00D+00

 Cycle   6  Pass 1  IDiag  3:
 E=-0.554501747730001E-01 Delta-E=       -0.000009760719 Rises=F Damp=F
 DIIS: error= 4.01D-05 at cycle   6 NSaved=   6.
 NSaved= 6 IEnMin= 6 EnMin=-0.554501747730001E-01 IErMin= 6 ErrMin= 4.01D-05
 ErrMax= 4.01D-05 EMaxC= 1.00D-01 BMatC= 6.89D-08 BMatP= 1.17D-06
 IDIUse=1 WtCom= 1.00D+00 WtEn= 0.00D+00
 Coeff-Com: -0.642D-02 0.296D-01-0.777D-01 0.165D+00-0.410D+00 0.130D+01
 Coeff:     -0.642D-02 0.296D-01-0.777D-01 0.165D+00-0.410D+00 0.130D+01
 Gap=     0.558 Goal=   None    Shift=    0.000
 RMSDP=2.94D-05 MaxDP=3.42D-04 DE=-9.76D-06 OVMax= 0.00D+00

 Cycle   7  Pass 1  IDiag  3:
 E=-0.554506593809663E-01 Delta-E=       -0.000000484608 Rises=F Damp=F
 DIIS: error= 2.00D-05 at cycle   7 NSaved=   7.
 NSaved= 7 IEnMin= 7 EnMin=-0.554506593809663E-01 IErMin= 7 ErrMin= 2.00D-05
 ErrMax= 2.00D-05 EMaxC= 1.00D-01 BMatC= 8.35D-09 BMatP= 6.89D-08
 IDIUse=1 WtCom= 1.00D+00 WtEn= 0.00D+00
 Coeff-Com:  0.166D-02-0.791D-02 0.233D-01-0.546D-01 0.163D+00-0.800D+00
 Coeff-Com:  0.167D+01
 Coeff:      0.166D-02-0.791D-02 0.233D-01-0.546D-01 0.163D+00-0.800D+00
 Coeff:      0.167D+01
 Gap=     0.558 Goal=   None    Shift=    0.000
 RMSDP=1.07D-05 MaxDP=1.35D-04 DE=-4.85D-07 OVMax= 0.00D+00

 Cycle   8  Pass 1  IDiag  3:
 E=-0.554507177658365E-01 Delta-E=       -0.000000058385 Rises=F Damp=F
 DIIS: error= 5.28D-06 at cycle   8 NSaved=   8.
 NSaved= 8 IEnMin= 8 EnMin=-0.554507177658365E-01 IErMin= 8 ErrMin= 5.28D-06
 ErrMax= 5.28D-06 EMaxC= 1.00D-01 BMatC= 5.37D-10 BMatP= 8.35D-09
 IDIUse=1 WtCom= 1.00D+00 WtEn= 0.00D+00
 Coeff-Com: -0.426D-03 0.223D-02-0.871D-02 0.246D-01-0.866D-01 0.489D+00
 Coeff-Com: -0.120D+01 0.178D+01
 Coeff:     -0.426D-03 0.223D-02-0.871D-02 0.246D-01-0.866D-01 0.489D+00
 Coeff:     -0.120D+01 0.178D+01
 Gap=     0.558 Goal=   None    Shift=    0.000
 RMSDP=2.70D-06 MaxDP=3.76D-05 DE=-5.84D-08 OVMax= 0.00D+00

 Cycle   9  Pass 1  IDiag  3:
 E=-0.554507213634849E-01 Delta-E=       -0.000000003598 Rises=F Damp=F
 DIIS: error= 5.75D-07 at cycle   9 NSaved=   9.
 NSaved= 9 IEnMin= 9 EnMin=-0.554507213634849E-01 IErMin= 9 ErrMin= 5.75D-07
 ErrMax= 5.75D-07 EMaxC= 1.00D-01 BMatC= 1.75D-11 BMatP= 5.37D-10
 IDIUse=1 WtCom= 1.00D+00 WtEn= 0.00D+00
 Coeff-Com: -0.580D-04 0.144D-03 0.105D-02-0.541D-02 0.256D-01-0.163D+00
 Coeff-Com:  0.421D+00-0.734D+00 0.146D+01
 Coeff:     -0.580D-04 0.144D-03 0.105D-02-0.541D-02 0.256D-01-0.163D+00
 Coeff:      0.421D+00-0.734D+00 0.146D+01
 Gap=     0.558 Goal=   None    Shift=    0.000
 RMSDP=4.09D-07 MaxDP=3.88D-06 DE=-3.60D-09 OVMax= 0.00D+00

 Cycle  10  Pass 1  IDiag  3:
 E=-0.554507214731359E-01 Delta-E=       -0.000000000110 Rises=F Damp=F
 DIIS: error= 2.53D-07 at cycle  10 NSaved=  10.
 NSaved=10 IEnMin=10 EnMin=-0.554507214731359E-01 IErMin=10 ErrMin= 2.53D-07
 ErrMax= 2.53D-07 EMaxC= 1.00D-01 BMatC= 2.09D-12 BMatP= 1.75D-11
 IDIUse=1 WtCom= 1.00D+00 WtEn= 0.00D+00
 Coeff-Com:  0.284D-04-0.505D-04-0.793D-03 0.373D-02-0.171D-01 0.109D+00
 Coeff-Com: -0.281D+00 0.507D+00-0.123D+01 0.191D+01
 Coeff:      0.284D-04-0.505D-04-0.793D-03 0.373D-02-0.171D-01 0.109D+00
 Coeff:     -0.281D+00 0.507D+00-0.123D+01 0.191D+01
 Gap=     0.558 Goal=   None    Shift=    0.000
 RMSDP=1.73D-07 MaxDP=2.14D-06 DE=-1.10D-10 OVMax= 0.00D+00

 Cycle  11  Pass 1  IDiag  3:
 E=-0.554507214889384E-01 Delta-E=       -0.000000000016 Rises=F Damp=F
 DIIS: error= 5.84D-08 at cycle  11 NSaved=  11.
 NSaved=11 IEnMin=11 EnMin=-0.554507214889384E-01 IErMin=11 ErrMin= 5.84D-08
 ErrMax= 5.84D-08 EMaxC= 1.00D-01 BMatC= 1.29D-13 BMatP= 2.09D-12
 IDIUse=1 WtCom= 1.00D+00 WtEn= 0.00D+00
 Coeff-Com:  0.915D-05-0.733D-04 0.543D-03-0.191D-02 0.771D-02-0.468D-01
 Coeff-Com:  0.120D+00-0.217D+00 0.555D+00-0.107D+01 0.165D+01
 Coeff:      0.915D-05-0.733D-04 0.543D-03-0.191D-02 0.771D-02-0.468D-01
 Coeff:      0.120D+00-0.217D+00 0.555D+00-0.107D+01 0.165D+01
 Gap=     0.558 Goal=   None    Shift=    0.000
 RMSDP=4.60D-08 MaxDP=5.31D-07 DE=-1.58D-11 OVMax= 0.00D+00

 Cycle  12  Pass 1  IDiag  3:
 E=-0.554507214892510E-01 Delta-E=        0.000000000000 Rises=F Damp=F
 DIIS: error= 7.04D-09 at cycle  12 NSaved=  12.
 NSaved=12 IEnMin=12 EnMin=-0.554507214892510E-01 IErMin=12 ErrMin= 7.04D-09
 ErrMax= 7.04D-09 EMaxC= 1.00D-01 BMatC= 2.78D-15 BMatP= 1.29D-13
 IDIUse=1 WtCom= 1.00D+00 WtEn= 0.00D+00
 Coeff-Com: -0.127D-05 0.169D-04-0.169D-03 0.627D-03-0.260D-02 0.160D-01
 Coeff-Com: -0.409D-01 0.744D-01-0.193D+00 0.386D+00-0.686D+00 0.145D+01
 Coeff:     -0.127D-05 0.169D-04-0.169D-03 0.627D-03-0.260D-02 0.160D-01
 Coeff:     -0.409D-01 0.744D-01-0.193D+00 0.386D+00-0.686D+00 0.145D+01
 Gap=     0.558 Goal=   None    Shift=    0.000
 RMSDP=4.99D-09 MaxDP=5.11D-08 DE=-3.13D-13 OVMax= 0.00D+00

 Cycle  13  Pass 2  IDiag  1:
 RMSDP=4.99D-09 MaxDP=5.11D-08 DE=-3.13D-13 OVMax= 0.00D+00

 SCF Done:  E(RPM6) = -0.554507214893E-01 A.U. after   13 cycles
             Convg  =    0.4994D-08             -V/T =  0.9990
 KE=-5.614218429274D+01 PE=-2.511737462205D+02 EE= 1.422350535438D+02
 Leave Link  502 at Mon Sep 14 19:12:11 2015, MaxMem=  402653184 cpu:       2.8
 (Enter /share/apps/g09/l601.exe)
 Copying SCF densities to generalized density rwf, IOpCl= 0 IROHF=0.

 **********************************************************************

            Population analysis using the SCF density.

 **********************************************************************

 Orbital symmetries:
       Occupied  (A) (A) (A) (A) (A) (A) (A) (A) (A) (A) (A) (A)
                 (A) (A) (A) (A) (A) (A) (A)
       Virtual   (A) (A) (A) (A) (A) (A) (A) (A) (A) (A) (A) (A)
                 (A) (A) (A) (A) (A) (A) (A)
 The electronic state is 1-A.
 Alpha  occ. eigenvalues --   -1.05438  -0.98513  -0.87056  -0.85438  -0.74134
 Alpha  occ. eigenvalues --   -0.70254  -0.58982  -0.55632  -0.54427  -0.51980
 Alpha  occ. eigenvalues --   -0.49560  -0.47992  -0.47632  -0.46156  -0.44191
 Alpha  occ. eigenvalues --   -0.42641  -0.40979  -0.40898  -0.40388
 Alpha virt. eigenvalues --    0.15384   0.15575   0.16962   0.17537   0.18475
 Alpha virt. eigenvalues --    0.20775   0.21669   0.21809   0.21976   0.22067
 Alpha virt. eigenvalues --    0.22206   0.22314   0.23388   0.23677   0.24266
 Alpha virt. eigenvalues --    0.24579   0.24983   0.25239   0.25613
          Condensed to atoms (all electrons):
              1          2          3          4          5          6
     1  C    4.500552   0.000000   0.000000   0.000000   0.000000   0.000000
     2  H    0.000000   0.852335   0.000000   0.000000   0.000000   0.000000
     3  H    0.000000   0.000000   0.847473   0.000000   0.000000   0.000000
     4  H    0.000000   0.000000   0.000000   0.850353   0.000000   0.000000
     5  C    0.000000   0.000000   0.000000   0.000000   3.982516   0.000000
     6  H    0.000000   0.000000   0.000000   0.000000   0.000000   0.892917
     7  C    0.000000   0.000000   0.000000   0.000000   0.000000   0.000000
     8  H    0.000000   0.000000   0.000000   0.000000   0.000000   0.000000
     9  H    0.000000   0.000000   0.000000   0.000000   0.000000   0.000000
    10  C    0.000000   0.000000   0.000000   0.000000   0.000000   0.000000
    11  H    0.000000   0.000000   0.000000   0.000000   0.000000   0.000000
    12  H    0.000000   0.000000   0.000000   0.000000   0.000000   0.000000
    13  C    0.000000   0.000000   0.000000   0.000000   0.000000   0.000000
    14  H    0.000000   0.000000   0.000000   0.000000   0.000000   0.000000
    15  H    0.000000   0.000000   0.000000   0.000000   0.000000   0.000000
    16  H    0.000000   0.000000   0.000000   0.000000   0.000000   0.000000
    17  C    0.000000   0.000000   0.000000   0.000000   0.000000   0.000000
    18  H    0.000000   0.000000   0.000000   0.000000   0.000000   0.000000
    19  H    0.000000   0.000000   0.000000   0.000000   0.000000   0.000000
    20  H    0.000000   0.000000   0.000000   0.000000   0.000000   0.000000
              7          8          9         10         11         12
     1  C    0.000000   0.000000   0.000000   0.000000   0.000000   0.000000
     2  H    0.000000   0.000000   0.000000   0.000000   0.000000   0.000000
     3  H    0.000000   0.000000   0.000000   0.000000   0.000000   0.000000
     4  H    0.000000   0.000000   0.000000   0.000000   0.000000   0.000000
     5  C    0.000000   0.000000   0.000000   0.000000   0.000000   0.000000
     6  H    0.000000   0.000000   0.000000   0.000000   0.000000   0.000000
     7  C    4.306030   0.000000   0.000000   0.000000   0.000000   0.000000
     8  H    0.000000   0.862090   0.000000   0.000000   0.000000   0.000000
     9  H    0.000000   0.000000   0.864946   0.000000   0.000000   0.000000
    10  C    0.000000   0.000000   0.000000   4.219391   0.000000   0.000000
    11  H    0.000000   0.000000   0.000000   0.000000   0.874769   0.000000
    12  H    0.000000   0.000000   0.000000   0.000000   0.000000   0.873068
    13  C    0.000000   0.000000   0.000000   0.000000   0.000000   0.000000
    14  H    0.000000   0.000000   0.000000   0.000000   0.000000   0.000000
    15  H    0.000000   0.000000   0.000000   0.000000   0.000000   0.000000
    16  H    0.000000   0.000000   0.000000   0.000000   0.000000   0.000000
    17  C    0.000000   0.000000   0.000000   0.000000   0.000000   0.000000
    18  H    0.000000   0.000000   0.000000   0.000000   0.000000   0.000000
    19  H    0.000000   0.000000   0.000000   0.000000   0.000000   0.000000
    20  H    0.000000   0.000000   0.000000   0.000000   0.000000   0.000000
             13         14         15         16         17         18
     1  C    0.000000   0.000000   0.000000   0.000000   0.000000   0.000000
     2  H    0.000000   0.000000   0.000000   0.000000   0.000000   0.000000
     3  H    0.000000   0.000000   0.000000   0.000000   0.000000   0.000000
     4  H    0.000000   0.000000   0.000000   0.000000   0.000000   0.000000
     5  C    0.000000   0.000000   0.000000   0.000000   0.000000   0.000000
     6  H    0.000000   0.000000   0.000000   0.000000   0.000000   0.000000
     7  C    0.000000   0.000000   0.000000   0.000000   0.000000   0.000000
     8  H    0.000000   0.000000   0.000000   0.000000   0.000000   0.000000
     9  H    0.000000   0.000000   0.000000   0.000000   0.000000   0.000000
    10  C    0.000000   0.000000   0.000000   0.000000   0.000000   0.000000
    11  H    0.000000   0.000000   0.000000   0.000000   0.000000   0.000000
    12  H    0.000000   0.000000   0.000000   0.000000   0.000000   0.000000
    13  C    4.465788   0.000000   0.000000   0.000000   0.000000   0.000000
    14  H    0.000000   0.852299   0.000000   0.000000   0.000000   0.000000
    15  H    0.000000   0.000000   0.855613   0.000000   0.000000   0.000000
    16  H    0.000000   0.000000   0.000000   0.852965   0.000000   0.000000
    17  C    0.000000   0.000000   0.000000   0.000000   4.493871   0.000000
    18  H    0.000000   0.000000   0.000000   0.000000   0.000000   0.852019
    19  H    0.000000   0.000000   0.000000   0.000000   0.000000   0.000000
    20  H    0.000000   0.000000   0.000000   0.000000   0.000000   0.000000
             19         20
     1  C    0.000000   0.000000
     2  H    0.000000   0.000000
     3  H    0.000000   0.000000
     4  H    0.000000   0.000000
     5  C    0.000000   0.000000
     6  H    0.000000   0.000000
     7  C    0.000000   0.000000
     8  H    0.000000   0.000000
     9  H    0.000000   0.000000
    10  C    0.000000   0.000000
    11  H    0.000000   0.000000
    12  H    0.000000   0.000000
    13  C    0.000000   0.000000
    14  H    0.000000   0.000000
    15  H    0.000000   0.000000
    16  H    0.000000   0.000000
    17  C    0.000000   0.000000
    18  H    0.000000   0.000000
    19  H    0.848250   0.000000
    20  H    0.000000   0.852756
 Mulliken atomic charges:
              1
     1  C   -0.500552
     2  H    0.147665
     3  H    0.152527
     4  H    0.149647
     5  C    0.017484
     6  H    0.107083
     7  C   -0.306030
     8  H    0.137910
     9  H    0.135054
    10  C   -0.219391
    11  H    0.125231
    12  H    0.126932
    13  C   -0.465788
    14  H    0.147701
    15  H    0.144387
    16  H    0.147035
    17  C   -0.493871
    18  H    0.147981
    19  H    0.151750
    20  H    0.147244
 Sum of Mulliken atomic charges =   0.00000
 Mulliken charges with hydrogens summed into heavy atoms:
              1
     1  C   -0.050712
     5  C    0.124567
     7  C   -0.033066
    10  C    0.032772
    13  C   -0.026665
    17  C   -0.046896
 Sum of Mulliken charges with hydrogens summed into heavy atoms =   0.00000
 Charge=              0.0000 electrons
 Dipole moment (field-independent basis, Debye):
    X=              0.0110    Y=             -0.0327    Z=              0.0370  Tot=              0.0506
 N-N= 1.650254262479D+02 E-N=-2.511737461941D+02  KE=-5.614218429274D+01
 Leave Link  601 at Mon Sep 14 19:12:12 2015, MaxMem=  402653184 cpu:       0.1
 (Enter /share/apps/g09/l701.exe)
 Compute integral first derivatives.
 ... and contract with generalized density number  0.
 Leave Link  701 at Mon Sep 14 19:12:14 2015, MaxMem=  402653184 cpu:       0.1
 (Enter /share/apps/g09/l702.exe)
 L702 exits ... SP integral derivatives will be done elsewhere.
 Leave Link  702 at Mon Sep 14 19:12:16 2015, MaxMem=  402653184 cpu:       0.0
 (Enter /share/apps/g09/l703.exe)
 Compute integral first derivatives, UseDBF=F ICtDFT=           0.
 Integral derivatives from FoFDir, PRISM(SPDF).
 Calling FoFJK, ICntrl=      2127 FMM=F ISym2X=0 I1Cent= 0 IOpClX= 0 NMat=1 NMatS=1 NMatT=0.
 FoFCou: FMM=F IPFlag=           0 FMFlag=      100000 FMFlg1=         800
         NFxFlg=           0 DoJE=F BraDBF=F KetDBF=F FulRan=T
         Omega=  0.000000  0.000000  1.000000  0.000000  0.000000 ICntrl=    2127 IOpCl=  0
         NMat0=    1 NMatS0=    1 NMatT0=    0 NMatD0=    1 NMtDS0=    0 NMtDT0=    0
         I1Cent=           0 NGrid=           0.
 Symmetry not used in FoFCou.
 Leave Link  703 at Mon Sep 14 19:12:16 2015, MaxMem=  402653184 cpu:       0.0
 (Enter /share/apps/g09/l716.exe)
 Dipole        = 4.33881096D-03-1.28718151D-02 1.45469363D-02
 ***** Axes restored to original set *****
 -------------------------------------------------------------------
 Center     Atomic                   Forces (Hartrees/Bohr)
 Number     Number              X              Y              Z
 -------------------------------------------------------------------
      1        6           0.002222180   -0.004427156    0.001872077
      2        1           0.003942900    0.008161823    0.005308090
      3        1           0.000988820   -0.000625305   -0.010869304
      4        1          -0.008239579   -0.004262876    0.005323245
      5        6          -0.000050164    0.002354123   -0.000523901
      6        1          -0.001749736    0.000797840   -0.001993453
      7        6          -0.000408466   -0.001162015    0.001789464
      8        1           0.000106554   -0.002004514   -0.005281934
      9        1           0.001766824    0.002725553    0.004071791
     10        6           0.002147380    0.002382646   -0.001383117
     11        1           0.001497632    0.003006967    0.003894947
     12        1           0.002530944   -0.002055400   -0.003946279
     13        6          -0.003411713   -0.002390004    0.001392341
     14        1          -0.002134500   -0.001924664   -0.010066304
     15        1           0.005057076   -0.007130730    0.005038560
     16        1          -0.001514327    0.009122575    0.004934109
     17        6          -0.000166207    0.002836218    0.001405108
     18        1           0.006168017   -0.006009925    0.004942757
     19        1           0.000368443    0.001950125   -0.010761023
     20        1          -0.009122080   -0.001345282    0.004852824
 -------------------------------------------------------------------
 Cartesian Forces:  Max     0.010869304 RMS     0.004457053
 Leave Link  716 at Mon Sep 14 19:12:16 2015, MaxMem=  402653184 cpu:       0.0
 (Enter /share/apps/g09/l103.exe)

 GradGradGradGradGradGradGradGradGradGradGradGradGradGradGradGradGradGrad
 Berny optimization.
 Internal  Forces:  Max     0.010716488 RMS     0.003609717
 Search for a local minimum.
 Step number   1 out of a maximum of  110
 All quantities printed in internal units (Hartrees-Bohrs-Radians)
 RMS Force = .36097D-02 SwitMx=.10000D-02 MixMth= 1
 Mixed Optimization -- RFO/linear search
 Second derivative matrix not updated -- first step.
     Eigenvalues ---    0.00230   0.00276   0.00281   0.00288   0.00409
     Eigenvalues ---    0.03344   0.03427   0.03640   0.04553   0.04764
     Eigenvalues ---    0.04874   0.04961   0.05488   0.05528   0.05582
     Eigenvalues ---    0.05606   0.05656   0.05773   0.08178   0.08489
     Eigenvalues ---    0.12081   0.12333   0.16000   0.16000   0.16000
     Eigenvalues ---    0.16000   0.16000   0.16000   0.16000   0.16000
     Eigenvalues ---    0.16000   0.16546   0.17057   0.21974   0.21990
     Eigenvalues ---    0.28027   0.28780   0.28815   0.28862   0.29707
     Eigenvalues ---    0.31996   0.32001   0.32022   0.32101   0.32145
     Eigenvalues ---    0.32164   0.32164   0.32170   0.32174   0.32185
     Eigenvalues ---    0.32189   0.32227   0.32261   0.323371000.00000
     Eigenvalues --- 1000.000001000.000001000.000001000.000001000.00000
     Eigenvalues --- 1000.000001000.000001000.000001000.000001000.00000
     Eigenvalues --- 1000.000001000.000001000.000001000.000001000.00000
     Eigenvalues --- 1000.000001000.000001000.000001000.000001000.00000
     Eigenvalues --- 1000.000001000.000001000.000001000.000001000.00000
     Eigenvalues --- 1000.000001000.000001000.000001000.000001000.00000
     Eigenvalues --- 1000.000001000.000001000.000001000.000001000.00000
     Eigenvalues --- 1000.000001000.000001000.000001000.000001000.00000
     Eigenvalues --- 1000.000001000.000001000.000001000.000001000.00000
 RFO step:  Lambda=-5.06243798D-03 EMin= 2.30000000D-03
 Linear search not attempted -- first point.
 Iteration  1 RMS(Cart)=  0.03498529 RMS(Int)=  0.00044848
 Iteration  2 RMS(Cart)=  0.00063721 RMS(Int)=  0.00008918
 Iteration  3 RMS(Cart)=  0.00000016 RMS(Int)=  0.00008918
 Variable       Old X    -DE/DX   Delta X   Delta X   Delta X     New X
                                 (Linear)    (Quad)   (Total)
    R1        2.10526  -0.01022   0.00000  -0.03126  -0.03126   2.07400
    R2        2.10579  -0.01065   0.00000  -0.03263  -0.03263   2.07316
    R3        2.10545  -0.01048   0.00000  -0.03209  -0.03209   2.07337
    R4        2.90292   0.00038   0.00000   0.00129   0.00129   2.90421
    R5        2.10841   0.00209   0.00000   0.00644   0.00644   2.11486
    R6        2.92080  -0.00503   0.00000  -0.01762  -0.01762   2.90317
    R7        2.90465  -0.00288   0.00000  -0.00984  -0.00984   2.89480
    R8        2.10804  -0.00535   0.00000  -0.01645  -0.01645   2.09159
    R9        2.10851  -0.00393   0.00000  -0.01211  -0.01211   2.09640
   R10        2.90390  -0.00266   0.00000  -0.00908  -0.00908   2.89481
   R11        2.10659  -0.00389   0.00000  -0.01194  -0.01194   2.09465
   R12        2.10369  -0.00304   0.00000  -0.00927  -0.00927   2.09442
   R13        2.88552   0.00302   0.00000   0.00999   0.00999   2.89551
   R14        2.10506  -0.00997   0.00000  -0.03051  -0.03051   2.07456
   R15        2.10430  -0.00958   0.00000  -0.02926  -0.02926   2.07504
   R16        2.10500  -0.00999   0.00000  -0.03056  -0.03056   2.07444
   R17        2.10231  -0.00976   0.00000  -0.02971  -0.02971   2.07260
   R18        2.10544  -0.01072   0.00000  -0.03280  -0.03280   2.07264
   R19        2.10533  -0.01024   0.00000  -0.03134  -0.03134   2.07399
    A1        1.89784  -0.00267   0.00000  -0.01642  -0.01653   1.88131
    A2        1.88219  -0.00192   0.00000  -0.00848  -0.00863   1.87356
    A3        1.92586   0.00263   0.00000   0.01742   0.01728   1.94314
    A4        1.89826  -0.00259   0.00000  -0.01849  -0.01852   1.87973
    A5        1.93153   0.00241   0.00000   0.01299   0.01292   1.94444
    A6        1.92709   0.00188   0.00000   0.01153   0.01143   1.93852
    A7        1.86862   0.00051   0.00000   0.02222   0.02215   1.89076
    A8        1.92696  -0.00049   0.00000  -0.00830  -0.00833   1.91863
    A9        1.91895   0.00179   0.00000   0.00706   0.00675   1.92570
   A10        1.89379   0.00041   0.00000  -0.00161  -0.00156   1.89224
   A11        1.88348   0.00025   0.00000   0.00658   0.00635   1.88982
   A12        1.96864  -0.00232   0.00000  -0.02328  -0.02330   1.94533
   A13        1.91060   0.00186   0.00000   0.00076   0.00071   1.91131
   A14        1.89386   0.00149   0.00000   0.01008   0.01028   1.90414
   A15        1.99302  -0.00644   0.00000  -0.02604  -0.02599   1.96703
   A16        1.87957  -0.00230   0.00000  -0.01935  -0.01942   1.86014
   A17        1.90707   0.00206   0.00000   0.00579   0.00563   1.91270
   A18        1.87625   0.00348   0.00000   0.02910   0.02917   1.90543
   A19        1.91158   0.00047   0.00000  -0.00125  -0.00131   1.91027
   A20        1.92189  -0.00062   0.00000  -0.00962  -0.00969   1.91220
   A21        1.95720  -0.00229   0.00000  -0.00394  -0.00391   1.95328
   A22        1.89418  -0.00205   0.00000  -0.02910  -0.02937   1.86482
   A23        1.89494   0.00171   0.00000   0.01739   0.01737   1.91231
   A24        1.88272   0.00280   0.00000   0.02614   0.02613   1.90885
   A25        1.92526   0.00314   0.00000   0.01833   0.01816   1.94342
   A26        1.91227   0.00345   0.00000   0.02227   0.02203   1.93430
   A27        1.92788   0.00312   0.00000   0.01823   0.01806   1.94593
   A28        1.89684  -0.00316   0.00000  -0.01782  -0.01805   1.87880
   A29        1.90509  -0.00360   0.00000  -0.02448  -0.02458   1.88051
   A30        1.89597  -0.00317   0.00000  -0.01783  -0.01806   1.87791
   A31        1.93377   0.00102   0.00000   0.00631   0.00625   1.94002
   A32        1.93124   0.00227   0.00000   0.01137   0.01134   1.94258
   A33        1.92615   0.00201   0.00000   0.01441   0.01431   1.94047
   A34        1.90061  -0.00225   0.00000  -0.01786  -0.01786   1.88276
   A35        1.87453  -0.00099   0.00000  -0.00138  -0.00148   1.87304
   A36        1.89616  -0.00227   0.00000  -0.01404  -0.01412   1.88204
    D1       -1.03581   0.00016   0.00000   0.00249   0.00254  -1.03327
    D2        1.02252   0.00068   0.00000   0.00902   0.00902   1.03154
    D3       -3.07754  -0.00137   0.00000  -0.02159  -0.02169  -3.09923
    D4       -3.13721   0.00020   0.00000   0.00318   0.00322  -3.13399
    D5       -1.07888   0.00072   0.00000   0.00970   0.00970  -1.06917
    D6        1.10425  -0.00132   0.00000  -0.02090  -0.02101   1.08324
    D7        1.04325   0.00063   0.00000   0.01028   0.01037   1.05362
    D8        3.10158   0.00115   0.00000   0.01681   0.01686   3.11844
    D9       -0.99848  -0.00089   0.00000  -0.01380  -0.01385  -1.01233
   D10        1.18838  -0.00023   0.00000  -0.01371  -0.01366   1.17472
   D11       -0.85844   0.00064   0.00000   0.00331   0.00340  -0.85505
   D12       -2.95061  -0.00070   0.00000  -0.02407  -0.02396  -2.97457
   D13       -3.05199   0.00035   0.00000   0.00749   0.00744  -3.04455
   D14        1.18437   0.00122   0.00000   0.02451   0.02449   1.20886
   D15       -0.90780  -0.00012   0.00000  -0.00288  -0.00286  -0.91066
   D16       -0.96620  -0.00051   0.00000   0.00015   0.00005  -0.96615
   D17       -3.01303   0.00035   0.00000   0.01717   0.01711  -2.99592
   D18        1.17799  -0.00098   0.00000  -0.01022  -0.01025   1.16775
   D19        3.01035   0.00142   0.00000   0.03587   0.03592   3.04627
   D20       -1.16291   0.00077   0.00000   0.02517   0.02516  -1.13775
   D21        0.93640   0.00072   0.00000   0.02440   0.02441   0.96081
   D22        0.97793  -0.00030   0.00000   0.00179   0.00181   0.97974
   D23        3.08785  -0.00094   0.00000  -0.00891  -0.00895   3.07890
   D24       -1.09602  -0.00100   0.00000  -0.00968  -0.00970  -1.10572
   D25       -1.11381   0.00045   0.00000   0.01368   0.01371  -1.10010
   D26        0.99611  -0.00019   0.00000   0.00297   0.00295   0.99906
   D27        3.09542  -0.00024   0.00000   0.00221   0.00220   3.09762
   D28        0.96194  -0.00088   0.00000  -0.00580  -0.00580   0.95614
   D29       -1.11976   0.00172   0.00000   0.03660   0.03649  -1.08326
   D30        3.06688   0.00011   0.00000   0.01271   0.01267   3.07955
   D31        3.10805  -0.00144   0.00000  -0.01883  -0.01880   3.08925
   D32        1.02635   0.00116   0.00000   0.02358   0.02349   1.04985
   D33       -1.07019  -0.00045   0.00000  -0.00031  -0.00033  -1.07052
   D34       -1.14007  -0.00116   0.00000  -0.02270  -0.02257  -1.16265
   D35        3.06141   0.00144   0.00000   0.01970   0.01972   3.08113
   D36        0.96487  -0.00017   0.00000  -0.00419  -0.00411   0.96076
   D37        1.05605  -0.00042   0.00000  -0.00612  -0.00615   1.04990
   D38       -3.13967  -0.00021   0.00000  -0.00276  -0.00276   3.14076
   D39       -1.05165  -0.00001   0.00000   0.00061   0.00064  -1.05101
   D40       -3.11258  -0.00013   0.00000   0.00160   0.00153  -3.11105
   D41       -1.02511   0.00008   0.00000   0.00496   0.00493  -1.02018
   D42        1.06290   0.00028   0.00000   0.00832   0.00833   1.07123
   D43       -1.06314  -0.00010   0.00000  -0.00925  -0.00926  -1.07240
   D44        1.02433   0.00010   0.00000  -0.00589  -0.00586   1.01847
   D45        3.11235   0.00031   0.00000  -0.00252  -0.00246   3.10988
         Item               Value     Threshold  Converged?
 Maximum Force            0.010716     0.000450     NO 
 RMS     Force            0.003610     0.000300     NO 
 Maximum Displacement     0.138806     0.001800     NO 
 RMS     Displacement     0.035057     0.001200     NO 
 Predicted change in Energy=-2.606094D-03
 GradGradGradGradGradGradGradGradGradGradGradGradGradGradGradGradGradGrad

 Leave Link  103 at Mon Sep 14 19:12:17 2015, MaxMem=  402653184 cpu:       0.2
 (Enter /share/apps/g09/l202.exe)
                          Input orientation:                          
 ---------------------------------------------------------------------
 Center     Atomic      Atomic             Coordinates (Angstroms)
 Number     Number       Type             X           Y           Z
 ---------------------------------------------------------------------
      1          6           0        2.157449   -1.008128    0.058542
      2          1           0        1.944162   -2.005562   -0.346643
      3          1           0        2.255082   -1.102395    1.147183
      4          1           0        3.131531   -0.695412   -0.337914
      5          6           0        1.058095   -0.003589   -0.321190
      6          1           0        0.997233    0.046340   -1.437551
      7          6           0       -0.298268   -0.483042    0.217881
      8          1           0       -0.291336   -0.443465    1.323972
      9          1           0       -0.443637   -1.547194   -0.059874
     10          6           0       -1.472535    0.341772   -0.318219
     11          1           0       -1.445717    0.345226   -1.426330
     12          1           0       -1.365947    1.395327    0.008935
     13          6           0       -2.821348   -0.205085    0.160746
     14          1           0       -2.891437   -0.192545    1.256243
     15          1           0       -3.649534    0.399084   -0.232740
     16          1           0       -2.977370   -1.239264   -0.172686
     17          6           0        1.408088    1.392294    0.203810
     18          1           0        0.682171    2.138497   -0.141349
     19          1           0        1.418251    1.414592    1.300331
     20          1           0        2.397366    1.711752   -0.148047
 ---------------------------------------------------------------------
                    Distance matrix (angstroms):
                    1          2          3          4          5
     1  C    0.000000
     2  H    1.097515   0.000000
     3  H    1.097068   1.773103   0.000000
     4  H    1.097180   1.768167   1.771810   0.000000
     5  C    1.536839   2.189442   2.190039   2.185872   0.000000
     6  H    2.167094   2.509393   3.095581   2.512891   1.119133
     7  C    2.516278   2.768618   2.786897   3.481025   1.536292
     8  H    2.813665   3.198211   2.636226   3.813314   2.172789
     9  H    2.658997   2.448249   2.989635   3.685738   2.169378
    10  C    3.891139   4.145432   4.257716   4.719488   2.554089
    11  H    4.125435   4.264177   4.734394   4.818586   2.758999
    12  H    4.265370   4.759128   4.543795   4.971801   2.818142
    13  C    5.044179   5.119497   5.248653   5.993818   3.914452
    14  H    5.252706   5.407337   5.227464   6.250628   4.257088
    15  H    5.982153   6.089724   6.246849   6.869631   4.725647
    16  H    5.145217   4.983869   5.398086   6.135287   4.223022
    17  C    2.518863   3.483647   2.798361   2.760840   1.531865
    18  H    3.481042   4.336818   3.825931   3.750872   2.182245
    19  H    2.820997   3.832304   2.656871   3.173529   2.184097
    20  H    2.738245   3.750100   3.101175   2.523784   2.183122
                    6          7          8          9         10
     6  H    0.000000
     7  C    2.167723   0.000000
     8  H    3.086475   1.106820   0.000000
     9  H    2.552147   1.109369   1.776638   0.000000
    10  C    2.727625   1.531869   2.169935   2.166464   0.000000
    11  H    2.461192   2.169354   3.085254   2.540201   1.108441
    12  H    3.081674   2.170683   2.503051   3.084448   1.108318
    13  C    4.147207   2.538987   2.794795   2.739241   1.532239
    14  H    4.736597   2.808399   2.613058   3.091757   2.185797
    15  H    4.813361   3.494594   3.796148   3.754418   2.179430
    16  H    4.364645   2.811049   3.176170   2.554868   2.187551
    17  C    2.162050   2.535495   2.740951   3.484108   3.110322
    18  H    2.481235   2.821839   3.124325   3.854660   2.811096
    19  H    3.089557   2.778336   2.525000   3.753526   3.482426
    20  H    2.529188   3.495350   3.747121   4.324327   4.108764
                   11         12         13         14         15
    11  H    0.000000
    12  H    1.780186   0.000000
    13  C    2.171178   2.168537   0.000000
    14  H    3.094431   2.530658   1.097808   0.000000
    15  H    2.506865   2.503134   1.098064   1.772514   0.000000
    16  H    2.535388   3.093660   1.097746   1.773370   1.771890
    17  C    3.449335   2.780874   4.521239   4.701622   5.172677
    18  H    3.065111   2.183959   4.225906   4.489732   4.668788
    19  H    4.096405   3.069175   4.679338   4.599809   5.391105
    20  H    4.274423   3.779854   5.568177   5.793947   6.188318
                   16         17         18         19         20
    16  H    0.000000
    17  C    5.128263   0.000000
    18  H    4.980209   1.096773   0.000000
    19  H    5.341742   1.096794   1.773215   0.000000
    20  H    6.131630   1.097510   1.767499   1.773349   0.000000
 Stoichiometry    C6H14
 Framework group  C1[X(C6H14)]
 Deg. of freedom    54
 Full point group                 C1      NOp   1
 Largest Abelian subgroup         C1      NOp   1
 Largest concise Abelian subgroup C1      NOp   1
                         Standard orientation:                         
 ---------------------------------------------------------------------
 Center     Atomic      Atomic             Coordinates (Angstroms)
 Number     Number       Type             X           Y           Z
 ---------------------------------------------------------------------
      1          6           0        2.156505   -1.021458    0.026328
      2          1           0        1.940246   -2.013556   -0.390222
      3          1           0        2.256550   -1.128917    1.113527
      4          1           0        3.130263   -0.705959   -0.368716
      5          6           0        1.058267   -0.010279   -0.338726
      6          1           0        0.994838    0.053102   -1.454262
      7          6           0       -0.297764   -0.493448    0.197854
      8          1           0       -0.288108   -0.467101    1.304319
      9          1           0       -0.445935   -1.553917   -0.092236
     10          6           0       -1.471649    0.340036   -0.325523
     11          1           0       -1.447472    0.356673   -1.433575
     12          1           0       -1.362161    1.389394    0.013931
     13          6           0       -2.820409   -0.209829    0.150134
     14          1           0       -2.887854   -0.210238    1.245868
     15          1           0       -3.648318    0.400636   -0.234109
     16          1           0       -2.979306   -1.239640   -0.195245
     17          6           0        1.412320    1.378537    0.202057
     18          1           0        0.687081    2.130247   -0.132413
     19          1           0        1.425150    1.387715    1.298738
     20          1           0        2.401395    1.700214   -0.148347
 ---------------------------------------------------------------------
 Rotational constants (GHZ):      6.5893195      1.7213105      1.4829052
 Leave Link  202 at Mon Sep 14 19:12:17 2015, MaxMem=  402653184 cpu:       0.0
 (Enter /share/apps/g09/l301.exe)
 Standard basis: VSTO-6G (5D, 7F)
 Ernie: Thresh=  0.10000D-02 Tol=  0.10000D-05 Strict=F.
  NNHCO=     0 NNPyr=     0 NCTC=     0               EPep=         0.000000000
    EC=       128.232805526  ECS=         3.228380459   EG=         0.307190401
   EHC=         0.000459595  EAt=       -31.187935768  AtH=         2.796400831
 EPDDG=         0.000000000  ECC=       131.768835981 EAtT=        33.984336599
 There are    38 symmetry adapted basis functions of A   symmetry.
 Integral buffers will be    131072 words long.
 Regular integral format.
 Two-electron integral symmetry is turned off.
    38 basis functions,   228 primitive gaussians,    38 cartesian basis functions
    19 alpha electrons       19 beta electrons
       nuclear repulsion energy       165.7531725798 Hartrees.
 IExCor=    0 DFT=F Ex=HF Corr=None ExCW=0 ScaHFX=  1.000000
 ScaDFX=  1.000000  1.000000  1.000000  1.000000 ScalE2=  1.000000  1.000000
 IRadAn=      0 IRanWt=     -1 IRanGd=            0 ICorTp=0
 Leave Link  301 at Mon Sep 14 19:12:17 2015, MaxMem=  402653184 cpu:       0.1
 (Enter /share/apps/g09/l302.exe)
 Do NDO integrals.
 NPDir=0 NMtPBC=     1 NCelOv=     1 NCel=       1 NClECP=     1 NCelD=      1
         NCelK=      1 NCelE2=     1 NClLst=     1 CellRange=     0.0.
 One-electron integrals computed using PRISM.
 NBasis=    38 RedAO= F  NBF=    38
 NBsUse=    38 1.00D-04 NBFU=    38
 Leave Link  302 at Mon Sep 14 19:12:17 2015, MaxMem=  402653184 cpu:       0.1
 (Enter /share/apps/g09/l303.exe)
 DipDrv:  MaxL=1.
 Leave Link  303 at Mon Sep 14 19:12:17 2015, MaxMem=  402653184 cpu:       0.0
 (Enter /share/apps/g09/l401.exe)
 Initial guess read from the read-write file.
 B after Tr=     0.000000    0.000000    0.000000
         Rot=    1.000000    0.000000    0.000000    0.000000 Ang=   0.00 deg.
 Guess basis will be translated and rotated to current coordinates.
 Initial guess orbital symmetries:
       Occupied  (A) (A) (A) (A) (A) (A) (A) (A) (A) (A) (A) (A)
                 (A) (A) (A) (A) (A) (A) (A)
       Virtual   (A) (A) (A) (A) (A) (A) (A) (A) (A) (A) (A) (A)
                 (A) (A) (A) (A) (A) (A) (A)
 The electronic state of the initial guess is 1-A.
 Leave Link  401 at Mon Sep 14 19:12:17 2015, MaxMem=  402653184 cpu:       0.2
 (Enter /share/apps/g09/l502.exe)
 Closed shell SCF:
 Requested convergence on RMS density matrix=1.00D-08 within 128 cycles.
 Requested convergence on MAX density matrix=1.00D-06.
 Requested convergence on             energy=1.00D-06.
 No special actions if energy rises.
 Using DIIS extrapolation, IDIIS=  1040.
 Overlap will be assumed to be unity.
 Two-electron integral symmetry not used.
 Keep J ints in memory in canonical form, NReq=884654.
 IEnd=       81865 IEndB=       81865 NGot=   402653184 MDV=   402586639
 LenX=   402586639 LenY=   402584754
 Symmetry not used in FoFDir.
 MinBra= 0 MaxBra= 1 Meth=40.
 IRaf=       0 NMat=   1 IRICut=       1 DoRegI=T DoRafI=F ISym2E= 0 JSym2E=0.

 Cycle   1  Pass 1  IDiag  1:
 E=-0.562851465424785E-01
 DIIS: error= 4.37D-03 at cycle   1 NSaved=   1.
 NSaved= 1 IEnMin= 1 EnMin=-0.562851465424785E-01 IErMin= 1 ErrMin= 4.37D-03
 ErrMax= 4.37D-03 EMaxC= 1.00D-01 BMatC= 4.44D-04 BMatP= 4.44D-04
 IDIUse=3 WtCom= 9.56D-01 WtEn= 4.37D-02
 Coeff-Com:  0.100D+01
 Coeff-En:   0.100D+01
 Coeff:      0.100D+01
 GapD=    2.000 DampG=2.000 DampE=1.000 DampFc=2.0000 IDamp=-1.
 RMSDP=1.00D-03 MaxDP=1.07D-02              OVMax= 0.00D+00

 Cycle   2  Pass 1  IDiag  3:
 E=-0.578398830174365E-01 Delta-E=       -0.001554736475 Rises=F Damp=F
 DIIS: error= 1.92D-03 at cycle   2 NSaved=   2.
 NSaved= 2 IEnMin= 2 EnMin=-0.578398830174365E-01 IErMin= 2 ErrMin= 1.92D-03
 ErrMax= 1.92D-03 EMaxC= 1.00D-01 BMatC= 6.95D-05 BMatP= 4.44D-04
 IDIUse=3 WtCom= 9.81D-01 WtEn= 1.92D-02
 Coeff-Com: -0.587D+00 0.159D+01
 Coeff-En:   0.000D+00 0.100D+01
 Coeff:     -0.576D+00 0.158D+01
 Gap=     0.558 Goal=   None    Shift=    0.000
 RMSDP=6.70D-04 MaxDP=7.54D-03 DE=-1.55D-03 OVMax= 0.00D+00

 Cycle   3  Pass 1  IDiag  3:
 E=-0.581685374078802E-01 Delta-E=       -0.000328654390 Rises=F Damp=F
 DIIS: error= 2.45D-04 at cycle   3 NSaved=   3.
 NSaved= 3 IEnMin= 3 EnMin=-0.581685374078802E-01 IErMin= 3 ErrMin= 2.45D-04
 ErrMax= 2.45D-04 EMaxC= 1.00D-01 BMatC= 1.36D-06 BMatP= 6.95D-05
 IDIUse=3 WtCom= 9.98D-01 WtEn= 2.45D-03
 Coeff-Com:  0.227D+00-0.694D+00 0.147D+01
 Coeff-En:   0.000D+00 0.000D+00 0.100D+01
 Coeff:      0.226D+00-0.692D+00 0.147D+01
 Gap=     0.558 Goal=   None    Shift=    0.000
 RMSDP=1.08D-04 MaxDP=1.15D-03 DE=-3.29D-04 OVMax= 0.00D+00

 Cycle   4  Pass 1  IDiag  3:
 E=-0.581757240652792E-01 Delta-E=       -0.000007186657 Rises=F Damp=F
 DIIS: error= 2.73D-05 at cycle   4 NSaved=   4.
 NSaved= 4 IEnMin= 4 EnMin=-0.581757240652792E-01 IErMin= 4 ErrMin= 2.73D-05
 ErrMax= 2.73D-05 EMaxC= 1.00D-01 BMatC= 4.52D-08 BMatP= 1.36D-06
 IDIUse=1 WtCom= 1.00D+00 WtEn= 0.00D+00
 Coeff-Com: -0.125D+00 0.387D+00-0.873D+00 0.161D+01
 Coeff:     -0.125D+00 0.387D+00-0.873D+00 0.161D+01
 Gap=     0.558 Goal=   None    Shift=    0.000
 RMSDP=2.06D-05 MaxDP=1.91D-04 DE=-7.19D-06 OVMax= 0.00D+00

 Cycle   5  Pass 1  IDiag  3:
 E=-0.581760368660866E-01 Delta-E=       -0.000000312801 Rises=F Damp=F
 DIIS: error= 1.20D-05 at cycle   5 NSaved=   5.
 NSaved= 5 IEnMin= 5 EnMin=-0.581760368660866E-01 IErMin= 5 ErrMin= 1.20D-05
 ErrMax= 1.20D-05 EMaxC= 1.00D-01 BMatC= 7.65D-09 BMatP= 4.52D-08
 IDIUse=1 WtCom= 1.00D+00 WtEn= 0.00D+00
 Coeff-Com:  0.892D-01-0.276D+00 0.634D+00-0.149D+01 0.205D+01
 Coeff:      0.892D-01-0.276D+00 0.634D+00-0.149D+01 0.205D+01
 Gap=     0.558 Goal=   None    Shift=    0.000
 RMSDP=1.25D-05 MaxDP=1.31D-04 DE=-3.13D-07 OVMax= 0.00D+00

 Cycle   6  Pass 1  IDiag  3:
 E=-0.581761056142796E-01 Delta-E=       -0.000000068748 Rises=F Damp=F
 DIIS: error= 3.39D-06 at cycle   6 NSaved=   6.
 NSaved= 6 IEnMin= 6 EnMin=-0.581761056142796E-01 IErMin= 6 ErrMin= 3.39D-06
 ErrMax= 3.39D-06 EMaxC= 1.00D-01 BMatC= 5.43D-10 BMatP= 7.65D-09
 IDIUse=1 WtCom= 1.00D+00 WtEn= 0.00D+00
 Coeff-Com: -0.476D-01 0.147D+00-0.340D+00 0.842D+00-0.137D+01 0.177D+01
 Coeff:     -0.476D-01 0.147D+00-0.340D+00 0.842D+00-0.137D+01 0.177D+01
 Gap=     0.558 Goal=   None    Shift=    0.000
 RMSDP=3.36D-06 MaxDP=3.70D-05 DE=-6.87D-08 OVMax= 0.00D+00

 Cycle   7  Pass 1  IDiag  3:
 E=-0.581761101424263E-01 Delta-E=       -0.000000004528 Rises=F Damp=F
 DIIS: error= 6.54D-07 at cycle   7 NSaved=   7.
 NSaved= 7 IEnMin= 7 EnMin=-0.581761101424263E-01 IErMin= 7 ErrMin= 6.54D-07
 ErrMax= 6.54D-07 EMaxC= 1.00D-01 BMatC= 2.25D-11 BMatP= 5.43D-10
 IDIUse=1 WtCom= 1.00D+00 WtEn= 0.00D+00
 Coeff-Com:  0.149D-01-0.460D-01 0.106D+00-0.268D+00 0.459D+00-0.750D+00
 Coeff-Com:  0.148D+01
 Coeff:      0.149D-01-0.460D-01 0.106D+00-0.268D+00 0.459D+00-0.750D+00
 Coeff:      0.148D+01
 Gap=     0.558 Goal=   None    Shift=    0.000
 RMSDP=5.52D-07 MaxDP=6.26D-06 DE=-4.53D-09 OVMax= 0.00D+00

 Cycle   8  Pass 1  IDiag  3:
 E=-0.581761102943119E-01 Delta-E=       -0.000000000152 Rises=F Damp=F
 DIIS: error= 1.46D-07 at cycle   8 NSaved=   8.
 NSaved= 8 IEnMin= 8 EnMin=-0.581761102943119E-01 IErMin= 8 ErrMin= 1.46D-07
 ErrMax= 1.46D-07 EMaxC= 1.00D-01 BMatC= 1.00D-12 BMatP= 2.25D-11
 IDIUse=1 WtCom= 1.00D+00 WtEn= 0.00D+00
 Coeff-Com: -0.313D-02 0.966D-02-0.223D-01 0.567D-01-0.100D+00 0.179D+00
 Coeff-Com: -0.508D+00 0.139D+01
 Coeff:     -0.313D-02 0.966D-02-0.223D-01 0.567D-01-0.100D+00 0.179D+00
 Coeff:     -0.508D+00 0.139D+01
 Gap=     0.558 Goal=   None    Shift=    0.000
 RMSDP=1.01D-07 MaxDP=1.06D-06 DE=-1.52D-10 OVMax= 0.00D+00

 Cycle   9  Pass 1  IDiag  3:
 E=-0.581761103003657E-01 Delta-E=       -0.000000000006 Rises=F Damp=F
 DIIS: error= 4.30D-08 at cycle   9 NSaved=   9.
 NSaved= 9 IEnMin= 9 EnMin=-0.581761103003657E-01 IErMin= 9 ErrMin= 4.30D-08
 ErrMax= 4.30D-08 EMaxC= 1.00D-01 BMatC= 8.05D-14 BMatP= 1.00D-12
 IDIUse=1 WtCom= 1.00D+00 WtEn= 0.00D+00
 Coeff-Com:  0.584D-03-0.180D-02 0.415D-02-0.108D-01 0.201D-01-0.400D-01
 Coeff-Com:  0.151D+00-0.652D+00 0.153D+01
 Coeff:      0.584D-03-0.180D-02 0.415D-02-0.108D-01 0.201D-01-0.400D-01
 Coeff:      0.151D+00-0.652D+00 0.153D+01
 Gap=     0.558 Goal=   None    Shift=    0.000
 RMSDP=2.82D-08 MaxDP=3.18D-07 DE=-6.05D-12 OVMax= 0.00D+00

 Cycle  10  Pass 1  IDiag  3:
 E=-0.581761103005647E-01 Delta-E=        0.000000000000 Rises=F Damp=F
 DIIS: error= 1.26D-08 at cycle  10 NSaved=  10.
 NSaved=10 IEnMin=10 EnMin=-0.581761103005647E-01 IErMin=10 ErrMin= 1.26D-08
 ErrMax= 1.26D-08 EMaxC= 1.00D-01 BMatC= 6.82D-15 BMatP= 8.05D-14
 IDIUse=1 WtCom= 1.00D+00 WtEn= 0.00D+00
 Coeff-Com: -0.946D-04 0.290D-03-0.671D-03 0.186D-02-0.387D-02 0.924D-02
 Coeff-Com: -0.467D-01 0.258D+00-0.841D+00 0.162D+01
 Coeff:     -0.946D-04 0.290D-03-0.671D-03 0.186D-02-0.387D-02 0.924D-02
 Coeff:     -0.467D-01 0.258D+00-0.841D+00 0.162D+01
 Gap=     0.558 Goal=   None    Shift=    0.000
 RMSDP=8.98D-09 MaxDP=8.87D-08 DE=-1.99D-13 OVMax= 0.00D+00

 Cycle  11  Pass 2  IDiag  1:
 RMSDP=8.98D-09 MaxDP=8.87D-08 DE=-1.99D-13 OVMax= 0.00D+00

 SCF Done:  E(RPM6) = -0.581761103006E-01 A.U. after   11 cycles
             Convg  =    0.8983D-08             -V/T =  0.9990
 KE=-5.622617292153D+01 PE=-2.524016613661D+02 EE= 1.428164855976D+02
 Leave Link  502 at Mon Sep 14 19:12:18 2015, MaxMem=  402653184 cpu:       0.1
 (Enter /share/apps/g09/l701.exe)
 Compute integral first derivatives.
 ... and contract with generalized density number  0.
 Leave Link  701 at Mon Sep 14 19:12:18 2015, MaxMem=  402653184 cpu:       0.1
 (Enter /share/apps/g09/l702.exe)
 L702 exits ... SP integral derivatives will be done elsewhere.
 Leave Link  702 at Mon Sep 14 19:12:19 2015, MaxMem=  402653184 cpu:       0.0
 (Enter /share/apps/g09/l703.exe)
 Compute integral first derivatives, UseDBF=F ICtDFT=           0.
 Integral derivatives from FoFDir, PRISM(SPDF).
 Calling FoFJK, ICntrl=      2127 FMM=F ISym2X=0 I1Cent= 0 IOpClX= 0 NMat=1 NMatS=1 NMatT=0.
 FoFCou: FMM=F IPFlag=           0 FMFlag=      100000 FMFlg1=         800
         NFxFlg=           0 DoJE=F BraDBF=F KetDBF=F FulRan=T
         Omega=  0.000000  0.000000  1.000000  0.000000  0.000000 ICntrl=    2127 IOpCl=  0
         NMat0=    1 NMatS0=    1 NMatT0=    0 NMatD0=    1 NMtDS0=    0 NMtDT0=    0
         I1Cent=           0 NGrid=           0.
 Symmetry not used in FoFCou.
 Leave Link  703 at Mon Sep 14 19:12:21 2015, MaxMem=  402653184 cpu:       0.0
 (Enter /share/apps/g09/l716.exe)
 Dipole        = 7.08335981D-03-7.57940323D-03 3.22288304D-02
 ***** Axes restored to original set *****
 -------------------------------------------------------------------
 Center     Atomic                   Forces (Hartrees/Bohr)
 Number     Number              X              Y              Z
 -------------------------------------------------------------------
      1        6           0.000116905   -0.000322524   -0.000806953
      2        1           0.000446376    0.001188833    0.000850716
      3        1           0.000318682   -0.000156111   -0.001293793
      4        1          -0.000908040   -0.000474215    0.000859575
      5        6           0.003121885   -0.000072351   -0.002234267
      6        1           0.000570067   -0.000172602   -0.000148968
      7        6          -0.002551734   -0.002656311    0.001967644
      8        1          -0.000520810   -0.001434596    0.000014129
      9        1          -0.000094820    0.000509102    0.001521769
     10        6          -0.003232233   -0.000557243   -0.000053828
     11        1          -0.000534109    0.001121782    0.000561951
     12        1          -0.000340218    0.000000222   -0.001177951
     13        6           0.001702937    0.001042074   -0.000880646
     14        1          -0.000157744   -0.000327486   -0.001388220
     15        1           0.000867496   -0.001038183    0.000736889
     16        1           0.000047303    0.001255407    0.000695272
     17        6           0.001370695    0.001663005   -0.000096235
     18        1           0.000546301   -0.000232234    0.000929076
     19        1           0.000293887    0.000790171   -0.000990553
     20        1          -0.001062826   -0.000126741    0.000934396
 -------------------------------------------------------------------
 Cartesian Forces:  Max     0.003232233 RMS     0.001148370
 Leave Link  716 at Mon Sep 14 19:12:21 2015, MaxMem=  402653184 cpu:       0.1
 (Enter /share/apps/g09/l103.exe)

 GradGradGradGradGradGradGradGradGradGradGradGradGradGradGradGradGradGrad
 Berny optimization.
 Using GEDIIS/GDIIS optimizer.
 Internal  Forces:  Max     0.005601629 RMS     0.000896063
 Search for a local minimum.
 Step number   2 out of a maximum of  110
 All quantities printed in internal units (Hartrees-Bohrs-Radians)
 RMS Force = .89606D-03 SwitMx=.10000D-02 MixMth= 2
 Mixed Optimization -- En-DIIS/RFO-DIIS
 Update second derivatives using D2CorX and points    1    2
 DE= -2.73D-03 DEPred=-2.61D-03 R= 1.05D+00
 SS=  1.41D+00  RLast= 1.73D-01 DXNew= 5.0454D-01 5.1799D-01
 Trust test= 1.05D+00 RLast= 1.73D-01 DXMaxT set to 5.05D-01
 Use linear search instead of GDIIS.
     Eigenvalues ---    0.00230   0.00276   0.00281   0.00288   0.00409
     Eigenvalues ---    0.03457   0.03591   0.03621   0.04614   0.04703
     Eigenvalues ---    0.04798   0.04852   0.05394   0.05405   0.05429
     Eigenvalues ---    0.05447   0.05471   0.05549   0.08261   0.08384
     Eigenvalues ---    0.12089   0.12185   0.15068   0.16000   0.16000
     Eigenvalues ---    0.16000   0.16000   0.16000   0.16000   0.16000
     Eigenvalues ---    0.16054   0.16540   0.16736   0.21265   0.21960
     Eigenvalues ---    0.26635   0.28574   0.28797   0.28862   0.29507
     Eigenvalues ---    0.31959   0.32002   0.32014   0.32102   0.32148
     Eigenvalues ---    0.32152   0.32165   0.32171   0.32180   0.32187
     Eigenvalues ---    0.32218   0.32260   0.32307   0.349971000.00000
     Eigenvalues --- 1000.000001000.000001000.000001000.000001000.00000
     Eigenvalues --- 1000.000001000.000001000.000001000.000001000.00000
     Eigenvalues --- 1000.000001000.000001000.000001000.000001000.00000
     Eigenvalues --- 1000.000001000.000001000.000001000.000001000.00000
     Eigenvalues --- 1000.000001000.000001000.000001000.000001000.00000
     Eigenvalues --- 1000.000001000.000001000.000001000.000001000.00000
     Eigenvalues --- 1000.000001000.000001000.000001000.000001000.00000
     Eigenvalues --- 1000.000001000.000001000.000001000.000001000.00000
     Eigenvalues --- 1000.000001000.000001000.000001000.000001000.00000
 RFO step:  Lambda=-4.28901304D-04 EMin= 2.29961818D-03
 Quartic linear search produced a step of  0.07369.
 Iteration  1 RMS(Cart)=  0.02444488 RMS(Int)=  0.00022527
 Iteration  2 RMS(Cart)=  0.00028356 RMS(Int)=  0.00001184
 Iteration  3 RMS(Cart)=  0.00000004 RMS(Int)=  0.00001184
 Variable       Old X    -DE/DX   Delta X   Delta X   Delta X     New X
                                 (Linear)    (Quad)   (Total)
    R1        2.07400  -0.00148  -0.00230  -0.00520  -0.00750   2.06650
    R2        2.07316  -0.00124  -0.00240  -0.00442  -0.00682   2.06634
    R3        2.07337  -0.00125  -0.00236  -0.00444  -0.00681   2.06656
    R4        2.90421  -0.00027   0.00010  -0.00099  -0.00089   2.90331
    R5        2.11486   0.00011   0.00047   0.00042   0.00090   2.11575
    R6        2.90317   0.00560  -0.00130   0.02128   0.01998   2.92315
    R7        2.89480   0.00244  -0.00073   0.00899   0.00827   2.90307
    R8        2.09159  -0.00004  -0.00121  -0.00027  -0.00149   2.09010
    R9        2.09640  -0.00086  -0.00089  -0.00297  -0.00386   2.09254
   R10        2.89481   0.00260  -0.00067   0.00958   0.00891   2.90372
   R11        2.09465  -0.00057  -0.00088  -0.00201  -0.00289   2.09176
   R12        2.09442  -0.00038  -0.00068  -0.00134  -0.00202   2.09239
   R13        2.89551  -0.00276   0.00074  -0.00987  -0.00914   2.88637
   R14        2.07456  -0.00138  -0.00225  -0.00485  -0.00710   2.06746
   R15        2.07504  -0.00149  -0.00216  -0.00520  -0.00736   2.06768
   R16        2.07444  -0.00140  -0.00225  -0.00492  -0.00717   2.06727
   R17        2.07260  -0.00081  -0.00219  -0.00294  -0.00513   2.06747
   R18        2.07264  -0.00097  -0.00242  -0.00351  -0.00593   2.06671
   R19        2.07399  -0.00129  -0.00231  -0.00458  -0.00689   2.06711
    A1        1.88131  -0.00045  -0.00122  -0.00339  -0.00462   1.87669
    A2        1.87356  -0.00019  -0.00064   0.00004  -0.00062   1.87294
    A3        1.94314   0.00030   0.00127   0.00273   0.00399   1.94713
    A4        1.87973  -0.00055  -0.00136  -0.00492  -0.00628   1.87345
    A5        1.94444   0.00050   0.00095   0.00269   0.00363   1.94807
    A6        1.93852   0.00032   0.00084   0.00236   0.00319   1.94171
    A7        1.89076  -0.00014   0.00163  -0.00692  -0.00530   1.88547
    A8        1.91863   0.00000  -0.00061   0.00077   0.00015   1.91879
[...]
 ! D9    D(4,1,5,17)           -56.6821         -DE/DX =    0.0                 !
 ! D10   D(1,5,7,8)             71.0944         -DE/DX =    0.0                 !
 ! D11   D(1,5,7,9)            -44.3641         -DE/DX =    0.0                 !
 ! D12   D(1,5,7,10)          -166.1579         -DE/DX =    0.0                 !
 ! D13   D(6,5,7,8)           -170.7232         -DE/DX =    0.0                 !
 ! D14   D(6,5,7,9)             73.8183         -DE/DX =    0.0                 !
 ! D15   D(6,5,7,10)           -47.9755         -DE/DX =    0.0                 !
 ! D16   D(17,5,7,8)           -51.5507         -DE/DX =    0.0                 !
 ! D17   D(17,5,7,9)          -167.0092         -DE/DX =    0.0                 !
 ! D18   D(17,5,7,10)           71.197          -DE/DX =    0.0                 !
 ! D19   D(1,5,17,18)          179.2704         -DE/DX =    0.0                 !
 ! D20   D(1,5,17,19)          -60.7929         -DE/DX =    0.0                 !
 ! D21   D(1,5,17,20)           59.2361         -DE/DX =    0.0                 !
 ! D22   D(6,5,17,18)           61.0882         -DE/DX =    0.0                 !
 ! D23   D(6,5,17,19)         -178.9751         -DE/DX =    0.0                 !
 ! D24   D(6,5,17,20)          -58.946          -DE/DX =    0.0                 !
 ! D25   D(7,5,17,18)          -58.2047         -DE/DX =    0.0                 !
 ! D26   D(7,5,17,19)           61.732          -DE/DX =    0.0                 !
 ! D27   D(7,5,17,20)         -178.2389         -DE/DX =    0.0                 !
 ! D28   D(5,7,10,11)           56.8687         -DE/DX =    0.0                 !
 ! D29   D(5,7,10,12)          -59.1738         -DE/DX =    0.0                 !
 ! D30   D(5,7,10,13)          178.8801         -DE/DX =    0.0                 !
 ! D31   D(8,7,10,11)          179.5867         -DE/DX =    0.0                 !
 ! D32   D(8,7,10,12)           63.5443         -DE/DX =    0.0                 !
 ! D33   D(8,7,10,13)          -58.4019         -DE/DX =    0.0                 !
 ! D34   D(9,7,10,11)          -64.9911         -DE/DX =    0.0                 !
 ! D35   D(9,7,10,12)          178.9665         -DE/DX =    0.0                 !
 ! D36   D(9,7,10,13)           57.0204         -DE/DX =    0.0                 !
 ! D37   D(7,10,13,14)          59.796          -DE/DX =    0.0                 !
 ! D38   D(7,10,13,15)         179.7371         -DE/DX =    0.0                 !
 ! D39   D(7,10,13,16)         -60.3006         -DE/DX =    0.0                 !
 ! D40   D(11,10,13,14)       -178.1011         -DE/DX =    0.0                 !
 ! D41   D(11,10,13,15)        -58.16           -DE/DX =    0.0                 !
 ! D42   D(11,10,13,16)         61.8023         -DE/DX =    0.0                 !
 ! D43   D(12,10,13,14)        -62.2475         -DE/DX =    0.0                 !
 ! D44   D(12,10,13,15)         57.6937         -DE/DX =    0.0                 !
 ! D45   D(12,10,13,16)        177.6559         -DE/DX =    0.0                 !
 --------------------------------------------------------------------------------
 GradGradGradGradGradGradGradGradGradGradGradGradGradGradGradGradGradGrad

 Largest change from initial coordinates is atom   12       0.137 Angstoms.
 Leave Link  103 at Mon Sep 14 19:13:30 2015, MaxMem=  402653184 cpu:       0.0
 (Enter /share/apps/g09/l202.exe)
                          Input orientation:                          
 ---------------------------------------------------------------------
 Center     Atomic      Atomic             Coordinates (Angstroms)
 Number     Number       Type             X           Y           Z
 ---------------------------------------------------------------------
      1          6           0        2.153859   -1.009342    0.032841
      2          1           0        1.942959   -1.989072   -0.407777
      3          1           0        2.250562   -1.148019    1.114860
      4          1           0        3.129948   -0.684241   -0.342301
      5          6           0        1.058423    0.010049   -0.311549
      6          1           0        0.991746    0.087077   -1.425547
      7          6           0       -0.304073   -0.473644    0.229055
      8          1           0       -0.318795   -0.399120    1.332424
      9          1           0       -0.430357   -1.549929    0.003281
     10          6           0       -1.480649    0.312889   -0.364141
     11          1           0       -1.460569    0.243691   -1.469353
     12          1           0       -1.371251    1.389510   -0.126353
     13          6           0       -2.822440   -0.195518    0.159458
     14          1           0       -2.888176   -0.109371    1.249947
     15          1           0       -3.655402    0.374894   -0.265925
     16          1           0       -2.981915   -1.249311   -0.095270
     17          6           0        1.423514    1.391847    0.246527
     18          1           0        0.658975    2.136195   -0.000591
     19          1           0        1.520858    1.373418    1.337205
     20          1           0        2.375082    1.747196   -0.161692
 ---------------------------------------------------------------------
                    Distance matrix (angstroms):
                    1          2          3          4          5
     1  C    0.000000
     2  H    1.094757   0.000000
     3  H    1.095148   1.766469   0.000000
     4  H    1.095067   1.765167   1.764009   0.000000
     5  C    1.535494   2.188184   2.190197   2.184994   0.000000
     6  H    2.163224   2.500212   3.092531   2.517988   1.118646
     7  C    2.523272   2.784103   2.786681   3.487592   1.543570
     8  H    2.859249   3.266769   2.685103   3.844454   2.183300
     9  H    2.640318   2.448356   2.929926   3.680301   2.179247
    10  C    3.887870   4.125775   4.271256   4.717239   2.557609
    11  H    4.109837   4.206682   4.731544   4.817069   2.782161
    12  H    4.266876   4.741097   4.593168   4.960632   2.800094
    13  C    5.043995   5.123243   5.249324   5.993458   3.914742
    14  H    5.264353   5.442536   5.244394   6.251684   4.245961
    15  H    5.979371   6.078660   6.253498   6.867938   4.728143
    16  H    5.142973   4.989919   5.371544   6.142898   4.237582
    17  C    2.518884   3.482607   2.808724   2.751141   1.534310
    18  H    3.482843   4.339613   3.816207   3.765279   2.185577
    19  H    2.789194   3.811755   2.634303   3.105458   2.188838
    20  H    2.772234   3.769215   3.166601   2.552318   2.184886
                    6          7          8          9         10
     6  H    0.000000
     7  C    2.175147   0.000000
     8  H    3.091975   1.105981   0.000000
     9  H    2.596866   1.106937   1.761655   0.000000
    10  C    2.700057   1.534551   2.176050   2.169839   0.000000
    11  H    2.457701   2.176383   3.093025   2.539106   1.107558
    12  H    2.994660   2.176356   2.536709   3.089075   1.107981
    13  C    4.140062   2.534634   2.772281   2.753340   1.527428
    14  H    4.717060   2.802232   2.586982   3.109704   2.182823
    15  H    4.798286   3.492338   3.779783   3.765412   2.177853
    16  H    4.398358   2.806721   3.139003   2.571095   2.183245
    17  C    2.164413   2.542621   2.724404   3.485693   3.157725
    18  H    2.517959   2.791318   3.026679   3.843718   2.834538
    19  H    3.093126   2.823121   2.554651   3.759329   3.609479
    20  H    2.503386   3.501812   3.754468   4.332290   4.118845
                   11         12         13         14         15
    11  H    0.000000
    12  H    1.767632   0.000000
    13  C    2.168091   2.167937   0.000000
    14  H    3.091490   2.538092   1.095860   0.000000
    15  H    2.506540   2.503252   1.095511   1.766640   0.000000
    16  H    2.536070   3.091695   1.095809   1.765745   1.766564
    17  C    3.546892   2.819532   4.533810   4.674525   5.205016
    18  H    3.198640   2.166835   4.193179   4.380490   4.667594
    19  H    4.247582   3.241382   4.765804   4.652511   5.510058
    20  H    4.322351   3.763535   5.558013   5.756861   6.185532
                   16         17         18         19         20
    16  H    0.000000
    17  C    5.147849   0.000000
    18  H    4.972594   1.095281   0.000000
    19  H    5.404226   1.095168   1.764756   0.000000
    20  H    6.138475   1.094713   1.767002   1.765247   0.000000
 Stoichiometry    C6H14
 Framework group  C1[X(C6H14)]
 Deg. of freedom    54
 Full point group                 C1      NOp   1
 Largest Abelian subgroup         C1      NOp   1
 Largest concise Abelian subgroup C1      NOp   1
                         Standard orientation:                         
 ---------------------------------------------------------------------
 Center     Atomic      Atomic             Coordinates (Angstroms)
 Number     Number       Type             X           Y           Z
 ---------------------------------------------------------------------
      1          6           0        2.150080   -1.028872    0.015511
      2          1           0        1.931219   -2.012349   -0.412700
      3          1           0        2.253555   -1.156004    1.098322
      4          1           0        3.125179   -0.712949   -0.369909
      5          6           0        1.057434   -0.007792   -0.332715
      6          1           0        0.983453    0.057187   -1.447019
      7          6           0       -0.303712   -0.478483    0.222569
      8          1           0       -0.310440   -0.391623    1.325114
      9          1           0       -0.436964   -1.556552    0.009681
     10          6           0       -1.480386    0.307405   -0.371288
     11          1           0       -1.468287    0.225824   -1.475771
     12          1           0       -1.363935    1.386030   -0.146276
     13          6           0       -2.821069   -0.188292    0.167125
     14          1           0       -2.878839   -0.089694    1.257011
     15          1           0       -3.654069    0.381601   -0.258876
     16          1           0       -2.987597   -1.244024   -0.074737
     17          6           0        1.433315    1.378242    0.207405
     18          1           0        0.670841    2.123691   -0.042756
     19          1           0        1.538094    1.371442    1.297528
     20          1           0        2.383816    1.724168   -0.211259
 ---------------------------------------------------------------------
 Rotational constants (GHZ):      6.5682475      1.7113427      1.4805868
 Leave Link  202 at Mon Sep 14 19:13:30 2015, MaxMem=  402653184 cpu:       0.0
 (Enter /share/apps/g09/l601.exe)
 Copying SCF densities to generalized density rwf, IOpCl= 0 IROHF=0.

 **********************************************************************

            Population analysis using the SCF density.

 **********************************************************************

 Orbital symmetries:
       Occupied  (A) (A) (A) (A) (A) (A) (A) (A) (A) (A) (A) (A)
                 (A) (A) (A) (A) (A) (A) (A)
       Virtual   (A) (A) (A) (A) (A) (A) (A) (A) (A) (A) (A) (A)
                 (A) (A) (A) (A) (A) (A) (A)
 The electronic state is 1-A.
 Alpha  occ. eigenvalues --   -1.06231  -0.99036  -0.88416  -0.86325  -0.75067
 Alpha  occ. eigenvalues --   -0.71008  -0.58810  -0.55724  -0.54902  -0.52252
 Alpha  occ. eigenvalues --   -0.49870  -0.48209  -0.48022  -0.46265  -0.44676
 Alpha  occ. eigenvalues --   -0.42956  -0.41162  -0.40928  -0.40471
 Alpha virt. eigenvalues --    0.15319   0.15687   0.16969   0.17545   0.18552
 Alpha virt. eigenvalues --    0.20782   0.21770   0.22077   0.22254   0.22289
 Alpha virt. eigenvalues --    0.22431   0.22511   0.23484   0.23621   0.24504
 Alpha virt. eigenvalues --    0.25028   0.25645   0.25805   0.26211
          Condensed to atoms (all electrons):
              1          2          3          4          5          6
     1  C    4.504030   0.000000   0.000000   0.000000   0.000000   0.000000
     2  H    0.000000   0.852191   0.000000   0.000000   0.000000   0.000000
     3  H    0.000000   0.000000   0.848441   0.000000   0.000000   0.000000
     4  H    0.000000   0.000000   0.000000   0.850464   0.000000   0.000000
     5  C    0.000000   0.000000   0.000000   0.000000   3.972529   0.000000
     6  H    0.000000   0.000000   0.000000   0.000000   0.000000   0.891416
     7  C    0.000000   0.000000   0.000000   0.000000   0.000000   0.000000
     8  H    0.000000   0.000000   0.000000   0.000000   0.000000   0.000000
     9  H    0.000000   0.000000   0.000000   0.000000   0.000000   0.000000
    10  C    0.000000   0.000000   0.000000   0.000000   0.000000   0.000000
    11  H    0.000000   0.000000   0.000000   0.000000   0.000000   0.000000
    12  H    0.000000   0.000000   0.000000   0.000000   0.000000   0.000000
    13  C    0.000000   0.000000   0.000000   0.000000   0.000000   0.000000
    14  H    0.000000   0.000000   0.000000   0.000000   0.000000   0.000000
    15  H    0.000000   0.000000   0.000000   0.000000   0.000000   0.000000
    16  H    0.000000   0.000000   0.000000   0.000000   0.000000   0.000000
    17  C    0.000000   0.000000   0.000000   0.000000   0.000000   0.000000
    18  H    0.000000   0.000000   0.000000   0.000000   0.000000   0.000000
    19  H    0.000000   0.000000   0.000000   0.000000   0.000000   0.000000
    20  H    0.000000   0.000000   0.000000   0.000000   0.000000   0.000000
              7          8          9         10         11         12
     1  C    0.000000   0.000000   0.000000   0.000000   0.000000   0.000000
     2  H    0.000000   0.000000   0.000000   0.000000   0.000000   0.000000
     3  H    0.000000   0.000000   0.000000   0.000000   0.000000   0.000000
     4  H    0.000000   0.000000   0.000000   0.000000   0.000000   0.000000
     5  C    0.000000   0.000000   0.000000   0.000000   0.000000   0.000000
     6  H    0.000000   0.000000   0.000000   0.000000   0.000000   0.000000
     7  C    4.308959   0.000000   0.000000   0.000000   0.000000   0.000000
     8  H    0.000000   0.862075   0.000000   0.000000   0.000000   0.000000
     9  H    0.000000   0.000000   0.864657   0.000000   0.000000   0.000000
    10  C    0.000000   0.000000   0.000000   4.213067   0.000000   0.000000
    11  H    0.000000   0.000000   0.000000   0.000000   0.876070   0.000000
    12  H    0.000000   0.000000   0.000000   0.000000   0.000000   0.874255
    13  C    0.000000   0.000000   0.000000   0.000000   0.000000   0.000000
    14  H    0.000000   0.000000   0.000000   0.000000   0.000000   0.000000
    15  H    0.000000   0.000000   0.000000   0.000000   0.000000   0.000000
    16  H    0.000000   0.000000   0.000000   0.000000   0.000000   0.000000
    17  C    0.000000   0.000000   0.000000   0.000000   0.000000   0.000000
    18  H    0.000000   0.000000   0.000000   0.000000   0.000000   0.000000
    19  H    0.000000   0.000000   0.000000   0.000000   0.000000   0.000000
    20  H    0.000000   0.000000   0.000000   0.000000   0.000000   0.000000
             13         14         15         16         17         18
     1  C    0.000000   0.000000   0.000000   0.000000   0.000000   0.000000
     2  H    0.000000   0.000000   0.000000   0.000000   0.000000   0.000000
     3  H    0.000000   0.000000   0.000000   0.000000   0.000000   0.000000
     4  H    0.000000   0.000000   0.000000   0.000000   0.000000   0.000000
     5  C    0.000000   0.000000   0.000000   0.000000   0.000000   0.000000
     6  H    0.000000   0.000000   0.000000   0.000000   0.000000   0.000000
     7  C    0.000000   0.000000   0.000000   0.000000   0.000000   0.000000
     8  H    0.000000   0.000000   0.000000   0.000000   0.000000   0.000000
     9  H    0.000000   0.000000   0.000000   0.000000   0.000000   0.000000
    10  C    0.000000   0.000000   0.000000   0.000000   0.000000   0.000000
    11  H    0.000000   0.000000   0.000000   0.000000   0.000000   0.000000
    12  H    0.000000   0.000000   0.000000   0.000000   0.000000   0.000000
    13  C    4.465825   0.000000   0.000000   0.000000   0.000000   0.000000
    14  H    0.000000   0.853517   0.000000   0.000000   0.000000   0.000000
    15  H    0.000000   0.000000   0.856568   0.000000   0.000000   0.000000
    16  H    0.000000   0.000000   0.000000   0.853896   0.000000   0.000000
    17  C    0.000000   0.000000   0.000000   0.000000   4.498731   0.000000
    18  H    0.000000   0.000000   0.000000   0.000000   0.000000   0.851355
    19  H    0.000000   0.000000   0.000000   0.000000   0.000000   0.000000
    20  H    0.000000   0.000000   0.000000   0.000000   0.000000   0.000000
             19         20
     1  C    0.000000   0.000000
     2  H    0.000000   0.000000
     3  H    0.000000   0.000000
     4  H    0.000000   0.000000
     5  C    0.000000   0.000000
     6  H    0.000000   0.000000
     7  C    0.000000   0.000000
     8  H    0.000000   0.000000
     9  H    0.000000   0.000000
    10  C    0.000000   0.000000
    11  H    0.000000   0.000000
    12  H    0.000000   0.000000
    13  C    0.000000   0.000000
    14  H    0.000000   0.000000
    15  H    0.000000   0.000000
    16  H    0.000000   0.000000
    17  C    0.000000   0.000000
    18  H    0.000000   0.000000
    19  H    0.848964   0.000000
    20  H    0.000000   0.852989
 Mulliken atomic charges:
              1
     1  C   -0.504030
     2  H    0.147809
     3  H    0.151559
     4  H    0.149536
     5  C    0.027471
     6  H    0.108584
     7  C   -0.308959
     8  H    0.137925
     9  H    0.135343
    10  C   -0.213067
    11  H    0.123930
    12  H    0.125745
    13  C   -0.465825
    14  H    0.146483
    15  H    0.143432
    16  H    0.146104
    17  C   -0.498731
    18  H    0.148645
    19  H    0.151036
    20  H    0.147011
 Sum of Mulliken atomic charges =   0.00000
 Mulliken charges with hydrogens summed into heavy atoms:
              1
     1  C   -0.055126
     5  C    0.136055
     7  C   -0.035691
    10  C    0.036609
    13  C   -0.029806
    17  C   -0.052039
 Sum of Mulliken charges with hydrogens summed into heavy atoms =   0.00000
 Charge=              0.0000 electrons
 Dipole moment (field-independent basis, Debye):
    X=              0.0158    Y=             -0.0225    Z=              0.1014  Tot=              0.1051
 N-N= 1.656343311955D+02 E-N=-2.521504736108D+02  KE=-5.622831988527D+01
 Leave Link  601 at Mon Sep 14 19:13:30 2015, MaxMem=  402653184 cpu:       0.0
 (Enter /share/apps/g09/l9999.exe)
 1\1\GINC-COMPUTE-0-4\FOpt\RPM6\ZDO\C6H14\HETANJIN\14-Sep-2015\0\\#p PM
 6 opt\\using PM6 to do opt and freq calc.\\0,1\C,2.1538585801,-1.00934
 19283,0.0328407272\H,1.9429593585,-1.9890718053,-0.4077772782\H,2.2505
 61697,-1.1480192583,1.1148604237\H,3.1299482355,-0.684240883,-0.342300
 6322\C,1.0584234031,0.0100493164,-0.3115494783\H,0.9917459268,0.087077
 3253,-1.4255470754\C,-0.3040730225,-0.4736443632,0.2290549848\H,-0.318
 7953023,-0.3991198665,1.3324241448\H,-0.4303570796,-1.5499287721,0.003
 2808327\C,-1.4806486631,0.3128888512,-0.3641405733\H,-1.4605687805,0.2
 436911319,-1.46935275\H,-1.3712509538,1.3895095596,-0.1263534699\C,-2.
 8224399964,-0.195517697,0.1594575877\H,-2.8881762416,-0.1093714489,1.2
 499471452\H,-3.6554017085,0.3748940802,-0.2659246556\H,-2.9819151036,-
 1.2493105736,-0.0952698806\C,1.4235143285,1.3918473311,0.2465274933\H,
 0.6589753682,2.1361946533,-0.0005905138\H,1.5208580361,1.3734184749,1.
 3372047299\H,2.3750819181,1.7471958723,-0.1616917619\\Version=EM64L-G0
 9RevA.01\State=1-A\HF=-0.0583915\RMSD=3.561e-09\RMSF=6.246e-06\Dipole=
 0.0059733,-0.00926,0.0398384\PG=C01 [X(C6H14)]\\@


 Everything starts as somebody's daydream.
                           -- Larry Niven
 Job cpu time:  0 days  0 hours  0 minutes 14.6 seconds.
 File lengths (MBytes):  RWF=      5 Int=      0 D2E=      0 Chk=      3 Scr=      1
 Normal termination of Gaussian 09 at Mon Sep 14 19:13:32 2015.
