using PM6 to do opt and freq calc.                                      
FOpt      RPM6                                                        ZDO                 
Number of atoms                            I               20
Info1-9                                    I   N=           9
          33          29           0           0           0         110
           2           8         302
Charge                                     I                0
Multiplicity                               I                1
Number of electrons                        I               38
Number of alpha electrons                  I               19
Number of beta electrons                   I               19
Number of basis functions                  I               38
Number of independent functions            I               38
Number of point charges in /Mol/           I                0
Number of translation vectors              I                0
Atomic numbers                             I   N=          20
           6           1           1           1           6           1
           6           1           1           6           1           1
           6           1           1           1           6           1
           1           1
Nuclear charges                            R   N=          20
  4.00000000E+00  1.00000000E+00  1.00000000E+00  1.00000000E+00  4.00000000E+00
  1.00000000E+00  4.00000000E+00  1.00000000E+00  1.00000000E+00  4.00000000E+00
  1.00000000E+00  1.00000000E+00  4.00000000E+00  1.00000000E+00  1.00000000E+00
  1.00000000E+00  4.00000000E+00  1.00000000E+00  1.00000000E+00  1.00000000E+00
Current cartesian coordinates              R   N=          60
  4.06306325E+00 -1.94428557E+00  2.93106314E-02  3.64947460E+00 -3.80278925E+00
 -7.79890176E-01  4.25860115E+00 -2.18453141E+00  2.07552709E+00  5.90573234E+00
 -1.34727822E+00 -6.99027560E-01  1.99826047E+00 -1.47243415E-02 -6.28739691E-01
  1.85845752E+00  1.08068419E-01 -2.73446996E+00 -5.73932949E-01 -9.04201697E-01
  4.20594985E-01 -5.86645954E-01 -7.40061016E-01  2.50410209E+00 -8.25741943E-01
 -2.94145659E+00  1.82949274E-02 -2.79752336E+00  5.80910850E-01 -7.01631890E-01
 -2.77465974E+00  4.26745155E-01 -2.78880309E+00 -2.57746381E+00  2.61921650E+00
 -2.76421112E-01 -5.33104806E+00 -3.55820593E-01  3.15821061E-01 -5.44021759E+00
 -1.69497963E-01  2.37540671E+00 -6.90519005E+00  7.21121947E-01 -4.89204967E-01
 -5.64574083E+00 -2.35086380E+00 -1.41232508E-01  2.70857270E+00  2.60450083E+00
  3.91938998E-01  1.26770567E+00  4.01319389E+00 -8.07961895E-02  2.90657693E+00
  2.59165035E+00  2.45197218E+00  4.50475930E+00  3.25820513E+00 -3.99222007E-01
Force Field                                I                0
Int Atom Types                             I   N=          20
           0           0           0           0           0           0
           0           0           0           0           0           0
           0           0           0           0           0           0
           0           0
MM charges                                 R   N=          20
  0.00000000E+00  0.00000000E+00  0.00000000E+00  0.00000000E+00  0.00000000E+00
  0.00000000E+00  0.00000000E+00  0.00000000E+00  0.00000000E+00  0.00000000E+00
  0.00000000E+00  0.00000000E+00  0.00000000E+00  0.00000000E+00  0.00000000E+00
  0.00000000E+00  0.00000000E+00  0.00000000E+00  0.00000000E+00  0.00000000E+00
Integer atomic weights                     I   N=          20
          12           1           1           1          12           1
          12           1           1          12           1           1
          12           1           1           1          12           1
           1           1
Real atomic weights                        R   N=          20
  1.20000000E+01  1.00782504E+00  1.00782504E+00  1.00782504E+00  1.20000000E+01
  1.00782504E+00  1.20000000E+01  1.00782504E+00  1.00782504E+00  1.20000000E+01
  1.00782504E+00  1.00782504E+00  1.20000000E+01  1.00782504E+00  1.00782504E+00
  1.00782504E+00  1.20000000E+01  1.00782504E+00  1.00782504E+00  1.00782504E+00
Atom fragment info                         I   N=          20
           0           0           0           0           0           0
           0           0           0           0           0           0
           0           0           0           0           0           0
           0           0
Atom residue num                           I   N=          20
           0           0           0           0           0           0
           0           0           0           0           0           0
           0           0           0           0           0           0
           0           0
Nuclear spins                              I   N=          20
           0           1           1           1           0           1
           0           1           1           0           1           1
           0           1           1           1           0           1
           1           1
Nuclear ZEff                               R   N=          20
 -3.90000000E+00 -1.00000000E+00 -1.00000000E+00 -1.00000000E+00 -3.90000000E+00
 -1.00000000E+00 -3.90000000E+00 -1.00000000E+00 -1.00000000E+00 -3.90000000E+00
 -1.00000000E+00 -1.00000000E+00 -3.90000000E+00 -1.00000000E+00 -1.00000000E+00
 -1.00000000E+00 -3.90000000E+00 -1.00000000E+00 -1.00000000E+00 -1.00000000E+00
Nuclear QMom                               R   N=          20
  0.00000000E+00  0.00000000E+00  0.00000000E+00  0.00000000E+00  0.00000000E+00
  0.00000000E+00  0.00000000E+00  0.00000000E+00  0.00000000E+00  0.00000000E+00
  0.00000000E+00  0.00000000E+00  0.00000000E+00  0.00000000E+00  0.00000000E+00
  0.00000000E+00  0.00000000E+00  0.00000000E+00  0.00000000E+00  0.00000000E+00
Nuclear GFac                               R   N=          20
  0.00000000E+00  2.79284600E+00  2.79284600E+00  2.79284600E+00  0.00000000E+00
  2.79284600E+00  0.00000000E+00  2.79284600E+00  2.79284600E+00  0.00000000E+00
  2.79284600E+00  2.79284600E+00  0.00000000E+00  2.79284600E+00  2.79284600E+00
  2.79284600E+00  0.00000000E+00  2.79284600E+00  2.79284600E+00  2.79284600E+00
MicOpt                                     I   N=          20
          -1          -1          -1          -1          -1          -1
          -1          -1          -1          -1          -1          -1
          -1          -1          -1          -1          -1          -1
          -1          -1
Number of contracted shells                I               20
Number of primitive shells                 I              120
Pure/Cartesian d shells                    I                0
Pure/Cartesian f shells                    I                0
Highest angular momentum                   I                1
Largest degree of contraction              I                6
Shell types                                I   N=          20
          -1           0           0           0          -1           0
          -1           0           0          -1           0           0
          -1           0           0           0          -1           0
           0           0
Number of primitives per shell             I   N=          20
           6           6           6           6           6           6
           6           6           6           6           6           6
           6           6           6           6           6           6
           6           6
Shell to atom map                          I   N=          20
           1           2           3           4           5           6
           7           8           9          10          11          12
          13          14          15          16          17          18
          19          20
Primitive exponents                        R   N=         120
  1.14476344E+01  3.29633588E+00  1.29653143E+00  5.92558930E-01  2.94896438E-01
  1.51447622E-01  4.39461478E+00  1.26542531E+00  4.97723458E-01  2.27476537E-01
  1.13207340E-01  5.81389949E-02  4.39461478E+00  1.26542531E+00  4.97723458E-01
  2.27476537E-01  1.13207340E-01  5.81389949E-02  4.39461478E+00  1.26542531E+00
  4.97723458E-01  2.27476537E-01  1.13207340E-01  5.81389949E-02  1.14476344E+01
  3.29633588E+00  1.29653143E+00  5.92558930E-01  2.94896438E-01  1.51447622E-01
  4.39461478E+00  1.26542531E+00  4.97723458E-01  2.27476537E-01  1.13207340E-01
  5.81389949E-02  1.14476344E+01  3.29633588E+00  1.29653143E+00  5.92558930E-01
  2.94896438E-01  1.51447622E-01  4.39461478E+00  1.26542531E+00  4.97723458E-01
  2.27476537E-01  1.13207340E-01  5.81389949E-02  4.39461478E+00  1.26542531E+00
  4.97723458E-01  2.27476537E-01  1.13207340E-01  5.81389949E-02  1.14476344E+01
  3.29633588E+00  1.29653143E+00  5.92558930E-01  2.94896438E-01  1.51447622E-01
  4.39461478E+00  1.26542531E+00  4.97723458E-01  2.27476537E-01  1.13207340E-01
  5.81389949E-02  4.39461478E+00  1.26542531E+00  4.97723458E-01  2.27476537E-01
  1.13207340E-01  5.81389949E-02  1.14476344E+01  3.29633588E+00  1.29653143E+00
  5.92558930E-01  2.94896438E-01  1.51447622E-01  4.39461478E+00  1.26542531E+00
  4.97723458E-01  2.27476537E-01  1.13207340E-01  5.81389949E-02  4.39461478E+00
  1.26542531E+00  4.97723458E-01  2.27476537E-01  1.13207340E-01  5.81389949E-02
  4.39461478E+00  1.26542531E+00  4.97723458E-01  2.27476537E-01  1.13207340E-01
  5.81389949E-02  1.14476344E+01  3.29633588E+00  1.29653143E+00  5.92558930E-01
  2.94896438E-01  1.51447622E-01  4.39461478E+00  1.26542531E+00  4.97723458E-01
  2.27476537E-01  1.13207340E-01  5.81389949E-02  4.39461478E+00  1.26542531E+00
  4.97723458E-01  2.27476537E-01  1.13207340E-01  5.81389949E-02  4.39461478E+00
  1.26542531E+00  4.97723458E-01  2.27476537E-01  1.13207340E-01  5.81389949E-02
Contraction coefficients                   R   N=         120
 -9.73739553E-03 -7.26587678E-02 -1.71615520E-01  1.28977624E-01  7.28861451E-01
  3.01331742E-01 -9.73739553E-03 -7.26587678E-02 -1.71615520E-01  1.28977624E-01
  7.28861451E-01  3.01331742E-01 -9.73739553E-03 -7.26587678E-02 -1.71615520E-01
  1.28977624E-01  7.28861451E-01  3.01331742E-01 -9.73739553E-03 -7.26587678E-02
 -1.71615520E-01  1.28977624E-01  7.28861451E-01  3.01331742E-01 -9.73739553E-03
 -7.26587678E-02 -1.71615520E-01  1.28977624E-01  7.28861451E-01  3.01331742E-01
 -9.73739553E-03 -7.26587678E-02 -1.71615520E-01  1.28977624E-01  7.28861451E-01
  3.01331742E-01 -9.73739553E-03 -7.26587678E-02 -1.71615520E-01  1.28977624E-01
  7.28861451E-01  3.01331742E-01 -9.73739553E-03 -7.26587678E-02 -1.71615520E-01
  1.28977624E-01  7.28861451E-01  3.01331742E-01 -9.73739553E-03 -7.26587678E-02
 -1.71615520E-01  1.28977624E-01  7.28861451E-01  3.01331742E-01 -9.73739553E-03
 -7.26587678E-02 -1.71615520E-01  1.28977624E-01  7.28861451E-01  3.01331742E-01
 -9.73739553E-03 -7.26587678E-02 -1.71615520E-01  1.28977624E-01  7.28861451E-01
  3.01331742E-01 -9.73739553E-03 -7.26587678E-02 -1.71615520E-01  1.28977624E-01
  7.28861451E-01  3.01331742E-01 -9.73739553E-03 -7.26587678E-02 -1.71615520E-01
  1.28977624E-01  7.28861451E-01  3.01331742E-01 -9.73739553E-03 -7.26587678E-02
 -1.71615520E-01  1.28977624E-01  7.28861451E-01  3.01331742E-01 -9.73739553E-03
 -7.26587678E-02 -1.71615520E-01  1.28977624E-01  7.28861451E-01  3.01331742E-01
 -9.73739553E-03 -7.26587678E-02 -1.71615520E-01  1.28977624E-01  7.28861451E-01
  3.01331742E-01 -9.73739553E-03 -7.26587678E-02 -1.71615520E-01  1.28977624E-01
  7.28861451E-01  3.01331742E-01 -9.73739553E-03 -7.26587678E-02 -1.71615520E-01
  1.28977624E-01  7.28861451E-01  3.01331742E-01 -9.73739553E-03 -7.26587678E-02
 -1.71615520E-01  1.28977624E-01  7.28861451E-01  3.01331742E-01 -9.73739553E-03
 -7.26587678E-02 -1.71615520E-01  1.28977624E-01  7.28861451E-01  3.01331742E-01
P(S=P) Contraction coefficients            R   N=         120
 -8.10494336E-03 -1.71547892E-02  7.36978576E-02  3.96514999E-01  4.97808488E-01
  1.17482582E-01  0.00000000E+00  0.00000000E+00  0.00000000E+00  0.00000000E+00
  0.00000000E+00  0.00000000E+00  0.00000000E+00  0.00000000E+00  0.00000000E+00
  0.00000000E+00  0.00000000E+00  0.00000000E+00  0.00000000E+00  0.00000000E+00
  0.00000000E+00  0.00000000E+00  0.00000000E+00  0.00000000E+00 -8.10494336E-03
 -1.71547892E-02  7.36978576E-02  3.96514999E-01  4.97808488E-01  1.17482582E-01
  0.00000000E+00  0.00000000E+00  0.00000000E+00  0.00000000E+00  0.00000000E+00
  0.00000000E+00 -8.10494336E-03 -1.71547892E-02  7.36978576E-02  3.96514999E-01
  4.97808488E-01  1.17482582E-01  0.00000000E+00  0.00000000E+00  0.00000000E+00
  0.00000000E+00  0.00000000E+00  0.00000000E+00  0.00000000E+00  0.00000000E+00
  0.00000000E+00  0.00000000E+00  0.00000000E+00  0.00000000E+00 -8.10494336E-03
 -1.71547892E-02  7.36978576E-02  3.96514999E-01  4.97808488E-01  1.17482582E-01
  0.00000000E+00  0.00000000E+00  0.00000000E+00  0.00000000E+00  0.00000000E+00
  0.00000000E+00  0.00000000E+00  0.00000000E+00  0.00000000E+00  0.00000000E+00
  0.00000000E+00  0.00000000E+00 -8.10494336E-03 -1.71547892E-02  7.36978576E-02
  3.96514999E-01  4.97808488E-01  1.17482582E-01  0.00000000E+00  0.00000000E+00
  0.00000000E+00  0.00000000E+00  0.00000000E+00  0.00000000E+00  0.00000000E+00
  0.00000000E+00  0.00000000E+00  0.00000000E+00  0.00000000E+00  0.00000000E+00
  0.00000000E+00  0.00000000E+00  0.00000000E+00  0.00000000E+00  0.00000000E+00
  0.00000000E+00 -8.10494336E-03 -1.71547892E-02  7.36978576E-02  3.96514999E-01
  4.97808488E-01  1.17482582E-01  0.00000000E+00  0.00000000E+00  0.00000000E+00
  0.00000000E+00  0.00000000E+00  0.00000000E+00  0.00000000E+00  0.00000000E+00
  0.00000000E+00  0.00000000E+00  0.00000000E+00  0.00000000E+00  0.00000000E+00
  0.00000000E+00  0.00000000E+00  0.00000000E+00  0.00000000E+00  0.00000000E+00
Coordinates of each shell                  R   N=          60
  4.06306325E+00 -1.94428557E+00  2.93106314E-02  3.64947460E+00 -3.80278925E+00
 -7.79890176E-01  4.25860115E+00 -2.18453141E+00  2.07552709E+00  5.90573234E+00
 -1.34727822E+00 -6.99027560E-01  1.99826047E+00 -1.47243415E-02 -6.28739691E-01
  1.85845752E+00  1.08068419E-01 -2.73446996E+00 -5.73932949E-01 -9.04201697E-01
  4.20594985E-01 -5.86645954E-01 -7.40061016E-01  2.50410209E+00 -8.25741943E-01
 -2.94145659E+00  1.82949274E-02 -2.79752336E+00  5.80910850E-01 -7.01631890E-01
 -2.77465974E+00  4.26745155E-01 -2.78880309E+00 -2.57746381E+00  2.61921650E+00
 -2.76421112E-01 -5.33104806E+00 -3.55820593E-01  3.15821061E-01 -5.44021759E+00
 -1.69497963E-01  2.37540671E+00 -6.90519005E+00  7.21121947E-01 -4.89204967E-01
 -5.64574083E+00 -2.35086380E+00 -1.41232508E-01  2.70857270E+00  2.60450083E+00
  3.91938998E-01  1.26770567E+00  4.01319389E+00 -8.07961895E-02  2.90657693E+00
  2.59165035E+00  2.45197218E+00  4.50475930E+00  3.25820513E+00 -3.99222007E-01
Constraint Structure                       R   N=          60
  4.05650590E+00 -1.97461550E+00  4.64784945E-02  3.57111436E+00 -3.85276879E+00
 -7.71485481E-01  4.24180600E+00 -2.17365540E+00  2.13463250E+00  5.91682535E+00
 -1.38737327E+00 -7.45542238E-01  2.01153963E+00 -2.48582554E-02 -6.19463794E-01
  1.91569163E+00  7.72049906E-02 -2.72322169E+00 -5.89587211E-01 -8.93267397E-01
  3.86045258E-01 -5.82854578E-01 -8.36635227E-01  2.49331103E+00 -8.99622656E-01
 -2.89478141E+00 -2.00156899E-01 -2.82989672E+00  6.64637446E-01 -6.07215012E-01
 -2.80621154E+00  6.68098901E-01 -2.71366973E+00 -2.68410153E+00  2.65227196E+00
  6.62453307E-02 -5.36535590E+00 -3.87790305E-01  2.81634010E-01 -5.47016231E+00
 -3.62992138E-01  2.38394141E+00 -6.92732526E+00  7.95623698E-01 -4.85085932E-01
 -5.62158656E+00 -2.36302371E+00 -3.99406284E-01  2.78196706E+00  2.59587344E+00
  3.68054957E-01  1.45130657E+00  4.07239123E+00 -3.16748930E-01  2.80227027E+00
  2.61965989E+00  2.47326496E+00  4.70181368E+00  3.10610271E+00 -3.29281534E-01
Num ILSW                                   I              100
ILSW                                       I   N=         100
           0           0           0           0           2           0
           0           0           0           0           0          -1
           0           0           0           0           0           0
           0           0           0           0           1           0
           1           0           0           0           0           0
           0           0      100000           0          -1           0
           0           0           0           0           0           0
           0           0           0          40           0           0
           0           0           1           0           0           0
           0           0           4          40           0           0
           0           0           0           0           0           0
           0           0           0           0           0           0
           0           0           0           0           0           0
           0           0           0           0           0           0
           0           0           0           0           0           0
           0           0           0           0           0           0
           0           0           0           0
Num RLSW                                   I               40
RLSW                                       R   N=          40
  1.00000000E+00  1.00000000E+00  1.00000000E+00  1.00000000E+00  1.00000000E+00
  0.00000000E+00  0.00000000E+00  1.00000000E+00  0.00000000E+00  0.00000000E+00
  0.00000000E+00  0.00000000E+00  1.00000000E+00  0.00000000E+00  0.00000000E+00
  0.00000000E+00  0.00000000E+00  1.00000000E+00  0.00000000E+00  0.00000000E+00
  0.00000000E+00  0.00000000E+00  1.00000000E+00  0.00000000E+00  0.00000000E+00
  0.00000000E+00  0.00000000E+00  1.00000000E+00  0.00000000E+00  0.00000000E+00
  0.00000000E+00  0.00000000E+00  0.00000000E+00  0.00000000E+00  0.00000000E+00
  0.00000000E+00  0.00000000E+00  0.00000000E+00  1.00000000E+00  1.00000000E+00
MxBond                                     I                4
NBond                                      I   N=          20
           4           1           1           1           4           1
           4           1           1           4           1           1
           4           1           1           1           4           1
           1           1
IBond                                      I   N=          80
           2           3           4           5           1           0
           0           0           1           0           0           0
           1           0           0           0           1           6
           7          17           5           0           0           0
           5           8           9          10           7           0
           0           0           7           0           0           0
           7          11          12          13          10           0
           0           0          10           0           0           0
          10          14          15          16          13           0
           0           0          13           0           0           0
          13           0           0           0           5          18
          19          20          17           0           0           0
          17           0           0           0          17           0
           0           0
RBond                                      R   N=          80
  1.00000000E+00  1.00000000E+00  1.00000000E+00  1.00000000E+00  1.00000000E+00
  0.00000000E+00  0.00000000E+00  0.00000000E+00  1.00000000E+00  0.00000000E+00
  0.00000000E+00  0.00000000E+00  1.00000000E+00  0.00000000E+00  0.00000000E+00
  0.00000000E+00  1.00000000E+00  1.00000000E+00  1.00000000E+00  1.00000000E+00
  1.00000000E+00  0.00000000E+00  0.00000000E+00  0.00000000E+00  1.00000000E+00
  1.00000000E+00  1.00000000E+00  1.00000000E+00  1.00000000E+00  0.00000000E+00
  0.00000000E+00  0.00000000E+00  1.00000000E+00  0.00000000E+00  0.00000000E+00
  0.00000000E+00  1.00000000E+00  1.00000000E+00  1.00000000E+00  1.00000000E+00
  1.00000000E+00  0.00000000E+00  0.00000000E+00  0.00000000E+00  1.00000000E+00
  0.00000000E+00  0.00000000E+00  0.00000000E+00  1.00000000E+00  1.00000000E+00
  1.00000000E+00  1.00000000E+00  1.00000000E+00  0.00000000E+00  0.00000000E+00
  0.00000000E+00  1.00000000E+00  0.00000000E+00  0.00000000E+00  0.00000000E+00
  1.00000000E+00  0.00000000E+00  0.00000000E+00  0.00000000E+00  1.00000000E+00
  1.00000000E+00  1.00000000E+00  1.00000000E+00  1.00000000E+00  0.00000000E+00
  0.00000000E+00  0.00000000E+00  1.00000000E+00  0.00000000E+00  0.00000000E+00
  0.00000000E+00  1.00000000E+00  0.00000000E+00  0.00000000E+00  0.00000000E+00
Virial Ratio                               R      9.989615288344568E-01
SCF Energy                                 R     -5.839148888779278E-02
Total Energy                               R     -5.839148888779278E-02
RMS Force                                  R      6.246001812591656E-06
RMS Density                                R      3.560509578626375E-09
External E-field                           R   N=          35
  0.00000000E+00  0.00000000E+00  0.00000000E+00  0.00000000E+00  0.00000000E+00
  0.00000000E+00  0.00000000E+00  0.00000000E+00  0.00000000E+00  0.00000000E+00
  0.00000000E+00  0.00000000E+00  0.00000000E+00  0.00000000E+00  0.00000000E+00
  0.00000000E+00  0.00000000E+00  0.00000000E+00  0.00000000E+00  0.00000000E+00
  0.00000000E+00  0.00000000E+00  0.00000000E+00  0.00000000E+00  0.00000000E+00
  0.00000000E+00  0.00000000E+00  0.00000000E+00  0.00000000E+00  0.00000000E+00
  0.00000000E+00  0.00000000E+00  0.00000000E+00  0.00000000E+00  0.00000000E+00
IOpCl                                      I                0
IROHF                                      I                0
Alpha Orbital Energies                     R   N=          38
 -1.06230702E+00 -9.90361313E-01 -8.84157219E-01 -8.63254688E-01 -7.50668660E-01
 -7.10081370E-01 -5.88103603E-01 -5.57238900E-01 -5.49023520E-01 -5.22521208E-01
 -4.98702764E-01 -4.82091359E-01 -4.80223144E-01 -4.62653594E-01 -4.46763669E-01
 -4.29560964E-01 -4.11620276E-01 -4.09282080E-01 -4.04710584E-01  1.53189739E-01
  1.56866022E-01  1.69687154E-01  1.75448239E-01  1.85516588E-01  2.07820378E-01
  2.17696939E-01  2.20766612E-01  2.22539597E-01  2.22886919E-01  2.24309789E-01
  2.25108449E-01  2.34844027E-01  2.36206309E-01  2.45043465E-01  2.50278243E-01
  2.56445838E-01  2.58051777E-01  2.62109366E-01
Alpha MO coefficients                      R   N=        1444
  2.88418004E-01 -7.56437240E-02  6.41856286E-02 -1.23798725E-02  1.19106097E-01
  1.24367698E-01  1.15097523E-01  4.55111159E-01 -2.95606075E-02 -3.59368926E-03
  4.76118657E-02  1.87575039E-01  4.15429215E-01  3.58265727E-02  5.50626901E-02
 -4.53374593E-02  1.75333133E-01  1.71341962E-01  3.34749131E-01  5.07348854E-02
 -4.03696521E-02  3.50678768E-02  1.41748340E-01  1.47242058E-01  2.03708411E-01
  6.86517142E-02  1.38025627E-02 -1.68379223E-02  8.78062103E-02  7.72420080E-02
  8.73226734E-02  3.04401614E-01 -3.47576857E-02 -9.13721330E-02 -2.61122491E-02
  1.33062794E-01  1.30856564E-01  1.20105644E-01 -3.08107735E-01  3.00719582E-02
 -5.30738433E-02  1.13621390E-02 -1.22864380E-01 -1.32195436E-01 -1.39848465E-01
 -2.76838143E-01 -1.14406176E-01 -3.88672409E-03 -2.57446053E-02 -1.04393258E-01
  1.18870423E-01 -1.83886375E-01  2.31685706E-02 -1.28779257E-02  4.92290077E-02
  5.53184537E-02  4.30199649E-01 -9.51980058E-02 -4.40126511E-02  4.17412997E-02
  1.74682763E-01  1.69406032E-01  4.62532777E-01  7.89418907E-02  2.62695866E-02
 -3.00121740E-02  1.97719700E-01  1.96551355E-01  1.98344779E-01 -2.47486855E-01
 -1.70914193E-02  6.21086194E-02  1.79032406E-02 -8.27125170E-02 -1.07111164E-01
 -1.17346318E-01 -4.87568519E-01 -8.55204129E-03  7.27999922E-02  7.05332376E-03
 -2.59568084E-01 -2.21956231E-01 -2.14166076E-01  2.40400915E-03 -6.07365104E-02
  2.82332463E-01  1.84327440E-02  2.68143140E-03 -5.42623146E-02 -1.80511467E-02
  8.68318265E-02  1.35928306E-03 -1.78408895E-02 -7.49032501E-02  2.25428265E-02
  2.97498463E-02  3.96713596E-02 -5.41514839E-03  1.09583561E-02  4.41023690E-02
 -6.15188082E-02  6.70717795E-03  1.14370383E-02 -2.66496847E-03 -2.92777191E-02
 -2.71877360E-02 -3.52311199E-02  5.32357506E-01 -2.18802075E-02  6.80099766E-02
  8.55737484E-04  2.77844441E-01  2.39777683E-01  2.42458811E-01 -2.44725165E-01
 -7.71883271E-02 -1.23053528E-02 -1.21321947E-03 -9.48862132E-02 -1.14660632E-01
 -1.52476781E-01  5.49170202E-02 -2.37313584E-01 -6.89231266E-02  6.59391345E-03
  2.75717648E-02  4.67409492E-01  5.59698453E-03 -4.11345185E-04 -2.25275079E-02
  1.93255143E-01  2.08017205E-01  8.42831383E-02  2.57856017E-01 -3.70697376E-02
  1.43185382E-03  4.03989978E-02  2.91451317E-02 -4.41558293E-01  9.44059842E-02
 -2.42252276E-03 -7.98603642E-03 -2.06501545E-01 -2.39691571E-01 -2.04751161E-01
 -2.32149400E-01 -7.06902507E-02 -2.89674117E-02 -2.84452682E-03 -8.69740316E-02
 -1.10352261E-01 -1.45524276E-01  1.82335745E-01  1.37380584E-01 -6.53462948E-02
  1.14430585E-02  9.78940811E-02  1.00769585E-01  1.42473422E-01 -1.89141308E-01
  9.73948425E-02  3.95314906E-02 -3.54862419E-02 -5.85679362E-02 -2.18069006E-01
 -1.79984144E-01  1.36538920E-01 -9.86089307E-02 -1.50596310E-01 -1.53738987E-01
  4.63868509E-01  3.40314694E-02  1.63862294E-01 -1.40469199E-01  2.84821305E-01
  2.90587794E-01 -2.78181000E-01  2.02860067E-01  1.26885782E-01 -1.24918664E-01
 -2.01467044E-01 -1.51547777E-01 -2.02756036E-01  3.83086684E-02  2.74485715E-02
  7.98250889E-02  6.84122392E-03  5.18150572E-02  2.15488786E-02  4.60994623E-02
 -1.44195434E-01 -1.46542935E-01  1.56663953E-01 -1.49885393E-01 -1.01873245E-01
 -1.79923724E-01 -8.89421148E-02  4.42352915E-01  4.89717471E-03  2.64817157E-02
 -2.45549938E-01  3.52255929E-01 -2.42357558E-01  1.53204676E-01  1.21819847E-01
 -2.21742381E-01 -2.44386592E-01 -1.71416013E-01  6.50168928E-02 -4.50926940E-02
  9.90201063E-02 -1.41840616E-01  1.17183611E-01  6.29166799E-02  2.85705386E-02
 -4.34957723E-02  4.37156022E-02 -5.68359006E-02 -2.01063188E-02  6.00175501E-02
 -2.53730710E-03 -1.81119661E-01 -6.44196660E-02 -2.01147325E-01 -1.84639355E-01
 -1.11714857E-01 -2.02192984E-01 -1.15539838E-01  7.40152586E-03 -5.42106589E-02
  1.00594408E-01  1.96597015E-01 -1.06274711E-01  1.22616205E-01 -5.91823346E-02
  8.91799806E-02 -1.89073083E-02  6.10671570E-02  2.93322899E-01 -1.58267450E-01
 -3.80945229E-02  1.77504347E-01  2.86703696E-01  2.52030466E-01  1.67446467E-01
 -2.56955381E-01  1.49206448E-02 -1.84073515E-02  3.39290931E-01  2.03292001E-01
 -1.50576934E-01  2.53544253E-01  6.63154210E-03 -4.19304396E-02  2.42983242E-01
  1.50252501E-01  1.20554738E-01  6.95651789E-02 -1.73107934E-01 -6.71194995E-02
 -1.58802635E-01 -2.31955264E-01  1.19570312E-01 -6.91166401E-02  4.13842206E-02
 -2.03715430E-01  1.25791742E-02  2.29045260E-01  3.21029142E-02 -2.28157856E-01
  1.47156288E-02 -1.35686327E-01  2.07632580E-01 -1.83644879E-02  9.85817082E-02
  1.46181432E-01 -2.59045389E-01  1.67220656E-01  2.68376319E-02 -2.64506324E-01
  1.19258355E-01  1.06266414E-01  9.14173811E-02 -6.12164693E-02  3.59354888E-03
  1.11354066E-01 -2.01755804E-04  3.85933687E-01 -2.59382918E-01  6.54514238E-02
 -3.84128372E-03  1.74182433E-01  1.61753815E-02  3.48413919E-01  2.29522619E-01
 -1.79698849E-01 -8.39553708E-02 -2.34043325E-02  3.76733141E-02  3.36862446E-02
 -2.68578603E-01  3.23303536E-02 -1.89643671E-01  9.25379003E-02 -2.93217954E-02
  2.56761499E-02  4.32516352E-01  8.22393432E-02 -3.06445878E-01  1.04969837E-02
  6.94095257E-02  6.61135431E-02  3.26569241E-01  6.16601242E-02  1.46784742E-01
 -8.53025542E-02 -1.58596181E-02 -1.54071968E-01 -7.18621369E-02  1.20360396E-01
  6.97172093E-02  2.79443729E-02  8.28494514E-02 -1.21293021E-01 -1.92490780E-01
  6.53620253E-03  4.25941912E-02 -1.16625859E-01 -1.71632475E-02  2.31716356E-01
 -9.61357641E-02 -1.01501124E-01 -9.03193659E-02 -1.37773299E-01  4.67129045E-02
 -1.62268791E-02  3.17405098E-01 -3.35795872E-01  4.23036294E-02 -3.29644744E-01
  4.45498393E-02  9.86788901E-02 -2.53068407E-02 -2.81476761E-01  1.05808254E-02
 -2.28259337E-01  8.76448164E-02 -1.87145136E-01 -1.25492462E-01 -7.77458068E-03
  1.55379536E-01 -2.68580437E-01 -7.47166983E-02  2.99514914E-02  3.05594198E-03
  6.40392853E-02 -2.90983435E-01  1.29679705E-01  7.34124547E-02  1.76295640E-01
  1.30389475E-02 -2.35451276E-01  2.00772994E-01  6.55916805E-02 -5.19703374E-02
  1.30917458E-01 -1.16840730E-02  3.11904914E-02  4.19022652E-01 -4.52149818E-03
  1.81052615E-02  1.33558573E-01 -2.89429505E-01  9.11390641E-03  3.01243140E-01
  1.48992309E-01  3.10302247E-02 -7.24014664E-02  4.37366464E-02  2.11482466E-01
 -1.44022972E-02  3.79019068E-01  1.38002164E-01  6.18712465E-03 -1.53170155E-01
  1.04240038E-02  2.67111762E-01 -5.85431671E-02 -2.63291544E-02  1.82128150E-01
 -3.29186275E-02  7.37218741E-03  1.23493441E-01  1.98330369E-02 -6.82523454E-02
  1.81590578E-01  1.81609465E-01  7.63049422E-02 -7.52288168E-02  2.74413096E-02
  1.00086627E-01 -1.31864437E-01  5.47679397E-02  1.88265000E-02 -1.89215290E-02
 -3.56701589E-01  2.04583516E-01 -3.01446699E-01 -1.97047626E-01  3.53280479E-01
 -6.40527180E-02 -1.60814493E-02 -7.40698910E-03 -2.83788974E-03 -2.99989229E-01
  4.52865699E-02 -2.19420683E-01  7.67149405E-02 -6.87676102E-04 -1.78619270E-01
 -7.22108361E-02  5.41491116E-01 -8.07215877E-02  3.80644616E-01 -2.69740996E-01
  1.12238939E-02 -1.07942747E-02  5.87167200E-02 -3.02946424E-04  8.33488803E-03
 -2.50796370E-02  3.69673153E-03 -1.02313238E-01 -6.76500385E-02 -7.05612742E-02
  7.03201248E-02  8.53073253E-03 -6.20304875E-02 -1.18649235E-02  1.93288843E-02
 -9.37663703E-03 -4.45723362E-03  5.87939428E-03  9.59799509E-02  5.84093980E-02
  9.83155981E-02  7.44848983E-02 -5.74793475E-02 -6.38517460E-02  6.09452976E-03
  1.02157344E-01  8.26390480E-02 -4.56693140E-01  6.77730031E-02 -3.18243644E-01