 Entering Gaussian System, Link 0=/share/apps/g09/g09
 Input=C6H14_1_05_1_opt_B3L.gjf
 Output=C6H14_1_05_1_opt_B3L.log
 Initial command:
 /share/apps/g09/l1.exe /state/partition1/Gau-32622.inp -scrdir=/state/partition1/
 Entering Link 1 = /share/apps/g09/l1.exe PID=     32623.
  
 Copyright (c) 1988,1990,1992,1993,1995,1998,2003,2009, Gaussian, Inc.
                  All Rights Reserved.
  
 This is part of the Gaussian(R) 09 program.  It is based on
 the Gaussian(R) 03 system (copyright 2003, Gaussian, Inc.),
 the Gaussian(R) 98 system (copyright 1998, Gaussian, Inc.),
 the Gaussian(R) 94 system (copyright 1995, Gaussian, Inc.),
 the Gaussian 92(TM) system (copyright 1992, Gaussian, Inc.),
 the Gaussian 90(TM) system (copyright 1990, Gaussian, Inc.),
 the Gaussian 88(TM) system (copyright 1988, Gaussian, Inc.),
 the Gaussian 86(TM) system (copyright 1986, Carnegie Mellon
 University), and the Gaussian 82(TM) system (copyright 1983,
 Carnegie Mellon University). Gaussian is a federally registered
 trademark of Gaussian, Inc.
  
 This software contains proprietary and confidential information,
 including trade secrets, belonging to Gaussian, Inc.
  
 This software is provided under written license and may be
 used, copied, transmitted, or stored only in accord with that
 written license.
  
 The following legend is applicable only to US Government
 contracts under FAR:
  
                    RESTRICTED RIGHTS LEGEND
  
 Use, reproduction and disclosure by the US Government is
 subject to restrictions as set forth in subparagraphs (a)
 and (c) of the Commercial Computer Software - Restricted
 Rights clause in FAR 52.227-19.
  
 Gaussian, Inc.
 340 Quinnipiac St., Bldg. 40, Wallingford CT 06492
  
  
 ---------------------------------------------------------------
 Warning -- This program may not be used in any manner that
 competes with the business of Gaussian, Inc. or will provide
 assistance to any competitor of Gaussian, Inc.  The licensee
 of this program is prohibited from giving any competitor of
 Gaussian, Inc. access to this program.  By using this program,
 the user acknowledges that Gaussian, Inc. is engaged in the
 business of creating and licensing software in the field of
 computational chemistry and represents and warrants to the
 licensee that it is not a competitor of Gaussian, Inc. and that
 it will not use this program in any manner prohibited above.
 ---------------------------------------------------------------
  

 Cite this work as:
 Gaussian 09, Revision A.01,
 M. J. Frisch, G. W. Trucks, H. B. Schlegel, G. E. Scuseria, 
 M. A. Robb, J. R. Cheeseman, G. Scalmani, V. Barone, B. Mennucci, 
 G. A. Petersson, H. Nakatsuji, M. Caricato, X. Li, H. P. Hratchian, 
 A. F. Izmaylov, J. Bloino, G. Zheng, J. L. Sonnenberg, M. Hada, 
 M. Ehara, K. Toyota, R. Fukuda, J. Hasegawa, M. Ishida, T. Nakajima, 
 Y. Honda, O. Kitao, H. Nakai, T. Vreven, J. A. Montgomery, Jr., 
 J. E. Peralta, F. Ogliaro, M. Bearpark, J. J. Heyd, E. Brothers, 
 K. N. Kudin, V. N. Staroverov, R. Kobayashi, J. Normand, 
 K. Raghavachari, A. Rendell, J. C. Burant, S. S. Iyengar, J. Tomasi, 
 M. Cossi, N. Rega, J. M. Millam, M. Klene, J. E. Knox, J. B. Cross, 
 V. Bakken, C. Adamo, J. Jaramillo, R. Gomperts, R. E. Stratmann, 
 O. Yazyev, A. J. Austin, R. Cammi, C. Pomelli, J. W. Ochterski, 
 R. L. Martin, K. Morokuma, V. G. Zakrzewski, G. A. Voth, 
 P. Salvador, J. J. Dannenberg, S. Dapprich, A. D. Daniels, 
 O. Farkas, J. B. Foresman, J. V. Ortiz, J. Cioslowski, 
 and D. J. Fox, Gaussian, Inc., Wallingford CT, 2009.
 
 ******************************************
 Gaussian 09:  EM64L-G09RevA.01  8-May-2009
                18-Sep-2015 
 ******************************************
 %mem=3GB
 %nprocshared=2
 Will use up to    2 processors via shared memory.
 -----------------------------------------
 #p B3LYP/6-31G(d) opt=tight int=ultrafine
 -----------------------------------------
 1/7=10,14=-1,18=20,19=15,26=3,38=1/1,3;
 2/9=110,12=2,17=6,18=5,40=1/2;
 3/5=1,6=6,7=1,11=2,16=1,25=1,30=1,71=1,74=-5,75=-5/1,2,3;
 4//1;
 5/5=2,38=5/2;
 6/7=2,8=2,9=2,10=2,28=1/1;
 7//1,2,3,16;
 1/7=10,14=-1,18=20,19=15/3(2);
 2/9=110/2;
 99//99;
 2/9=110/2;
 3/5=1,6=6,7=1,11=2,16=1,25=1,30=1,71=1,74=-5,75=-5/1,2,3;
 4/5=5,16=3/1;
 5/5=2,38=5/2;
 7//1,2,3,16;
 1/7=10,14=-1,18=20,19=15/3(-5);
 2/9=110/2;
 6/7=2,8=2,9=2,10=2,19=2,28=1/1;
 99/9=1/99;
 Leave Link    1 at Fri Sep 18 13:21:16 2015, MaxMem=  402653184 cpu:       0.1
 (Enter /share/apps/g09/l101.exe)
 ---------------------------------------------
 using B3LYP/6-31G(d) to do opt and freq calc.
 ---------------------------------------------
 Symbolic Z-matrix:
 Charge =  0 Multiplicity = 1
 C                     3.00224  -0.34898  -0.10681 
 H                     3.50052   0.58957   0.16076 
 H                     3.06733  -0.4551   -1.19553 
 H                     3.58128  -1.16601   0.3376 
 C                     1.55326  -0.37404   0.37496 
 H                     1.09189  -1.34947   0.12426 
 H                     1.52419  -0.30284   1.4797 
 C                     0.72836   0.76471  -0.24129 
 H                     0.76128   0.69695  -1.34562 
 H                     1.19549   1.7368    0.01054 
 C                    -0.72836   0.76471   0.24128 
 H                    -1.19549   1.73679  -0.01054 
 H                    -0.76128   0.69695   1.34562 
 C                    -1.55326  -0.37404  -0.37496 
 H                    -1.09189  -1.34947  -0.12425 
 H                    -1.52418  -0.30285  -1.4797 
 C                    -3.00224  -0.34898   0.10681 
 H                    -3.50052   0.58957  -0.16077 
 H                    -3.58128  -1.16601  -0.33759 
 H                    -3.06733  -0.45509   1.19553 
 
 NAtoms=     20 NQM=     20 NQMF=      0 NMic=      0 NMicF=      0 NTot=     20.
                    Isotopes and Nuclear Properties:
 (Nuclear quadrupole moments (NQMom) in fm**2, nuclear magnetic moments (NMagM)
  in nuclear magnetons)

  Atom         1           2           3           4           5           6           7           8           9          10
 IAtWgt=          12           1           1           1          12           1           1          12           1           1
 AtmWgt=  12.0000000   1.0078250   1.0078250   1.0078250  12.0000000   1.0078250   1.0078250  12.0000000   1.0078250   1.0078250
 NucSpn=           0           1           1           1           0           1           1           0           1           1
 AtZEff=   0.0000000   0.0000000   0.0000000   0.0000000   0.0000000   0.0000000   0.0000000   0.0000000   0.0000000   0.0000000
 NQMom=    0.0000000   0.0000000   0.0000000   0.0000000   0.0000000   0.0000000   0.0000000   0.0000000   0.0000000   0.0000000
 NMagM=    0.0000000   2.7928460   2.7928460   2.7928460   0.0000000   2.7928460   2.7928460   0.0000000   2.7928460   2.7928460

  Atom        11          12          13          14          15          16          17          18          19          20
 IAtWgt=          12           1           1          12           1           1          12           1           1           1
 AtmWgt=  12.0000000   1.0078250   1.0078250  12.0000000   1.0078250   1.0078250  12.0000000   1.0078250   1.0078250   1.0078250
 NucSpn=           0           1           1           0           1           1           0           1           1           1
 AtZEff=   0.0000000   0.0000000   0.0000000   0.0000000   0.0000000   0.0000000   0.0000000   0.0000000   0.0000000   0.0000000
 NQMom=    0.0000000   0.0000000   0.0000000   0.0000000   0.0000000   0.0000000   0.0000000   0.0000000   0.0000000   0.0000000
 NMagM=    0.0000000   2.7928460   2.7928460   0.0000000   2.7928460   2.7928460   0.0000000   2.7928460   2.7928460   2.7928460
 Leave Link  101 at Fri Sep 18 13:21:16 2015, MaxMem=  402653184 cpu:       0.1
 (Enter /share/apps/g09/l103.exe)

 GradGradGradGradGradGradGradGradGradGradGradGradGradGradGradGradGradGrad
 Berny optimization.
 Initialization pass.
                           ----------------------------
                           !    Initial Parameters    !
                           ! (Angstroms and Degrees)  !
 --------------------------                            --------------------------
 ! Name  Definition              Value          Derivative Info.                !
 --------------------------------------------------------------------------------
 ! R1    R(1,2)                  1.0958         estimate D2E/DX2                !
 ! R2    R(1,3)                  1.0958         estimate D2E/DX2                !
 ! R3    R(1,4)                  1.0956         estimate D2E/DX2                !
 ! R4    R(1,5)                  1.5272         estimate D2E/DX2                !
 ! R5    R(5,6)                  1.1078         estimate D2E/DX2                !
 ! R6    R(5,7)                  1.1074         estimate D2E/DX2                !
 ! R7    R(5,8)                  1.5352         estimate D2E/DX2                !
 ! R8    R(8,9)                  1.1069         estimate D2E/DX2                !
 ! R9    R(8,10)                 1.1075         estimate D2E/DX2                !
 ! R10   R(8,11)                 1.5346         estimate D2E/DX2                !
 ! R11   R(11,12)                1.1075         estimate D2E/DX2                !
 ! R12   R(11,13)                1.1069         estimate D2E/DX2                !
 ! R13   R(11,14)                1.5352         estimate D2E/DX2                !
 ! R14   R(14,15)                1.1078         estimate D2E/DX2                !
 ! R15   R(14,16)                1.1074         estimate D2E/DX2                !
 ! R16   R(14,17)                1.5272         estimate D2E/DX2                !
 ! R17   R(17,18)                1.0958         estimate D2E/DX2                !
 ! R18   R(17,19)                1.0956         estimate D2E/DX2                !
 ! R19   R(17,20)                1.0958         estimate D2E/DX2                !
 ! A1    A(2,1,3)              107.3696         estimate D2E/DX2                !
 ! A2    A(2,1,4)              107.4194         estimate D2E/DX2                !
 ! A3    A(2,1,5)              111.6209         estimate D2E/DX2                !
 ! A4    A(3,1,4)              107.4212         estimate D2E/DX2                !
 ! A5    A(3,1,5)              111.6038         estimate D2E/DX2                !
 ! A6    A(4,1,5)              111.1773         estimate D2E/DX2                !
 ! A7    A(1,5,6)              109.7678         estimate D2E/DX2                !
 ! A8    A(1,5,7)              109.7888         estimate D2E/DX2                !
 ! A9    A(1,5,8)              111.7769         estimate D2E/DX2                !
 ! A10   A(6,5,7)              105.7503         estimate D2E/DX2                !
 ! A11   A(6,5,8)              109.7857         estimate D2E/DX2                !
 ! A12   A(7,5,8)              109.794          estimate D2E/DX2                !
 ! A13   A(5,8,9)              109.8213         estimate D2E/DX2                !
 ! A14   A(5,8,10)             109.4601         estimate D2E/DX2                !
 ! A15   A(5,8,11)             112.5706         estimate D2E/DX2                !
 ! A16   A(9,8,10)             105.5475         estimate D2E/DX2                !
 ! A17   A(9,8,11)             109.9965         estimate D2E/DX2                !
 ! A18   A(10,8,11)            109.2009         estimate D2E/DX2                !
 ! A19   A(8,11,12)            109.2009         estimate D2E/DX2                !
 ! A20   A(8,11,13)            109.9965         estimate D2E/DX2                !
 ! A21   A(8,11,14)            112.5706         estimate D2E/DX2                !
 ! A22   A(12,11,13)           105.5475         estimate D2E/DX2                !
 ! A23   A(12,11,14)           109.46           estimate D2E/DX2                !
 ! A24   A(13,11,14)           109.8213         estimate D2E/DX2                !
 ! A25   A(11,14,15)           109.7856         estimate D2E/DX2                !
 ! A26   A(11,14,16)           109.794          estimate D2E/DX2                !
 ! A27   A(11,14,17)           111.7769         estimate D2E/DX2                !
 ! A28   A(15,14,16)           105.7503         estimate D2E/DX2                !
 ! A29   A(15,14,17)           109.7678         estimate D2E/DX2                !
 ! A30   A(16,14,17)           109.7888         estimate D2E/DX2                !
 ! A31   A(14,17,18)           111.6209         estimate D2E/DX2                !
 ! A32   A(14,17,19)           111.1773         estimate D2E/DX2                !
 ! A33   A(14,17,20)           111.6039         estimate D2E/DX2                !
 ! A34   A(18,17,19)           107.4193         estimate D2E/DX2                !
 ! A35   A(18,17,20)           107.3695         estimate D2E/DX2                !
 ! A36   A(19,17,20)           107.4212         estimate D2E/DX2                !
 ! D1    D(2,1,5,6)           -177.7808         estimate D2E/DX2                !
 ! D2    D(2,1,5,7)            -61.9411         estimate D2E/DX2                !
 ! D3    D(2,1,5,8)             60.1517         estimate D2E/DX2                !
 ! D4    D(3,1,5,6)             62.0638         estimate D2E/DX2                !
 ! D5    D(3,1,5,7)            177.9035         estimate D2E/DX2                !
 ! D6    D(3,1,5,8)            -60.0037         estimate D2E/DX2                !
 ! D7    D(4,1,5,6)            -57.8538         estimate D2E/DX2                !
 ! D8    D(4,1,5,7)             57.9858         estimate D2E/DX2                !
 ! D9    D(4,1,5,8)           -179.9214         estimate D2E/DX2                !
 ! D10   D(1,5,8,9)             57.6285         estimate D2E/DX2                !
 ! D11   D(1,5,8,10)           -57.8096         estimate D2E/DX2                !
 ! D12   D(1,5,8,11)          -179.4514         estimate D2E/DX2                !
 ! D13   D(6,5,8,9)            -64.4288         estimate D2E/DX2                !
 ! D14   D(6,5,8,10)          -179.8669         estimate D2E/DX2                !
 ! D15   D(6,5,8,11)            58.4913         estimate D2E/DX2                !
 ! D16   D(7,5,8,9)            179.7182         estimate D2E/DX2                !
 ! D17   D(7,5,8,10)            64.2801         estimate D2E/DX2                !
 ! D18   D(7,5,8,11)           -57.3616         estimate D2E/DX2                !
 ! D19   D(5,8,11,12)          165.0972         estimate D2E/DX2                !
 ! D20   D(5,8,11,13)           49.7081         estimate D2E/DX2                !
 ! D21   D(5,8,11,14)          -73.1139         estimate D2E/DX2                !
 ! D22   D(9,8,11,12)          -72.0808         estimate D2E/DX2                !
 ! D23   D(9,8,11,13)          172.53           estimate D2E/DX2                !
 ! D24   D(9,8,11,14)           49.708          estimate D2E/DX2                !
 ! D25   D(10,8,11,12)          43.3084         estimate D2E/DX2                !
 ! D26   D(10,8,11,13)         -72.0808         estimate D2E/DX2                !
 ! D27   D(10,8,11,14)         165.0972         estimate D2E/DX2                !
 ! D28   D(8,11,14,15)          58.4916         estimate D2E/DX2                !
 ! D29   D(8,11,14,16)         -57.3613         estimate D2E/DX2                !
 ! D30   D(8,11,14,17)        -179.4511         estimate D2E/DX2                !
 ! D31   D(12,11,14,15)       -179.8666         estimate D2E/DX2                !
 ! D32   D(12,11,14,16)         64.2805         estimate D2E/DX2                !
 ! D33   D(12,11,14,17)        -57.8094         estimate D2E/DX2                !
 ! D34   D(13,11,14,15)        -64.4286         estimate D2E/DX2                !
 ! D35   D(13,11,14,16)        179.7185         estimate D2E/DX2                !
 ! D36   D(13,11,14,17)         57.6287         estimate D2E/DX2                !
 ! D37   D(11,14,17,18)         60.1521         estimate D2E/DX2                !
 ! D38   D(11,14,17,19)       -179.921          estimate D2E/DX2                !
 ! D39   D(11,14,17,20)        -60.0033         estimate D2E/DX2                !
 ! D40   D(15,14,17,18)       -177.7804         estimate D2E/DX2                !
 ! D41   D(15,14,17,19)        -57.8536         estimate D2E/DX2                !
 ! D42   D(15,14,17,20)         62.0642         estimate D2E/DX2                !
 ! D43   D(16,14,17,18)        -61.9407         estimate D2E/DX2                !
 ! D44   D(16,14,17,19)         57.9861         estimate D2E/DX2                !
 ! D45   D(16,14,17,20)        177.9038         estimate D2E/DX2                !
 --------------------------------------------------------------------------------
 Trust Radius=3.00D-01 FncErr=1.00D-07 GrdErr=1.00D-06
 Number of steps in this run= 110 maximum allowed number of steps= 120.
 GradGradGradGradGradGradGradGradGradGradGradGradGradGradGradGradGradGrad

 Leave Link  103 at Fri Sep 18 13:21:16 2015, MaxMem=  402653184 cpu:       0.0
 (Enter /share/apps/g09/l202.exe)
                          Input orientation:                          
 ---------------------------------------------------------------------
 Center     Atomic      Atomic             Coordinates (Angstroms)
 Number     Number       Type             X           Y           Z
 ---------------------------------------------------------------------
      1          6           0        3.002241   -0.348980   -0.106807
      2          1           0        3.500518    0.589572    0.160756
      3          1           0        3.067327   -0.455104   -1.195526
      4          1           0        3.581278   -1.166007    0.337599
      5          6           0        1.553257   -0.374041    0.374964
      6          1           0        1.091893   -1.349465    0.124261
      7          1           0        1.524187   -0.302841    1.479702
      8          6           0        0.728364    0.764706   -0.241285
      9          1           0        0.761280    0.696945   -1.345619
     10          1           0        1.195489    1.736795    0.010535
     11          6           0       -0.728364    0.764706    0.241284
     12          1           0       -1.195491    1.736794   -0.010540
     13          1           0       -0.761280    0.696950    1.345619
     14          6           0       -1.553256   -0.374044   -0.374961
     15          1           0       -1.091893   -1.349467   -0.124249
     16          1           0       -1.524181   -0.302852   -1.479699
     17          6           0       -3.002241   -0.348979    0.106805
     18          1           0       -3.500519    0.589569   -0.160772
     19          1           0       -3.581276   -1.166012   -0.337593
     20          1           0       -3.067332   -0.455089    1.195525
 ---------------------------------------------------------------------
                    Distance matrix (angstroms):
                    1          2          3          4          5
     1  C    0.000000
     2  H    1.095787   0.000000
     3  H    1.095814   1.765928   0.000000
     4  H    1.095588   1.766311   1.766352   0.000000
     5  C    1.527182   2.183177   2.182984   2.177493   0.000000
     6  H    2.168823   3.092357   2.538515   2.505236   1.107773
     7  H    2.168821   2.538091   3.092137   2.506208   1.107412
     8  C    2.535527   2.806625   2.805220   3.493119   1.535238
     9  H    2.765957   3.127958   2.582169   3.775739   2.175924
    10  H    2.761988   2.579117   3.124545   3.771634   2.171735
    11  C    3.908820   4.233273   4.237880   4.723340   2.553509
    12  H    4.688355   4.837144   4.937634   5.600444   3.487098
    13  H    4.167445   4.424743   4.737391   4.831617   2.728786
    14  C    4.563451   5.172638   4.693579   5.243890   3.195749
    15  H    4.214643   4.993129   4.387098   4.699520   2.863126
    16  H    4.730270   5.360514   4.602812   5.487560   3.593810
    17  C    6.008280   6.570362   6.208622   6.638036   4.563453
    18  H    6.570363   7.008416   6.730428   7.313157   5.172640
    19  H    6.638034   7.313155   6.741317   7.194308   5.243890
    20  H    6.208627   6.730432   6.584160   6.741325   4.693584
                    6          7          8          9         10
     6  H    0.000000
     7  H    1.766216   0.000000
     8  C    2.176120   2.175957   0.000000
     9  H    2.541190   3.092578   1.106900   0.000000
    10  H    3.090092   2.535076   1.107509   1.763230   0.000000
    11  C    2.792266   2.783401   1.534578   2.177589   2.167813
    12  H    3.843864   3.711816   2.167814   2.587020   2.391073
    13  H    3.018904   2.498183   2.177589   3.092079   2.587020
    14  C    2.863125   3.593814   2.553509   2.728786   3.487097
    15  H    2.197880   3.242215   2.792268   3.018907   3.843865
    16  H    3.242211   4.248600   2.783399   2.498180   3.711814
    17  C    4.214642   4.730278   3.908820   4.167443   4.688353
    18  H    4.993130   5.360524   4.233274   4.424740   4.837144
    19  H    4.699518   5.487566   4.723340   4.831616   5.600443
    20  H    4.387102   4.602823   4.237880   4.737390   4.937631
                   11         12         13         14         15
    11  C    0.000000
    12  H    1.107510   0.000000
    13  H    1.106901   1.763231   0.000000
    14  C    1.535238   2.171736   2.175925   0.000000
    15  H    2.176119   3.090092   2.541189   1.107774   0.000000
    16  H    2.175957   2.535078   3.092579   1.107411   1.766216
    17  C    2.535527   2.761986   2.765960   1.527182   2.168823
    18  H    2.806629   2.579118   3.127967   2.183177   3.092357
    19  H    3.493119   3.771633   3.775739   2.177493   2.505234
    20  H    2.805218   3.124537   2.582169   2.182984   2.538518
                   16         17         18         19         20
    16  H    0.000000
    17  C    2.168821   0.000000
    18  H    2.538089   1.095788   0.000000
    19  H    2.506211   1.095588   1.766310   0.000000
    20  H    3.092138   1.095814   1.765928   1.766352   0.000000
 Stoichiometry    C6H14
 Framework group  C1[X(C6H14)]
 Deg. of freedom    54
 Full point group                 C1      NOp   1
 Largest Abelian subgroup         C1      NOp   1
 Largest concise Abelian subgroup C1      NOp   1
                         Standard orientation:                         
 ---------------------------------------------------------------------
 Center     Atomic      Atomic             Coordinates (Angstroms)
 Number     Number       Type             X           Y           Z
 ---------------------------------------------------------------------
      1          6           0        3.002241   -0.348980   -0.106807
      2          1           0        3.500518    0.589572    0.160756
      3          1           0        3.067327   -0.455104   -1.195526
      4          1           0        3.581278   -1.166007    0.337599
      5          6           0        1.553257   -0.374041    0.374964
      6          1           0        1.091893   -1.349465    0.124261
      7          1           0        1.524187   -0.302841    1.479702
      8          6           0        0.728364    0.764706   -0.241285
      9          1           0        0.761280    0.696945   -1.345619
     10          1           0        1.195489    1.736795    0.010535
     11          6           0       -0.728364    0.764706    0.241284
     12          1           0       -1.195491    1.736794   -0.010540
     13          1           0       -0.761280    0.696950    1.345619
     14          6           0       -1.553256   -0.374044   -0.374961
     15          1           0       -1.091893   -1.349467   -0.124249
     16          1           0       -1.524181   -0.302852   -1.479699
     17          6           0       -3.002241   -0.348979    0.106805
     18          1           0       -3.500519    0.589569   -0.160772
     19          1           0       -3.581276   -1.166012   -0.337593
     20          1           0       -3.067332   -0.455089    1.195525
 ---------------------------------------------------------------------
 Rotational constants (GHZ):      9.8351311      1.3163999      1.2549886
 Leave Link  202 at Fri Sep 18 13:21:16 2015, MaxMem=  402653184 cpu:       0.0
 (Enter /share/apps/g09/l301.exe)
 Standard basis: 6-31G(d) (6D, 7F)
 Ernie: Thresh=  0.10000D-02 Tol=  0.10000D-05 Strict=F.
 There are   118 symmetry adapted basis functions of A   symmetry.
 Integral buffers will be    131072 words long.
 Raffenetti 2 integral format.
 Two-electron integral symmetry is turned on.
   118 basis functions,   224 primitive gaussians,   118 cartesian basis functions
    25 alpha electrons       25 beta electrons
       nuclear repulsion energy       247.2842772247 Hartrees.
 IExCor=  402 DFT=T Ex+Corr=B3LYP ExCW=0 ScaHFX=  0.200000
 ScaDFX=  0.800000  0.720000  1.000000  0.810000 ScalE2=  1.000000  1.000000
 IRadAn=      5 IRanWt=     -1 IRanGd=            0 ICorTp=0
 NAtoms=   20 NActive=   20 NUniq=   20 SFac= 7.50D-01 NAtFMM=   80 NAOKFM=F Big=F
 Leave Link  301 at Fri Sep 18 13:21:16 2015, MaxMem=  402653184 cpu:       0.1
 (Enter /share/apps/g09/l302.exe)
 NPDir=0 NMtPBC=     1 NCelOv=     1 NCel=       1 NClECP=     1 NCelD=      1
         NCelK=      1 NCelE2=     1 NClLst=     1 CellRange=     0.0.
 One-electron integrals computed using PRISM.
 NBasis=   118 RedAO= T  NBF=   118
 NBsUse=   118 1.00D-06 NBFU=   118
 Precomputing XC quadrature grid using
 IXCGrd= 2 IRadAn=           5 IRanWt=          -1 IRanGd=           0 AccXCQ= 1.00D-10.
 NRdTot=    1656 NPtTot=      443652 NUsed=      455517 NTot=      455549
 NSgBfM=   118   118   118   118   118 NAtAll=    20    20.
 Leave Link  302 at Fri Sep 18 13:21:17 2015, MaxMem=  402653184 cpu:       1.2
 (Enter /share/apps/g09/l303.exe)
 DipDrv:  MaxL=1.
 Leave Link  303 at Fri Sep 18 13:21:17 2015, MaxMem=  402653184 cpu:       0.0
 (Enter /share/apps/g09/l401.exe)
 Harris functional with IExCor=  402 diagonalized for initial guess.
 ExpMin= 1.61D-01 ExpMax= 3.05D+03 ExpMxC= 4.57D+02 IAcc=3 IRadAn=         5 AccDes= 0.00D+00
 HarFok:  IExCor=  402 AccDes= 0.00D+00 IRadAn=         5 IDoV= 1
 ScaDFX=  1.000000  1.000000  1.000000  1.000000
 FoFCou: FMM=F IPFlag=           0 FMFlag=      100000 FMFlg1=           0
         NFxFlg=           0 DoJE=T BraDBF=F KetDBF=T FulRan=T
         Omega=  0.000000  0.000000  1.000000  0.000000  0.000000 ICntrl=     500 IOpCl=  0
         NMat0=    1 NMatS0=    1 NMatT0=    0 NMatD0=    1 NMtDS0=    0 NMtDT0=    0
         I1Cent=           4 NGrid=           0.
 Petite list used in FoFCou.
 Harris En= -237.178795362420    
 Initial guess orbital symmetries:
       Occupied  (A) (A) (A) (A) (A) (A) (A) (A) (A) (A) (A) (A)
                 (A) (A) (A) (A) (A) (A) (A) (A) (A) (A) (A) (A)
                 (A)
       Virtual   (A) (A) (A) (A) (A) (A) (A) (A) (A) (A) (A) (A)
                 (A) (A) (A) (A) (A) (A) (A) (A) (A) (A) (A) (A)
                 (A) (A) (A) (A) (A) (A) (A) (A) (A) (A) (A) (A)
                 (A) (A) (A) (A) (A) (A) (A) (A) (A) (A) (A) (A)
                 (A) (A) (A) (A) (A) (A) (A) (A) (A) (A) (A) (A)
                 (A) (A) (A) (A) (A) (A) (A) (A) (A) (A) (A) (A)
                 (A) (A) (A) (A) (A) (A) (A) (A) (A) (A) (A) (A)
                 (A) (A) (A) (A) (A) (A) (A) (A) (A)
 The electronic state of the initial guess is 1-A.
 Leave Link  401 at Fri Sep 18 13:21:22 2015, MaxMem=  402653184 cpu:       9.8
 (Enter /share/apps/g09/l502.exe)
 Closed shell SCF:
 Requested convergence on RMS density matrix=1.00D-08 within 128 cycles.
 Requested convergence on MAX density matrix=1.00D-06.
 Requested convergence on             energy=1.00D-06.
 No special actions if energy rises.
 Using DIIS extrapolation, IDIIS=  1040.
 Integral symmetry usage will be decided dynamically.
       455324 words used for storage of precomputed grid.
 Keep R1 ints in memory in canonical form, NReq=26109379.
 IEnd=      516868 IEndB=      516868 NGot=   402653184 MDV=   377516240
 LenX=   377516240 LenY=   377501875
 Symmetry not used in FoFDir.
 MinBra= 0 MaxBra= 2 Meth= 1.
 IRaf=       0 NMat=   1 IRICut=       1 DoRegI=T DoRafI=F ISym2E= 0 JSym2E=0.
 Integral accuracy reduced to 1.0D-05 until final iterations.

 Cycle   1  Pass 0  IDiag  1:
 E= -236.793244107250    
 DIIS: error= 4.60D-02 at cycle   1 NSaved=   1.
 NSaved= 1 IEnMin= 1 EnMin= -236.793244107250     IErMin= 1 ErrMin= 4.60D-02
 ErrMax= 4.60D-02 EMaxC= 1.00D-01 BMatC= 2.54D-01 BMatP= 2.54D-01
 IDIUse=3 WtCom= 5.40D-01 WtEn= 4.60D-01
 Coeff-Com:  0.100D+01
 Coeff-En:   0.100D+01
 Coeff:      0.100D+01
 Gap=     0.354 Goal=   None    Shift=    0.000
 GapD=    0.354 DampG=1.000 DampE=0.500 DampFc=0.5000 IDamp=-1.
 Damping current iteration by 5.00D-01
 RMSDP=1.01D-02 MaxDP=1.46D-01              OVMax= 1.90D-01

 Cycle   2  Pass 0  IDiag  1:
 E= -236.920867847833     Delta-E=       -0.127623740584 Rises=F Damp=T
 DIIS: error= 7.76D-03 at cycle   2 NSaved=   2.
 NSaved= 2 IEnMin= 2 EnMin= -236.920867847833     IErMin= 2 ErrMin= 7.76D-03
 ErrMax= 7.76D-03 EMaxC= 1.00D-01 BMatC= 9.67D-03 BMatP= 2.54D-01
 IDIUse=3 WtCom= 9.22D-01 WtEn= 7.76D-02
 Coeff-Com:  0.854D-01 0.915D+00
 Coeff-En:   0.139D+00 0.861D+00
 Coeff:      0.896D-01 0.910D+00
 Gap=     0.403 Goal=   None    Shift=    0.000
 RMSDP=1.47D-03 MaxDP=2.37D-02 DE=-1.28D-01 OVMax= 1.02D-01

 Cycle   3  Pass 0  IDiag  1:
 E= -237.082165389052     Delta-E=       -0.161297541218 Rises=F Damp=F
 DIIS: error= 2.42D-03 at cycle   3 NSaved=   3.
 NSaved= 3 IEnMin= 3 EnMin= -237.082165389052     IErMin= 3 ErrMin= 2.42D-03
 ErrMax= 2.42D-03 EMaxC= 1.00D-01 BMatC= 6.73D-04 BMatP= 9.67D-03
 IDIUse=3 WtCom= 9.76D-01 WtEn= 2.42D-02
 Coeff-Com:  0.543D-02 0.149D+00 0.845D+00
 Coeff-En:   0.000D+00 0.000D+00 0.100D+01
 Coeff:      0.530D-02 0.146D+00 0.849D+00
 Gap=     0.397 Goal=   None    Shift=    0.000
 RMSDP=3.79D-04 MaxDP=4.68D-03 DE=-1.61D-01 OVMax= 8.65D-03

 Cycle   4  Pass 0  IDiag  1:
 E= -237.082545021402     Delta-E=       -0.000379632350 Rises=F Damp=F
 DIIS: error= 1.25D-03 at cycle   4 NSaved=   4.
 NSaved= 4 IEnMin= 4 EnMin= -237.082545021402     IErMin= 4 ErrMin= 1.25D-03
 ErrMax= 1.25D-03 EMaxC= 1.00D-01 BMatC= 2.96D-04 BMatP= 6.73D-04
 IDIUse=3 WtCom= 9.87D-01 WtEn= 1.25D-02
 Coeff-Com: -0.942D-04 0.254D-01 0.403D+00 0.572D+00
 Coeff-En:   0.000D+00 0.000D+00 0.273D+00 0.727D+00
 Coeff:     -0.931D-04 0.250D-01 0.401D+00 0.574D+00
 Gap=     0.398 Goal=   None    Shift=    0.000
 RMSDP=1.56D-04 MaxDP=2.76D-03 DE=-3.80D-04 OVMax= 4.25D-03

 Cycle   5  Pass 0  IDiag  1:
 E= -237.082821555027     Delta-E=       -0.000276533625 Rises=F Damp=F
 DIIS: error= 2.59D-04 at cycle   5 NSaved=   5.
 NSaved= 5 IEnMin= 5 EnMin= -237.082821555027     IErMin= 5 ErrMin= 2.59D-04
 ErrMax= 2.59D-04 EMaxC= 1.00D-01 BMatC= 1.38D-05 BMatP= 2.96D-04
 IDIUse=3 WtCom= 9.97D-01 WtEn= 2.59D-03
 Coeff-Com:  0.768D-04-0.153D-02 0.998D-01 0.238D+00 0.664D+00
 Coeff-En:   0.000D+00 0.000D+00 0.000D+00 0.000D+00 0.100D+01
 Coeff:      0.766D-04-0.153D-02 0.995D-01 0.237D+00 0.665D+00
 Gap=     0.398 Goal=   None    Shift=    0.000
 RMSDP=2.83D-05 MaxDP=5.71D-04 DE=-2.77D-04 OVMax= 7.05D-04

 Cycle   6  Pass 0  IDiag  1:
 E= -237.082834552493     Delta-E=       -0.000012997466 Rises=F Damp=F
 DIIS: error= 3.20D-05 at cycle   6 NSaved=   6.
 NSaved= 6 IEnMin= 6 EnMin= -237.082834552493     IErMin= 6 ErrMin= 3.20D-05
 ErrMax= 3.20D-05 EMaxC= 1.00D-01 BMatC= 1.58D-07 BMatP= 1.38D-05
 IDIUse=1 WtCom= 1.00D+00 WtEn= 0.00D+00
 Coeff-Com:  0.111D-03-0.980D-03 0.285D-01 0.734D-01 0.230D+00 0.669D+00
 Coeff:      0.111D-03-0.980D-03 0.285D-01 0.734D-01 0.230D+00 0.669D+00
 Gap=     0.398 Goal=   None    Shift=    0.000
 RMSDP=4.85D-06 MaxDP=7.54D-05 DE=-1.30D-05 OVMax= 1.05D-04

 Initial convergence to 1.0D-05 achieved.  Increase integral accuracy.
 Cycle   7  Pass 1  IDiag  1:
 E= -237.082854646009     Delta-E=       -0.000020093517 Rises=F Damp=F
 DIIS: error= 1.17D-05 at cycle   1 NSaved=   1.
 NSaved= 1 IEnMin= 1 EnMin= -237.082854646009     IErMin= 1 ErrMin= 1.17D-05
 ErrMax= 1.17D-05 EMaxC= 1.00D-01 BMatC= 2.68D-08 BMatP= 2.68D-08
 IDIUse=1 WtCom= 1.00D+00 WtEn= 0.00D+00
 Coeff-Com:  0.100D+01
 Coeff:      0.100D+01
 Gap=     0.398 Goal=   None    Shift=    0.000
 RMSDP=4.85D-06 MaxDP=7.54D-05 DE=-2.01D-05 OVMax= 6.26D-05

 Cycle   8  Pass 1  IDiag  1:
 E= -237.082854631828     Delta-E=        0.000000014182 Rises=F Damp=F
 DIIS: error= 1.49D-05 at cycle   2 NSaved=   2.
 NSaved= 2 IEnMin= 1 EnMin= -237.082854646009     IErMin= 1 ErrMin= 1.17D-05
 ErrMax= 1.49D-05 EMaxC= 1.00D-01 BMatC= 4.20D-08 BMatP= 2.68D-08
 IDIUse=1 WtCom= 1.00D+00 WtEn= 0.00D+00
 Coeff-Com:  0.557D+00 0.443D+00
 Coeff:      0.557D+00 0.443D+00
 Gap=     0.398 Goal=   None    Shift=    0.000
 RMSDP=1.55D-06 MaxDP=2.90D-05 DE= 1.42D-08 OVMax= 3.68D-05

 Cycle   9  Pass 1  IDiag  1:
 E= -237.082854672481     Delta-E=       -0.000000040653 Rises=F Damp=F
 DIIS: error= 4.76D-07 at cycle   3 NSaved=   3.
 NSaved= 3 IEnMin= 3 EnMin= -237.082854672481     IErMin= 3 ErrMin= 4.76D-07
 ErrMax= 4.76D-07 EMaxC= 1.00D-01 BMatC= 4.17D-11 BMatP= 2.68D-08
 IDIUse=1 WtCom= 1.00D+00 WtEn= 0.00D+00
 Coeff-Com:  0.546D-01 0.579D-01 0.887D+00
 Coeff:      0.546D-01 0.579D-01 0.887D+00
 Gap=     0.398 Goal=   None    Shift=    0.000
 RMSDP=9.61D-08 MaxDP=1.17D-06 DE=-4.07D-08 OVMax= 1.85D-06

 Cycle  10  Pass 1  IDiag  1:
 E= -237.082854672507     Delta-E=       -0.000000000026 Rises=F Damp=F
 DIIS: error= 2.41D-07 at cycle   4 NSaved=   4.
 NSaved= 4 IEnMin= 4 EnMin= -237.082854672507     IErMin= 4 ErrMin= 2.41D-07
 ErrMax= 2.41D-07 EMaxC= 1.00D-01 BMatC= 1.55D-11 BMatP= 4.17D-11
 IDIUse=1 WtCom= 1.00D+00 WtEn= 0.00D+00
 Coeff-Com: -0.206D-02 0.495D-02 0.409D+00 0.589D+00
 Coeff:     -0.206D-02 0.495D-02 0.409D+00 0.589D+00
 Gap=     0.398 Goal=   None    Shift=    0.000
 RMSDP=3.73D-08 MaxDP=6.08D-07 DE=-2.62D-11 OVMax= 9.23D-07

 Cycle  11  Pass 1  IDiag  1:
 E= -237.082854672524     Delta-E=       -0.000000000016 Rises=F Damp=F
 DIIS: error= 7.81D-08 at cycle   5 NSaved=   5.
 NSaved= 5 IEnMin= 5 EnMin= -237.082854672524     IErMin= 5 ErrMin= 7.81D-08
 ErrMax= 7.81D-08 EMaxC= 1.00D-01 BMatC= 8.89D-13 BMatP= 1.55D-11
 IDIUse=1 WtCom= 1.00D+00 WtEn= 0.00D+00
 Coeff-Com: -0.502D-02-0.209D-02 0.122D+00 0.263D+00 0.622D+00
 Coeff:     -0.502D-02-0.209D-02 0.122D+00 0.263D+00 0.622D+00
 Gap=     0.398 Goal=   None    Shift=    0.000
 RMSDP=8.38D-09 MaxDP=1.21D-07 DE=-1.64D-11 OVMax= 2.26D-07

 SCF Done:  E(RB3LYP) =  -237.082854673     A.U. after   11 cycles
             Convg  =    0.8377D-08             -V/T =  2.0107
 KE= 2.345843547462D+02 PE=-1.041468485301D+03 EE= 3.225169986576D+02
 Leave Link  502 at Fri Sep 18 13:22:08 2015, MaxMem=  402653184 cpu:      91.3
 (Enter /share/apps/g09/l601.exe)
 Copying SCF densities to generalized density rwf, IOpCl= 0 IROHF=0.

 **********************************************************************

            Population analysis using the SCF density.

 **********************************************************************

 Orbital symmetries:
       Occupied  (A) (A) (A) (A) (A) (A) (A) (A) (A) (A) (A) (A)
                 (A) (A) (A) (A) (A) (A) (A) (A) (A) (A) (A) (A)
                 (A)
       Virtual   (A) (A) (A) (A) (A) (A) (A) (A) (A) (A) (A) (A)
                 (A) (A) (A) (A) (A) (A) (A) (A) (A) (A) (A) (A)
                 (A) (A) (A) (A) (A) (A) (A) (A) (A) (A) (A) (A)
                 (A) (A) (A) (A) (A) (A) (A) (A) (A) (A) (A) (A)
                 (A) (A) (A) (A) (A) (A) (A) (A) (A) (A) (A) (A)
                 (A) (A) (A) (A) (A) (A) (A) (A) (A) (A) (A) (A)
                 (A) (A) (A) (A) (A) (A) (A) (A) (A) (A) (A) (A)
                 (A) (A) (A) (A) (A) (A) (A) (A) (A)
 The electronic state is 1-A.
 Alpha  occ. eigenvalues --  -10.17700 -10.17700 -10.17475 -10.17454 -10.16877
 Alpha  occ. eigenvalues --  -10.16877  -0.80011  -0.75945  -0.70273  -0.62990
 Alpha  occ. eigenvalues --   -0.59003  -0.55966  -0.45768  -0.45246  -0.42949
 Alpha  occ. eigenvalues --   -0.40618  -0.40531  -0.38431  -0.35987  -0.35154
 Alpha  occ. eigenvalues --   -0.34267  -0.32723  -0.32131  -0.30499  -0.30377
 Alpha virt. eigenvalues --    0.09435   0.10540   0.11694   0.12237   0.13819
 Alpha virt. eigenvalues --    0.16336   0.16480   0.17779   0.18231   0.18353
 Alpha virt. eigenvalues --    0.19584   0.20015   0.20354   0.22484   0.24618
 Alpha virt. eigenvalues --    0.25770   0.26881   0.27183   0.28176   0.50211
 Alpha virt. eigenvalues --    0.50696   0.51882   0.54444   0.55496   0.56060
 Alpha virt. eigenvalues --    0.59144   0.61386   0.63922   0.64231   0.69059
 Alpha virt. eigenvalues --    0.70298   0.71885   0.76724   0.78764   0.81259
 Alpha virt. eigenvalues --    0.85619   0.86434   0.87154   0.88192   0.90163
 Alpha virt. eigenvalues --    0.91012   0.92027   0.92089   0.93456   0.94655
 Alpha virt. eigenvalues --    0.95726   0.96983   0.98510   0.99862   1.02091
 Alpha virt. eigenvalues --    1.07027   1.12325   1.23683   1.42783   1.42955
 Alpha virt. eigenvalues --    1.44239   1.46068   1.56582   1.58211   1.69475
 Alpha virt. eigenvalues --    1.73676   1.77145   1.83076   1.87584   1.90520
 Alpha virt. eigenvalues --    1.91261   1.93647   1.97631   1.98896   2.00004
 Alpha virt. eigenvalues --    2.03653   2.07945   2.16726   2.19458   2.24072
 Alpha virt. eigenvalues --    2.27338   2.32580   2.33435   2.36579   2.38026
 Alpha virt. eigenvalues --    2.43607   2.46132   2.52335   2.61407   2.69171
 Alpha virt. eigenvalues --    2.70872   2.83106   4.11729   4.19115   4.29419
 Alpha virt. eigenvalues --    4.36803   4.47440   4.55657
          Condensed to atoms (all electrons):
              1          2          3          4          5          6
     1  C    5.065514   0.377899   0.378199   0.370674   0.372009  -0.036872
     2  H    0.377899   0.579818  -0.033349  -0.031729  -0.034461   0.005076
     3  H    0.378199  -0.033349   0.579402  -0.031526  -0.034536  -0.004476
     4  H    0.370674  -0.031729  -0.031526   0.582879  -0.028559  -0.002636
     5  C    0.372009  -0.034461  -0.034536  -0.028559   4.957880   0.376841
     6  H   -0.036872   0.005076  -0.004476  -0.002636   0.376841   0.607213
     7  H   -0.037864  -0.004562   0.005175  -0.002687   0.375725  -0.040479
     8  C   -0.046462  -0.004538  -0.004618   0.004475   0.391330  -0.041492
     9  H   -0.002977  -0.000396   0.004920  -0.000032  -0.040858  -0.005157
    10  H   -0.003552   0.005029  -0.000398  -0.000018  -0.039698   0.005737
    11  C    0.004156   0.000023   0.000077  -0.000158  -0.040741  -0.003464
    12  H   -0.000171  -0.000005   0.000003   0.000003   0.004743  -0.000031
    13  H    0.000117   0.000006   0.000009  -0.000002  -0.008041  -0.000084
    14  C    0.000179  -0.000001  -0.000012   0.000001  -0.006269   0.001922
    15  H   -0.000159   0.000000   0.000015   0.000008   0.001922   0.004293
    16  H   -0.000019   0.000001  -0.000004   0.000000  -0.000324   0.000289
    17  C   -0.000001   0.000000   0.000000   0.000000   0.000179  -0.000159
    18  H    0.000000   0.000000   0.000000   0.000000  -0.000001   0.000000
    19  H    0.000000   0.000000   0.000000   0.000000   0.000001   0.000008
    20  H    0.000000   0.000000   0.000000   0.000000  -0.000012   0.000015
              7          8          9         10         11         12
     1  C   -0.037864  -0.046462  -0.002977  -0.003552   0.004156  -0.000171
     2  H   -0.004562  -0.004538  -0.000396   0.005029   0.000023  -0.000005
     3  H    0.005175  -0.004618   0.004920  -0.000398   0.000077   0.000003
     4  H   -0.002687   0.004475  -0.000032  -0.000018  -0.000158   0.000003
     5  C    0.375725   0.391330  -0.040858  -0.039698  -0.040741   0.004743
     6  H   -0.040479  -0.041492  -0.005157   0.005737  -0.003464  -0.000031
     7  H    0.613047  -0.039662   0.005701  -0.005264  -0.003786   0.000049
     8  C   -0.039662   4.991524   0.371628   0.367480   0.370530  -0.032823
     9  H    0.005701   0.371628   0.617895  -0.040048  -0.038340  -0.001305
    10  H   -0.005264   0.367480  -0.040048   0.621619  -0.032823  -0.005206
    11  C   -0.003786   0.370530  -0.038340  -0.032823   4.991525   0.367480
    12  H    0.000049  -0.032823  -0.001305  -0.005206   0.367480   0.621620
    13  H    0.006006  -0.038340   0.005567  -0.001305   0.371628  -0.040048
    14  C   -0.000324  -0.040741  -0.008041   0.004743   0.391330  -0.039699
    15  H    0.000289  -0.003464  -0.000084  -0.000031  -0.041492   0.005737
    16  H    0.000036  -0.003786   0.006006   0.000049  -0.039662  -0.005264
    17  C   -0.000019   0.004156   0.000117  -0.000171  -0.046462  -0.003552
    18  H    0.000001   0.000023   0.000006  -0.000005  -0.004538   0.005029
    19  H    0.000000  -0.000158  -0.000002   0.000003   0.004475  -0.000018
    20  H   -0.000004   0.000077   0.000009   0.000003  -0.004618  -0.000398
             13         14         15         16         17         18
     1  C    0.000117   0.000179  -0.000159  -0.000019  -0.000001   0.000000
     2  H    0.000006  -0.000001   0.000000   0.000001   0.000000   0.000000
     3  H    0.000009  -0.000012   0.000015  -0.000004   0.000000   0.000000
     4  H   -0.000002   0.000001   0.000008   0.000000   0.000000   0.000000
     5  C   -0.008041  -0.006269   0.001922  -0.000324   0.000179  -0.000001
     6  H   -0.000084   0.001922   0.004293   0.000289  -0.000159   0.000000
     7  H    0.006006  -0.000324   0.000289   0.000036  -0.000019   0.000001
     8  C   -0.038340  -0.040741  -0.003464  -0.003786   0.004156   0.000023
     9  H    0.005567  -0.008041  -0.000084   0.006006   0.000117   0.000006
    10  H   -0.001305   0.004743  -0.000031   0.000049  -0.000171  -0.000005
    11  C    0.371628   0.391330  -0.041492  -0.039662  -0.046462  -0.004538
    12  H   -0.040048  -0.039699   0.005737  -0.005264  -0.003552   0.005029
    13  H    0.617895  -0.040857  -0.005157   0.005701  -0.002977  -0.000396
    14  C   -0.040857   4.957880   0.376841   0.375725   0.372009  -0.034461
    15  H   -0.005157   0.376841   0.607213  -0.040479  -0.036872   0.005076
    16  H    0.005701   0.375725  -0.040479   0.613047  -0.037864  -0.004562
    17  C   -0.002977   0.372009  -0.036872  -0.037864   5.065514   0.377899
    18  H   -0.000396  -0.034461   0.005076  -0.004562   0.377899   0.579818
    19  H   -0.000032  -0.028559  -0.002636  -0.002687   0.370674  -0.031729
    20  H    0.004920  -0.034536  -0.004476   0.005175   0.378199  -0.033349
             19         20
     1  C    0.000000   0.000000
     2  H    0.000000   0.000000
     3  H    0.000000   0.000000
     4  H    0.000000   0.000000
     5  C    0.000001  -0.000012
     6  H    0.000008   0.000015
     7  H    0.000000  -0.000004
     8  C   -0.000158   0.000077
     9  H   -0.000002   0.000009
    10  H    0.000003   0.000003
    11  C    0.004475  -0.004618
    12  H   -0.000018  -0.000398
    13  H   -0.000032   0.004920
    14  C   -0.028559  -0.034536
    15  H   -0.002636  -0.004476
    16  H   -0.002687   0.005175
    17  C    0.370674   0.378199
    18  H   -0.031729  -0.033349
    19  H    0.582880  -0.031526
    20  H   -0.031526   0.579402
 Mulliken atomic charges:
              1
     1  C   -0.440670
     2  H    0.141189
     3  H    0.141121
     4  H    0.139306
     5  C   -0.247131
     6  H    0.133457
     7  H    0.128622
     8  C   -0.245140
     9  H    0.125391
    10  H    0.123854
    11  C   -0.245141
    12  H    0.123854
    13  H    0.125391
    14  C   -0.247131
    15  H    0.133457
    16  H    0.128622
    17  C   -0.440670
    18  H    0.141189
    19  H    0.139306
    20  H    0.141121
 Sum of Mulliken atomic charges =   0.00000
 Mulliken charges with hydrogens summed into heavy atoms:
              1
     1  C   -0.019053
     5  C    0.014948
     8  C    0.004105
    11  C    0.004104
    14  C    0.014948
    17  C   -0.019053
 Sum of Mulliken charges with hydrogens summed into heavy atoms =   0.00000
 Electronic spatial extent (au):  <R**2>=           1028.6638
 Charge=              0.0000 electrons
 Dipole moment (field-independent basis, Debye):
    X=              0.0000    Y=             -0.0137    Z=              0.0000  Tot=              0.0137
 Quadrupole moment (field-independent basis, Debye-Ang):
   XX=            -42.6379   YY=            -41.3169   ZZ=            -41.1411
   XY=              0.0000   XZ=              0.2966   YZ=              0.0000
 Traceless Quadrupole moment (field-independent basis, Debye-Ang):
   XX=             -0.9393   YY=              0.3818   ZZ=              0.5575
   XY=              0.0000   XZ=              0.2966   YZ=              0.0000
 Octapole moment (field-independent basis, Debye-Ang**2):
  XXX=              0.0000  YYY=             -0.0414  ZZZ=              0.0000  XYY=              0.0000
  XXY=              0.6224  XXZ=              0.0000  XZZ=              0.0000  YZZ=             -0.2150
  YYZ=              0.0000  XYZ=              0.2528
 Hexadecapole moment (field-independent basis, Debye-Ang**3):
 XXXX=          -1183.1484 YYYY=           -161.0851 ZZZZ=           -103.4633 XXXY=              0.0000
 XXXZ=              6.8388 YYYX=              0.0000 YYYZ=              0.0000 ZZZX=             -1.9404
 ZZZY=              0.0000 XXYY=           -215.1625 XXZZ=           -209.8931 YYZZ=            -46.6008
 XXYZ=              0.0000 YYXZ=              2.5905 ZZXY=              0.0000
 N-N= 2.472842772247D+02 E-N=-1.041468479487D+03  KE= 2.345843547462D+02
 No NMR shielding tensors so no spin-rotation constants.
 Leave Link  601 at Fri Sep 18 13:22:08 2015, MaxMem=  402653184 cpu:       0.3
 (Enter /share/apps/g09/l701.exe)
 Compute integral first derivatives.
 ... and contract with generalized density number  0.
 Leave Link  701 at Fri Sep 18 13:22:08 2015, MaxMem=  402653184 cpu:       0.3
 (Enter /share/apps/g09/l702.exe)
 L702 exits ... SP integral derivatives will be done elsewhere.
 Leave Link  702 at Fri Sep 18 13:22:08 2015, MaxMem=  402653184 cpu:       0.0
 (Enter /share/apps/g09/l703.exe)
 Compute integral first derivatives, UseDBF=F ICtDFT=           0.
 Integral derivatives from FoFDir, PRISM(SPDF).
 Calling FoFJK, ICntrl=      2127 FMM=F ISym2X=0 I1Cent= 0 IOpClX= 0 NMat=1 NMatS=1 NMatT=0.
 FoFCou: FMM=F IPFlag=           0 FMFlag=      100000 FMFlg1=         800
         NFxFlg=           0 DoJE=F BraDBF=F KetDBF=F FulRan=T
         Omega=  0.000000  0.000000  1.000000  0.000000  0.000000 ICntrl=    2127 IOpCl=  0
         NMat0=    1 NMatS0=    1 NMatT0=    0 NMatD0=    1 NMtDS0=    0 NMtDT0=    0
         I1Cent=           0 NGrid=           0.
 Symmetry not used in FoFCou.
 Leave Link  703 at Fri Sep 18 13:22:20 2015, MaxMem=  402653184 cpu:      23.8
 (Enter /share/apps/g09/l716.exe)
 Dipole        = 3.90602750D-09-5.39822186D-03-1.57761409D-07
 ***** Axes restored to original set *****
 -------------------------------------------------------------------
 Center     Atomic                   Forces (Hartrees/Bohr)
 Number     Number              X              Y              Z
 -------------------------------------------------------------------
      1        6           0.003603991   -0.003972441    0.001615944
      2        1          -0.000435557    0.001049528    0.000437735
      3        1          -0.000720067   -0.000019725   -0.000829700
      4        1           0.001065059   -0.000398810   -0.000056638
      5        6          -0.000342613   -0.001694677   -0.000699856
      6        1           0.003625615    0.005303771    0.000895508
      7        1          -0.000122271    0.000900316   -0.005200477
      8        6           0.001065561    0.004539395    0.004005132
      9        1          -0.000819178   -0.000528048    0.004472088
     10        1          -0.000642031   -0.005179288   -0.000159296
     11        6          -0.001065896    0.004539896   -0.004004977
     12        1           0.000642333   -0.005179671    0.000159416
     13        1           0.000819152   -0.000528122   -0.004472518
     14        6           0.000343208   -0.001695194    0.000700487
     15        1          -0.003625800    0.005304086   -0.000895695
     16        1           0.000122155    0.000900406    0.005200277
     17        6          -0.003604625   -0.003972225   -0.001616187
     18        1           0.000435727    0.001049352   -0.000437654
     19        1          -0.001064968   -0.000398783    0.000056676
     20        1           0.000720204   -0.000019767    0.000829734
 -------------------------------------------------------------------
 Cartesian Forces:  Max     0.005304086 RMS     0.002548197
 Leave Link  716 at Fri Sep 18 13:22:20 2015, MaxMem=  402653184 cpu:       0.1
 (Enter /share/apps/g09/l103.exe)

 GradGradGradGradGradGradGradGradGradGradGradGradGradGradGradGradGradGrad
 Berny optimization.
 Internal  Forces:  Max     0.009357638 RMS     0.002550562
 Search for a local minimum.
 Step number   1 out of a maximum of  110
 All quantities printed in internal units (Hartrees-Bohrs-Radians)
 RMS Force = .25506D-02 SwitMx=.10000D-02 MixMth= 1
 Mixed Optimization -- RFO/linear search
 Second derivative matrix not updated -- first step.
     Eigenvalues ---    0.00300   0.00300   0.00309   0.00406   0.00406
     Eigenvalues ---    0.03446   0.03446   0.03564   0.03565   0.04764
     Eigenvalues ---    0.04764   0.04818   0.04818   0.05441   0.05441
     Eigenvalues ---    0.05489   0.05489   0.08223   0.08223   0.08335
     Eigenvalues ---    0.08335   0.12123   0.12123   0.12212   0.12212
     Eigenvalues ---    0.16000   0.16000   0.16000   0.16000   0.16000
     Eigenvalues ---    0.16000   0.21853   0.21853   0.21864   0.21864
     Eigenvalues ---    0.28945   0.28945   0.29005   0.29685   0.29685
     Eigenvalues ---    0.32837   0.32837   0.32865   0.32865   0.32876
     Eigenvalues ---    0.32876   0.32930   0.32930   0.34149   0.34149
     Eigenvalues ---    0.34152   0.34152   0.34175   0.341751000.00000
     Eigenvalues --- 1000.000001000.000001000.000001000.000001000.00000
     Eigenvalues --- 1000.000001000.000001000.000001000.000001000.00000
     Eigenvalues --- 1000.000001000.000001000.000001000.000001000.00000
     Eigenvalues --- 1000.000001000.000001000.000001000.000001000.00000
     Eigenvalues --- 1000.000001000.000001000.000001000.000001000.00000
     Eigenvalues --- 1000.000001000.000001000.000001000.000001000.00000
     Eigenvalues --- 1000.000001000.000001000.000001000.000001000.00000
     Eigenvalues --- 1000.000001000.000001000.000001000.000001000.00000
     Eigenvalues --- 1000.000001000.000001000.000001000.000001000.00000
 RFO step:  Lambda=-2.73256073D-03 EMin= 2.99813850D-03
 Linear search not attempted -- first point.
 Iteration  1 RMS(Cart)=  0.05153181 RMS(Int)=  0.00049471
 Iteration  2 RMS(Cart)=  0.00071235 RMS(Int)=  0.00009239
 Iteration  3 RMS(Cart)=  0.00000042 RMS(Int)=  0.00009239
 Variable       Old X    -DE/DX   Delta X   Delta X   Delta X     New X
                                 (Linear)    (Quad)   (Total)
    R1        2.07074   0.00081   0.00000   0.00235   0.00235   2.07308
    R2        2.07079   0.00078   0.00000   0.00227   0.00227   2.07306
    R3        2.07036   0.00084   0.00000   0.00243   0.00243   2.07279
    R4        2.88596   0.00291   0.00000   0.00971   0.00971   2.89567
    R5        2.09339  -0.00638   0.00000  -0.01928  -0.01928   2.07411
    R6        2.09270  -0.00513   0.00000  -0.01546  -0.01546   2.07724
    R7        2.90118   0.00118   0.00000   0.00404   0.00404   2.90522
    R8        2.09174  -0.00445   0.00000  -0.01341  -0.01341   2.07832
    R9        2.09289  -0.00485   0.00000  -0.01464  -0.01464   2.07824
   R10        2.89993   0.00455   0.00000   0.01554   0.01554   2.91547
   R11        2.09289  -0.00485   0.00000  -0.01465  -0.01465   2.07824
   R12        2.09174  -0.00445   0.00000  -0.01342  -0.01342   2.07832
   R13        2.90118   0.00118   0.00000   0.00404   0.00404   2.90522
   R14        2.09339  -0.00638   0.00000  -0.01928  -0.01928   2.07411
   R15        2.09270  -0.00513   0.00000  -0.01546  -0.01546   2.07724
   R16        2.88596   0.00291   0.00000   0.00971   0.00971   2.89567
   R17        2.07074   0.00081   0.00000   0.00235   0.00235   2.07308
   R18        2.07036   0.00084   0.00000   0.00243   0.00243   2.07279
   R19        2.07079   0.00078   0.00000   0.00227   0.00227   2.07306
    A1        1.87395   0.00086   0.00000   0.00109   0.00101   1.87496
    A2        1.87482   0.00008   0.00000   0.00256   0.00259   1.87741
    A3        1.94815  -0.00135   0.00000  -0.00944  -0.00947   1.93868
    A4        1.87485  -0.00002   0.00000   0.00200   0.00203   1.87688
    A5        1.94785  -0.00113   0.00000  -0.00806  -0.00810   1.93976
    A6        1.94041   0.00163   0.00000   0.01225   0.01228   1.95269
    A7        1.91581  -0.00251   0.00000  -0.01127  -0.01140   1.90441
    A8        1.91618  -0.00126   0.00000  -0.00581  -0.00572   1.91046
    A9        1.95088   0.00567   0.00000   0.02641   0.02643   1.97731
   A10        1.84569   0.00133   0.00000   0.00344   0.00339   1.84908
   A11        1.91612  -0.00088   0.00000   0.00227   0.00227   1.91840
   A12        1.91627  -0.00264   0.00000  -0.01651  -0.01647   1.89980
   A13        1.91674  -0.00269   0.00000  -0.01236  -0.01239   1.90435
   A14        1.91044  -0.00410   0.00000  -0.02249  -0.02275   1.88768
   A15        1.96473   0.00936   0.00000   0.04435   0.04440   2.00913
   A16        1.84215   0.00196   0.00000   0.00186   0.00163   1.84378
   A17        1.91980  -0.00340   0.00000  -0.01482  -0.01474   1.90506
   A18        1.90592  -0.00165   0.00000   0.00056   0.00072   1.90664
   A19        1.90592  -0.00165   0.00000   0.00056   0.00072   1.90664
   A20        1.91980  -0.00340   0.00000  -0.01482  -0.01474   1.90506
   A21        1.96473   0.00936   0.00000   0.04435   0.04440   2.00913
   A22        1.84215   0.00196   0.00000   0.00186   0.00163   1.84378
   A23        1.91044  -0.00410   0.00000  -0.02249  -0.02275   1.88768
   A24        1.91674  -0.00269   0.00000  -0.01236  -0.01239   1.90435
   A25        1.91612  -0.00088   0.00000   0.00227   0.00227   1.91840
   A26        1.91627  -0.00264   0.00000  -0.01652  -0.01647   1.89980
   A27        1.95088   0.00567   0.00000   0.02641   0.02643   1.97731
   A28        1.84569   0.00133   0.00000   0.00344   0.00339   1.84908
   A29        1.91581  -0.00251   0.00000  -0.01127  -0.01139   1.90441
   A30        1.91618  -0.00126   0.00000  -0.00581  -0.00572   1.91046
   A31        1.94815  -0.00135   0.00000  -0.00944  -0.00947   1.93868
   A32        1.94041   0.00163   0.00000   0.01225   0.01228   1.95269
   A33        1.94786  -0.00113   0.00000  -0.00806  -0.00810   1.93976
   A34        1.87482   0.00008   0.00000   0.00256   0.00259   1.87741
   A35        1.87395   0.00086   0.00000   0.00110   0.00101   1.87496
   A36        1.87485  -0.00002   0.00000   0.00201   0.00203   1.87688
    D1       -3.10286   0.00019   0.00000  -0.00085  -0.00086  -3.10372
    D2       -1.08108  -0.00037   0.00000  -0.00649  -0.00645  -1.08753
    D3        1.04985  -0.00077   0.00000  -0.01370  -0.01364   1.03621
    D4        1.08322   0.00080   0.00000   0.00980   0.00973   1.09295
    D5        3.10500   0.00024   0.00000   0.00415   0.00413   3.10914
    D6       -1.04726  -0.00016   0.00000  -0.00305  -0.00305  -1.05031
    D7       -1.00974   0.00049   0.00000   0.00436   0.00432  -1.00542
    D8        1.01204  -0.00007   0.00000  -0.00128  -0.00128   1.01077
    D9       -3.14022  -0.00047   0.00000  -0.00849  -0.00846   3.13451
   D10        1.00581  -0.00062   0.00000   0.00571   0.00587   1.01167
   D11       -1.00897   0.00086   0.00000   0.02319   0.02310  -0.98587
   D12       -3.13202  -0.00042   0.00000   0.00859   0.00875  -3.12327
   D13       -1.12450  -0.00065   0.00000   0.00063   0.00067  -1.12383
   D14       -3.13927   0.00083   0.00000   0.01810   0.01790  -3.12137
   D15        1.02087  -0.00045   0.00000   0.00350   0.00355   1.02441
   D16        3.13667  -0.00023   0.00000   0.00465   0.00470   3.14137
   D17        1.12190   0.00125   0.00000   0.02213   0.02193   1.14383
   D18       -1.00115  -0.00003   0.00000   0.00752   0.00758  -0.99357
   D19        2.88149  -0.00028   0.00000   0.01052   0.01054   2.89203
   D20        0.86757   0.00019   0.00000   0.01624   0.01634   0.88391
   D21       -1.27608  -0.00042   0.00000   0.01190   0.01212  -1.26396
   D22       -1.25805   0.00033   0.00000   0.01486   0.01475  -1.24329
   D23        3.01122   0.00080   0.00000   0.02058   0.02056   3.03177
   D24        0.86757   0.00019   0.00000   0.01624   0.01634   0.88391
   D25        0.75587  -0.00014   0.00000   0.00915   0.00895   0.76483
   D26       -1.25805   0.00033   0.00000   0.01486   0.01475  -1.24329
   D27        2.88149  -0.00028   0.00000   0.01053   0.01054   2.89203
   D28        1.02087  -0.00045   0.00000   0.00350   0.00354   1.02442
   D29       -1.00114  -0.00003   0.00000   0.00752   0.00757  -0.99357
   D30       -3.13201  -0.00042   0.00000   0.00858   0.00875  -3.12327
   D31       -3.13926   0.00083   0.00000   0.01810   0.01789  -3.12137
   D32        1.12191   0.00125   0.00000   0.02212   0.02192   1.14383
   D33       -1.00896   0.00086   0.00000   0.02319   0.02310  -0.98587
   D34       -1.12449  -0.00065   0.00000   0.00063   0.00066  -1.12383
   D35        3.13668  -0.00023   0.00000   0.00465   0.00469   3.14137
   D36        1.00581  -0.00062   0.00000   0.00571   0.00587   1.01168
   D37        1.04985  -0.00077   0.00000  -0.01370  -0.01364   1.03621
   D38       -3.14021  -0.00047   0.00000  -0.00849  -0.00846   3.13451
   D39       -1.04726  -0.00016   0.00000  -0.00305  -0.00305  -1.05031
   D40       -3.10285   0.00019   0.00000  -0.00085  -0.00086  -3.10372
   D41       -1.00974   0.00049   0.00000   0.00436   0.00432  -1.00542
   D42        1.08322   0.00080   0.00000   0.00979   0.00973   1.09295
   D43       -1.08107  -0.00037   0.00000  -0.00650  -0.00646  -1.08753
   D44        1.01205  -0.00007   0.00000  -0.00128  -0.00128   1.01077
   D45        3.10501   0.00024   0.00000   0.00415   0.00413   3.10914
         Item               Value     Threshold  Converged?
 Maximum Force            0.009358     0.000015     NO 
 RMS     Force            0.002551     0.000010     NO 
 Maximum Displacement     0.166494     0.000060     NO 
 RMS     Displacement     0.051501     0.000040     NO 
 Predicted change in Energy=-1.386017D-03
 GradGradGradGradGradGradGradGradGradGradGradGradGradGradGradGradGradGrad

 Leave Link  103 at Fri Sep 18 13:22:20 2015, MaxMem=  402653184 cpu:       0.1
 (Enter /share/apps/g09/l202.exe)
                          Input orientation:                          
 ---------------------------------------------------------------------
 Center     Atomic      Atomic             Coordinates (Angstroms)
 Number     Number       Type             X           Y           Z
 ---------------------------------------------------------------------
      1          6           0        3.063641   -0.329373   -0.104036
      2          1           0        3.531757    0.622180    0.176832
      3          1           0        3.135483   -0.421534   -1.194811
      4          1           0        3.662991   -1.135785    0.335981
      5          6           0        1.604366   -0.383866    0.360245
      6          1           0        1.179997   -1.361489    0.097896
      7          1           0        1.566508   -0.322772    1.457121
      8          6           0        0.736295    0.739307   -0.230063
      9          1           0        0.771307    0.682286   -1.327828
     10          1           0        1.197798    1.702626    0.031668
     11          6           0       -0.736295    0.739308    0.230060
     12          1           0       -1.197799    1.702625   -0.031675
     13          1           0       -0.771307    0.682292    1.327825
     14          6           0       -1.604365   -0.383869   -0.360242
     15          1           0       -1.179998   -1.361491   -0.097885
     16          1           0       -1.566505   -0.322782   -1.457118
     17          6           0       -3.063641   -0.329373    0.104035
     18          1           0       -3.531757    0.622178   -0.176844
     19          1           0       -3.662990   -1.135790   -0.335975
     20          1           0       -3.135486   -0.421522    1.194811
 ---------------------------------------------------------------------
                    Distance matrix (angstroms):
                    1          2          3          4          5
     1  C    0.000000
     2  H    1.097029   0.000000
     3  H    1.097017   1.768552   0.000000
     4  H    1.096875   1.770027   1.769674   0.000000
     5  C    1.532322   2.181881   2.182645   2.191782   0.000000
     6  H    2.157349   3.077653   2.525575   2.504572   1.097572
     7  H    2.163021   2.528691   3.082885   2.512605   1.099228
     8  C    2.564079   2.827346   2.834501   3.521637   1.537377
     9  H    2.788533   3.144470   2.612554   3.799404   2.163389
    10  H    2.762030   2.576005   3.125849   3.771785   2.150978
    11  C    3.961466   4.269990   4.285846   4.783399   2.599454
    12  H    4.721665   4.855876   4.964098   5.640835   3.515561
    13  H    4.216696   4.454746   4.779659   4.894094   2.777900
    14  C    4.675350   5.261210   4.812908   5.366110   3.288625
    15  H    4.367353   5.119673   4.550839   4.867619   2.986355
    16  H    4.823808   5.436452   4.710334   5.587826   3.655264
    17  C    6.130814   6.664085   6.334401   6.778767   4.675351
    18  H    6.664085   7.072363   6.824784   7.424138   5.261212
    19  H    6.778766   7.424136   6.889629   7.356732   5.366111
    20  H    6.334404   6.824787   6.710838   6.889633   4.812911
                    6          7          8          9         10
     6  H    0.000000
     7  H    1.753801   0.000000
     8  C    2.172044   2.159596   0.000000
     9  H    2.525219   3.065685   1.099802   0.000000
    10  H    3.064882   2.504017   1.099759   1.752488   0.000000
    11  C    2.846575   2.817196   1.542801   2.168671   2.169806
    12  H    3.880657   3.736326   2.169806   2.568751   2.396434
    13  H    3.081778   2.547990   2.168671   3.071181   2.568751
    14  C    2.986353   3.655267   2.599454   2.777900   3.515561
    15  H    2.368102   3.322691   2.846577   3.081781   3.880658
    16  H    3.322687   4.278850   2.817194   2.547988   3.736326
    17  C    4.367353   4.823813   3.961466   4.216695   4.721665
    18  H    5.119672   5.436458   4.269991   4.454744   4.855876
    19  H    4.867618   5.587829   4.783399   4.894094   5.640835
    20  H    4.550841   4.710340   4.285846   4.779658   4.964096
                   11         12         13         14         15
    11  C    0.000000
    12  H    1.099760   0.000000
    13  H    1.099802   1.752488   0.000000
    14  C    1.537377   2.150978   2.163389   0.000000
    15  H    2.172044   3.064883   2.525218   1.097572   0.000000
    16  H    2.159596   2.504018   3.065684   1.099228   1.753801
    17  C    2.564079   2.762028   2.788534   1.532322   2.157349
    18  H    2.827348   2.576005   3.144475   2.181881   3.077653
    19  H    3.521637   3.771785   3.799405   2.191782   2.504571
    20  H    2.834499   3.125844   2.612553   2.182645   2.525577
                   16         17         18         19         20
    16  H    0.000000
    17  C    2.163021   0.000000
    18  H    2.528689   1.097029   0.000000
    19  H    2.512607   1.096875   1.770026   0.000000
    20  H    3.082885   1.097017   1.768552   1.769674   0.000000
 Stoichiometry    C6H14
 Framework group  C1[X(C6H14)]
 Deg. of freedom    54
 Full point group                 C1      NOp   1
 Largest Abelian subgroup         C1      NOp   1
 Largest concise Abelian subgroup C1      NOp   1
                         Standard orientation:                         
 ---------------------------------------------------------------------
 Center     Atomic      Atomic             Coordinates (Angstroms)
 Number     Number       Type             X           Y           Z
 ---------------------------------------------------------------------
      1          6           0        3.063584   -0.326250   -0.105703
      2          1           0        3.531852    0.625303    0.174911
      3          1           0        3.134832   -0.418409   -1.196518
      4          1           0        3.663173   -1.132663    0.333987
      5          6           0        1.604562   -0.380743    0.359372
      6          1           0        1.180050   -1.358366    0.097252
      7          1           0        1.567301   -0.319650    1.456268
      8          6           0        0.736170    0.742431   -0.230463
      9          1           0        0.770585    0.685411   -1.328246
     10          1           0        1.197815    1.705749    0.031018
     11          6           0       -0.736170    0.742431    0.230462
     12          1           0       -1.197816    1.705748   -0.031021
     13          1           0       -0.770585    0.685414    1.328246
     14          6           0       -1.604561   -0.380745   -0.359369
     15          1           0       -1.180051   -1.358367   -0.097244
     16          1           0       -1.567297   -0.319657   -1.456266
     17          6           0       -3.063584   -0.326249    0.105701
     18          1           0       -3.531853    0.625301   -0.174921
     19          1           0       -3.663172   -1.132666   -0.333983
     20          1           0       -3.134835   -0.418400    1.196517
 ---------------------------------------------------------------------
 Rotational constants (GHZ):     10.2328551      1.2648294      1.2101305
 Leave Link  202 at Fri Sep 18 13:22:20 2015, MaxMem=  402653184 cpu:       0.0
 (Enter /share/apps/g09/l301.exe)
 Standard basis: 6-31G(d) (6D, 7F)
 Ernie: Thresh=  0.10000D-02 Tol=  0.10000D-05 Strict=F.
 There are   118 symmetry adapted basis functions of A   symmetry.
 Integral buffers will be    131072 words long.
 Raffenetti 2 integral format.
 Two-electron integral symmetry is turned on.
   118 basis functions,   224 primitive gaussians,   118 cartesian basis functions
    25 alpha electrons       25 beta electrons
       nuclear repulsion energy       245.6595754611 Hartrees.
 IExCor=  402 DFT=T Ex+Corr=B3LYP ExCW=0 ScaHFX=  0.200000
 ScaDFX=  0.800000  0.720000  1.000000  0.810000 ScalE2=  1.000000  1.000000
 IRadAn=      5 IRanWt=     -1 IRanGd=            0 ICorTp=0
 NAtoms=   20 NActive=   20 NUniq=   20 SFac= 7.50D-01 NAtFMM=   80 NAOKFM=F Big=F
 Leave Link  301 at Fri Sep 18 13:22:20 2015, MaxMem=  402653184 cpu:       0.1
 (Enter /share/apps/g09/l302.exe)
 NPDir=0 NMtPBC=     1 NCelOv=     1 NCel=       1 NClECP=     1 NCelD=      1
         NCelK=      1 NCelE2=     1 NClLst=     1 CellRange=     0.0.
 One-electron integrals computed using PRISM.
 NBasis=   118 RedAO= T  NBF=   118
 NBsUse=   118 1.00D-06 NBFU=   118
 Precomputing XC quadrature grid using
 IXCGrd= 2 IRadAn=           5 IRanWt=          -1 IRanGd=           0 AccXCQ= 1.00D-10.
 NRdTot=    1656 NPtTot=      443652 NUsed=      455517 NTot=      455549
 NSgBfM=   118   118   118   118   118 NAtAll=    20    20.
 Leave Link  302 at Fri Sep 18 13:22:21 2015, MaxMem=  402653184 cpu:       1.2
 (Enter /share/apps/g09/l303.exe)
 DipDrv:  MaxL=1.
 Leave Link  303 at Fri Sep 18 13:22:21 2015, MaxMem=  402653184 cpu:       0.1
 (Enter /share/apps/g09/l401.exe)
 Initial guess read from the read-write file.
 B after Tr=     0.000000    0.000000    0.000000
         Rot=    1.000000    0.000000    0.000000    0.000000 Ang=   0.00 deg.
 Guess basis will be translated and rotated to current coordinates.
 Initial guess orbital symmetries:
       Occupied  (A) (A) (A) (A) (A) (A) (A) (A) (A) (A) (A) (A)
                 (A) (A) (A) (A) (A) (A) (A) (A) (A) (A) (A) (A)
                 (A)
       Virtual   (A) (A) (A) (A) (A) (A) (A) (A) (A) (A) (A) (A)
                 (A) (A) (A) (A) (A) (A) (A) (A) (A) (A) (A) (A)
                 (A) (A) (A) (A) (A) (A) (A) (A) (A) (A) (A) (A)
                 (A) (A) (A) (A) (A) (A) (A) (A) (A) (A) (A) (A)
                 (A) (A) (A) (A) (A) (A) (A) (A) (A) (A) (A) (A)
                 (A) (A) (A) (A) (A) (A) (A) (A) (A) (A) (A) (A)
                 (A) (A) (A) (A) (A) (A) (A) (A) (A) (A) (A) (A)
                 (A) (A) (A) (A) (A) (A) (A) (A) (A)
 The electronic state of the initial guess is 1-A.
 Generating alternative initial guess.
 Harris functional with IExCor=  402 diagonalized for initial guess.
 ExpMin= 1.61D-01 ExpMax= 3.05D+03 ExpMxC= 4.57D+02 IAcc=3 IRadAn=         5 AccDes= 0.00D+00
 HarFok:  IExCor=  402 AccDes= 0.00D+00 IRadAn=         5 IDoV= 1
 ScaDFX=  1.000000  1.000000  1.000000  1.000000
 FoFCou: FMM=F IPFlag=           0 FMFlag=      100000 FMFlg1=           0
         NFxFlg=           0 DoJE=T BraDBF=F KetDBF=T FulRan=T
         Omega=  0.000000  0.000000  1.000000  0.000000  0.000000 ICntrl=     500 IOpCl=  0
         NMat0=    1 NMatS0=    1 NMatT0=    0 NMatD0=    1 NMtDS0=    0 NMtDT0=    0
         I1Cent=           4 NGrid=           0.
 Petite list used in FoFCou.
 Harris En= -237.182653324804    
 Leave Link  401 at Fri Sep 18 13:22:26 2015, MaxMem=  402653184 cpu:      10.1
 (Enter /share/apps/g09/l502.exe)
 Closed shell SCF:
 Requested convergence on RMS density matrix=1.00D-08 within 128 cycles.
 Requested convergence on MAX density matrix=1.00D-06.
 Requested convergence on             energy=1.00D-06.
 No special actions if energy rises.
 Using DIIS extrapolation, IDIIS=  1040.
 Integral symmetry usage will be decided dynamically.
       455324 words used for storage of precomputed grid.
 Keep R1 ints in memory in canonical form, NReq=26109379.
 IEnd=      516868 IEndB=      516868 NGot=   402653184 MDV=   377516240
 LenX=   377516240 LenY=   377501875
 Symmetry not used in FoFDir.
 MinBra= 0 MaxBra= 2 Meth= 1.
 IRaf=       0 NMat=   1 IRICut=       1 DoRegI=T DoRafI=F ISym2E= 0 JSym2E=0.
 Integral accuracy reduced to 1.0D-05 until final iterations.

 Cycle   1  Pass 0  IDiag  1:
 E= -237.082630395242    
 DIIS: error= 1.84D-03 at cycle   1 NSaved=   1.
 NSaved= 1 IEnMin= 1 EnMin= -237.082630395242     IErMin= 1 ErrMin= 1.84D-03
 ErrMax= 1.84D-03 EMaxC= 1.00D-01 BMatC= 6.79D-04 BMatP= 6.79D-04
 IDIUse=3 WtCom= 9.82D-01 WtEn= 1.84D-02
 Coeff-Com:  0.100D+01
 Coeff-En:   0.100D+01
 Coeff:      0.100D+01
 Gap=     0.400 Goal=   None    Shift=    0.000
 GapD=    0.400 DampG=2.000 DampE=1.000 DampFc=2.0000 IDamp=-1.
 RMSDP=3.34D-04 MaxDP=3.77D-03              OVMax= 9.02D-03

 Cycle   2  Pass 0  IDiag  1:
 E= -237.083868326017     Delta-E=       -0.001237930775 Rises=F Damp=F
 DIIS: error= 4.25D-04 at cycle   2 NSaved=   2.
 NSaved= 2 IEnMin= 2 EnMin= -237.083868326017     IErMin= 2 ErrMin= 4.25D-04
 ErrMax= 4.25D-04 EMaxC= 1.00D-01 BMatC= 2.56D-05 BMatP= 6.79D-04
 IDIUse=3 WtCom= 9.96D-01 WtEn= 4.25D-03
 Coeff-Com:  0.303D-02 0.997D+00
 Coeff-En:   0.000D+00 0.100D+01
 Coeff:      0.301D-02 0.997D+00
 Gap=     0.398 Goal=   None    Shift=    0.000
 RMSDP=9.39D-05 MaxDP=1.46D-03 DE=-1.24D-03 OVMax= 2.00D-03

 Cycle   3  Pass 0  IDiag  1:
 E= -237.083871918779     Delta-E=       -0.000003592761 Rises=F Damp=F
 DIIS: error= 4.20D-04 at cycle   3 NSaved=   3.
 NSaved= 3 IEnMin= 3 EnMin= -237.083871918779     IErMin= 3 ErrMin= 4.20D-04
 ErrMax= 4.20D-04 EMaxC= 1.00D-01 BMatC= 2.80D-05 BMatP= 2.56D-05
 IDIUse=3 WtCom= 9.96D-01 WtEn= 4.20D-03
 Coeff-Com: -0.328D-01 0.530D+00 0.503D+00
 Coeff-En:   0.000D+00 0.465D+00 0.535D+00
 Coeff:     -0.326D-01 0.529D+00 0.503D+00
 Gap=     0.399 Goal=   None    Shift=    0.000
 RMSDP=4.73D-05 MaxDP=8.07D-04 DE=-3.59D-06 OVMax= 1.10D-03

 Cycle   4  Pass 0  IDiag  1:
 E= -237.083900231552     Delta-E=       -0.000028312773 Rises=F Damp=F
 DIIS: error= 4.34D-05 at cycle   4 NSaved=   4.
 NSaved= 4 IEnMin= 4 EnMin= -237.083900231552     IErMin= 4 ErrMin= 4.34D-05
 ErrMax= 4.34D-05 EMaxC= 1.00D-01 BMatC= 2.99D-07 BMatP= 2.56D-05
 IDIUse=1 WtCom= 1.00D+00 WtEn= 0.00D+00
 Coeff-Com: -0.115D-01 0.123D+00 0.158D+00 0.731D+00
 Coeff:     -0.115D-01 0.123D+00 0.158D+00 0.731D+00
 Gap=     0.399 Goal=   None    Shift=    0.000
 RMSDP=6.03D-06 MaxDP=6.52D-05 DE=-2.83D-05 OVMax= 1.16D-04

 Initial convergence to 1.0D-05 achieved.  Increase integral accuracy.
 Cycle   5  Pass 1  IDiag  1:
 E= -237.083903463021     Delta-E=       -0.000003231469 Rises=F Damp=F
 DIIS: error= 7.42D-06 at cycle   1 NSaved=   1.
 NSaved= 1 IEnMin= 1 EnMin= -237.083903463021     IErMin= 1 ErrMin= 7.42D-06
 ErrMax= 7.42D-06 EMaxC= 1.00D-01 BMatC= 1.26D-08 BMatP= 1.26D-08
 IDIUse=1 WtCom= 1.00D+00 WtEn= 0.00D+00
 Coeff-Com:  0.100D+01
 Coeff:      0.100D+01
 Gap=     0.399 Goal=   None    Shift=    0.000
 RMSDP=6.03D-06 MaxDP=6.52D-05 DE=-3.23D-06 OVMax= 4.64D-05

 Cycle   6  Pass 1  IDiag  1:
 E= -237.083903464193     Delta-E=       -0.000000001172 Rises=F Damp=F
 DIIS: error= 7.43D-06 at cycle   2 NSaved=   2.
 NSaved= 2 IEnMin= 2 EnMin= -237.083903464193     IErMin= 1 ErrMin= 7.42D-06
 ErrMax= 7.43D-06 EMaxC= 1.00D-01 BMatC= 1.22D-08 BMatP= 1.26D-08
 IDIUse=1 WtCom= 1.00D+00 WtEn= 0.00D+00
 Coeff-Com:  0.496D+00 0.504D+00
 Coeff:      0.496D+00 0.504D+00
 Gap=     0.399 Goal=   None    Shift=    0.000
 RMSDP=1.02D-06 MaxDP=1.63D-05 DE=-1.17D-09 OVMax= 2.22D-05

 Cycle   7  Pass 1  IDiag  1:
 E= -237.083903476082     Delta-E=       -0.000000011889 Rises=F Damp=F
 DIIS: error= 1.65D-06 at cycle   3 NSaved=   3.
 NSaved= 3 IEnMin= 3 EnMin= -237.083903476082     IErMin= 3 ErrMin= 1.65D-06
 ErrMax= 1.65D-06 EMaxC= 1.00D-01 BMatC= 3.36D-10 BMatP= 1.22D-08
 IDIUse=1 WtCom= 1.00D+00 WtEn= 0.00D+00
 Coeff-Com:  0.134D+00 0.199D+00 0.667D+00
 Coeff:      0.134D+00 0.199D+00 0.667D+00
 Gap=     0.399 Goal=   None    Shift=    0.000
 RMSDP=2.08D-07 MaxDP=2.80D-06 DE=-1.19D-08 OVMax= 4.57D-06

 Cycle   8  Pass 1  IDiag  1:
 E= -237.083903476416     Delta-E=       -0.000000000334 Rises=F Damp=F
 DIIS: error= 4.14D-07 at cycle   4 NSaved=   4.
 NSaved= 4 IEnMin= 4 EnMin= -237.083903476416     IErMin= 4 ErrMin= 4.14D-07
 ErrMax= 4.14D-07 EMaxC= 1.00D-01 BMatC= 1.47D-11 BMatP= 3.36D-10
 IDIUse=1 WtCom= 1.00D+00 WtEn= 0.00D+00
 Coeff-Com: -0.100D-01 0.882D-02 0.197D+00 0.805D+00
 Coeff:     -0.100D-01 0.882D-02 0.197D+00 0.805D+00
 Gap=     0.399 Goal=   None    Shift=    0.000
 RMSDP=5.02D-08 MaxDP=5.76D-07 DE=-3.34D-10 OVMax= 1.02D-06

 Cycle   9  Pass 1  IDiag  1:
 E= -237.083903476431     Delta-E=       -0.000000000016 Rises=F Damp=F
 DIIS: error= 3.76D-08 at cycle   5 NSaved=   5.
 NSaved= 5 IEnMin= 5 EnMin= -237.083903476431     IErMin= 5 ErrMin= 3.76D-08
 ErrMax= 3.76D-08 EMaxC= 1.00D-01 BMatC= 2.60D-13 BMatP= 1.47D-11
 IDIUse=1 WtCom= 1.00D+00 WtEn= 0.00D+00
 Coeff-Com: -0.494D-02 0.100D-02 0.650D-01 0.297D+00 0.642D+00
 Coeff:     -0.494D-02 0.100D-02 0.650D-01 0.297D+00 0.642D+00
 Gap=     0.399 Goal=   None    Shift=    0.000
 RMSDP=5.55D-09 MaxDP=9.63D-08 DE=-1.56D-11 OVMax= 1.13D-07

 SCF Done:  E(RB3LYP) =  -237.083903476     A.U. after    9 cycles
             Convg  =    0.5549D-08             -V/T =  2.0106
 KE= 2.346050214082D+02 PE=-1.038222854352D+03 EE= 3.208743540059D+02
 Leave Link  502 at Fri Sep 18 13:23:02 2015, MaxMem=  402653184 cpu:      70.7
 (Enter /share/apps/g09/l701.exe)
 Compute integral first derivatives.
 ... and contract with generalized density number  0.
 Leave Link  701 at Fri Sep 18 13:23:02 2015, MaxMem=  402653184 cpu:       0.2
 (Enter /share/apps/g09/l702.exe)
 L702 exits ... SP integral derivatives will be done elsewhere.
 Leave Link  702 at Fri Sep 18 13:23:02 2015, MaxMem=  402653184 cpu:       0.0
 (Enter /share/apps/g09/l703.exe)
 Compute integral first derivatives, UseDBF=F ICtDFT=           0.
 Integral derivatives from FoFDir, PRISM(SPDF).
 Calling FoFJK, ICntrl=      2127 FMM=F ISym2X=0 I1Cent= 0 IOpClX= 0 NMat=1 NMatS=1 NMatT=0.
 FoFCou: FMM=F IPFlag=           0 FMFlag=      100000 FMFlg1=         800
         NFxFlg=           0 DoJE=F BraDBF=F KetDBF=F FulRan=T
         Omega=  0.000000  0.000000  1.000000  0.000000  0.000000 ICntrl=    2127 IOpCl=  0
         NMat0=    1 NMatS0=    1 NMatT0=    0 NMatD0=    1 NMtDS0=    0 NMtDT0=    0
         I1Cent=           0 NGrid=           0.
 Symmetry not used in FoFCou.
 Leave Link  703 at Fri Sep 18 13:23:10 2015, MaxMem=  402653184 cpu:      16.4
 (Enter /share/apps/g09/l716.exe)
 Dipole        =-4.36095089D-08-7.97602548D-03 7.65234138D-08
 ***** Axes restored to original set *****
 -------------------------------------------------------------------
 Center     Atomic                   Forces (Hartrees/Bohr)
 Number     Number              X              Y              Z
 -------------------------------------------------------------------
      1        6           0.000141434    0.000745016   -0.000448118
      2        1           0.000136291    0.000154695   -0.000061370
      3        1          -0.000009433    0.000050334   -0.000121577
      4        1          -0.000943452    0.000172316    0.000157357
      5        6          -0.001581030   -0.000784362    0.000578717
      6        1          -0.000332610   -0.000440063   -0.000239908
      7        1           0.000136349    0.000009913    0.000301563
      8        6          -0.000213006   -0.000042971   -0.000476307
      9        1          -0.000150704    0.000025419   -0.000594442
     10        1          -0.000973724    0.000109680    0.000502199
     11        6           0.000212942   -0.000042883    0.000476339
     12        1           0.000973743    0.000109634   -0.000502224
     13        1           0.000150712    0.000025416    0.000594450
     14        6           0.001581180   -0.000784410   -0.000578729
     15        1           0.000332594   -0.000440009    0.000239909
     16        1          -0.000136365    0.000009901   -0.000301612
     17        6          -0.000141606    0.000745064    0.000448124
     18        1          -0.000136241    0.000154681    0.000061386
     19        1           0.000943492    0.000172318   -0.000157356
     20        1           0.000009437    0.000050309    0.000121599
 -------------------------------------------------------------------
 Cartesian Forces:  Max     0.001581180 RMS     0.000502292
 Leave Link  716 at Fri Sep 18 13:23:10 2015, MaxMem=  402653184 cpu:       0.0
 (Enter /share/apps/g09/l103.exe)

 GradGradGradGradGradGradGradGradGradGradGradGradGradGradGradGradGradGrad
 Berny optimization.
 Using GEDIIS/GDIIS optimizer.
 Internal  Forces:  Max     0.003497826 RMS     0.000676023
 Search for a local minimum.
 Step number   2 out of a maximum of  110
 All quantities printed in internal units (Hartrees-Bohrs-Radians)
 RMS Force = .67602D-03 SwitMx=.10000D-02 MixMth= 2
 Mixed Optimization -- En-DIIS/RFO-DIIS
 Update second derivatives using D2CorX and points    1    2
 DE= -1.05D-03 DEPred=-1.39D-03 R= 7.57D-01
 SS=  1.41D+00  RLast= 1.30D-01 DXNew= 5.0454D-01 3.9076D-01
 Trust test= 7.57D-01 RLast= 1.30D-01 DXMaxT set to 3.91D-01
 Use linear search instead of GDIIS.
     Eigenvalues ---    0.00300   0.00300   0.00305   0.00406   0.00406
     Eigenvalues ---    0.03233   0.03234   0.03440   0.03442   0.04721
     Eigenvalues ---    0.04765   0.04796   0.04824   0.05436   0.05436
     Eigenvalues ---    0.05531   0.05552   0.08458   0.08459   0.08744
     Eigenvalues ---    0.08836   0.12287   0.12296   0.12504   0.12657
     Eigenvalues ---    0.15918   0.16000   0.16000   0.16000   0.16000
     Eigenvalues ---    0.16187   0.21891   0.21897   0.21927   0.24010
     Eigenvalues ---    0.28945   0.28948   0.29408   0.29685   0.30533
[...]

 Largest change from initial coordinates is atom    4       6.664 Angstoms.
 Leave Link  103 at Fri Sep 18 13:28:24 2015, MaxMem=  402653184 cpu:       0.0
 (Enter /share/apps/g09/l202.exe)
                          Input orientation:                          
 ---------------------------------------------------------------------
 Center     Atomic      Atomic             Coordinates (Angstroms)
 Number     Number       Type             X           Y           Z
 ---------------------------------------------------------------------
      1          6           0        3.048131   -0.324541   -0.106945
      2          1           0        3.511457    0.601416    0.255847
      3          1           0        3.150427   -0.337870   -1.199213
      4          1           0        3.627555   -1.165359    0.291437
      5          6           0        1.576505   -0.408434    0.311964
      6          1           0        1.157964   -1.363156   -0.032606
      7          1           0        1.508489   -0.424058    1.409508
      8          6           0        0.734716    0.757337   -0.226481
      9          1           0        0.775276    0.754990   -1.326324
     10          1           0        1.201324    1.701253    0.090348
     11          6           0       -0.734716    0.757338    0.226476
     12          1           0       -1.201324    1.701252   -0.090359
     13          1           0       -0.775276    0.754998    1.326319
     14          6           0       -1.576504   -0.408436   -0.311962
     15          1           0       -1.157964   -1.363156    0.032614
     16          1           0       -1.508489   -0.424067   -1.409506
     17          6           0       -3.048130   -0.324541    0.106947
     18          1           0       -3.511457    0.601414   -0.255851
     19          1           0       -3.627555   -1.165361   -0.291430
     20          1           0       -3.150427   -0.337863    1.199215
 ---------------------------------------------------------------------
                    Distance matrix (angstroms):
                    1          2          3          4          5
     1  C    0.000000
     2  H    1.097126   0.000000
     3  H    1.097129   1.769125   0.000000
     4  H    1.096091   1.770943   1.770431   0.000000
     5  C    1.532386   2.183343   2.183087   2.186359   0.000000
     6  H    2.158003   3.079233   2.526280   2.498600   1.097906
     7  H    2.163337   2.528717   3.083637   2.507997   1.099761
     8  C    2.556684   2.822630   2.825127   3.511910   1.535432
     9  H    2.796093   3.164417   2.617602   3.800050   2.163217
    10  H    2.748355   2.563931   3.101611   3.760916   2.154217
    11  C    3.948615   4.249137   4.280936   4.767640   2.589995
    12  H    4.707651   4.851784   4.932070   5.628614   3.511264
    13  H    4.223516   4.421038   4.794145   4.913621   2.813070
    14  C    4.629937   5.218195   4.809998   5.293322   3.214148
    15  H    4.334678   5.070786   4.596830   4.796593   2.909785
    16  H    4.740185   5.387474   4.664456   5.460922   3.532830
    17  C    6.100012   6.626293   6.334694   6.730957   4.629937
    18  H    6.626293   7.041531   6.793592   7.374720   5.218195
    19  H    6.730957   7.374720   6.888385   7.278485   5.293322
    20  H    6.334694   6.793592   6.741900   6.888385   4.809998
                    6          7          8          9         10
     6  H    0.000000
     7  H    1.756265   0.000000
     8  C    2.170994   2.161221   0.000000
     9  H    2.511314   3.067985   1.100593   0.000000
    10  H    3.067181   2.520214   1.099582   1.756100   0.000000
    11  C    2.854095   2.797719   1.537661   2.165934   2.158184
    12  H    3.867838   3.756279   2.158184   2.515944   2.409435
    13  H    3.173433   2.571513   2.165934   3.072577   2.515944
    14  C    2.909785   3.532830   2.589995   2.813070   3.511264
    15  H    2.316847   3.144474   2.854095   3.173433   3.867838
    16  H    3.144474   4.129043   2.797719   2.571513   3.756279
    17  C    4.334678   4.740185   3.948615   4.223516   4.707651
    18  H    5.070786   5.387474   4.249137   4.421038   4.851784
    19  H    4.796593   5.460922   4.767640   4.913621   5.628614
    20  H    4.596830   4.664456   4.280936   4.794145   4.932070
                   11         12         13         14         15
    11  C    0.000000
    12  H    1.099582   0.000000
    13  H    1.100593   1.756100   0.000000
    14  C    1.535432   2.154217   2.163217   0.000000
    15  H    2.170994   3.067181   2.511314   1.097906   0.000000
    16  H    2.161221   2.520214   3.067985   1.099761   1.756265
    17  C    2.556684   2.748355   2.796093   1.532386   2.158003
    18  H    2.822630   2.563931   3.164417   2.183343   3.079233
    19  H    3.511910   3.760916   3.800050   2.186359   2.498600
    20  H    2.825127   3.101611   2.617602   2.183087   2.526280
                   16         17         18         19         20
    16  H    0.000000
    17  C    2.163337   0.000000
    18  H    2.528717   1.097126   0.000000
    19  H    2.507997   1.096091   1.770943   0.000000
    20  H    3.083637   1.097129   1.769125   1.770431   0.000000
 Stoichiometry    C6H14
 Framework group  C1[X(C6H14)]
 Deg. of freedom    54
 Full point group                 C1      NOp   1
 Largest Abelian subgroup         C1      NOp   1
 Largest concise Abelian subgroup C1      NOp   1
                         Standard orientation:                         
 ---------------------------------------------------------------------
 Center     Atomic      Atomic             Coordinates (Angstroms)
 Number     Number       Type             X           Y           Z
 ---------------------------------------------------------------------
      1          6           0       -3.048721   -0.321076    0.088513
      2          1           0       -3.509846    0.604880   -0.277078
      3          1           0       -3.157621   -0.334402    1.180142
      4          1           0       -3.625726   -1.161895   -0.313363
      5          6           0       -1.574589   -0.404971   -0.321490
      6          1           0       -1.158140   -1.359691    0.025608
      7          1           0       -1.499939   -0.420598   -1.418603
      8          6           0       -0.736072    0.760802    0.222032
      9          1           0       -0.783282    0.758459    1.321609
     10          1           0       -1.200756    1.704717   -0.097616
     11          6           0        0.736072    0.760802   -0.222032
     12          1           0        1.200756    1.704717    0.097616
     13          1           0        0.783282    0.758459   -1.321609
     14          6           0        1.574589   -0.404971    0.321490
     15          1           0        1.158140   -1.359691   -0.025608
     16          1           0        1.499939   -0.420598    1.418603
     17          6           0        3.048721   -0.321076   -0.088513
     18          1           0        3.509846    0.604880    0.277078
     19          1           0        3.625726   -1.161895    0.313363
     20          1           0        3.157621   -0.334402   -1.180142
 ---------------------------------------------------------------------
 Rotational constants (GHZ):     10.1704033      1.2859646      1.2222782
 Leave Link  202 at Fri Sep 18 13:28:24 2015, MaxMem=  402653184 cpu:       0.0
 (Enter /share/apps/g09/l601.exe)
 Copying SCF densities to generalized density rwf, IOpCl= 0 IROHF=0.

 **********************************************************************

            Population analysis using the SCF density.

 **********************************************************************

 Orbital symmetries:
       Occupied  (A) (A) (A) (A) (A) (A) (A) (A) (A) (A) (A) (A)
                 (A) (A) (A) (A) (A) (A) (A) (A) (A) (A) (A) (A)
                 (A)
       Virtual   (A) (A) (A) (A) (A) (A) (A) (A) (A) (A) (A) (A)
                 (A) (A) (A) (A) (A) (A) (A) (A) (A) (A) (A) (A)
                 (A) (A) (A) (A) (A) (A) (A) (A) (A) (A) (A) (A)
                 (A) (A) (A) (A) (A) (A) (A) (A) (A) (A) (A) (A)
                 (A) (A) (A) (A) (A) (A) (A) (A) (A) (A) (A) (A)
                 (A) (A) (A) (A) (A) (A) (A) (A) (A) (A) (A) (A)
                 (A) (A) (A) (A) (A) (A) (A) (A) (A) (A) (A) (A)
                 (A) (A) (A) (A) (A) (A) (A) (A) (A)
 The electronic state is 1-A.
 Alpha  occ. eigenvalues --  -10.17548 -10.17548 -10.17402 -10.17381 -10.16992
 Alpha  occ. eigenvalues --  -10.16992  -0.79893  -0.75954  -0.70327  -0.63218
 Alpha  occ. eigenvalues --   -0.59213  -0.55803  -0.46189  -0.45023  -0.42961
 Alpha  occ. eigenvalues --   -0.40679  -0.40449  -0.38573  -0.35945  -0.35238
 Alpha  occ. eigenvalues --   -0.34237  -0.32734  -0.31660  -0.30967  -0.30576
 Alpha virt. eigenvalues --    0.09328   0.10612   0.12287   0.12738   0.13834
 Alpha virt. eigenvalues --    0.16364   0.16564   0.17972   0.18195   0.18273
 Alpha virt. eigenvalues --    0.19600   0.19963   0.20225   0.21578   0.24485
 Alpha virt. eigenvalues --    0.25524   0.26765   0.27454   0.27753   0.49539
 Alpha virt. eigenvalues --    0.50222   0.52242   0.54805   0.55458   0.56157
 Alpha virt. eigenvalues --    0.58638   0.61206   0.63256   0.63841   0.68852
 Alpha virt. eigenvalues --    0.70815   0.71219   0.76315   0.78882   0.81510
 Alpha virt. eigenvalues --    0.85802   0.86816   0.87802   0.88681   0.90285
 Alpha virt. eigenvalues --    0.91261   0.91912   0.92296   0.93737   0.94794
 Alpha virt. eigenvalues --    0.95790   0.97017   0.98715   1.00013   1.01859
 Alpha virt. eigenvalues --    1.05199   1.11887   1.23331   1.42060   1.42373
 Alpha virt. eigenvalues --    1.44396   1.45340   1.55778   1.58434   1.66355
 Alpha virt. eigenvalues --    1.74496   1.76981   1.82601   1.86966   1.91638
 Alpha virt. eigenvalues --    1.92175   1.94395   1.97662   1.98764   1.99850
 Alpha virt. eigenvalues --    2.04048   2.07895   2.17159   2.19013   2.24491
 Alpha virt. eigenvalues --    2.27413   2.33119   2.33384   2.36766   2.37541
 Alpha virt. eigenvalues --    2.42376   2.45606   2.54665   2.61487   2.67807
 Alpha virt. eigenvalues --    2.72710   2.81731   4.11260   4.18887   4.29170
 Alpha virt. eigenvalues --    4.37204   4.47128   4.55004
          Condensed to atoms (all electrons):
              1          2          3          4          5          6
     1  C    5.064812   0.377079   0.377475   0.371776   0.373040  -0.038198
     2  H    0.377079   0.580295  -0.032917  -0.031419  -0.034841   0.005197
     3  H    0.377475  -0.032917   0.579962  -0.031470  -0.034954  -0.004519
     4  H    0.371776  -0.031419  -0.031470   0.579545  -0.027817  -0.002563
     5  C    0.373040  -0.034841  -0.034954  -0.027817   4.954684   0.377627
     6  H   -0.038198   0.005197  -0.004519  -0.002563   0.377627   0.605450
     7  H   -0.038537  -0.004527   0.005277  -0.002733   0.376288  -0.040376
     8  C   -0.043020  -0.004528  -0.004336   0.004170   0.391863  -0.039572
     9  H   -0.002913  -0.000384   0.004800  -0.000051  -0.041804  -0.005577
    10  H   -0.003866   0.005394  -0.000401  -0.000008  -0.042273   0.005944
    11  C    0.003843  -0.000004   0.000063  -0.000140  -0.038620  -0.003984
    12  H   -0.000149  -0.000005   0.000003   0.000002   0.004675  -0.000049
    13  H    0.000040   0.000002   0.000008   0.000000  -0.007143  -0.000155
    14  C    0.000150   0.000002  -0.000015   0.000002  -0.005072   0.002792
    15  H   -0.000094   0.000000   0.000008   0.000005   0.002792   0.002710
    16  H   -0.000025   0.000001   0.000000   0.000000  -0.000629   0.000358
    17  C   -0.000001   0.000000   0.000000   0.000000   0.000150  -0.000094
    18  H    0.000000   0.000000   0.000000   0.000000   0.000002   0.000000
    19  H    0.000000   0.000000   0.000000   0.000000   0.000002   0.000005
    20  H    0.000000   0.000000   0.000000   0.000000  -0.000015   0.000008
              7          8          9         10         11         12
     1  C   -0.038537  -0.043020  -0.002913  -0.003866   0.003843  -0.000149
     2  H   -0.004527  -0.004528  -0.000384   0.005394  -0.000004  -0.000005
     3  H    0.005277  -0.004336   0.004800  -0.000401   0.000063   0.000003
     4  H   -0.002733   0.004170  -0.000051  -0.000008  -0.000140   0.000002
     5  C    0.376288   0.391863  -0.041804  -0.042273  -0.038620   0.004675
     6  H   -0.040376  -0.039572  -0.005577   0.005944  -0.003984  -0.000049
     7  H    0.614530  -0.042125   0.006094  -0.005129  -0.003007   0.000016
     8  C   -0.042125   4.983757   0.370501   0.369269   0.374731  -0.032807
     9  H    0.006094   0.370501   0.620187  -0.039406  -0.038487  -0.002660
    10  H   -0.005129   0.369269  -0.039406   0.619958  -0.032807  -0.004301
    11  C   -0.003007   0.374731  -0.038487  -0.032807   4.983757   0.369269
    12  H    0.000016  -0.032807  -0.002660  -0.004301   0.369269   0.619958
    13  H    0.005826  -0.038487   0.005960  -0.002660   0.370501  -0.039406
    14  C   -0.000629  -0.038620  -0.007143   0.004675   0.391863  -0.042273
    15  H    0.000358  -0.003984  -0.000155  -0.000049  -0.039572   0.005944
    16  H    0.000073  -0.003007   0.005826   0.000016  -0.042125  -0.005129
    17  C   -0.000025   0.003843   0.000040  -0.000149  -0.043020  -0.003866
    18  H    0.000001  -0.000004   0.000002  -0.000005  -0.004528   0.005394
    19  H    0.000000  -0.000140   0.000000   0.000002   0.004170  -0.000008
    20  H    0.000000   0.000063   0.000008   0.000003  -0.004336  -0.000401
             13         14         15         16         17         18
     1  C    0.000040   0.000150  -0.000094  -0.000025  -0.000001   0.000000
     2  H    0.000002   0.000002   0.000000   0.000001   0.000000   0.000000
     3  H    0.000008  -0.000015   0.000008   0.000000   0.000000   0.000000
     4  H    0.000000   0.000002   0.000005   0.000000   0.000000   0.000000
     5  C   -0.007143  -0.005072   0.002792  -0.000629   0.000150   0.000002
     6  H   -0.000155   0.002792   0.002710   0.000358  -0.000094   0.000000
     7  H    0.005826  -0.000629   0.000358   0.000073  -0.000025   0.000001
     8  C   -0.038487  -0.038620  -0.003984  -0.003007   0.003843  -0.000004
     9  H    0.005960  -0.007143  -0.000155   0.005826   0.000040   0.000002
    10  H   -0.002660   0.004675  -0.000049   0.000016  -0.000149  -0.000005
    11  C    0.370501   0.391863  -0.039572  -0.042125  -0.043020  -0.004528
    12  H   -0.039406  -0.042273   0.005944  -0.005129  -0.003866   0.005394
    13  H    0.620187  -0.041804  -0.005577   0.006094  -0.002913  -0.000384
    14  C   -0.041804   4.954684   0.377627   0.376288   0.373040  -0.034841
    15  H   -0.005577   0.377627   0.605450  -0.040376  -0.038198   0.005197
    16  H    0.006094   0.376288  -0.040376   0.614530  -0.038537  -0.004527
    17  C   -0.002913   0.373040  -0.038198  -0.038537   5.064812   0.377079
    18  H   -0.000384  -0.034841   0.005197  -0.004527   0.377079   0.580295
    19  H   -0.000051  -0.027817  -0.002563  -0.002733   0.371776  -0.031419
    20  H    0.004800  -0.034954  -0.004519   0.005277   0.377475  -0.032917
             19         20
     1  C    0.000000   0.000000
     2  H    0.000000   0.000000
     3  H    0.000000   0.000000
     4  H    0.000000   0.000000
     5  C    0.000002  -0.000015
     6  H    0.000005   0.000008
     7  H    0.000000   0.000000
     8  C   -0.000140   0.000063
     9  H    0.000000   0.000008
    10  H    0.000002   0.000003
    11  C    0.004170  -0.004336
    12  H   -0.000008  -0.000401
    13  H   -0.000051   0.004800
    14  C   -0.027817  -0.034954
    15  H   -0.002563  -0.004519
    16  H   -0.002733   0.005277
    17  C    0.371776   0.377475
    18  H   -0.031419  -0.032917
    19  H    0.579545  -0.031470
    20  H   -0.031470   0.579962
 Mulliken atomic charges:
              1
     1  C   -0.441413
     2  H    0.140654
     3  H    0.141014
     4  H    0.140700
     5  C   -0.247958
     6  H    0.134996
     7  H    0.128623
     8  C   -0.247569
     9  H    0.125162
    10  H    0.125790
    11  C   -0.247569
    12  H    0.125790
    13  H    0.125162
    14  C   -0.247958
    15  H    0.134996
    16  H    0.128623
    17  C   -0.441413
    18  H    0.140654
    19  H    0.140700
    20  H    0.141014
 Sum of Mulliken atomic charges =   0.00000
 Mulliken charges with hydrogens summed into heavy atoms:
              1
     1  C   -0.019044
     5  C    0.015661
     8  C    0.003383
    11  C    0.003383
    14  C    0.015661
    17  C   -0.019044
 Sum of Mulliken charges with hydrogens summed into heavy atoms =   0.00000
 Electronic spatial extent (au):  <R**2>=           1047.6521
 Charge=              0.0000 electrons
 Dipole moment (field-independent basis, Debye):
    X=              0.0000    Y=             -0.0258    Z=              0.0000  Tot=              0.0258
 Quadrupole moment (field-independent basis, Debye-Ang):
   XX=            -42.4722   YY=            -41.2875   ZZ=            -41.1162
   XY=              0.0000   XZ=              0.3135   YZ=              0.0000
 Traceless Quadrupole moment (field-independent basis, Debye-Ang):
   XX=             -0.8469   YY=              0.3378   ZZ=              0.5091
   XY=              0.0000   XZ=              0.3135   YZ=              0.0000
 Octapole moment (field-independent basis, Debye-Ang**2):
  XXX=              0.0000  YYY=             -0.2731  ZZZ=              0.0000  XYY=              0.0000
  XXY=              0.0044  XXZ=              0.0000  XZZ=              0.0000  YZZ=             -0.0881
  YYZ=              0.0000  XYZ=              0.3919
 Hexadecapole moment (field-independent basis, Debye-Ang**3):
 XXXX=          -1215.4083 YYYY=           -161.1147 ZZZZ=            -98.2334 XXXY=              0.0000
 XXXZ=              7.0290 YYYX=              0.0000 YYYZ=              0.0000 ZZZX=             -2.3185
 ZZZY=              0.0000 XXYY=           -219.8406 XXZZ=           -213.9642 YYZZ=            -45.4215
 XXYZ=              0.0000 YYXZ=              2.9613 ZZXY=              0.0000
 N-N= 2.463477556261D+02 E-N=-1.039616798157D+03  KE= 2.346210301436D+02
 No NMR shielding tensors so no spin-rotation constants.
 Leave Link  601 at Fri Sep 18 13:28:24 2015, MaxMem=  402653184 cpu:       0.3
 (Enter /share/apps/g09/l9999.exe)
 1\1\GINC-COMPUTE-0-10\FOpt\RB3LYP\6-31G(d)\C6H14\HETANJIN\18-Sep-2015\
 0\\#p B3LYP/6-31G(d) opt=tight int=ultrafine\\using B3LYP/6-31G(d) to 
 do opt and freq calc.\\0,1\C,3.0481305392,-0.3245407326,-0.1069449682\
 H,3.5114570666,0.6014163653,0.2558472746\H,3.1504271501,-0.3378699266,
 -1.1992131977\H,3.6275548505,-1.1653587948,0.2914370426\C,1.5765045124
 ,-0.4084342382,0.3119638797\H,1.1579644566,-1.3631559919,-0.0326060229
 \H,1.5084893533,-0.4240577332,1.4095081174\C,0.7347164075,0.7573366985
 ,-0.2264809409\H,0.7752763751,0.7549897478,-1.3263240803\H,1.201324214
 4,1.7012525753,0.0903476628\C,-0.7347164354,0.7573380246,0.2264758685\
 H,-1.2013243974,1.7012518013,-0.0903587639\H,-0.7752764023,0.754998092
 7,1.3263190229\C,-1.5765043494,-0.408436489,-0.3119615057\H,-1.1579641
 347,-1.3631559735,0.0326144921\H,-1.5084891903,-0.4240669814,-1.409505
 6437\C,-3.0481303886,-0.3245405526,0.1069468107\H,-3.5114570664,0.6014
 141602,-0.2558513281\H,-3.6275545655,-1.1653612447,-0.2914298451\H,-3.
 1504269958,-0.3378628073,1.1992151251\\Version=EM64L-G09RevA.01\State=
 1-A\HF=-237.0840987\RMSD=3.157e-09\RMSF=4.822e-07\Dipole=0.,-0.0101498
 ,0.\Quadrupole=-0.6267874,0.2511557,0.3756317,0.0000007,0.2391616,0.00
 00004\PG=C01 [X(C6H14)]\\@


 THERE IS MORE TO LIFE THAN INCREASING ITS SPEED.

                                       -- GANDHI
 Job cpu time:  0 days  0 hours 14 minutes 13.9 seconds.
 File lengths (MBytes):  RWF=     15 Int=      0 D2E=      0 Chk=      2 Scr=      1
 Normal termination of Gaussian 09 at Fri Sep 18 13:28:24 2015.
