 Entering Gaussian System, Link 0=/home/hetanjin/apps/g09D01/g09/g09
 Input=C6H14_2_r008_C1_2_opt_B3L.gjf
 Output=C6H14_2_r008_C1_2_opt_B3L.log
 Initial command:
 /home/hetanjin/apps/g09D01/g09/l1.exe "/state/partition1/Gau-3191.inp" -scrdir="/state/partition1/"
 Entering Link 1 = /home/hetanjin/apps/g09D01/g09/l1.exe PID=      3194.
  
 Copyright (c) 1988,1990,1992,1993,1995,1998,2003,2009,2013,
            Gaussian, Inc.  All Rights Reserved.
  
 This is part of the Gaussian(R) 09 program.  It is based on
 the Gaussian(R) 03 system (copyright 2003, Gaussian, Inc.),
 the Gaussian(R) 98 system (copyright 1998, Gaussian, Inc.),
 the Gaussian(R) 94 system (copyright 1995, Gaussian, Inc.),
 the Gaussian 92(TM) system (copyright 1992, Gaussian, Inc.),
 the Gaussian 90(TM) system (copyright 1990, Gaussian, Inc.),
 the Gaussian 88(TM) system (copyright 1988, Gaussian, Inc.),
 the Gaussian 86(TM) system (copyright 1986, Carnegie Mellon
 University), and the Gaussian 82(TM) system (copyright 1983,
 Carnegie Mellon University). Gaussian is a federally registered
 trademark of Gaussian, Inc.
  
 This software contains proprietary and confidential information,
 including trade secrets, belonging to Gaussian, Inc.
  
 This software is provided under written license and may be
 used, copied, transmitted, or stored only in accord with that
 written license.
  
 The following legend is applicable only to US Government
 contracts under FAR:
  
                    RESTRICTED RIGHTS LEGEND
  
 Use, reproduction and disclosure by the US Government is
 subject to restrictions as set forth in subparagraphs (a)
 and (c) of the Commercial Computer Software - Restricted
 Rights clause in FAR 52.227-19.
  
 Gaussian, Inc.
 340 Quinnipiac St., Bldg. 40, Wallingford CT 06492
  
  
 ---------------------------------------------------------------
 Warning -- This program may not be used in any manner that
 competes with the business of Gaussian, Inc. or will provide
 assistance to any competitor of Gaussian, Inc.  The licensee
 of this program is prohibited from giving any competitor of
 Gaussian, Inc. access to this program.  By using this program,
 the user acknowledges that Gaussian, Inc. is engaged in the
 business of creating and licensing software in the field of
 computational chemistry and represents and warrants to the
 licensee that it is not a competitor of Gaussian, Inc. and that
 it will not use this program in any manner prohibited above.
 ---------------------------------------------------------------
  

 Cite this work as:
 Gaussian 09, Revision D.01,
 M. J. Frisch, G. W. Trucks, H. B. Schlegel, G. E. Scuseria, 
 M. A. Robb, J. R. Cheeseman, G. Scalmani, V. Barone, B. Mennucci, 
 G. A. Petersson, H. Nakatsuji, M. Caricato, X. Li, H. P. Hratchian, 
 A. F. Izmaylov, J. Bloino, G. Zheng, J. L. Sonnenberg, M. Hada, 
 M. Ehara, K. Toyota, R. Fukuda, J. Hasegawa, M. Ishida, T. Nakajima, 
 Y. Honda, O. Kitao, H. Nakai, T. Vreven, J. A. Montgomery, Jr., 
 J. E. Peralta, F. Ogliaro, M. Bearpark, J. J. Heyd, E. Brothers, 
 K. N. Kudin, V. N. Staroverov, T. Keith, R. Kobayashi, J. Normand, 
 K. Raghavachari, A. Rendell, J. C. Burant, S. S. Iyengar, J. Tomasi, 
 M. Cossi, N. Rega, J. M. Millam, M. Klene, J. E. Knox, J. B. Cross, 
 V. Bakken, C. Adamo, J. Jaramillo, R. Gomperts, R. E. Stratmann, 
 O. Yazyev, A. J. Austin, R. Cammi, C. Pomelli, J. W. Ochterski, 
 R. L. Martin, K. Morokuma, V. G. Zakrzewski, G. A. Voth, 
 P. Salvador, J. J. Dannenberg, S. Dapprich, A. D. Daniels, 
 O. Farkas, J. B. Foresman, J. V. Ortiz, J. Cioslowski, 
 and D. J. Fox, Gaussian, Inc., Wallingford CT, 2013.
 
 ******************************************
 Gaussian 09:  ES64L-G09RevD.01 24-Apr-2013
                 7-Nov-2015 
 ******************************************
 %mem=6GB
 %nprocshared=4
 Will use up to    4 processors via shared memory.
 ----------------------------------------------
 #p B3LYP/6-31G(d) opt=tight int=ultrafine freq
 ----------------------------------------------
 1/7=10,14=-1,18=20,19=15,26=4,38=1/1,3;
 2/9=110,12=2,17=6,18=5,40=1/2;
 3/5=1,6=6,7=1,11=2,16=1,25=1,30=1,71=1,74=-5,75=-5/1,2,3;
 4//1;
 5/5=2,38=5/2;
 6/7=2,8=2,9=2,10=2,28=1/1;
 7//1,2,3,16;
 1/7=10,14=-1,18=20,19=15,26=4/3(2);
 2/9=110/2;
 99//99;
 2/9=110/2;
 3/5=1,6=6,7=1,11=2,16=1,25=1,30=1,71=1,74=-5,75=-5/1,2,3;
 4/5=5,16=3,69=1/1;
 5/5=2,38=5/2;
 7//1,2,3,16;
 1/7=10,14=-1,18=20,19=15,26=4/3(-5);
 2/9=110/2;
 6/7=2,8=2,9=2,10=2,19=2,28=1/1;
 99/9=1/99;
 Leave Link    1 at Sat Nov  7 02:02:02 2015, MaxMem=   805306368 cpu:         0.2
 (Enter /home/hetanjin/apps/g09D01/g09/l101.exe)
 ---------------------------------------------
 using B3LYP/6-31G(d) to do opt and freq calc.
 ---------------------------------------------
 Symbolic Z-matrix:
 Charge =  0 Multiplicity = 2
 C                     2.1588   -1.03826   0.03329 
 H                     1.92753  -2.02922  -0.37555 
 H                     2.248    -1.14076   1.12291 
 C                     1.07513  -0.01325  -0.33394 
 H                     1.02737   0.04492  -1.43284 
 C                    -0.30521  -0.48286   0.1671 
 H                    -0.29365  -0.5158    1.26793 
 H                    -0.46137  -1.52058  -0.16344 
 C                    -1.49862   0.36099  -0.30192 
 H                    -1.48122   0.43273  -1.39913 
 H                    -1.40332   1.3884    0.07251 
 C                    -2.84619  -0.21322   0.1491 
 H                    -2.90621  -0.27062   1.24305 
 H                    -3.68183   0.40554  -0.19769 
 H                    -2.99673  -1.22689  -0.24256 
 C                     1.45204   1.37934   0.1949 
 H                     0.73689   2.14756  -0.118 
 H                     1.48756   1.38271   1.29264 
 H                     2.44125   1.682    -0.16891 
 
 NAtoms=     19 NQM=       19 NQMF=       0 NMMI=      0 NMMIF=      0
                NMic=       0 NMicF=      0.
                    Isotopes and Nuclear Properties:
 (Nuclear quadrupole moments (NQMom) in fm**2, nuclear magnetic moments (NMagM)
  in nuclear magnetons)

  Atom         1           2           3           4           5           6           7           8           9          10
 IAtWgt=          12           1           1          12           1          12           1           1          12           1
 AtmWgt=  12.0000000   1.0078250   1.0078250  12.0000000   1.0078250  12.0000000   1.0078250   1.0078250  12.0000000   1.0078250
 NucSpn=           0           1           1           0           1           0           1           1           0           1
 AtZEff=   0.0000000   0.0000000   0.0000000   0.0000000   0.0000000   0.0000000   0.0000000   0.0000000   0.0000000   0.0000000
 NQMom=    0.0000000   0.0000000   0.0000000   0.0000000   0.0000000   0.0000000   0.0000000   0.0000000   0.0000000   0.0000000
 NMagM=    0.0000000   2.7928460   2.7928460   0.0000000   2.7928460   0.0000000   2.7928460   2.7928460   0.0000000   2.7928460
 AtZNuc=   6.0000000   1.0000000   1.0000000   6.0000000   1.0000000   6.0000000   1.0000000   1.0000000   6.0000000   1.0000000

  Atom        11          12          13          14          15          16          17          18          19
 IAtWgt=           1          12           1           1           1          12           1           1           1
 AtmWgt=   1.0078250  12.0000000   1.0078250   1.0078250   1.0078250  12.0000000   1.0078250   1.0078250   1.0078250
 NucSpn=           1           0           1           1           1           0           1           1           1
 AtZEff=   0.0000000   0.0000000   0.0000000   0.0000000   0.0000000   0.0000000   0.0000000   0.0000000   0.0000000
 NQMom=    0.0000000   0.0000000   0.0000000   0.0000000   0.0000000   0.0000000   0.0000000   0.0000000   0.0000000
 NMagM=    2.7928460   0.0000000   2.7928460   2.7928460   2.7928460   0.0000000   2.7928460   2.7928460   2.7928460
 AtZNuc=   1.0000000   6.0000000   1.0000000   1.0000000   1.0000000   6.0000000   1.0000000   1.0000000   1.0000000
 Leave Link  101 at Sat Nov  7 02:02:02 2015, MaxMem=   805306368 cpu:         0.6
 (Enter /home/hetanjin/apps/g09D01/g09/l103.exe)

 GradGradGradGradGradGradGradGradGradGradGradGradGradGradGradGradGradGrad
 Berny optimization.
 Initialization pass.
                           ----------------------------
                           !    Initial Parameters    !
                           ! (Angstroms and Degrees)  !
 --------------------------                            --------------------------
 ! Name  Definition              Value          Derivative Info.                !
 --------------------------------------------------------------------------------
 ! R1    R(1,2)                  1.0967         estimate D2E/DX2                !
 ! R2    R(1,3)                  1.0981         estimate D2E/DX2                !
 ! R3    R(1,4)                  1.5362         estimate D2E/DX2                !
 ! R4    R(4,5)                  1.1015         estimate D2E/DX2                !
 ! R5    R(4,6)                  1.5417         estimate D2E/DX2                !
 ! R6    R(4,16)                 1.5366         estimate D2E/DX2                !
 ! R7    R(6,7)                  1.1014         estimate D2E/DX2                !
 ! R8    R(6,8)                  1.1002         estimate D2E/DX2                !
 ! R9    R(6,9)                  1.535          estimate D2E/DX2                !
 ! R10   R(9,10)                 1.0997         estimate D2E/DX2                !
 ! R11   R(9,11)                 1.0977         estimate D2E/DX2                !
 ! R12   R(9,12)                 1.5327         estimate D2E/DX2                !
 ! R13   R(12,13)                1.0971         estimate D2E/DX2                !
 ! R14   R(12,14)                1.0961         estimate D2E/DX2                !
 ! R15   R(12,15)                1.0971         estimate D2E/DX2                !
 ! R16   R(16,17)                1.0952         estimate D2E/DX2                !
 ! R17   R(16,18)                1.0983         estimate D2E/DX2                !
 ! R18   R(16,19)                1.0966         estimate D2E/DX2                !
 ! A1    A(2,1,3)              107.6218         estimate D2E/DX2                !
 ! A2    A(2,1,4)              111.411          estimate D2E/DX2                !
 ! A3    A(3,1,4)              110.9048         estimate D2E/DX2                !
 ! A4    A(1,4,5)              107.7173         estimate D2E/DX2                !
 ! A5    A(1,4,6)              110.5269         estimate D2E/DX2                !
 ! A6    A(1,4,16)             110.4513         estimate D2E/DX2                !
 ! A7    A(5,4,6)              107.5475         estimate D2E/DX2                !
 ! A8    A(5,4,16)             107.8272         estimate D2E/DX2                !
 ! A9    A(6,4,16)             112.5709         estimate D2E/DX2                !
 ! A10   A(4,6,7)              108.9373         estimate D2E/DX2                !
 ! A11   A(4,6,8)              108.4663         estimate D2E/DX2                !
 ! A12   A(4,6,9)              115.4245         estimate D2E/DX2                !
 ! A13   A(7,6,8)              105.8761         estimate D2E/DX2                !
 ! A14   A(7,6,9)              109.2684         estimate D2E/DX2                !
 ! A15   A(8,6,9)              108.4426         estimate D2E/DX2                !
 ! A16   A(6,9,10)             109.1727         estimate D2E/DX2                !
 ! A17   A(6,9,11)             110.049          estimate D2E/DX2                !
 ! A18   A(6,9,12)             112.8109         estimate D2E/DX2                !
 ! A19   A(10,9,11)            106.1361         estimate D2E/DX2                !
 ! A20   A(10,9,12)            109.3876         estimate D2E/DX2                !
 ! A21   A(11,9,12)            109.064          estimate D2E/DX2                !
 ! A22   A(9,12,13)            111.1695         estimate D2E/DX2                !
 ! A23   A(9,12,14)            111.4511         estimate D2E/DX2                !
 ! A24   A(9,12,15)            111.208          estimate D2E/DX2                !
 ! A25   A(13,12,14)           107.6561         estimate D2E/DX2                !
 ! A26   A(13,12,15)           107.4655         estimate D2E/DX2                !
 ! A27   A(14,12,15)           107.7002         estimate D2E/DX2                !
 ! A28   A(4,16,17)            112.1608         estimate D2E/DX2                !
 ! A29   A(4,16,18)            110.7757         estimate D2E/DX2                !
 ! A30   A(4,16,19)            110.9303         estimate D2E/DX2                !
 ! A31   A(17,16,18)           107.7288         estimate D2E/DX2                !
 ! A32   A(17,16,19)           107.4963         estimate D2E/DX2                !
 ! A33   A(18,16,19)           107.5521         estimate D2E/DX2                !
 ! D1    D(2,1,4,5)            -59.9218         estimate D2E/DX2                !
 ! D2    D(2,1,4,6)             57.3095         estimate D2E/DX2                !
 ! D3    D(2,1,4,16)          -177.4475         estimate D2E/DX2                !
 ! D4    D(3,1,4,5)           -179.7802         estimate D2E/DX2                !
 ! D5    D(3,1,4,6)            -62.549          estimate D2E/DX2                !
 ! D6    D(3,1,4,16)            62.6941         estimate D2E/DX2                !
 ! D7    D(1,4,6,7)             64.5902         estimate D2E/DX2                !
 ! D8    D(1,4,6,8)            -50.2121         estimate D2E/DX2                !
 ! D9    D(1,4,6,9)           -172.0848         estimate D2E/DX2                !
 ! D10   D(5,4,6,7)           -178.0739         estimate D2E/DX2                !
 ! D11   D(5,4,6,8)             67.1238         estimate D2E/DX2                !
 ! D12   D(5,4,6,9)            -54.749          estimate D2E/DX2                !
 ! D13   D(16,4,6,7)           -59.4435         estimate D2E/DX2                !
 ! D14   D(16,4,6,8)          -174.2457         estimate D2E/DX2                !
 ! D15   D(16,4,6,9)            63.8815         estimate D2E/DX2                !
 ! D16   D(1,4,16,17)          175.5612         estimate D2E/DX2                !
 ! D17   D(1,4,16,18)          -64.0287         estimate D2E/DX2                !
 ! D18   D(1,4,16,19)           55.3403         estimate D2E/DX2                !
 ! D19   D(5,4,16,17)           58.1032         estimate D2E/DX2                !
 ! D20   D(5,4,16,18)          178.5133         estimate D2E/DX2                !
 ! D21   D(5,4,16,19)          -62.1177         estimate D2E/DX2                !
 ! D22   D(6,4,16,17)          -60.3633         estimate D2E/DX2                !
 ! D23   D(6,4,16,18)           60.0468         estimate D2E/DX2                !
 ! D24   D(6,4,16,19)          179.4158         estimate D2E/DX2                !
 ! D25   D(4,6,9,10)            54.1765         estimate D2E/DX2                !
 ! D26   D(4,6,9,11)           -61.9346         estimate D2E/DX2                !
 ! D27   D(4,6,9,12)           176.0138         estimate D2E/DX2                !
 ! D28   D(7,6,9,10)           177.3265         estimate D2E/DX2                !
 ! D29   D(7,6,9,11)            61.2154         estimate D2E/DX2                !
 ! D30   D(7,6,9,12)           -60.8362         estimate D2E/DX2                !
 ! D31   D(8,6,9,10)           -67.709          estimate D2E/DX2                !
 ! D32   D(8,6,9,11)           176.1799         estimate D2E/DX2                !
 ! D33   D(8,6,9,12)            54.1283         estimate D2E/DX2                !
 ! D34   D(6,9,12,13)           59.9145         estimate D2E/DX2                !
 ! D35   D(6,9,12,14)         -179.978          estimate D2E/DX2                !
 ! D36   D(6,9,12,15)          -59.7885         estimate D2E/DX2                !
 ! D37   D(10,9,12,13)        -178.3696         estimate D2E/DX2                !
 ! D38   D(10,9,12,14)         -58.2621         estimate D2E/DX2                !
 ! D39   D(10,9,12,15)          61.9275         estimate D2E/DX2                !
 ! D40   D(11,9,12,13)         -62.6901         estimate D2E/DX2                !
 ! D41   D(11,9,12,14)          57.4174         estimate D2E/DX2                !
 ! D42   D(11,9,12,15)         177.607          estimate D2E/DX2                !
 --------------------------------------------------------------------------------
 Trust Radius=3.00D-01 FncErr=1.00D-07 GrdErr=1.00D-06
 Number of steps in this run=    103 maximum allowed number of steps=    114.
 GradGradGradGradGradGradGradGradGradGradGradGradGradGradGradGradGradGrad

 Leave Link  103 at Sat Nov  7 02:02:02 2015, MaxMem=   805306368 cpu:         0.0
 (Enter /home/hetanjin/apps/g09D01/g09/l202.exe)
                          Input orientation:                          
 ---------------------------------------------------------------------
 Center     Atomic      Atomic             Coordinates (Angstroms)
 Number     Number       Type             X           Y           Z
 ---------------------------------------------------------------------
      1          6           0        2.158797   -1.038262    0.033294
      2          1           0        1.927533   -2.029222   -0.375554
      3          1           0        2.248004   -1.140761    1.122907
      4          6           0        1.075129   -0.013247   -0.333943
      5          1           0        1.027373    0.044919   -1.432844
      6          6           0       -0.305208   -0.482864    0.167098
      7          1           0       -0.293645   -0.515801    1.267925
      8          1           0       -0.461374   -1.520579   -0.163436
      9          6           0       -1.498621    0.360991   -0.301923
     10          1           0       -1.481223    0.432726   -1.399129
     11          1           0       -1.403322    1.388403    0.072512
     12          6           0       -2.846192   -0.213221    0.149098
     13          1           0       -2.906213   -0.270618    1.243053
     14          1           0       -3.681827    0.405542   -0.197689
     15          1           0       -2.996731   -1.226889   -0.242561
     16          6           0        1.452038    1.379337    0.194904
     17          1           0        0.736890    2.147561   -0.117998
     18          1           0        1.487561    1.382710    1.292643
     19          1           0        2.441246    1.682004   -0.168912
 ---------------------------------------------------------------------
                    Distance matrix (angstroms):
                    1          2          3          4          5
     1  C    0.000000
     2  H    1.096650   0.000000
     3  H    1.098053   1.771285   0.000000
     4  C    1.536182   2.189173   2.183881   0.000000
     5  H    2.145451   2.496039   3.070446   1.101475   0.000000
     6  C    2.529366   2.769626   2.804513   1.541724   2.148055
     7  H    2.794951   3.150412   2.621371   2.166122   3.058374
     8  H    2.671447   2.451650   3.023189   2.159158   2.505703
     9  C    3.930265   4.178166   4.280490   2.601013   2.785593
    10  H    4.179161   4.327645   4.769031   2.805076   2.538619
    11  H    4.310329   4.793279   4.564228   2.876204   3.159007
    12  C    5.073856   5.134352   5.268725   3.956018   4.192098
    13  H    5.263755   5.392372   5.228531   4.290016   4.767923
    14  H    6.020865   6.117567   6.268806   4.777298   4.881826
    15  H    5.166347   4.990972   5.420255   4.249861   4.384938
    16  C    2.523967   3.488523   2.801008   1.536564   2.147225
    17  H    3.492016   4.350802   3.825751   2.197755   2.496859
    18  H    2.810271   3.823315   2.641021   2.182791   3.070788
    19  H    2.742355   3.752306   3.110328   2.183435   2.505316
                    6          7          8          9         10
     6  C    0.000000
     7  H    1.101380   0.000000
     8  H    1.100224   1.756846   0.000000
     9  C    1.535027   2.164522   2.152990   0.000000
    10  H    2.162032   3.069727   2.526347   1.099686   0.000000
    11  H    2.171737   2.507267   3.066776   1.097661   1.756449
    12  C    2.555314   2.803360   2.737557   1.532673   2.162729
    13  H    2.822757   2.624166   3.085102   2.183391   3.083247
    14  H    3.510540   3.804823   3.752657   2.186147   2.507360
    15  H    2.822355   3.177088   2.553537   2.183854   2.527595
    16  C    2.560562   2.791116   3.492716   3.160736   3.470019
    17  H    2.843657   3.174316   3.859165   2.867607   3.082528
    18  H    2.821567   2.603392   3.787823   3.536076   4.118469
    19  H    3.513199   3.791369   4.322241   4.157562   4.296498
                   11         12         13         14         15
    11  H    0.000000
    12  C    2.157067   0.000000
    13  H    2.526103   1.097103   0.000000
    14  H    2.496119   1.096091   1.770454   0.000000
    15  H    3.078632   1.097079   1.769095   1.770932   0.000000
    16  C    2.857996   4.584007   4.776538   5.240131   5.174489
    17  H    2.278842   4.299199   4.579547   4.750373   5.034119
    18  H    3.137827   4.757742   4.694806   5.467954   5.410705
    19  H    3.863313   5.625834   5.865296   6.254775   6.167550
                   16         17         18         19
    16  C    0.000000
    17  H    1.095223   0.000000
    18  H    1.098319   1.771556   0.000000
    19  H    1.096586   1.767531   1.770659   0.000000
 Stoichiometry    C6H13(2)
 Framework group  C1[X(C6H13)]
 Deg. of freedom    51
 Full point group                 C1      NOp   1
 Largest Abelian subgroup         C1      NOp   1
 Largest concise Abelian subgroup C1      NOp   1
                         Standard orientation:                         
 ---------------------------------------------------------------------
 Center     Atomic      Atomic             Coordinates (Angstroms)
 Number     Number       Type             X           Y           Z
 ---------------------------------------------------------------------
      1          6           0        2.202332   -1.095916   -0.000863
      2          1           0        1.949025   -2.078226   -0.417450
      3          1           0        2.297603   -1.210729    1.087007
      4          6           0        1.135904   -0.046782   -0.350009
      5          1           0        1.081153    0.023004   -1.447907
      6          6           0       -0.249473   -0.494714    0.156944
      7          1           0       -0.230407   -0.538602    1.257284
      8          1           0       -0.428018   -1.525972   -0.182354
      9          6           0       -1.429861    0.376399   -0.294888
     10          1           0       -1.419198    0.458485   -1.391454
     11          1           0       -1.312043    1.398094    0.088670
     12          6           0       -2.784861   -0.176245    0.160795
     13          1           0       -2.837885   -0.243148    1.254572
     14          1           0       -3.610975    0.461777   -0.173686
     15          1           0       -2.957770   -1.182973   -0.239434
     16          6           0        1.543441    1.333096    0.189323
     17          1           0        0.840915    2.117905   -0.110753
     18          1           0        1.587137    1.325081    1.286743
     19          1           0        2.535573    1.620278   -0.179055
 ---------------------------------------------------------------------
 Rotational constants (GHZ):      6.6484389      1.7505779      1.5008441
 Leave Link  202 at Sat Nov  7 02:02:02 2015, MaxMem=   805306368 cpu:         0.1
 (Enter /home/hetanjin/apps/g09D01/g09/l301.exe)
 Standard basis: 6-31G(d) (6D, 7F)
 Ernie: Thresh=  0.10000D-02 Tol=  0.10000D-05 Strict=F.
 There are   116 symmetry adapted cartesian basis functions of A   symmetry.
 There are   116 symmetry adapted basis functions of A   symmetry.
   116 basis functions,   220 primitive gaussians,   116 cartesian basis functions
    25 alpha electrons       24 beta electrons
       nuclear repulsion energy       242.8935620898 Hartrees.
 IExCor=  402 DFT=T Ex+Corr=B3LYP ExCW=0 ScaHFX=  0.200000
 ScaDFX=  0.800000  0.720000  1.000000  0.810000 ScalE2=  1.000000  1.000000
 IRadAn=      5 IRanWt=     -1 IRanGd=            0 ICorTp=0 IEmpDi=  4
 NAtoms=   19 NActive=   19 NUniq=   19 SFac= 1.00D+00 NAtFMM=   60 NAOKFM=F Big=F
 Integral buffers will be    131072 words long.
 Raffenetti 2 integral format.
 Two-electron integral symmetry is turned on.
 Leave Link  301 at Sat Nov  7 02:02:02 2015, MaxMem=   805306368 cpu:         0.2
 (Enter /home/hetanjin/apps/g09D01/g09/l302.exe)
 NPDir=0 NMtPBC=     1 NCelOv=     1 NCel=       1 NClECP=     1 NCelD=      1
         NCelK=      1 NCelE2=     1 NClLst=     1 CellRange=     0.0.
 One-electron integrals computed using PRISM.
 NBasis=   116 RedAO= T EigKep=  3.68D-03  NBF=   116
 NBsUse=   116 1.00D-06 EigRej= -1.00D+00 NBFU=   116
 Precomputing XC quadrature grid using
 IXCGrd= 4 IRadAn=           5 IRanWt=          -1 IRanGd=           0 AccXCQ= 0.00D+00.
 Generated NRdTot=       0 NPtTot=           0 NUsed=           0 NTot=          32
 NSgBfM=   116   116   116   116   116 MxSgAt=    19 MxSgA2=    19.
 Leave Link  302 at Sat Nov  7 02:02:03 2015, MaxMem=   805306368 cpu:         1.9
 (Enter /home/hetanjin/apps/g09D01/g09/l303.exe)
 DipDrv:  MaxL=1.
 Leave Link  303 at Sat Nov  7 02:02:03 2015, MaxMem=   805306368 cpu:         0.2
 (Enter /home/hetanjin/apps/g09D01/g09/l401.exe)
 ExpMin= 1.61D-01 ExpMax= 3.05D+03 ExpMxC= 4.57D+02 IAcc=3 IRadAn=         5 AccDes= 0.00D+00
 Harris functional with IExCor=  402 and IRadAn=       5 diagonalized for initial guess.
 HarFok:  IExCor=  402 AccDes= 0.00D+00 IRadAn=         5 IDoV= 1 UseB2=F ITyADJ=14
 ICtDFT=  3500011 ScaDFX=  1.000000  1.000000  1.000000  1.000000
 FoFCou: FMM=F IPFlag=           0 FMFlag=      100000 FMFlg1=           0
         NFxFlg=           0 DoJE=T BraDBF=F KetDBF=T FulRan=T
         wScrn=  0.000000 ICntrl=     500 IOpCl=  0 I1Cent=   200000004 NGrid=           0
         NMat0=    1 NMatS0=      1 NMatT0=    0 NMatD0=    1 NMtDS0=    0 NMtDT0=    0
 Petite list used in FoFCou.
 Harris En= -236.439998470543    
 JPrj=0 DoOrth=F DoCkMO=F.
 Initial guess <Sx>= 0.0000 <Sy>= 0.0000 <Sz>= 0.5000 <S**2>= 0.7500 S= 0.5000
 Leave Link  401 at Sat Nov  7 02:02:05 2015, MaxMem=   805306368 cpu:         8.3
 (Enter /home/hetanjin/apps/g09D01/g09/l502.exe)
 UHF open shell SCF:
 Using DIIS extrapolation, IDIIS=  1040.
 Integral symmetry usage will be decided dynamically.
 Keep R1 and R2 ints in memory in canonical form, NReq=47059932.
 IVT=       60514 IEndB=       60514 NGot=   805306368 MDV=   759189273
 LenX=   759189273 LenY=   759175376
 Requested convergence on RMS density matrix=1.00D-08 within 128 cycles.
 Requested convergence on MAX density matrix=1.00D-06.
 Requested convergence on             energy=1.00D-06.
 No special actions if energy rises.
 FoFCou: FMM=F IPFlag=           0 FMFlag=           0 FMFlg1=           0
         NFxFlg=           0 DoJE=F BraDBF=F KetDBF=F FulRan=T
         wScrn=  0.000000 ICntrl=     600 IOpCl=  0 I1Cent=           0 NGrid=           0
         NMat0=    1 NMatS0=   6786 NMatT0=    0 NMatD0=    1 NMtDS0=    0 NMtDT0=    0
 Symmetry not used in FoFCou.
 Integral accuracy reduced to 1.0D-05 until final iterations.

 Cycle   1  Pass 0  IDiag  1:
 E= -236.155163888795    
 DIIS: error= 4.14D-02 at cycle   1 NSaved=   1.
 NSaved= 1 IEnMin= 1 EnMin= -236.155163888795     IErMin= 1 ErrMin= 4.14D-02
 ErrMax= 4.14D-02  0.00D+00 EMaxC= 1.00D-01 BMatC= 8.67D-01 BMatP= 8.67D-01
 IDIUse=3 WtCom= 5.86D-01 WtEn= 4.14D-01
 Coeff-Com:  0.100D+01
 Coeff-En:   0.100D+01
 Coeff:      0.100D+01
 Gap=     0.287 Goal=   None    Shift=    0.000
 Gap=     0.250 Goal=   None    Shift=    0.000
 GapD=    0.250 DampG=1.000 DampE=0.500 DampFc=0.5000 IDamp=-1.
 Damping current iteration by 5.00D-01
 RMSDP=9.43D-03 MaxDP=1.37D-01              OVMax= 1.79D-01

 Cycle   2  Pass 0  IDiag  1:
 E= -236.265173601875     Delta-E=       -0.110009713079 Rises=F Damp=T
 DIIS: error= 8.32D-03 at cycle   2 NSaved=   2.
 NSaved= 2 IEnMin= 2 EnMin= -236.265173601875     IErMin= 2 ErrMin= 8.32D-03
 ErrMax= 8.32D-03  0.00D+00 EMaxC= 1.00D-01 BMatC= 3.88D-02 BMatP= 8.67D-01
 IDIUse=3 WtCom= 9.17D-01 WtEn= 8.32D-02
 Coeff-Com:  0.700D-01 0.930D+00
 Coeff-En:   0.113D+00 0.887D+00
 Coeff:      0.736D-01 0.926D+00
 Gap=     0.321 Goal=   None    Shift=    0.000
 Gap=     0.271 Goal=   None    Shift=    0.000
 RMSDP=1.49D-03 MaxDP=2.48D-02 DE=-1.10D-01 OVMax= 1.10D-01

 Cycle   3  Pass 0  IDiag  1:
 E= -236.399853717500     Delta-E=       -0.134680115625 Rises=F Damp=F
 DIIS: error= 3.24D-03 at cycle   3 NSaved=   3.
 NSaved= 3 IEnMin= 3 EnMin= -236.399853717500     IErMin= 3 ErrMin= 3.24D-03
 ErrMax= 3.24D-03  0.00D+00 EMaxC= 1.00D-01 BMatC= 6.67D-03 BMatP= 3.88D-02
 IDIUse=3 WtCom= 9.68D-01 WtEn= 3.24D-02
 Coeff-Com: -0.303D-02 0.233D+00 0.770D+00
 Coeff-En:   0.000D+00 0.000D+00 0.100D+01
 Coeff:     -0.293D-02 0.225D+00 0.777D+00
 Gap=     0.320 Goal=   None    Shift=    0.000
 Gap=     0.245 Goal=   None    Shift=    0.000
 RMSDP=6.20D-04 MaxDP=1.75D-02 DE=-1.35D-01 OVMax= 1.74D-02

 Cycle   4  Pass 0  IDiag  1:
 E= -236.400864510131     Delta-E=       -0.001010792631 Rises=F Damp=F
 DIIS: error= 1.76D-03 at cycle   4 NSaved=   4.
 NSaved= 4 IEnMin= 4 EnMin= -236.400864510131     IErMin= 4 ErrMin= 1.76D-03
 ErrMax= 1.76D-03  0.00D+00 EMaxC= 1.00D-01 BMatC= 2.87D-03 BMatP= 6.67D-03
 IDIUse=3 WtCom= 9.82D-01 WtEn= 1.76D-02
 Coeff-Com: -0.611D-02 0.367D-01 0.405D+00 0.564D+00
 Coeff-En:   0.000D+00 0.000D+00 0.288D+00 0.712D+00
 Coeff:     -0.601D-02 0.360D-01 0.403D+00 0.567D+00
 Gap=     0.313 Goal=   None    Shift=    0.000
 Gap=     0.252 Goal=   None    Shift=    0.000
 RMSDP=2.36D-04 MaxDP=6.17D-03 DE=-1.01D-03 OVMax= 9.20D-03

 Cycle   5  Pass 0  IDiag  1:
 E= -236.401592846313     Delta-E=       -0.000728336182 Rises=F Damp=F
 DIIS: error= 2.62D-04 at cycle   5 NSaved=   5.
 NSaved= 5 IEnMin= 5 EnMin= -236.401592846313     IErMin= 5 ErrMin= 2.62D-04
 ErrMax= 2.62D-04  0.00D+00 EMaxC= 1.00D-01 BMatC= 7.00D-05 BMatP= 2.87D-03
 IDIUse=3 WtCom= 9.97D-01 WtEn= 2.62D-03
 Coeff-Com: -0.150D-02-0.250D-02 0.857D-01 0.194D+00 0.724D+00
 Coeff-En:   0.000D+00 0.000D+00 0.000D+00 0.000D+00 0.100D+01
 Coeff:     -0.149D-02-0.249D-02 0.854D-01 0.194D+00 0.725D+00
 Gap=     0.314 Goal=   None    Shift=    0.000
 Gap=     0.252 Goal=   None    Shift=    0.000
 RMSDP=4.49D-05 MaxDP=9.30D-04 DE=-7.28D-04 OVMax= 1.13D-03

 Cycle   6  Pass 0  IDiag  1:
 E= -236.401610889554     Delta-E=       -0.000018043241 Rises=F Damp=F
 DIIS: error= 8.03D-05 at cycle   6 NSaved=   6.
 NSaved= 6 IEnMin= 6 EnMin= -236.401610889554     IErMin= 6 ErrMin= 8.03D-05
 ErrMax= 8.03D-05  0.00D+00 EMaxC= 1.00D-01 BMatC= 5.64D-06 BMatP= 7.00D-05
 IDIUse=1 WtCom= 1.00D+00 WtEn= 0.00D+00
 Coeff-Com: -0.173D-03-0.289D-02 0.202D-02 0.285D-01 0.228D+00 0.745D+00
 Coeff:     -0.173D-03-0.289D-02 0.202D-02 0.285D-01 0.228D+00 0.745D+00
 Gap=     0.314 Goal=   None    Shift=    0.000
 Gap=     0.252 Goal=   None    Shift=    0.000
 RMSDP=1.59D-05 MaxDP=4.61D-04 DE=-1.80D-05 OVMax= 4.47D-04

 Cycle   7  Pass 0  IDiag  1:
 E= -236.401612643031     Delta-E=       -0.000001753477 Rises=F Damp=F
 DIIS: error= 3.64D-05 at cycle   7 NSaved=   7.
 NSaved= 7 IEnMin= 7 EnMin= -236.401612643031     IErMin= 7 ErrMin= 3.64D-05
 ErrMax= 3.64D-05  0.00D+00 EMaxC= 1.00D-01 BMatC= 1.34D-06 BMatP= 5.64D-06
 IDIUse=1 WtCom= 1.00D+00 WtEn= 0.00D+00
 Coeff-Com:  0.233D-03-0.432D-03-0.191D-01-0.337D-01-0.856D-01 0.294D+00
 Coeff-Com:  0.844D+00
 Coeff:      0.233D-03-0.432D-03-0.191D-01-0.337D-01-0.856D-01 0.294D+00
 Coeff:      0.844D+00
 Gap=     0.314 Goal=   None    Shift=    0.000
 Gap=     0.252 Goal=   None    Shift=    0.000
 RMSDP=7.39D-06 MaxDP=2.23D-04 DE=-1.75D-06 OVMax= 2.45D-04

 Initial convergence to 1.0D-05 achieved.  Increase integral accuracy.
 Cycle   8  Pass 1  IDiag  1:
 E= -236.401585215123     Delta-E=        0.000027427907 Rises=F Damp=F
 DIIS: error= 7.53D-06 at cycle   1 NSaved=   1.
 NSaved= 1 IEnMin= 1 EnMin= -236.401585215123     IErMin= 1 ErrMin= 7.53D-06
 ErrMax= 7.53D-06  0.00D+00 EMaxC= 1.00D-01 BMatC= 9.24D-08 BMatP= 9.24D-08
 IDIUse=1 WtCom= 1.00D+00 WtEn= 0.00D+00
 Coeff-Com:  0.100D+01
 Coeff:      0.100D+01
 Gap=     0.314 Goal=   None    Shift=    0.000
 Gap=     0.252 Goal=   None    Shift=    0.000
 RMSDP=7.39D-06 MaxDP=2.23D-04 DE= 2.74D-05 OVMax= 6.50D-05

 Cycle   9  Pass 1  IDiag  1:
 E= -236.401585235221     Delta-E=       -0.000000020098 Rises=F Damp=F
 DIIS: error= 6.43D-06 at cycle   2 NSaved=   2.
 NSaved= 2 IEnMin= 2 EnMin= -236.401585235221     IErMin= 2 ErrMin= 6.43D-06
 ErrMax= 6.43D-06  0.00D+00 EMaxC= 1.00D-01 BMatC= 6.11D-08 BMatP= 9.24D-08
 IDIUse=1 WtCom= 1.00D+00 WtEn= 0.00D+00
 Coeff-Com:  0.437D+00 0.563D+00
 Coeff:      0.437D+00 0.563D+00
 Gap=     0.314 Goal=   None    Shift=    0.000
 Gap=     0.252 Goal=   None    Shift=    0.000
 RMSDP=1.32D-06 MaxDP=2.19D-05 DE=-2.01D-08 OVMax= 3.23D-05

 Cycle  10  Pass 1  IDiag  1:
 E= -236.401585250955     Delta-E=       -0.000000015734 Rises=F Damp=F
 DIIS: error= 1.85D-06 at cycle   3 NSaved=   3.
 NSaved= 3 IEnMin= 3 EnMin= -236.401585250955     IErMin= 3 ErrMin= 1.85D-06
 ErrMax= 1.85D-06  0.00D+00 EMaxC= 1.00D-01 BMatC= 4.63D-09 BMatP= 6.11D-08
 IDIUse=1 WtCom= 1.00D+00 WtEn= 0.00D+00
 Coeff-Com: -0.307D-01 0.144D+00 0.887D+00
 Coeff:     -0.307D-01 0.144D+00 0.887D+00
 Gap=     0.314 Goal=   None    Shift=    0.000
 Gap=     0.252 Goal=   None    Shift=    0.000
 RMSDP=4.81D-07 MaxDP=1.37D-05 DE=-1.57D-08 OVMax= 1.05D-05

 Cycle  11  Pass 1  IDiag  1:
 E= -236.401585252653     Delta-E=       -0.000000001698 Rises=F Damp=F
 DIIS: error= 8.84D-07 at cycle   4 NSaved=   4.
 NSaved= 4 IEnMin= 4 EnMin= -236.401585252653     IErMin= 4 ErrMin= 8.84D-07
 ErrMax= 8.84D-07  0.00D+00 EMaxC= 1.00D-01 BMatC= 1.02D-09 BMatP= 4.63D-09
 IDIUse=1 WtCom= 1.00D+00 WtEn= 0.00D+00
 Coeff-Com: -0.964D-01-0.550D-01 0.342D+00 0.810D+00
 Coeff:     -0.964D-01-0.550D-01 0.342D+00 0.810D+00
 Gap=     0.314 Goal=   None    Shift=    0.000
 Gap=     0.252 Goal=   None    Shift=    0.000
 RMSDP=2.43D-07 MaxDP=5.87D-06 DE=-1.70D-09 OVMax= 5.74D-06

 Cycle  12  Pass 1  IDiag  1:
 E= -236.401585253053     Delta-E=       -0.000000000401 Rises=F Damp=F
 DIIS: error= 3.34D-07 at cycle   5 NSaved=   5.
 NSaved= 5 IEnMin= 5 EnMin= -236.401585253053     IErMin= 5 ErrMin= 3.34D-07
 ErrMax= 3.34D-07  0.00D+00 EMaxC= 1.00D-01 BMatC= 7.52D-11 BMatP= 1.02D-09
 IDIUse=1 WtCom= 1.00D+00 WtEn= 0.00D+00
 Coeff-Com: -0.257D-01-0.319D-01 0.103D-01 0.232D+00 0.816D+00
 Coeff:     -0.257D-01-0.319D-01 0.103D-01 0.232D+00 0.816D+00
 Gap=     0.314 Goal=   None    Shift=    0.000
 Gap=     0.252 Goal=   None    Shift=    0.000
 RMSDP=6.24D-08 MaxDP=2.06D-06 DE=-4.01D-10 OVMax= 2.13D-06

 Cycle  13  Pass 1  IDiag  1:
 E= -236.401585253076     Delta-E=       -0.000000000022 Rises=F Damp=F
 DIIS: error= 1.40D-07 at cycle   6 NSaved=   6.
 NSaved= 6 IEnMin= 6 EnMin= -236.401585253076     IErMin= 6 ErrMin= 1.40D-07
 ErrMax= 1.40D-07  0.00D+00 EMaxC= 1.00D-01 BMatC= 1.74D-11 BMatP= 7.52D-11
 IDIUse=1 WtCom= 1.00D+00 WtEn= 0.00D+00
 Coeff-Com:  0.957D-03-0.745D-02-0.396D-01 0.197D-02 0.377D+00 0.667D+00
 Coeff:      0.957D-03-0.745D-02-0.396D-01 0.197D-02 0.377D+00 0.667D+00
 Gap=     0.314 Goal=   None    Shift=    0.000
 Gap=     0.252 Goal=   None    Shift=    0.000
 RMSDP=2.21D-08 MaxDP=7.11D-07 DE=-2.22D-11 OVMax= 6.32D-07

 Cycle  14  Pass 1  IDiag  1:
 E= -236.401585253081     Delta-E=       -0.000000000005 Rises=F Damp=F
 DIIS: error= 2.72D-08 at cycle   7 NSaved=   7.
 NSaved= 7 IEnMin= 7 EnMin= -236.401585253081     IErMin= 7 ErrMin= 2.72D-08
 ErrMax= 2.72D-08  0.00D+00 EMaxC= 1.00D-01 BMatC= 8.69D-13 BMatP= 1.74D-11
 IDIUse=1 WtCom= 1.00D+00 WtEn= 0.00D+00
 Coeff-Com:  0.180D-02-0.876D-03-0.152D-01-0.132D-01 0.924D-01 0.259D+00
 Coeff-Com:  0.676D+00
 Coeff:      0.180D-02-0.876D-03-0.152D-01-0.132D-01 0.924D-01 0.259D+00
 Coeff:      0.676D+00
 Gap=     0.314 Goal=   None    Shift=    0.000
 Gap=     0.252 Goal=   None    Shift=    0.000
 RMSDP=5.57D-09 MaxDP=1.28D-07 DE=-5.34D-12 OVMax= 1.41D-07

 SCF Done:  E(UB3LYP) =  -236.401585253     A.U. after   14 cycles
            NFock= 14  Conv=0.56D-08     -V/T= 2.0104
 <Sx>= 0.0000 <Sy>= 0.0000 <Sz>= 0.5000 <S**2>= 0.7527 S= 0.5013
 <L.S>= 0.000000000000E+00
 KE= 2.339693393877D+02 PE=-1.031286431933D+03 EE= 3.180219452026D+02
 Annihilation of the first spin contaminant:
 S**2 before annihilation     0.7527,   after     0.7500
 Leave Link  502 at Sat Nov  7 02:02:48 2015, MaxMem=   805306368 cpu:       155.8
 (Enter /home/hetanjin/apps/g09D01/g09/l601.exe)
 Copying SCF densities to generalized density rwf, IOpCl= 1 IROHF=0.

 **********************************************************************

            Population analysis using the SCF density.

 **********************************************************************

 Orbital symmetries:
 Alpha Orbitals:
       Occupied  (A) (A) (A) (A) (A) (A) (A) (A) (A) (A) (A) (A)
                 (A) (A) (A) (A) (A) (A) (A) (A) (A) (A) (A) (A)
                 (A)
       Virtual   (A) (A) (A) (A) (A) (A) (A) (A) (A) (A) (A) (A)
                 (A) (A) (A) (A) (A) (A) (A) (A) (A) (A) (A) (A)
                 (A) (A) (A) (A) (A) (A) (A) (A) (A) (A) (A) (A)
                 (A) (A) (A) (A) (A) (A) (A) (A) (A) (A) (A) (A)
                 (A) (A) (A) (A) (A) (A) (A) (A) (A) (A) (A) (A)
                 (A) (A) (A) (A) (A) (A) (A) (A) (A) (A) (A) (A)
                 (A) (A) (A) (A) (A) (A) (A) (A) (A) (A) (A) (A)
                 (A) (A) (A) (A) (A) (A) (A)
 Beta  Orbitals:
       Occupied  (A) (A) (A) (A) (A) (A) (A) (A) (A) (A) (A) (A)
                 (A) (A) (A) (A) (A) (A) (A) (A) (A) (A) (A) (A)
       Virtual   (A) (A) (A) (A) (A) (A) (A) (A) (A) (A) (A) (A)
                 (A) (A) (A) (A) (A) (A) (A) (A) (A) (A) (A) (A)
                 (A) (A) (A) (A) (A) (A) (A) (A) (A) (A) (A) (A)
                 (A) (A) (A) (A) (A) (A) (A) (A) (A) (A) (A) (A)
                 (A) (A) (A) (A) (A) (A) (A) (A) (A) (A) (A) (A)
                 (A) (A) (A) (A) (A) (A) (A) (A) (A) (A) (A) (A)
                 (A) (A) (A) (A) (A) (A) (A) (A) (A) (A) (A) (A)
                 (A) (A) (A) (A) (A) (A) (A) (A)
 The electronic state is 2-A.
 Alpha  occ. eigenvalues --  -10.19233 -10.18919 -10.18146 -10.18120 -10.17410
 Alpha  occ. eigenvalues --  -10.16956  -0.81098  -0.75812  -0.67736  -0.66721
 Alpha  occ. eigenvalues --   -0.58842  -0.55472  -0.47022  -0.43939  -0.43635
 Alpha  occ. eigenvalues --   -0.41463  -0.38893  -0.37957  -0.36611  -0.35248
 Alpha  occ. eigenvalues --   -0.33416  -0.33057  -0.31923  -0.31625  -0.22620
 Alpha virt. eigenvalues --    0.08790   0.11166   0.12040   0.12742   0.15453
 Alpha virt. eigenvalues --    0.16233   0.16636   0.17287   0.17710   0.18470
 Alpha virt. eigenvalues --    0.19385   0.21240   0.21789   0.23463   0.24496
 Alpha virt. eigenvalues --    0.26358   0.27417   0.28251   0.49580   0.51274
 Alpha virt. eigenvalues --    0.52327   0.53053   0.53215   0.55728   0.57273
 Alpha virt. eigenvalues --    0.59808   0.63116   0.66738   0.68060   0.69935
 Alpha virt. eigenvalues --    0.71835   0.74355   0.77423   0.81066   0.84914
 Alpha virt. eigenvalues --    0.86245   0.86771   0.89773   0.90186   0.90308
 Alpha virt. eigenvalues --    0.91454   0.92411   0.93772   0.95005   0.95556
 Alpha virt. eigenvalues --    0.96855   0.98148   1.00556   1.02738   1.09531
 Alpha virt. eigenvalues --    1.26943   1.30738   1.40556   1.42697   1.45038
 Alpha virt. eigenvalues --    1.53914   1.60703   1.67558   1.69340   1.78387
 Alpha virt. eigenvalues --    1.80245   1.83985   1.89453   1.92904   1.93300
 Alpha virt. eigenvalues --    1.97096   1.99426   1.99908   2.03317   2.06587
 Alpha virt. eigenvalues --    2.10000   2.15356   2.21129   2.23694   2.25533
 Alpha virt. eigenvalues --    2.32131   2.35100   2.37000   2.42571   2.51220
 Alpha virt. eigenvalues --    2.52690   2.58597   2.68184   2.76163   2.79240
 Alpha virt. eigenvalues --    4.10076   4.18933   4.24078   4.33248   4.46201
 Alpha virt. eigenvalues --    4.58111
  Beta  occ. eigenvalues --  -10.18945 -10.18096 -10.18022 -10.17790 -10.17404
  Beta  occ. eigenvalues --  -10.16939  -0.80649  -0.75420  -0.67498  -0.64987
  Beta  occ. eigenvalues --   -0.58247  -0.54987  -0.46878  -0.43642  -0.43197
  Beta  occ. eigenvalues --   -0.41236  -0.38609  -0.37642  -0.36396  -0.34919
  Beta  occ. eigenvalues --   -0.33233  -0.32274  -0.31785  -0.31167
  Beta virt. eigenvalues --   -0.05950   0.08900   0.11343   0.12171   0.12895
  Beta virt. eigenvalues --    0.15916   0.16548   0.16817   0.17365   0.17835
  Beta virt. eigenvalues --    0.18745   0.19480   0.21728   0.21891   0.24112
  Beta virt. eigenvalues --    0.24708   0.26459   0.28071   0.28982   0.49862
  Beta virt. eigenvalues --    0.51472   0.52718   0.53287   0.54770   0.55852
  Beta virt. eigenvalues --    0.58213   0.63453   0.64596   0.66929   0.68431
  Beta virt. eigenvalues --    0.70232   0.72281   0.74765   0.77927   0.81441
  Beta virt. eigenvalues --    0.85100   0.86408   0.86924   0.90217   0.90357
  Beta virt. eigenvalues --    0.90463   0.91768   0.92828   0.94099   0.95250
  Beta virt. eigenvalues --    0.96533   0.97017   0.98458   1.00663   1.02825
  Beta virt. eigenvalues --    1.10026   1.27058   1.32274   1.41377   1.43278
  Beta virt. eigenvalues --    1.45200   1.54480   1.60838   1.68904   1.69880
  Beta virt. eigenvalues --    1.79459   1.81718   1.84240   1.90764   1.93528
  Beta virt. eigenvalues --    1.95694   1.97385   2.00335   2.00895   2.04036
  Beta virt. eigenvalues --    2.09158   2.11278   2.16295   2.21865   2.24072
  Beta virt. eigenvalues --    2.27011   2.32287   2.35267   2.37135   2.43392
  Beta virt. eigenvalues --    2.51901   2.53252   2.58804   2.68424   2.76886
  Beta virt. eigenvalues --    2.79732   4.11110   4.20444   4.25059   4.33412
  Beta virt. eigenvalues --    4.46357   4.58333
          Condensed to atoms (all electrons):
               1          2          3          4          5          6
     1  C    5.344686   0.352175   0.354969   0.383458  -0.044892  -0.049091
     2  H    0.352175   0.599088  -0.045546  -0.039088  -0.004554  -0.001621
     3  H    0.354969  -0.045546   0.601026  -0.043559   0.005996  -0.003615
     4  C    0.383458  -0.039088  -0.043559   4.875677   0.374757   0.376383
     5  H   -0.044892  -0.004554   0.005996   0.374757   0.635999  -0.047669
     6  C   -0.049091  -0.001621  -0.003615   0.376383  -0.047669   5.038117
     7  H   -0.003376  -0.000364   0.004925  -0.037354   0.006594   0.363205
     8  H   -0.004045   0.005703  -0.000368  -0.038205  -0.003575   0.368078
     9  C    0.004328  -0.000092  -0.000066  -0.031683  -0.005798   0.380103
    10  H    0.000073  -0.000003   0.000009  -0.003326   0.006209  -0.042346
    11  H    0.000006   0.000001   0.000002  -0.004518  -0.000265  -0.038226
    12  C   -0.000132   0.000001   0.000003   0.003446   0.000031  -0.041306
    13  H    0.000000   0.000000  -0.000001   0.000057   0.000008  -0.004244
    14  H    0.000002   0.000000   0.000000  -0.000120   0.000000   0.004053
    15  H   -0.000006   0.000000   0.000000  -0.000020   0.000002  -0.004660
    16  C   -0.051586   0.005386  -0.006943   0.373859  -0.048541  -0.046913
    17  H    0.004841  -0.000200  -0.000046  -0.029304  -0.003356  -0.004510
    18  H   -0.005260  -0.000045   0.004887  -0.035175   0.005839  -0.005785
    19  H   -0.000943   0.000022  -0.000143  -0.029578  -0.003085   0.004854
               7          8          9         10         11         12
     1  C   -0.003376  -0.004045   0.004328   0.000073   0.000006  -0.000132
     2  H   -0.000364   0.005703  -0.000092  -0.000003   0.000001   0.000001
     3  H    0.004925  -0.000368  -0.000066   0.000009   0.000002   0.000003
     4  C   -0.037354  -0.038205  -0.031683  -0.003326  -0.004518   0.003446
     5  H    0.006594  -0.003575  -0.005798   0.006209  -0.000265   0.000031
     6  C    0.363205   0.368078   0.380103  -0.042346  -0.038226  -0.041306
     7  H    0.619288  -0.039315  -0.039585   0.006008  -0.005655  -0.002766
     8  H   -0.039315   0.617643  -0.041101  -0.004838   0.005823  -0.003851
     9  C   -0.039585  -0.041101   4.960710   0.376930   0.377690   0.370482
    10  H    0.006008  -0.004838   0.376930   0.609798  -0.039847  -0.038484
    11  H   -0.005655   0.005823   0.377690  -0.039847   0.601026  -0.038184
    12  C   -0.002766  -0.003851   0.370482  -0.038484  -0.038184   5.066223
    13  H    0.004626  -0.000401  -0.034959   0.005231  -0.004495   0.377502
    14  H   -0.000051   0.000012  -0.027544  -0.002698  -0.002517   0.372220
    15  H   -0.000375   0.005400  -0.034732  -0.004520   0.005149   0.377205
    16  C   -0.008094   0.005718  -0.004669  -0.000686   0.002510   0.000147
    17  H   -0.000044  -0.000053   0.001890   0.000438   0.003113  -0.000082
    18  H    0.005771  -0.000011  -0.000404   0.000079   0.000304  -0.000026
    19  H   -0.000039  -0.000165   0.000112  -0.000030  -0.000088  -0.000001
              13         14         15         16         17         18
     1  C    0.000000   0.000002  -0.000006  -0.051586   0.004841  -0.005260
     2  H    0.000000   0.000000   0.000000   0.005386  -0.000200  -0.000045
     3  H   -0.000001   0.000000   0.000000  -0.006943  -0.000046   0.004887
     4  C    0.000057  -0.000120  -0.000020   0.373859  -0.029304  -0.035175
     5  H    0.000008   0.000000   0.000002  -0.048541  -0.003356   0.005839
     6  C   -0.004244   0.004053  -0.004660  -0.046913  -0.004510  -0.005785
     7  H    0.004626  -0.000051  -0.000375  -0.008094  -0.000044   0.005771
     8  H   -0.000401   0.000012   0.005400   0.005718  -0.000053  -0.000011
     9  C   -0.034959  -0.027544  -0.034732  -0.004669   0.001890  -0.000404
    10  H    0.005231  -0.002698  -0.004520  -0.000686   0.000438   0.000079
    11  H   -0.004495  -0.002517   0.005149   0.002510   0.003113   0.000304
    12  C    0.377502   0.372220   0.377205   0.000147  -0.000082  -0.000026
    13  H    0.577768  -0.031159  -0.032759  -0.000011   0.000009   0.000001
    14  H   -0.031159   0.575321  -0.031069   0.000004   0.000005   0.000000
    15  H   -0.032759  -0.031069   0.577990   0.000001   0.000001   0.000000
    16  C   -0.000011   0.000004   0.000001   5.112080   0.368685   0.371400
    17  H    0.000009   0.000005   0.000001   0.368685   0.578058  -0.032038
    18  H    0.000001   0.000000   0.000000   0.371400  -0.032038   0.584717
    19  H    0.000000   0.000000   0.000000   0.371826  -0.030329  -0.030908
              19
     1  C   -0.000943
     2  H    0.000022
     3  H   -0.000143
     4  C   -0.029578
     5  H   -0.003085
     6  C    0.004854
     7  H   -0.000039
     8  H   -0.000165
     9  C    0.000112
    10  H   -0.000030
    11  H   -0.000088
    12  C   -0.000001
    13  H    0.000000
    14  H    0.000000
    15  H    0.000000
    16  C    0.371826
    17  H   -0.030329
    18  H   -0.030908
    19  H    0.571140
          Atomic-Atomic Spin Densities.
               1          2          3          4          5          6
     1  C    1.126518  -0.010512  -0.012043  -0.032899  -0.003776  -0.026791
     2  H   -0.010512  -0.026087   0.006128   0.000637   0.001031  -0.001992
     3  H   -0.012043   0.006128  -0.024835   0.001223   0.000123  -0.001952
     4  C   -0.032899   0.000637   0.001223  -0.039435   0.004023   0.016074
     5  H   -0.003776   0.001031   0.000123   0.004023   0.008229  -0.005797
     6  C   -0.026791  -0.001992  -0.001952   0.016074  -0.005797   0.078292
     7  H    0.002283   0.000137   0.000287  -0.000128   0.000108  -0.004067
     8  H    0.000542   0.000031   0.000067   0.000280   0.000077  -0.000581
     9  C    0.002110   0.000110   0.000094  -0.002601   0.001116  -0.013977
    10  H    0.000029   0.000002   0.000001  -0.000085   0.000060  -0.000094
    11  H   -0.000024   0.000000  -0.000001   0.000018  -0.000029   0.000488
    12  C   -0.000081  -0.000004  -0.000003   0.000065  -0.000045   0.001452
    13  H   -0.000002   0.000000   0.000000   0.000003   0.000000   0.000005
    14  H    0.000001   0.000000   0.000000   0.000000   0.000002  -0.000107
    15  H   -0.000004   0.000000   0.000000   0.000004  -0.000001   0.000019
    16  C   -0.007682   0.000062   0.000964   0.006165   0.001761  -0.002899
    17  H    0.000160  -0.000001  -0.000044   0.000067  -0.000229   0.000894
    18  H   -0.000109   0.000014   0.000020   0.000452   0.000012  -0.000307
    19  H    0.003783  -0.000072  -0.000250  -0.000874  -0.000523   0.000472
               7          8          9         10         11         12
     1  C    0.002283   0.000542   0.002110   0.000029  -0.000024  -0.000081
     2  H    0.000137   0.000031   0.000110   0.000002   0.000000  -0.000004
     3  H    0.000287   0.000067   0.000094   0.000001  -0.000001  -0.000003
     4  C   -0.000128   0.000280  -0.002601  -0.000085   0.000018   0.000065
     5  H    0.000108   0.000077   0.001116   0.000060  -0.000029  -0.000045
     6  C   -0.004067  -0.000581  -0.013977  -0.000094   0.000488   0.001452
     7  H   -0.001336   0.000448   0.001994  -0.000003  -0.000025  -0.000374
     8  H    0.000448  -0.002410   0.000493   0.000022  -0.000027  -0.000119
     9  C    0.001994   0.000493   0.030440   0.000356  -0.000596  -0.004679
    10  H   -0.000003   0.000022   0.000356  -0.000730   0.000015  -0.000228
    11  H   -0.000025  -0.000027  -0.000596   0.000015  -0.000582   0.000266
    12  C   -0.000374  -0.000119  -0.004679  -0.000228   0.000266   0.006446
    13  H   -0.000034  -0.000004  -0.000166  -0.000008   0.000012   0.000278
    14  H    0.000020   0.000009   0.000134   0.000064  -0.000062  -0.001106
    15  H   -0.000013  -0.000022  -0.000153  -0.000007   0.000000   0.000247
    16  C    0.000089   0.000008   0.000352   0.000008  -0.000002  -0.000001
    17  H   -0.000050  -0.000001  -0.000405  -0.000009   0.000064   0.000025
    18  H    0.000019   0.000002   0.000063   0.000000  -0.000008  -0.000002
    19  H   -0.000028  -0.000003  -0.000062  -0.000002   0.000007   0.000001
              13         14         15         16         17         18
     1  C   -0.000002   0.000001  -0.000004  -0.007682   0.000160  -0.000109
     2  H    0.000000   0.000000   0.000000   0.000062  -0.000001   0.000014
     3  H    0.000000   0.000000   0.000000   0.000964  -0.000044   0.000020
     4  C    0.000003   0.000000   0.000004   0.006165   0.000067   0.000452
     5  H    0.000000   0.000002  -0.000001   0.001761  -0.000229   0.000012
     6  C    0.000005  -0.000107   0.000019  -0.002899   0.000894  -0.000307
     7  H   -0.000034   0.000020  -0.000013   0.000089  -0.000050   0.000019
     8  H   -0.000004   0.000009  -0.000022   0.000008  -0.000001   0.000002
     9  C   -0.000166   0.000134  -0.000153   0.000352  -0.000405   0.000063
    10  H   -0.000008   0.000064  -0.000007   0.000008  -0.000009   0.000000
    11  H    0.000012  -0.000062   0.000000  -0.000002   0.000064  -0.000008
    12  C    0.000278  -0.001106   0.000247  -0.000001   0.000025  -0.000002
    13  H   -0.000036  -0.000144   0.000033   0.000000   0.000000   0.000000
    14  H   -0.000144   0.003013  -0.000166   0.000000  -0.000002   0.000000
    15  H    0.000033  -0.000166  -0.000042   0.000000   0.000000   0.000000
    16  C    0.000000   0.000000   0.000000   0.010505  -0.000913   0.000168
    17  H    0.000000  -0.000002   0.000000  -0.000913  -0.000601   0.000022
    18  H    0.000000   0.000000   0.000000   0.000168   0.000022  -0.000740
    19  H    0.000000   0.000000   0.000000  -0.003378   0.000934  -0.000108
              19
     1  C    0.003783
     2  H   -0.000072
     3  H   -0.000250
     4  C   -0.000874
     5  H   -0.000523
     6  C    0.000472
     7  H   -0.000028
     8  H   -0.000003
     9  C   -0.000062
    10  H   -0.000002
    11  H    0.000007
    12  C    0.000001
    13  H    0.000000
    14  H    0.000000
    15  H    0.000000
    16  C   -0.003378
    17  H    0.000934
    18  H   -0.000108
    19  H    0.001169
 Mulliken charges and spin densities:
               1          2
     1  C   -0.285206   1.041505
     2  H    0.129137  -0.030517
     3  H    0.128469  -0.030222
     4  C   -0.095706  -0.047010
     5  H    0.126301   0.006142
     6  C   -0.244808   0.039132
     7  H    0.126602  -0.000671
     8  H    0.127551  -0.001191
     9  C   -0.251610   0.014621
    10  H    0.132002  -0.000607
    11  H    0.138171  -0.000488
    12  C   -0.442428   0.002137
    13  H    0.142827  -0.000062
    14  H    0.143542   0.001655
    15  H    0.142394  -0.000105
    16  C   -0.444173   0.005206
    17  H    0.142924  -0.000088
    18  H    0.136654  -0.000503
    19  H    0.147355   0.001067
 Sum of Mulliken charges =   0.00000   1.00000
 Mulliken charges and spin densities with hydrogens summed into heavy atoms:
               1          2
     1  C   -0.027599   0.980766
     4  C    0.030595  -0.040868
     6  C    0.009346   0.037270
     9  C    0.018563   0.013526
    12  C   -0.013665   0.003624
    16  C   -0.017240   0.005681
 Electronic spatial extent (au):  <R**2>=            870.1059
 Charge=              0.0000 electrons
 Dipole moment (field-independent basis, Debye):
    X=             -0.7723    Y=              0.0330    Z=              0.0897  Tot=              0.7782
 Quadrupole moment (field-independent basis, Debye-Ang):
   XX=            -43.9554   YY=            -40.5999   ZZ=            -40.2747
   XY=              0.3770   XZ=              0.5809   YZ=             -0.0569
 Traceless Quadrupole moment (field-independent basis, Debye-Ang):
   XX=             -2.3454   YY=              1.0101   ZZ=              1.3353
   XY=              0.3770   XZ=              0.5809   YZ=             -0.0569
 Octapole moment (field-independent basis, Debye-Ang**2):
  XXX=            -11.6673  YYY=             -0.8934  ZZZ=              0.9319  XYY=             -1.6549
  XXY=              4.2250  XXZ=              0.5000  XZZ=             -0.4647  YZZ=             -0.0457
  YYZ=             -0.8806  XYZ=             -0.9622
 Hexadecapole moment (field-independent basis, Debye-Ang**3):
 XXXX=           -906.0143 YYYY=           -244.6369 ZZZZ=            -95.1246 XXXY=             10.3224
 XXXZ=              5.6439 YYYX=             -0.4240 YYYZ=              1.1739 ZZZX=              0.8472
 ZZZY=             -0.6242 XXYY=           -187.4789 XXZZ=           -160.5527 YYZZ=            -58.5300
 XXYZ=             -2.6058 YYXZ=              0.5051 ZZXY=              0.2211
 N-N= 2.428935620898D+02 E-N=-1.031286436751D+03  KE= 2.339693393877D+02
                          Isotropic Fermi Contact Couplings
        Atom                 a.u.       MegaHertz       Gauss      10(-4) cm-1
     1  C(13)              0.30605     344.06136     122.76964     114.76651
     2  H(1)              -0.00418     -18.70484      -6.67435      -6.23926
     3  H(1)              -0.00426     -19.03559      -6.79237      -6.34959
     4  C(13)             -0.01080     -12.14311      -4.33296      -4.05051
     5  H(1)               0.00390      17.42195       6.21658       5.81134
     6  C(13)              0.04971      55.88763      19.94210      18.64211
     7  H(1)              -0.00064      -2.87426      -1.02561      -0.95875
     8  H(1)               0.00001       0.04034       0.01440       0.01346
     9  C(13)              0.00897      10.08330       3.59797       3.36343
    10  H(1)              -0.00021      -0.92646      -0.33058      -0.30903
    11  H(1)              -0.00020      -0.88569      -0.31604      -0.29544
    12  C(13)              0.00213       2.39522       0.85467       0.79896
    13  H(1)               0.00003       0.12972       0.04629       0.04327
    14  H(1)               0.00070       3.13631       1.11911       1.04616
    15  H(1)              -0.00001      -0.06650      -0.02373      -0.02218
    16  C(13)              0.00743       8.35034       2.97961       2.78537
    17  H(1)              -0.00013      -0.57726      -0.20598      -0.19255
    18  H(1)              -0.00022      -0.98894      -0.35288      -0.32987
    19  H(1)              -0.00023      -1.01215      -0.36116      -0.33762
 --------------------------------------------------------
       Center         ----  Spin Dipole Couplings  ----
                      3XX-RR        3YY-RR        3ZZ-RR
 --------------------------------------------------------
     1   Atom        0.646351     -0.362178     -0.284173
     2   Atom       -0.016574      0.044834     -0.028260
     3   Atom       -0.015398     -0.054644      0.070042
     4   Atom        0.033290     -0.010060     -0.023230
     5   Atom        0.002016     -0.004233      0.002216
     6   Atom        0.060892     -0.032333     -0.028559
     7   Atom        0.004672     -0.007432      0.002760
     8   Atom        0.009968     -0.000594     -0.009374
     9   Atom        0.013525     -0.004064     -0.009461
    10   Atom        0.001862     -0.002122      0.000260
    11   Atom        0.001091      0.001796     -0.002887
    12   Atom        0.005909     -0.002903     -0.003006
    13   Atom        0.001787     -0.001307     -0.000480
    14   Atom        0.001513     -0.000560     -0.000952
    15   Atom        0.002199     -0.000769     -0.001430
    16   Atom       -0.006325      0.014500     -0.008175
    17   Atom       -0.001293      0.004819     -0.003526
    18   Atom       -0.003836      0.005192     -0.001356
    19   Atom       -0.005943      0.014076     -0.008133
 --------------------------------------------------------
                        XY            XZ            YZ
 --------------------------------------------------------
     1   Atom        0.365037     -0.467551     -0.150274
     2   Atom        0.030709     -0.008775      0.043530
     3   Atom        0.012158      0.004671     -0.014431
     4   Atom       -0.022265     -0.003538     -0.001353
     5   Atom       -0.008493      0.011530     -0.010077
     6   Atom        0.002324     -0.023517     -0.000351
     7   Atom       -0.002890     -0.008064      0.000142
     8   Atom        0.006363      0.002217      0.001190
     9   Atom       -0.014683      0.008173     -0.004715
    10   Atom       -0.002144      0.002135     -0.001422
    11   Atom       -0.002917      0.000007      0.000518
    12   Atom        0.000846     -0.001066     -0.000171
    13   Atom       -0.000317     -0.001175     -0.000092
    14   Atom       -0.000656      0.000110     -0.000223
    15   Atom        0.000558      0.000206      0.000112
    16   Atom       -0.009603     -0.002799      0.007160
    17   Atom       -0.003541     -0.000015     -0.000197
    18   Atom       -0.003425     -0.002194      0.006756
    19   Atom        0.000414     -0.000203     -0.000364
 --------------------------------------------------------


 ---------------------------------------------------------------------------------
              Anisotropic Spin Dipole Couplings in Principal Axis System
 ---------------------------------------------------------------------------------

       Atom             a.u.   MegaHertz   Gauss  10(-4) cm-1        Axes

              Baa    -0.4809   -64.527   -23.025   -21.524 -0.4161  0.8405 -0.3470
     1 C(13)  Bbb    -0.4778   -64.117   -22.879   -21.387  0.2095  0.4600  0.8629
              Bcc     0.9587   128.644    45.903    42.911  0.8848  0.2864 -0.3675
 
              Baa    -0.0599   -31.950   -11.401   -10.657  0.4741 -0.4529  0.7550
     2 H(1)   Bbb    -0.0121    -6.455    -2.303    -2.153  0.8371 -0.0340 -0.5460
              Bcc     0.0720    38.405    13.704    12.811  0.2730  0.8909  0.3630
 
              Baa    -0.0599   -31.946   -11.399   -10.656 -0.2732  0.9549  0.1159
     3 H(1)   Bbb    -0.0119    -6.371    -2.273    -2.125  0.9612  0.2758 -0.0062
              Bcc     0.0718    38.317    13.672    12.781  0.0379 -0.1097  0.9932
 
              Baa    -0.0247    -3.309    -1.181    -1.104  0.2082  0.4002  0.8925
     4 C(13)  Bbb    -0.0181    -2.434    -0.869    -0.812  0.3287  0.8307 -0.4492
              Bcc     0.0428     5.744     2.049     1.916  0.9212 -0.3869 -0.0414
 
              Baa    -0.0116    -6.184    -2.206    -2.063  0.0158  0.8139  0.5808
     5 H(1)   Bbb    -0.0090    -4.810    -1.716    -1.604  0.7920  0.3444 -0.5041
              Bcc     0.0206    10.994     3.923     3.667  0.6103 -0.4680  0.6391
 
              Baa    -0.0344    -4.615    -1.647    -1.539  0.2407 -0.1077  0.9646
     6 C(13)  Bbb    -0.0324    -4.343    -1.550    -1.449  0.0030  0.9939  0.1102
              Bcc     0.0668     8.958     3.196     2.988  0.9706  0.0236 -0.2396
 
              Baa    -0.0085    -4.528    -1.616    -1.510  0.3436  0.9093  0.2349
     7 H(1)   Bbb    -0.0036    -1.928    -0.688    -0.643  0.5640 -0.3998  0.7226
              Bcc     0.0121     6.456     2.304     2.153  0.7509 -0.1158 -0.6502
 
              Baa    -0.0097    -5.152    -1.838    -1.719 -0.0906 -0.0669  0.9936
     8 H(1)   Bbb    -0.0036    -1.910    -0.681    -0.637 -0.4279  0.9035  0.0218
              Bcc     0.0132     7.062     2.520     2.356  0.8993  0.4232  0.1105
 
              Baa    -0.0124    -1.664    -0.594    -0.555  0.4311  0.8777  0.2094
     9 C(13)  Bbb    -0.0121    -1.620    -0.578    -0.540 -0.3347 -0.0600  0.9404
              Bcc     0.0245     3.284     1.172     1.095  0.8379 -0.4755  0.2679
 
              Baa    -0.0031    -1.677    -0.599    -0.559  0.3172  0.9293  0.1894
    10 H(1)   Bbb    -0.0012    -0.650    -0.232    -0.217 -0.5591  0.0219  0.8288
              Bcc     0.0044     2.327     0.830     0.776  0.7660 -0.3688  0.5265
 
              Baa    -0.0030    -1.594    -0.569    -0.532 -0.1365 -0.1885  0.9725
    11 H(1)   Bbb    -0.0014    -0.755    -0.269    -0.252  0.7387  0.6348  0.2267
              Bcc     0.0044     2.349     0.838     0.783 -0.6601  0.7493  0.0526
 
              Baa    -0.0032    -0.424    -0.151    -0.141  0.0743  0.3697  0.9262
    12 C(13)  Bbb    -0.0030    -0.397    -0.142    -0.132 -0.1313  0.9243 -0.3584
              Bcc     0.0061     0.821     0.293     0.274  0.9886  0.0949 -0.1172
 
              Baa    -0.0014    -0.759    -0.271    -0.253  0.2234  0.9031  0.3668
    13 H(1)   Bbb    -0.0009    -0.470    -0.168    -0.157  0.3224 -0.4236  0.8465
              Bcc     0.0023     1.230     0.439     0.410  0.9199 -0.0709 -0.3858
 
              Baa    -0.0011    -0.570    -0.203    -0.190  0.0890  0.4943  0.8648
    14 H(1)   Bbb    -0.0006    -0.344    -0.123    -0.115  0.2754  0.8222 -0.4982
              Bcc     0.0017     0.914     0.326     0.305  0.9572 -0.2824  0.0630
 
              Baa    -0.0015    -0.775    -0.277    -0.258 -0.0355 -0.1334  0.9904
    15 H(1)   Bbb    -0.0009    -0.459    -0.164    -0.153 -0.1861  0.9746  0.1246
              Bcc     0.0023     1.234     0.440     0.412  0.9819  0.1799  0.0594
 
              Baa    -0.0102    -1.375    -0.491    -0.459  0.0998 -0.2406  0.9655
    16 C(13)  Bbb    -0.0101    -1.352    -0.483    -0.451  0.9309  0.3653 -0.0052
              Bcc     0.0203     2.727     0.973     0.910 -0.3514  0.8993  0.2604
 
              Baa    -0.0035    -1.891    -0.675    -0.631  0.1290  0.0779  0.9886
    17 H(1)   Bbb    -0.0029    -1.547    -0.552    -0.516  0.9001  0.4091 -0.1497
              Bcc     0.0064     3.438     1.227     1.147 -0.4161  0.9092 -0.0173
 
              Baa    -0.0056    -2.983    -1.065    -0.995  0.0618 -0.5157  0.8545
    18 H(1)   Bbb    -0.0050    -2.658    -0.948    -0.887  0.9604  0.2637  0.0897
              Bcc     0.0106     5.641     2.013     1.882 -0.2716  0.8152  0.5116
 
              Baa    -0.0082    -4.352    -1.553    -1.452  0.0885  0.0147  0.9960
    19 H(1)   Bbb    -0.0059    -3.166    -1.130    -1.056  0.9959 -0.0222 -0.0882
              Bcc     0.0141     7.518     2.683     2.508  0.0208  0.9996 -0.0166
 

 ---------------------------------------------------------------------------------

 No NMR shielding tensors so no spin-rotation constants.
 Leave Link  601 at Sat Nov  7 02:02:49 2015, MaxMem=   805306368 cpu:         0.9
 (Enter /home/hetanjin/apps/g09D01/g09/l701.exe)
 Compute integral first derivatives.
 ... and contract with generalized density number  0.
 Leave Link  701 at Sat Nov  7 02:02:49 2015, MaxMem=   805306368 cpu:         1.4
 (Enter /home/hetanjin/apps/g09D01/g09/l702.exe)
 L702 exits ... SP integral derivatives will be done elsewhere.
 Leave Link  702 at Sat Nov  7 02:02:49 2015, MaxMem=   805306368 cpu:         0.1
 (Enter /home/hetanjin/apps/g09D01/g09/l703.exe)
 Compute integral first derivatives, UseDBF=F ICtDFT=           0.
 Integral derivatives from FoFJK, PRISM(SPDF).
 Calling FoFJK, ICntrl=      2127 FMM=F ISym2X=0 I1Cent= 0 IOpClX= 1 NMat=1 NMatS=1 NMatT=0.
 FoFJK:  IHMeth= 1 ICntrl=    2127 DoSepK=F KAlg= 0 I1Cent=   0 FoldK=F
 IRaf=         0 NMat=   1 IRICut=       1 DoRegI=T DoRafI=F ISym2E= 0.
 FoFCou: FMM=F IPFlag=           0 FMFlag=      100000 FMFlg1=         800
         NFxFlg=           0 DoJE=F BraDBF=F KetDBF=F FulRan=T
         wScrn=  0.000000 ICntrl=    2127 IOpCl=  1 I1Cent=           0 NGrid=           0
         NMat0=    1 NMatS0=      1 NMatT0=    0 NMatD0=    1 NMtDS0=    0 NMtDT0=    0
 Symmetry not used in FoFCou.
 Leave Link  703 at Sat Nov  7 02:02:58 2015, MaxMem=   805306368 cpu:        31.9
 (Enter /home/hetanjin/apps/g09D01/g09/l716.exe)
 Dipole        =-3.03843425D-01 1.29972882D-02 3.52849591D-02
 ***** Axes restored to original set *****
 -------------------------------------------------------------------
 Center     Atomic                   Forces (Hartrees/Bohr)
 Number     Number              X              Y              Z
 -------------------------------------------------------------------
      1        6          -0.043514987   -0.006128153    0.012924089
      2        1           0.012171901    0.000873884   -0.007953168
      3        1           0.013838724    0.005043848   -0.001164157
      4        6           0.019995239    0.003302284   -0.006233143
      5        1          -0.001054184    0.000046495   -0.000155678
      6        6          -0.001165566   -0.005573605    0.003333817
      7        1          -0.000023263    0.000073035   -0.000422917
      8        1          -0.000494243    0.000153406    0.000146525
      9        6          -0.000009419    0.001905831   -0.001512110
     10        1           0.000047812   -0.000035774    0.000149094
     11        1           0.000098279   -0.000209558   -0.000026097
     12        6           0.000348311   -0.000751007    0.000460053
     13        1          -0.000045397    0.000024295   -0.000037899
     14        1           0.000288873    0.000127886   -0.000081868
     15        1          -0.000032870    0.000051354    0.000002216
     16        6           0.000411885    0.001786213    0.000331094
     17        1          -0.000246327   -0.000000521    0.000082990
     18        1          -0.000023908   -0.000080541   -0.000022757
     19        1          -0.000590859   -0.000609372    0.000179915
 -------------------------------------------------------------------
 Cartesian Forces:  Max     0.043514987 RMS     0.007296529
 Leave Link  716 at Sat Nov  7 02:02:58 2015, MaxMem=   805306368 cpu:         0.1
 (Enter /home/hetanjin/apps/g09D01/g09/l103.exe)

 GradGradGradGradGradGradGradGradGradGradGradGradGradGradGradGradGradGrad
 Berny optimization.
 FormGI is forming the generalized inverse of G from B-inverse, IUseBI=4.
 Internal  Forces:  Max     0.013595703 RMS     0.003269152
 Search for a local minimum.
 Step number   1 out of a maximum of  103
 All quantities printed in internal units (Hartrees-Bohrs-Radians)
 RMS Force = .32692D-02 SwitMx=.10000D-02 MixMth= 1
 Mixed Optimization -- RFO/linear search
 Second derivative matrix not updated -- first step.
 ITU=  0
     Eigenvalues ---    0.00230   0.00282   0.00287   0.00303   0.00334
     Eigenvalues ---    0.03185   0.03462   0.03605   0.03685   0.04673
     Eigenvalues ---    0.04696   0.04785   0.05336   0.05430   0.05472
     Eigenvalues ---    0.05490   0.05754   0.08357   0.08767   0.12226
     Eigenvalues ---    0.12525   0.16000   0.16000   0.16000   0.16000
     Eigenvalues ---    0.16000   0.16000   0.16000   0.16000   0.17069
     Eigenvalues ---    0.17989   0.21893   0.21944   0.28367   0.28825
     Eigenvalues ---    0.28860   0.28964   0.29178   0.33520   0.33530
     Eigenvalues ---    0.33657   0.33717   0.33869   0.33898   0.33942
     Eigenvalues ---    0.34005   0.34007   0.34055   0.34062   0.34118
     Eigenvalues ---    0.34216
 RFO step:  Lambda=-1.35213058D-02 EMin= 2.30000000D-03
 Linear search not attempted -- first point.
 Iteration  1 RMS(Cart)=  0.04761003 RMS(Int)=  0.00850750
 Iteration  2 RMS(Cart)=  0.00668303 RMS(Int)=  0.00564047
 Iteration  3 RMS(Cart)=  0.00010322 RMS(Int)=  0.00563999
 Iteration  4 RMS(Cart)=  0.00000237 RMS(Int)=  0.00563999
 Iteration  5 RMS(Cart)=  0.00000007 RMS(Int)=  0.00563999
 ITry= 1 IFail=0 DXMaxC= 2.77D-01 DCOld= 1.00D+10 DXMaxT= 3.00D-01 DXLimC= 3.00D+00 Rises=F
 Variable       Old X    -DE/DX   Delta X   Delta X   Delta X     New X
                                 (Linear)    (Quad)   (Total)
    R1        2.07237  -0.00039   0.00000  -0.00111  -0.00111   2.07126
    R2        2.07502  -0.00050   0.00000  -0.00142  -0.00142   2.07360
    R3        2.90296  -0.01130   0.00000  -0.03740  -0.03740   2.86557
    R4        2.08149   0.00020   0.00000   0.00058   0.00058   2.08207
    R5        2.91344   0.00283   0.00000   0.00951   0.00951   2.92295
    R6        2.90369   0.00108   0.00000   0.00359   0.00359   2.90727
    R7        2.08131  -0.00043   0.00000  -0.00122  -0.00122   2.08009
    R8        2.07912  -0.00012   0.00000  -0.00034  -0.00034   2.07878
    R9        2.90078   0.00039   0.00000   0.00128   0.00128   2.90206
   R10        2.07811  -0.00015   0.00000  -0.00043  -0.00043   2.07768
   R11        2.07428  -0.00020   0.00000  -0.00056  -0.00056   2.07372
   R12        2.89633  -0.00018   0.00000  -0.00060  -0.00060   2.89573
   R13        2.07322  -0.00004   0.00000  -0.00011  -0.00011   2.07312
   R14        2.07131  -0.00012   0.00000  -0.00035  -0.00035   2.07096
   R15        2.07318  -0.00004   0.00000  -0.00012  -0.00012   2.07306
   R16        2.06967   0.00014   0.00000   0.00039   0.00039   2.07006
   R17        2.07552  -0.00002   0.00000  -0.00007  -0.00007   2.07546
   R18        2.07225  -0.00076   0.00000  -0.00215  -0.00215   2.07010
    A1        1.87835  -0.00074   0.00000   0.12143   0.08668   1.96504
    A2        1.94449   0.01351   0.00000   0.14407   0.11657   2.06106
    A3        1.93565   0.01360   0.00000   0.14513   0.11756   2.05321
    A4        1.88002   0.00098   0.00000   0.01005   0.00992   1.88994
    A5        1.92906  -0.00369   0.00000  -0.02466  -0.02464   1.90442
    A6        1.92774   0.00191   0.00000   0.00918   0.00911   1.93685
    A7        1.87706   0.00024   0.00000  -0.00217  -0.00215   1.87490
    A8        1.88194  -0.00066   0.00000   0.00527   0.00519   1.88713
    A9        1.96473   0.00126   0.00000   0.00323   0.00325   1.96798
   A10        1.90132   0.00067   0.00000   0.00226   0.00224   1.90356
   A11        1.89309   0.00117   0.00000   0.00672   0.00671   1.89980
   A12        2.01454  -0.00246   0.00000  -0.01131  -0.01131   2.00323
   A13        1.84789  -0.00037   0.00000   0.00109   0.00108   1.84896
   A14        1.90709   0.00080   0.00000   0.00231   0.00230   1.90940
   A15        1.89268   0.00035   0.00000  -0.00007  -0.00005   1.89263
   A16        1.90542   0.00030   0.00000   0.00101   0.00101   1.90643
   A17        1.92072   0.00023   0.00000   0.00025   0.00025   1.92097
   A18        1.96892  -0.00108   0.00000  -0.00507  -0.00507   1.96385
   A19        1.85242  -0.00015   0.00000   0.00084   0.00083   1.85326
   A20        1.90917   0.00035   0.00000   0.00166   0.00166   1.91084
   A21        1.90353   0.00040   0.00000   0.00169   0.00168   1.90521
   A22        1.94027   0.00013   0.00000   0.00092   0.00092   1.94120
   A23        1.94519  -0.00048   0.00000  -0.00314  -0.00314   1.94205
   A24        1.94094   0.00012   0.00000   0.00089   0.00089   1.94183
   A25        1.87895   0.00013   0.00000   0.00036   0.00036   1.87932
   A26        1.87563  -0.00003   0.00000   0.00056   0.00056   1.87619
   A27        1.87972   0.00014   0.00000   0.00050   0.00050   1.88022
   A28        1.95757   0.00001   0.00000   0.00038   0.00038   1.95795
   A29        1.93340  -0.00005   0.00000  -0.00061  -0.00062   1.93279
   A30        1.93610  -0.00051   0.00000  -0.00291  -0.00291   1.93319
   A31        1.88022   0.00002   0.00000   0.00014   0.00014   1.88036
   A32        1.87616   0.00035   0.00000   0.00259   0.00259   1.87875
   A33        1.87714   0.00021   0.00000   0.00059   0.00059   1.87773
    D1       -1.04583   0.00918   0.00000   0.17719   0.18350  -0.86234
    D2        1.00024   0.00800   0.00000   0.16685   0.17307   1.17331
    D3       -3.09704   0.00834   0.00000   0.15985   0.16605  -2.93099
    D4       -3.13776  -0.00801   0.00000  -0.16957  -0.17575   2.96967
    D5       -1.09169  -0.00919   0.00000  -0.17991  -0.18617  -1.27786
    D6        1.09422  -0.00885   0.00000  -0.18691  -0.19320   0.90102
    D7        1.12731   0.00071   0.00000   0.00407   0.00407   1.13138
    D8       -0.87637   0.00018   0.00000  -0.00198  -0.00201  -0.87837
    D9       -3.00345   0.00052   0.00000   0.00074   0.00074  -3.00271
   D10       -3.10798   0.00000   0.00000   0.00133   0.00137  -3.10661
   D11        1.17153  -0.00053   0.00000  -0.00473  -0.00471   1.16682
   D12       -0.95555  -0.00019   0.00000  -0.00201  -0.00196  -0.95751
   D13       -1.03748   0.00008   0.00000   0.00831   0.00829  -1.02920
   D14       -3.04116  -0.00045   0.00000   0.00225   0.00221  -3.03895
   D15        1.11494  -0.00011   0.00000   0.00497   0.00496   1.11990
   D16        3.06412   0.00148   0.00000   0.01555   0.01557   3.07969
   D17       -1.11751   0.00148   0.00000   0.01556   0.01558  -1.10193
   D18        0.96587   0.00138   0.00000   0.01401   0.01403   0.97990
   D19        1.01409  -0.00037   0.00000  -0.00475  -0.00475   1.00934
   D20        3.11564  -0.00037   0.00000  -0.00474  -0.00474   3.11090
   D21       -1.08416  -0.00047   0.00000  -0.00629  -0.00629  -1.09045
   D22       -1.05354  -0.00098   0.00000  -0.00739  -0.00741  -1.06095
   D23        1.04801  -0.00098   0.00000  -0.00738  -0.00740   1.04062
   D24        3.13140  -0.00108   0.00000  -0.00893  -0.00895   3.12245
   D25        0.94556   0.00019   0.00000   0.00254   0.00255   0.94810
   D26       -1.08096   0.00006   0.00000   0.00081   0.00082  -1.08015
   D27        3.07202   0.00013   0.00000   0.00198   0.00198   3.07400
   D28        3.09493  -0.00008   0.00000  -0.00086  -0.00086   3.09407
   D29        1.06841  -0.00021   0.00000  -0.00259  -0.00259   1.06582
   D30       -1.06179  -0.00014   0.00000  -0.00143  -0.00143  -1.06322
   D31       -1.18174   0.00009   0.00000   0.00162   0.00161  -1.18013
   D32        3.07492  -0.00004   0.00000  -0.00011  -0.00012   3.07480
   D33        0.94472   0.00003   0.00000   0.00105   0.00105   0.94576
   D34        1.04570   0.00004   0.00000   0.00056   0.00056   1.04626
   D35       -3.14121  -0.00003   0.00000  -0.00047  -0.00047   3.14150
   D36       -1.04351  -0.00009   0.00000  -0.00136  -0.00136  -1.04487
   D37       -3.11314  -0.00004   0.00000  -0.00039  -0.00039  -3.11353
   D38       -1.01687  -0.00011   0.00000  -0.00142  -0.00142  -1.01829
   D39        1.08084  -0.00017   0.00000  -0.00231  -0.00231   1.07853
   D40       -1.09415   0.00019   0.00000   0.00247   0.00247  -1.09168
   D41        1.00212   0.00012   0.00000   0.00144   0.00144   1.00356
   D42        3.09983   0.00006   0.00000   0.00055   0.00055   3.10038
         Item               Value     Threshold  Converged?
 Maximum Force            0.013596     0.000015     NO 
 RMS     Force            0.003269     0.000010     NO 
 Maximum Displacement     0.277211     0.000060     NO 
 RMS     Displacement     0.044669     0.000040     NO 
 Predicted change in Energy=-9.705073D-03
 Lowest energy point so far.  Saving SCF results.
 GradGradGradGradGradGradGradGradGradGradGradGradGradGradGradGradGradGrad

 Leave Link  103 at Sat Nov  7 02:03:01 2015, MaxMem=   805306368 cpu:         7.9
 (Enter /home/hetanjin/apps/g09D01/g09/l202.exe)
                          Input orientation:                          
 ---------------------------------------------------------------------
 Center     Atomic      Atomic             Coordinates (Angstroms)
 Number     Number       Type             X           Y           Z
 ---------------------------------------------------------------------
      1          6           0        2.101147   -1.054429    0.056572
      2          1           0        2.053074   -2.038500   -0.423685
      3          1           0        2.394698   -1.114488    1.112171
      4          6           0        1.059019   -0.021493   -0.326127
      5          1           0        1.010730    0.029908   -1.425650
      6          6           0       -0.326713   -0.489582    0.176964
      7          1           0       -0.319685   -0.515843    1.277363
      8          1           0       -0.491221   -1.527293   -0.148907
      9          6           0       -1.508587    0.364178   -0.305378
     10          1           0       -1.484597    0.428835   -1.402672
     11          1           0       -1.405701    1.392400    0.063922
     12          6           0       -2.861152   -0.198634    0.143975
     13          1           0       -2.926750   -0.248809    1.237909
     14          1           0       -3.689152    0.425535   -0.210768
     15          1           0       -3.018105   -1.213157   -0.242745
     16          6           0        1.444428    1.371273    0.201635
     17          1           0        0.736737    2.144518   -0.116528
     18          1           0        1.474533    1.376558    1.299493
     19          1           0        2.437514    1.661754   -0.158098
 ---------------------------------------------------------------------
                    Distance matrix (angstroms):
                    1          2          3          4          5
     1  C    0.000000
     2  H    1.096063   0.000000
     3  H    1.097300   1.824653   0.000000
     4  C    1.516392   2.250773   2.246636   0.000000
     5  H    2.135833   2.523634   3.108946   1.101783   0.000000
     6  C    2.495607   2.902295   2.944690   1.546759   2.151046
     7  H    2.764207   3.292725   2.784518   2.171724   3.061720
     8  H    2.643142   2.609650   3.176359   2.168429   2.512132
     9  C    3.895335   4.297940   4.408121   2.596493   2.777356
    10  H    4.145724   4.422813   4.873932   2.798523   2.527118
    11  H    4.276098   4.896118   4.671868   2.868115   3.148706
    12  C    5.036312   5.277970   5.422191   3.952229   4.184187
    13  H    5.227269   5.546399   5.392868   4.287684   4.761930
    14  H    5.982419   6.252197   6.413663   4.770563   4.870457
    15  H    5.130451   5.141088   5.580678   4.248524   4.379039
    16  C    2.517211   3.519663   2.812667   1.538463   2.153000
    17  H    3.482074   4.395990   3.857415   2.199864   2.502089
    18  H    2.801285   3.868679   2.662161   2.183996   3.074897
    19  H    2.745337   3.729640   3.053348   2.182156   2.511041
                    6          7          8          9         10
     6  C    0.000000
     7  H    1.100735   0.000000
[...]
 988537,-0.14675800,0.06103015,-0.03204632,0.00692218,-0.00805801,0.003
 91980,-0.01213098,0.01843303,-0.00797093,0.46258816,0.06296690,-0.1490
 5926,0.02728253,0.01781361,-0.01280436,0.00837486,-0.00839744,0.007542
 94,-0.00437475,-0.00850801,0.47662742,-0.02994857,0.02491157,-0.054341
 71,0.00177520,-0.00361311,0.00349674,0.00073448,0.00109094,0.00288769,
 0.01084384,-0.00511229,0.50084662,-0.00520771,0.00737877,-0.02154192,-
 0.00012164,0.00012006,0.00017208,-0.00058662,0.00034266,0.00107184,-0.
 04220828,-0.00059046,-0.01191523,0.05426813,0.00677348,-0.00594138,0.0
 2127429,0.00030059,-0.00024722,-0.00113734,0.00020766,-0.00033075,0.00
 006450,-0.00103419,-0.04451231,0.02272985,-0.00013688,0.05553498,-0.00
 828217,0.00846020,-0.00656541,-0.00055183,0.00038810,-0.00045314,-0.00
 027272,0.00063524,-0.00064863,0.00004078,0.01026336,-0.26612445,0.0071
 6999,-0.01891659,0.29788241,-0.03271061,0.00030420,0.00277477,0.001804
 93,-0.00197242,-0.00021142,-0.00152759,0.00145568,0.00079912,-0.143584
 43,-0.02456405,0.03079819,-0.00408602,-0.00223896,0.00169861,0.4491978
 5,0.01957633,0.00809816,-0.00535438,0.00157097,0.00023451,-0.00044958,
 0.00345599,-0.00316295,0.00162807,-0.02363494,-0.08957785,0.00556092,-
 0.00351181,-0.00013896,0.00122446,0.00743469,0.54893207,-0.00918035,-0
 .00325197,0.00155018,0.00025685,-0.00006453,0.00046395,-0.00254146,0.0
 0148174,-0.00056570,0.02664268,0.00868788,-0.08547443,0.03227625,0.010
 65750,-0.01381217,0.00605201,0.03003273,0.57142322,0.00176287,-0.00106
 189,0.00029472,-0.00011056,0.00026002,0.00012941,0.00002310,0.00001351
 ,-0.00010663,-0.00350613,-0.00059188,0.03091959,-0.00559094,-0.0016879
 4,0.00218596,-0.04841043,-0.00046294,0.00546123,0.05638553,0.00060580,
 -0.00001312,-0.00024323,-0.00010471,-0.00004665,-0.00015107,-0.0000305
 4,-0.00001006,0.00002408,-0.00151102,-0.00066442,0.01015930,-0.0018671
 7,-0.00011424,0.00134926,-0.00019721,-0.05093966,0.00300982,-0.0006954
 3,0.05177036,-0.00085429,0.00047763,0.00081985,0.00019559,-0.00016200,
 -0.00027770,0.00019987,-0.00012418,0.00008751,0.00145110,-0.00019408,-
 0.01059144,0.00212768,0.00054415,0.00028855,0.00550115,0.00304211,-0.2
 9895374,-0.00653571,-0.00576372,0.32686622,0.00079951,-0.00214729,-0.0
 0007713,-0.00041623,0.00094008,-0.00022531,0.00035775,0.00028507,0.000
 08630,-0.00713081,-0.02838839,-0.01122755,0.00106508,0.00054404,0.0000
 7547,-0.05200160,-0.03315972,-0.01097350,-0.00018834,0.00114627,0.0001
 4822,0.06392760,0.00181088,0.00045054,0.00051411,-0.00037820,0.0008258
 7,-0.00024188,0.00002265,0.00041085,-0.00001253,-0.00239682,-0.0105395
 8,-0.00404311,0.00016177,0.00014232,0.00043951,-0.03395739,-0.26710525
 ,-0.07541616,0.00027378,0.00097316,-0.00033520,0.03507896,0.29348327,-
 0.00041720,-0.00040991,0.00014576,-0.00031151,0.00015709,0.00014325,-0
 .00005197,0.00023540,-0.00010747,0.00284254,0.01082337,0.00285676,-0.0
 0070955,0.00010820,0.00060277,-0.01164567,-0.07508606,-0.07761535,-0.0
 0491495,-0.03183069,-0.01056186,0.01293059,0.08171025,0.07881509,-0.00
 423026,-0.00272658,0.00036444,0.00014412,0.00027784,0.00001110,-0.0006
 0194,0.00118042,-0.00001987,-0.02546137,0.01619956,-0.00872259,0.00179
 922,0.00067076,-0.00136394,-0.13236151,0.04589729,-0.02698520,-0.00068
 231,0.00048702,-0.00002891,0.00124286,-0.00118653,0.00091388,0.4569490
 0,-0.00231298,-0.00171820,0.00080370,-0.00022563,0.00038375,0.00014153
 ,-0.00085532,0.00099804,-0.00045082,-0.00534744,0.00916953,-0.00521764
 ,-0.00005086,-0.00000178,-0.00002106,0.04262037,-0.11998586,0.02232404
 ,0.00015456,-0.00102742,0.00035210,0.02499138,-0.02072785,0.01228328,0
 .01305559,0.55541984,0.00229946,0.00158841,-0.00014555,-0.00007756,0.0
 0003671,-0.00025663,0.00087871,-0.00045468,0.00049986,0.00615089,-0.00
 808719,0.00330810,0.00150835,-0.00053472,0.00012267,-0.02747839,0.0228
 6102,-0.09601464,-0.02601942,0.02151977,-0.01207321,0.00847805,-0.0067
 6292,0.00392233,-0.00652613,0.02819513,0.57448409,0.00009964,0.0001479
 3,0.00037729,0.00004326,-0.00006254,-0.00003406,0.00005552,-0.00008797
 ,-0.00003419,0.00160145,-0.00005706,-0.00159015,-0.00023731,-0.0000934
 6,0.00088719,-0.00056673,0.00118638,-0.02679033,-0.00376708,0.00338749
 ,-0.00171245,0.00080050,-0.00037170,0.00082319,-0.04857157,-0.00091208
 ,0.01316596,0.05734360,-0.00015687,-0.00014737,-0.00020153,-0.00000282
 ,0.00000736,0.00004426,-0.00003709,0.00003352,0.00000375,-0.00095154,0
 .00053842,-0.00011969,0.00019786,0.00026998,-0.00047091,0.00004433,-0.
 00136131,0.02105285,0.00318061,-0.00165069,0.00170006,-0.00087815,0.00
 060682,-0.00002825,-0.00081965,-0.05288827,0.01050342,0.00008327,0.052
 83367,0.00000795,-0.00008579,0.00046274,0.00005870,-0.00005282,-0.0000
 5066,-0.00004441,-0.00003291,-0.00003064,0.00102103,-0.00008985,0.0002
 1459,-0.00087150,-0.00021415,0.00084074,-0.00045662,0.00076823,-0.0129
 6208,-0.00173749,0.00199779,0.00067552,0.00006315,0.00042089,0.0007027
 6,0.01359468,0.01070889,-0.29785405,-0.01496364,-0.01446649,0.32544091
 ,0.00001062,-0.00004267,-0.00014735,0.00012486,-0.00021237,0.00002886,
 -0.00009936,-0.00014011,-0.00001354,0.00112321,0.00014687,0.00044510,-
 0.00012210,-0.00001071,0.00003677,0.00235560,0.02485034,0.00978077,0.0
 0098082,-0.00100855,0.00006083,-0.00389049,0.00319459,-0.00195490,-0.0
 4975020,-0.02138763,-0.00844638,-0.00020055,0.00204648,0.00060337,0.06
 004837,0.00023288,0.00010963,0.00008149,-0.00006810,0.00022344,-0.0000
 4080,0.00016071,0.00001916,0.00004162,-0.00077782,-0.00046089,0.000068
 82,0.00007099,0.00003326,0.00002737,-0.00075741,-0.01886977,-0.0069801
 4,-0.00035051,0.00075039,0.00040009,0.00317301,-0.00116467,0.00193104,
 -0.02113479,-0.26910819,-0.08378803,0.00031144,0.00226155,-0.00013242,
 0.02482370,0.29500584,0.00013351,0.00012285,-0.00000366,0.00002644,-0.
 00000989,0.00000016,0.00001326,-0.00008149,-0.00000305,0.00018837,-0.0
 0060953,0.00003434,-0.00004679,-0.00008196,0.00006955,0.00127117,0.012
 39761,0.00419559,0.00084452,-0.00000499,0.00080646,-0.00204422,0.00220
 577,0.00029804,-0.00828826,-0.08419399,-0.08479109,-0.00329192,-0.0317
 4631,-0.01189334,0.00952828,0.09130999,0.08642631,-0.00060440,-0.00068
 898,0.00026493,-0.00000564,0.00002766,0.00003926,-0.00019090,0.0002109
 8,-0.00009982,-0.00148594,0.00276011,-0.00175504,0.00006185,0.00003261
 ,0.00014950,-0.03036576,-0.00656832,0.00569786,0.00157931,-0.00095415,
 0.00073567,0.00164244,-0.00145305,0.00048684,-0.16913506,-0.03759443,0
 .02719043,-0.00338589,-0.00140472,0.00096301,-0.00496969,-0.00194905,0
 .00141795,0.49863463,0.00115376,0.00101985,-0.00022893,-0.00002508,-0.
 00004322,-0.00004042,0.00045213,-0.00036105,0.00018065,0.00309888,-0.0
 0370232,0.00185587,-0.00026204,-0.00006108,0.00002126,0.01752898,0.008
 72264,-0.00661418,-0.00014222,0.00021737,-0.00019806,0.00128922,0.0007
 0427,-0.00020646,-0.03843564,-0.09647171,0.01144748,-0.00155012,-0.000
 96989,0.00032570,-0.03024184,-0.01103673,0.00942094,-0.03481267,0.5628
 0104,-0.00060446,-0.00041345,0.00041184,0.00005119,0.00003368,0.000028
 43,-0.00021751,0.00017250,-0.00010412,-0.00154373,0.00172640,-0.001587
 32,0.00003789,-0.00003058,0.00054290,-0.01010455,-0.00559027,0.0041023
 0,-0.00115410,-0.00025013,0.00030262,0.00056513,-0.00020754,0.00018473
 ,0.02720713,0.01132694,-0.08967025,0.03241000,0.01303618,-0.00793769,-
 0.01144097,-0.00410408,0.00329731,0.02492126,0.00749718,0.56584570,-0.
 00001902,0.00004635,-0.00013485,-0.00001489,0.00001130,0.00000908,0.00
 000195,0.00000288,0.00002071,-0.00007500,-0.00017257,-0.00004294,0.000
 11457,0.00006564,-0.00032209,0.00203430,-0.00022890,0.00152535,-0.0003
 4255,0.00016836,-0.00089525,-0.00008698,0.00009677,-0.00007849,-0.0029
 9546,-0.00069444,0.03204609,-0.00571843,-0.00243596,0.00157372,0.00135
 963,0.00031285,-0.00069198,-0.05090003,-0.00027410,0.02067427,0.054487
 04,0.00000081,-0.00000249,-0.00001769,-0.00000078,-0.00000362,-0.00000
 666,-0.00001525,0.00000073,-0.00000237,0.00006204,-0.00008749,0.000023
 10,0.00005551,-0.00002856,-0.00005275,0.00060015,0.00002538,-0.0004651
 9,-0.00004962,0.00033621,-0.00018939,-0.00004256,0.00003813,-0.0001539
 8,-0.00110158,-0.00107613,0.01347734,-0.00277389,-0.00009464,0.0006969
 5,0.00072263,0.00022341,0.00028973,-0.00027640,-0.05087560,0.01007619,
 0.00281554,0.04962965,0.00009165,0.00005051,0.00002985,0.00000057,-0.0
 0000830,-0.00001608,0.00003827,-0.00002451,0.00000168,0.00007660,-0.00
 005283,0.00041309,-0.00025713,-0.00002719,0.00009916,-0.00089344,0.000
 02134,0.00033474,0.00074538,-0.00037451,0.00054766,0.00006283,-0.00000
 275,-0.00004191,0.00119216,0.00064055,-0.00829348,0.00160421,0.0009997
 4,0.00130235,0.00012325,0.00042215,0.00065638,0.02105495,0.01013955,-0
 .30709398,-0.02487379,-0.01233846,0.33389388,-0.00052207,-0.00047194,0
 .00015778,0.00002136,0.00002653,0.00000684,-0.00021091,0.00017229,-0.0
 0005660,-0.00059331,0.00164524,-0.00109215,0.00005797,-0.00000962,0.00
 008977,-0.00455743,-0.00455283,0.00327390,0.00025130,-0.00019432,-0.00
 011813,0.00030372,-0.00005761,0.00022807,-0.02103802,0.01859259,-0.011
 41343,0.00112571,0.00032430,0.00046339,0.00109233,-0.00029506,-0.00054
 130,-0.18752248,0.11247292,-0.06785516,0.00267274,-0.00261616,0.000586
 96,0.20506821,-0.00018887,-0.00014403,0.00004113,-0.00000561,0.0000065
 6,0.00001587,-0.00005234,0.00005300,-0.00003152,-0.00067275,0.00076584
 ,0.00000601,0.00005993,0.00000565,-0.00001035,-0.00176749,-0.00097673,
 0.00076027,0.00003948,-0.00014162,0.00003070,-0.00024019,0.00046963,0.
 00016418,-0.01084379,0.00825420,-0.00590513,0.00074483,0.00030259,-0.0
 0028148,0.00057482,0.00076483,-0.00036891,0.11301551,-0.14060219,0.054
 48246,-0.00056969,-0.00080844,-0.00003011,-0.12248661,0.14919286,0.000
 12321,0.00007308,-0.00002348,-0.00000672,-0.00000393,-0.00000962,0.000
 03732,-0.00002960,0.00001327,0.00047764,-0.00012234,0.00058360,-0.0001
 2449,-0.00004012,0.00002674,0.00130397,0.00079911,-0.00030431,0.000358
 94,-0.00009217,0.00045905,-0.00012189,0.00029509,-0.00012167,0.0076348
 1,-0.00684566,0.00284758,-0.00034848,-0.00056137,0.00045119,-0.0006039
 9,-0.00008315,0.00008149,-0.06820704,0.05451394,-0.08273114,-0.0247477
 2,0.02039772,-0.01063249,0.07361767,-0.06091950,0.08485168,0.00000123,
 0.00005156,0.00001005,-0.00003294,0.00004440,-0.00000933,0.00002627,0.
 00000919,0.00000616,0.00009990,0.00006619,0.00027283,0.00001409,-0.000
 02758,-0.00001642,0.00192161,-0.00186588,-0.00049053,-0.00007892,0.000
 10865,0.00000283,-0.00027398,0.00108591,0.00017823,-0.00469453,-0.0290
 8941,-0.01232048,0.00135643,0.00075188,0.00000047,-0.00564733,-0.00220
 782,0.00185048,-0.05343425,-0.02986325,-0.01266835,-0.00054540,0.00263
 747,0.00040415,0.00392102,0.02224353,0.01057155,0.05741028,-0.00005767
 ,-0.00005179,0.00003593,-0.00001143,0.00002934,-0.00000800,-0.00002955
 ,0.00002415,-0.00001342,-0.00009037,0.00032254,0.00012991,0.00000085,-
 0.00003555,0.00000805,0.00115056,0.00050682,0.00020708,-0.00000555,0.0
 0003408,0.00002255,-0.00065067,0.00079734,-0.00019467,-0.00200619,-0.0
 1162058,-0.00402138,0.00015414,0.00032303,0.00048578,-0.00238628,0.000
 58860,0.00133436,-0.03029967,-0.26952012,-0.08794067,0.00082838,0.0027
 1847,0.00061618,-0.00259990,-0.01719423,-0.00739470,0.03584890,0.29297
 543,-0.00003934,-0.00005110,-0.00001412,-0.00000984,0.00001019,0.00000
 858,-0.00000392,0.00001964,0.00000080,-0.00013415,0.00022921,0.0000233
 1,0.00001663,0.00001940,-0.00004286,-0.00033480,-0.00022282,-0.0001276
 6,0.00000597,-0.00012922,0.00000787,-0.00028598,-0.00001802,0.00015631
 ,0.00130543,0.00980260,0.00356645,-0.00073933,0.00031574,0.00059925,0.
 00218780,0.00097798,0.00059639,-0.01290174,-0.08803618,-0.08571298,-0.
 00404588,-0.03174309,-0.01117738,0.00260372,0.01207773,0.00453087,0.01
 225217,0.09674325,0.08761516,0.00700274,0.02059695,0.00693406,-0.00283
 157,0.00371347,-0.00160275,0.00051856,0.00110721,0.00056020,-0.0875798
 5,-0.02127781,-0.00662614,0.00023544,-0.00216172,-0.00055224,-0.009043
 66,-0.02967284,-0.01128258,0.00159339,0.00070916,-0.00077440,-0.005877
 35,-0.00195052,0.00136300,0.00038839,-0.00068161,0.00019802,-0.0001127
 0,-0.00002376,-0.00034974,-0.00100762,-0.00040940,-0.00000783,0.000049
 73,-0.00017826,-0.00018703,0.00007675,0.00000553,-0.00000415,-0.000064
 07,0.00013400,0.00001971,0.00004359,0.00019319,0.00008557,0.57357314,-
 0.00042637,-0.03278603,-0.00542718,0.00190719,-0.00170475,-0.00035524,
 -0.00177850,0.00184343,0.00010223,-0.02144016,-0.15520863,-0.03769668,
 -0.00103793,-0.00165476,-0.00063440,-0.00862162,-0.01071226,-0.0017416
 3,0.00124797,0.00043002,-0.00042255,-0.00023222,0.00096754,-0.00004852
 ,-0.00028821,0.00184912,0.00030153,-0.00008028,0.00000085,-0.00002899,
 0.00013195,-0.00082444,-0.00058115,0.00049544,-0.00079024,0.00001499,-
 0.00005660,0.00000811,0.00004416,0.00021805,0.00008620,-0.00002591,-0.
 00022646,-0.00011936,0.00007058,-0.03114877,0.49125660,0.00276050,0.00
 786961,0.00266470,-0.00135273,0.00248796,-0.00040496,0.00002062,-0.000
 12272,0.00052507,-0.00901034,-0.03527338,-0.09147856,-0.00884149,-0.03
 288612,-0.01418186,0.00050673,0.00885624,0.00413175,0.00068469,0.00143
 118,0.00062059,0.00291255,0.00176147,-0.00028951,0.00023738,-0.0000800
 5,-0.00044418,0.00010367,0.00000377,0.00012302,-0.00023057,0.00026978,
 0.00047437,-0.00001301,0.00012090,0.00040146,0.00001460,0.00001909,-0.
 00007370,0.00009533,-0.00005319,-0.00003557,0.00005592,0.00003499,-0.0
 0008636,-0.01090174,-0.03878054,0.55949058,-0.00045784,-0.00091949,-0.
 00038472,0.00047874,-0.00034574,0.00022451,0.00045874,-0.00024878,-0.0
 0002779,0.00646557,-0.00717563,0.00332221,0.00028999,0.00066919,0.0005
 0665,0.00029375,0.00039200,0.00049036,-0.00005645,-0.00006949,0.000028
 21,0.00015534,0.00016155,-0.00009972,-0.00100970,-0.00037982,-0.000057
 32,0.00003077,0.00007692,-0.00000350,-0.00158244,-0.00092901,-0.000148
 39,-0.00001341,-0.00010141,0.00003495,0.00000346,0.00000543,-0.0000135
 2,0.00005154,-0.00000443,-0.00000071,-0.00000891,-0.00000577,-0.000000
 81,-0.15465161,0.11858919,-0.05379092,0.16742770,-0.00344791,-0.005154
 56,-0.00210721,0.00127234,-0.00118112,0.00018413,-0.00001094,0.0002219
 9,-0.00007811,0.01958947,-0.01938980,0.00987856,0.00004437,0.00155338,
 -0.00011648,0.00131289,0.00043590,0.00040540,-0.00014073,-0.00005039,0
 .00001343,-0.00002874,0.00015978,-0.00011547,0.00018864,-0.00079417,-0
 .00038818,-0.00007900,-0.00000815,-0.00005266,-0.00081826,0.00094939,0
 .00036720,-0.00033108,0.00059366,0.00015566,0.00006805,0.00000171,-0.0
 0007090,-0.00005201,-0.00004077,0.00001287,0.00027835,0.00013397,-0.00
 005074,0.11733499,-0.18064021,0.05993215,-0.12931307,0.19640572,-0.001
 42747,-0.00226585,0.00012636,0.00043095,-0.00068379,0.00047945,0.00005
 905,0.00003371,-0.00028887,0.00979832,-0.00930906,0.00355718,0.0006279
 1,0.00052368,0.00054439,-0.00015066,0.00072821,0.00007058,-0.00007859,
 0.00003676,0.00001769,0.00018291,-0.00000863,-0.00005625,-0.00034293,0
 .00050239,0.00052337,-0.00004047,-0.00012294,-0.00022901,0.00007616,-0
 .00045329,0.00007580,0.00004020,-0.00019455,-0.00017122,0.00003156,0.0
 0003554,-0.00001386,0.00000627,0.00001131,0.00000637,-0.00007202,-0.00
 005692,0.00001743,-0.05400446,0.06079370,-0.07815245,0.06028154,-0.064
 69698,0.07937603,0.00017035,0.00047611,0.00038421,-0.00005965,-0.00003
 958,-0.00002820,-0.00010029,-0.00005909,0.00016275,-0.00074611,-0.0003
 7775,-0.00866157,0.00018246,-0.00193976,-0.00096952,0.00061264,0.00056
 816,-0.00160378,0.00003532,-0.00013365,0.00043969,0.00008311,0.0001221
 1,0.00024763,-0.00019381,0.00000920,0.00005883,0.00012832,0.00004808,0
 .00017071,-0.00001666,0.00008991,-0.00010187,0.00000197,0.00000889,0.0
 0000837,-0.00004695,-0.00002559,0.00003208,0.00000670,-0.00000636,0.00
 000945,0.00000483,-0.00000103,0.00000453,-0.05032463,0.00088771,0.0032
 3774,0.00071040,-0.00081148,-0.02208480,0.04850923,-0.00100707,0.00201
 371,-0.00023370,-0.00002124,0.00011626,0.00011458,0.00033877,-0.000070
 59,-0.00006434,0.00047859,-0.00076723,-0.03140537,-0.00152662,-0.00562
 318,-0.00264103,0.00116424,0.00163795,-0.00081178,-0.00032306,0.000033
 42,0.00084579,0.00036258,0.00016710,0.00030139,-0.00005388,0.00001135,
 0.00005838,0.00011287,-0.00011519,0.00005740,-0.00005073,0.00001308,0.
 00006189,-0.00004613,0.00005588,0.00001717,-0.00001263,0.00000840,-0.0
 0000306,-0.00001310,-0.00000860,0.00000694,0.00001170,0.00001002,-0.00
 000903,0.00067190,-0.04903219,0.00494955,-0.00219391,0.00020495,0.0236
 3829,0.00131197,0.05225660,-0.00049392,0.00098978,0.00085658,0.0001349
 8,-0.00013786,0.00011523,0.00028439,-0.00021132,-0.00024374,0.00016000
 ,-0.00080217,-0.01197327,-0.00049626,-0.00279426,0.00025514,0.00054464
 ,0.00077930,0.00040741,-0.00083017,-0.00043023,0.00053652,0.00000643,-
 0.00001109,0.00041870,-0.00021943,-0.00017717,0.00007491,0.00014040,0.
 00003625,0.00014124,-0.00006848,0.00005502,-0.00017909,-0.00000059,0.0
 0003489,-0.00003924,-0.00004410,-0.00002925,0.00004284,-0.00003496,-0.
 00000295,0.00000059,-0.00000489,-0.00000034,0.00001166,0.00345033,0.00
 451480,-0.30946335,0.00063397,0.00030190,-0.00907617,-0.00305104,-0.00
 260626,0.33692518,0.00048335,0.00142574,-0.00032146,0.00029502,-0.0000
 5479,0.00000026,0.00060839,-0.00031776,0.00025645,-0.00754026,-0.00149
 744,0.00247051,0.00007181,0.00007688,-0.00050978,0.00099510,-0.0012739
 7,-0.00160954,0.00012205,0.00015349,0.00002831,-0.00051213,-0.00025715
 ,0.00016997,0.00020214,0.00010797,0.00036432,-0.00002496,-0.00004316,-
 0.00009327,0.00019098,-0.00029651,-0.00011142,0.00004351,-0.00011815,-
 0.00013434,-0.00000571,-0.00000328,0.00002896,-0.00006430,0.00002604,0
 .00000677,-0.00008300,-0.00003194,0.00003395,-0.27198866,-0.05814036,0
 .07351107,-0.01858564,-0.00505587,0.00666651,0.00104276,0.00079577,-0.
 00011129,0.29474955,-0.00174231,0.00131721,-0.00008342,0.00028376,0.00
 036625,-0.00003487,0.00091743,-0.00033603,0.00034002,-0.02826906,-0.00
 819255,0.01079304,0.00055101,0.00115020,0.00004677,0.00046046,-0.00576
 284,-0.00327374,0.00034185,0.00011327,-0.00003942,-0.00204268,-0.00065
 926,0.00035979,0.00063975,-0.00066567,-0.00004697,-0.00006022,0.000057
 73,-0.00002407,-0.00019222,0.00052210,0.00016788,-0.00016364,0.0003194
 4,-0.00000262,0.00002878,-0.00001323,-0.00000154,-0.00010276,0.0000152
 6,0.00001969,0.00014267,0.00007782,-0.00000610,-0.05696171,-0.06296898
 ,0.01945933,0.02179228,0.00659872,-0.00851158,-0.00012787,-0.00091173,
 0.00049096,0.06450449,0.06897230,0.00035081,0.00053620,0.00018645,-0.0
 0020207,0.00005718,-0.00013152,-0.00009872,0.00027815,0.00012853,-0.01
 290811,-0.00336015,0.00334918,-0.00020427,0.00074146,0.00055350,0.0000
 2519,-0.00199624,-0.00084963,-0.00025336,-0.00025802,0.00042185,-0.000
 55605,-0.00028728,0.00054752,0.00003625,-0.00009475,0.00019371,0.00003
 311,0.00002148,0.00000316,0.00003498,-0.00000342,-0.00014194,0.0000153
 7,-0.00003956,-0.00006934,-0.00001830,-0.00001681,0.00002125,-0.000017
 99,0.00001347,0.00000583,-0.00002280,0.00001202,0.00002727,0.07368217,
 0.01990081,-0.07382103,-0.01099500,-0.00357457,0.00319320,0.03174479,0
 .00772318,-0.00881113,-0.08064600,-0.01965314,0.07519316\\0.00000035,0
 .00000083,0.00000057,0.00000070,0.00000061,0.00000051,0.00000026,0.000
 00103,0.00000060,0.00000018,0.00000039,0.00000006,0.00000028,0.0000002
 8,0.00000028,0.00000005,-0.00000011,0.00000018,-0.00000002,0.00000005,
 -0.00000001,0.00000053,-0.00000010,0.00000006,-0.00000004,-0.00000042,
 -0.00000031,0.00000013,-0.00000054,-0.00000024,-0.00000043,-0.00000043
 ,-0.00000033,0.00000009,-0.00000088,-0.00000049,-0.00000012,-0.0000008
 3,-0.00000048,-0.00000010,-0.00000117,-0.00000066,0.00000045,-0.000000
 97,-0.00000041,-0.00000057,0.00000042,0.00000008,-0.00000063,0.0000003
 1,0.00000001,-0.00000065,0.00000063,0.00000021,-0.00000047,0.00000090,
 0.00000037\\\@


 UNLESS WE CHANGE DIRECTIONS, WE WILL WIND UP WHERE WE ARE HEADED.
     -- CONFUCIUS
 Job cpu time:       0 days  0 hours 26 minutes 30.4 seconds.
 File lengths (MBytes):  RWF=     64 Int=      0 D2E=      0 Chk=      3 Scr=      1
 Normal termination of Gaussian 09 at Sat Nov  7 02:36:47 2015.
