 Entering Gaussian System, Link 0=/home/hetanjin/apps/g09D01/g09/g09
 Input=C6H14_3_r003_C17_2_opt_B3L.gjf
 Output=C6H14_3_r003_C17_2_opt_B3L.log
 Initial command:
 /home/hetanjin/apps/g09D01/g09/l1.exe "/state/partition1/Gau-6408.inp" -scrdir="/state/partition1/"
 Entering Link 1 = /home/hetanjin/apps/g09D01/g09/l1.exe PID=      6412.
  
 Copyright (c) 1988,1990,1992,1993,1995,1998,2003,2009,2013,
            Gaussian, Inc.  All Rights Reserved.
  
 This is part of the Gaussian(R) 09 program.  It is based on
 the Gaussian(R) 03 system (copyright 2003, Gaussian, Inc.),
 the Gaussian(R) 98 system (copyright 1998, Gaussian, Inc.),
 the Gaussian(R) 94 system (copyright 1995, Gaussian, Inc.),
 the Gaussian 92(TM) system (copyright 1992, Gaussian, Inc.),
 the Gaussian 90(TM) system (copyright 1990, Gaussian, Inc.),
 the Gaussian 88(TM) system (copyright 1988, Gaussian, Inc.),
 the Gaussian 86(TM) system (copyright 1986, Carnegie Mellon
 University), and the Gaussian 82(TM) system (copyright 1983,
 Carnegie Mellon University). Gaussian is a federally registered
 trademark of Gaussian, Inc.
  
 This software contains proprietary and confidential information,
 including trade secrets, belonging to Gaussian, Inc.
  
 This software is provided under written license and may be
 used, copied, transmitted, or stored only in accord with that
 written license.
  
 The following legend is applicable only to US Government
 contracts under FAR:
  
                    RESTRICTED RIGHTS LEGEND
  
 Use, reproduction and disclosure by the US Government is
 subject to restrictions as set forth in subparagraphs (a)
 and (c) of the Commercial Computer Software - Restricted
 Rights clause in FAR 52.227-19.
  
 Gaussian, Inc.
 340 Quinnipiac St., Bldg. 40, Wallingford CT 06492
  
  
 ---------------------------------------------------------------
 Warning -- This program may not be used in any manner that
 competes with the business of Gaussian, Inc. or will provide
 assistance to any competitor of Gaussian, Inc.  The licensee
 of this program is prohibited from giving any competitor of
 Gaussian, Inc. access to this program.  By using this program,
 the user acknowledges that Gaussian, Inc. is engaged in the
 business of creating and licensing software in the field of
 computational chemistry and represents and warrants to the
 licensee that it is not a competitor of Gaussian, Inc. and that
 it will not use this program in any manner prohibited above.
 ---------------------------------------------------------------
  

 Cite this work as:
 Gaussian 09, Revision D.01,
 M. J. Frisch, G. W. Trucks, H. B. Schlegel, G. E. Scuseria, 
 M. A. Robb, J. R. Cheeseman, G. Scalmani, V. Barone, B. Mennucci, 
 G. A. Petersson, H. Nakatsuji, M. Caricato, X. Li, H. P. Hratchian, 
 A. F. Izmaylov, J. Bloino, G. Zheng, J. L. Sonnenberg, M. Hada, 
 M. Ehara, K. Toyota, R. Fukuda, J. Hasegawa, M. Ishida, T. Nakajima, 
 Y. Honda, O. Kitao, H. Nakai, T. Vreven, J. A. Montgomery, Jr., 
 J. E. Peralta, F. Ogliaro, M. Bearpark, J. J. Heyd, E. Brothers, 
 K. N. Kudin, V. N. Staroverov, T. Keith, R. Kobayashi, J. Normand, 
 K. Raghavachari, A. Rendell, J. C. Burant, S. S. Iyengar, J. Tomasi, 
 M. Cossi, N. Rega, J. M. Millam, M. Klene, J. E. Knox, J. B. Cross, 
 V. Bakken, C. Adamo, J. Jaramillo, R. Gomperts, R. E. Stratmann, 
 O. Yazyev, A. J. Austin, R. Cammi, C. Pomelli, J. W. Ochterski, 
 R. L. Martin, K. Morokuma, V. G. Zakrzewski, G. A. Voth, 
 P. Salvador, J. J. Dannenberg, S. Dapprich, A. D. Daniels, 
 O. Farkas, J. B. Foresman, J. V. Ortiz, J. Cioslowski, 
 and D. J. Fox, Gaussian, Inc., Wallingford CT, 2013.
 
 ******************************************
 Gaussian 09:  ES64L-G09RevD.01 24-Apr-2013
                 7-Nov-2015 
 ******************************************
 %mem=6GB
 %nprocshared=4
 Will use up to    4 processors via shared memory.
 ----------------------------------------------
 #p B3LYP/6-31G(d) opt=tight int=ultrafine freq
 ----------------------------------------------
 1/7=10,14=-1,18=20,19=15,26=4,38=1/1,3;
 2/9=110,12=2,17=6,18=5,40=1/2;
 3/5=1,6=6,7=1,11=2,16=1,25=1,30=1,71=1,74=-5,75=-5/1,2,3;
 4//1;
 5/5=2,38=5/2;
 6/7=2,8=2,9=2,10=2,28=1/1;
 7//1,2,3,16;
 1/7=10,14=-1,18=20,19=15,26=4/3(2);
 2/9=110/2;
 99//99;
 2/9=110/2;
 3/5=1,6=6,7=1,11=2,16=1,25=1,30=1,71=1,74=-5,75=-5/1,2,3;
 4/5=5,16=3,69=1/1;
 5/5=2,38=5/2;
 7//1,2,3,16;
 1/7=10,14=-1,18=20,19=15,26=4/3(-5);
 2/9=110/2;
 6/7=2,8=2,9=2,10=2,19=2,28=1/1;
 99/9=1/99;
 Leave Link    1 at Sat Nov  7 02:04:17 2015, MaxMem=   805306368 cpu:         0.2
 (Enter /home/hetanjin/apps/g09D01/g09/l101.exe)
 ---------------------------------------------
 using B3LYP/6-31G(d) to do opt and freq calc.
 ---------------------------------------------
 Symbolic Z-matrix:
 Charge =  0 Multiplicity = 2
 C                    -2.58543  -0.17306  -0.29185 
 H                    -2.56946  -0.21059  -1.38848 
 H                    -2.79867   0.86056   0.00159 
 H                    -3.42636  -0.7886    0.04788 
 C                    -1.2643   -0.68112   0.2975 
 H                    -1.30509  -0.61825   1.39536 
 H                    -1.16192  -1.74928   0.0599 
 C                     0.        0.05117  -0.19883 
 H                     0.        0.00139  -1.30033 
 C                     1.2643   -0.68112   0.29751 
 H                     1.16193  -1.74928   0.05992 
 H                     1.30509  -0.61823   1.39536 
 C                     2.58543  -0.17306  -0.29185 
 H                     2.79867   0.86057   0.00157 
 H                     3.42636  -0.78859   0.04789 
 H                     2.56946  -0.21061  -1.38848 
 C                    0.         1.53336   0.20729 
 H                    -0.88093   2.05894  -0.1759 
 H                    -0.00001   1.63604   1.30101 
 
 NAtoms=     19 NQM=       19 NQMF=       0 NMMI=      0 NMMIF=      0
                NMic=       0 NMicF=      0.
                    Isotopes and Nuclear Properties:
 (Nuclear quadrupole moments (NQMom) in fm**2, nuclear magnetic moments (NMagM)
  in nuclear magnetons)

  Atom         1           2           3           4           5           6           7           8           9          10
 IAtWgt=          12           1           1           1          12           1           1          12           1          12
 AtmWgt=  12.0000000   1.0078250   1.0078250   1.0078250  12.0000000   1.0078250   1.0078250  12.0000000   1.0078250  12.0000000
 NucSpn=           0           1           1           1           0           1           1           0           1           0
 AtZEff=   0.0000000   0.0000000   0.0000000   0.0000000   0.0000000   0.0000000   0.0000000   0.0000000   0.0000000   0.0000000
 NQMom=    0.0000000   0.0000000   0.0000000   0.0000000   0.0000000   0.0000000   0.0000000   0.0000000   0.0000000   0.0000000
 NMagM=    0.0000000   2.7928460   2.7928460   2.7928460   0.0000000   2.7928460   2.7928460   0.0000000   2.7928460   0.0000000
 AtZNuc=   6.0000000   1.0000000   1.0000000   1.0000000   6.0000000   1.0000000   1.0000000   6.0000000   1.0000000   6.0000000

  Atom        11          12          13          14          15          16          17          18          19
 IAtWgt=           1           1          12           1           1           1          12           1           1
 AtmWgt=   1.0078250   1.0078250  12.0000000   1.0078250   1.0078250   1.0078250  12.0000000   1.0078250   1.0078250
 NucSpn=           1           1           0           1           1           1           0           1           1
 AtZEff=   0.0000000   0.0000000   0.0000000   0.0000000   0.0000000   0.0000000   0.0000000   0.0000000   0.0000000
 NQMom=    0.0000000   0.0000000   0.0000000   0.0000000   0.0000000   0.0000000   0.0000000   0.0000000   0.0000000
 NMagM=    2.7928460   2.7928460   0.0000000   2.7928460   2.7928460   2.7928460   0.0000000   2.7928460   2.7928460
 AtZNuc=   1.0000000   1.0000000   6.0000000   1.0000000   1.0000000   1.0000000   6.0000000   1.0000000   1.0000000
 Leave Link  101 at Sat Nov  7 02:04:18 2015, MaxMem=   805306368 cpu:         0.7
 (Enter /home/hetanjin/apps/g09D01/g09/l103.exe)

 GradGradGradGradGradGradGradGradGradGradGradGradGradGradGradGradGradGrad
 Berny optimization.
 Initialization pass.
                           ----------------------------
                           !    Initial Parameters    !
                           ! (Angstroms and Degrees)  !
 --------------------------                            --------------------------
 ! Name  Definition              Value          Derivative Info.                !
 --------------------------------------------------------------------------------
 ! R1    R(1,2)                  1.0974         estimate D2E/DX2                !
 ! R2    R(1,3)                  1.0954         estimate D2E/DX2                !
 ! R3    R(1,4)                  1.0961         estimate D2E/DX2                !
 ! R4    R(1,5)                  1.5332         estimate D2E/DX2                !
 ! R5    R(5,6)                  1.1004         estimate D2E/DX2                !
 ! R6    R(5,7)                  1.099          estimate D2E/DX2                !
 ! R7    R(5,8)                  1.5431         estimate D2E/DX2                !
 ! R8    R(8,9)                  1.1026         estimate D2E/DX2                !
 ! R9    R(8,10)                 1.5431         estimate D2E/DX2                !
 ! R10   R(8,17)                 1.5368         estimate D2E/DX2                !
 ! R11   R(10,11)                1.099          estimate D2E/DX2                !
 ! R12   R(10,12)                1.1004         estimate D2E/DX2                !
 ! R13   R(10,13)                1.5332         estimate D2E/DX2                !
 ! R14   R(13,14)                1.0954         estimate D2E/DX2                !
 ! R15   R(13,15)                1.0961         estimate D2E/DX2                !
 ! R16   R(13,16)                1.0974         estimate D2E/DX2                !
 ! R17   R(17,18)                1.095          estimate D2E/DX2                !
 ! R18   R(17,19)                1.0985         estimate D2E/DX2                !
 ! A1    A(2,1,3)              107.6254         estimate D2E/DX2                !
 ! A2    A(2,1,4)              107.559          estimate D2E/DX2                !
 ! A3    A(2,1,5)              111.115          estimate D2E/DX2                !
 ! A4    A(3,1,4)              107.3082         estimate D2E/DX2                !
 ! A5    A(3,1,5)              112.1749         estimate D2E/DX2                !
 ! A6    A(4,1,5)              110.8451         estimate D2E/DX2                !
 ! A7    A(1,5,6)              109.4277         estimate D2E/DX2                !
 ! A8    A(1,5,7)              108.6152         estimate D2E/DX2                !
 ! A9    A(1,5,8)              115.1572         estimate D2E/DX2                !
 ! A10   A(6,5,7)              105.9422         estimate D2E/DX2                !
 ! A11   A(6,5,8)              108.915          estimate D2E/DX2                !
 ! A12   A(7,5,8)              108.3832         estimate D2E/DX2                !
 ! A13   A(5,8,9)              107.4517         estimate D2E/DX2                !
 ! A14   A(5,8,10)             110.0384         estimate D2E/DX2                !
 ! A15   A(5,8,17)             111.882          estimate D2E/DX2                !
 ! A16   A(9,8,10)             107.4518         estimate D2E/DX2                !
 ! A17   A(9,8,17)             107.9103         estimate D2E/DX2                !
 ! A18   A(10,8,17)            111.882          estimate D2E/DX2                !
 ! A19   A(8,10,11)            108.3833         estimate D2E/DX2                !
 ! A20   A(8,10,12)            108.915          estimate D2E/DX2                !
 ! A21   A(8,10,13)            115.1571         estimate D2E/DX2                !
 ! A22   A(11,10,12)           105.9423         estimate D2E/DX2                !
 ! A23   A(11,10,13)           108.6152         estimate D2E/DX2                !
 ! A24   A(12,10,13)           109.4277         estimate D2E/DX2                !
 ! A25   A(10,13,14)           112.1749         estimate D2E/DX2                !
 ! A26   A(10,13,15)           110.8451         estimate D2E/DX2                !
 ! A27   A(10,13,16)           111.1149         estimate D2E/DX2                !
 ! A28   A(14,13,15)           107.3082         estimate D2E/DX2                !
 ! A29   A(14,13,16)           107.6254         estimate D2E/DX2                !
 ! A30   A(15,13,16)           107.559          estimate D2E/DX2                !
 ! A31   A(8,17,18)            111.7423         estimate D2E/DX2                !
 ! A32   A(8,17,19)            110.6857         estimate D2E/DX2                !
 ! A33   A(18,17,19)           107.6699         estimate D2E/DX2                !
 ! D1    D(2,1,5,6)            179.2076         estimate D2E/DX2                !
 ! D2    D(2,1,5,7)            -65.5701         estimate D2E/DX2                !
 ! D3    D(2,1,5,8)             56.1554         estimate D2E/DX2                !
 ! D4    D(3,1,5,6)             58.6833         estimate D2E/DX2                !
 ! D5    D(3,1,5,7)            173.9055         estimate D2E/DX2                !
 ! D6    D(3,1,5,8)            -64.369          estimate D2E/DX2                !
 ! D7    D(4,1,5,6)            -61.2484         estimate D2E/DX2                !
 ! D8    D(4,1,5,7)             53.9738         estimate D2E/DX2                !
 ! D9    D(4,1,5,8)            175.6993         estimate D2E/DX2                !
 ! D10   D(1,5,8,9)            -54.8991         estimate D2E/DX2                !
 ! D11   D(1,5,8,10)          -171.5975         estimate D2E/DX2                !
 ! D12   D(1,5,8,17)            63.3728         estimate D2E/DX2                !
 ! D13   D(6,5,8,9)           -178.2239         estimate D2E/DX2                !
 ! D14   D(6,5,8,10)            65.0777         estimate D2E/DX2                !
 ! D15   D(6,5,8,17)           -59.952          estimate D2E/DX2                !
 ! D16   D(7,5,8,9)             66.9516         estimate D2E/DX2                !
 ! D17   D(7,5,8,10)           -49.7467         estimate D2E/DX2                !
 ! D18   D(7,5,8,17)          -174.7765         estimate D2E/DX2                !
 ! D19   D(5,8,10,11)           49.746          estimate D2E/DX2                !
 ! D20   D(5,8,10,12)          -65.0785         estimate D2E/DX2                !
 ! D21   D(5,8,10,13)          171.5967         estimate D2E/DX2                !
 ! D22   D(9,8,10,11)          -66.9523         estimate D2E/DX2                !
 ! D23   D(9,8,10,12)          178.2232         estimate D2E/DX2                !
 ! D24   D(9,8,10,13)           54.8984         estimate D2E/DX2                !
 ! D25   D(17,8,10,11)         174.7757         estimate D2E/DX2                !
 ! D26   D(17,8,10,12)          59.9512         estimate D2E/DX2                !
 ! D27   D(17,8,10,13)         -63.3736         estimate D2E/DX2                !
 ! D28   D(5,8,17,18)          -57.9911         estimate D2E/DX2                !
 ! D29   D(5,8,17,19)           62.0011         estimate D2E/DX2                !
 ! D30   D(9,8,17,18)           60.0075         estimate D2E/DX2                !
 ! D31   D(9,8,17,19)          179.9997         estimate D2E/DX2                !
 ! D32   D(10,8,17,18)         178.0062         estimate D2E/DX2                !
 ! D33   D(10,8,17,19)         -62.0016         estimate D2E/DX2                !
 ! D34   D(8,10,13,14)          64.3686         estimate D2E/DX2                !
 ! D35   D(8,10,13,15)        -175.6996         estimate D2E/DX2                !
 ! D36   D(8,10,13,16)         -56.1557         estimate D2E/DX2                !
 ! D37   D(11,10,13,14)       -173.9059         estimate D2E/DX2                !
 ! D38   D(11,10,13,15)        -53.9741         estimate D2E/DX2                !
 ! D39   D(11,10,13,16)         65.5698         estimate D2E/DX2                !
 ! D40   D(12,10,13,14)        -58.6837         estimate D2E/DX2                !
 ! D41   D(12,10,13,15)         61.2481         estimate D2E/DX2                !
 ! D42   D(12,10,13,16)       -179.208          estimate D2E/DX2                !
 --------------------------------------------------------------------------------
 Trust Radius=3.00D-01 FncErr=1.00D-07 GrdErr=1.00D-06
 Number of steps in this run=    103 maximum allowed number of steps=    114.
 GradGradGradGradGradGradGradGradGradGradGradGradGradGradGradGradGradGrad

 Leave Link  103 at Sat Nov  7 02:04:18 2015, MaxMem=   805306368 cpu:         0.0
 (Enter /home/hetanjin/apps/g09D01/g09/l202.exe)
                          Input orientation:                          
 ---------------------------------------------------------------------
 Center     Atomic      Atomic             Coordinates (Angstroms)
 Number     Number       Type             X           Y           Z
 ---------------------------------------------------------------------
      1          6           0       -2.585432   -0.173063   -0.291849
      2          1           0       -2.569458   -0.210592   -1.388477
      3          1           0       -2.798673    0.860561    0.001587
      4          1           0       -3.426358   -0.788597    0.047878
      5          6           0       -1.264298   -0.681121    0.297502
      6          1           0       -1.305088   -0.618252    1.395357
      7          1           0       -1.161923   -1.749281    0.059899
      8          6           0        0.000001    0.051166   -0.198829
      9          1           0        0.000003    0.001388   -1.300329
     10          6           0        1.264300   -0.681115    0.297508
     11          1           0        1.161927   -1.749278    0.059916
     12          1           0        1.305092   -0.618234    1.395362
     13          6           0        2.585433   -0.173062   -0.291851
     14          1           0        2.798671    0.860567    0.001568
     15          1           0        3.426361   -0.788588    0.047886
     16          1           0        2.569459   -0.210609   -1.388479
     17          6           0       -0.000004    1.533363    0.207287
     18          1           0       -0.880930    2.058937   -0.175897
     19          1           0       -0.000012    1.636037    1.301012
 ---------------------------------------------------------------------
                    Distance matrix (angstroms):
                    1          2          3          4          5
     1  C    0.000000
     2  H    1.097386   0.000000
     3  H    1.095425   1.769798   0.000000
     4  H    1.096108   1.769600   1.765178   0.000000
     5  C    1.533249   2.183430   2.195144   2.179075   0.000000
     6  H    2.164287   3.084566   2.521959   2.518830   1.100410
     7  H    2.152805   2.538998   3.081173   2.459822   1.099046
     8  C    2.596805   2.843572   2.920251   3.536383   1.543062
     9  H    2.780636   2.579697   3.204021   3.765858   2.148800
    10  C    3.927581   4.214456   4.355696   4.698525   2.528598
    11  H    4.080550   4.288197   4.743523   4.687794   2.661574
    12  H    4.263923   4.788326   4.579337   4.922536   2.794820
    13  C    5.170865   5.270379   5.490271   6.052762   3.927581
    14  H    5.490269   5.647691   5.597344   6.439944   4.355697
    15  H    6.052763   6.192501   6.439944   6.852719   4.698525
    16  H    5.270380   5.138917   5.647701   6.192497   4.214452
    17  C    3.137748   3.491409   2.885745   4.142078   2.551572
    18  H    2.810800   3.077700   2.268335   3.825928   2.806955
    19  H    3.534748   4.152763   3.181567   4.380530   2.823946
                    6          7          8          9         10
     6  H    0.000000
     7  H    1.755896   0.000000
     8  C    2.166289   2.158383   0.000000
     9  H    3.058421   2.503025   1.102624   0.000000
    10  C    2.794813   2.661577   1.543061   2.148800   0.000000
    11  H    3.024696   2.323850   2.158384   2.503031   1.099046
    12  H    2.610180   3.024713   2.166288   3.058421   1.100410
    13  C    4.263921   4.080548   2.596804   2.780631   1.533250
    14  H    4.579344   4.743523   2.920247   3.204008   2.195144
    15  H    4.922530   4.687795   3.536382   3.765856   2.179075
    16  H    4.788322   4.288184   2.843573   2.579693   2.183430
    17  C    2.782841   3.485331   1.536827   2.149384   2.551572
    18  H    3.133064   3.825844   2.192649   2.504775   3.511981
    19  H    2.606519   3.788242   2.182049   3.072304   2.823951
                   11         12         13         14         15
    11  H    0.000000
    12  H    1.755897   0.000000
    13  C    2.152804   2.164287   0.000000
    14  H    3.081173   2.521962   1.095424   0.000000
    15  H    2.459823   2.518828   1.096108   1.765178   0.000000
    16  H    2.538995   3.084567   1.097387   1.769799   1.769600
    17  C    3.485331   2.782834   3.137755   2.885751   4.142082
    18  H    4.327976   3.796682   4.124432   3.873893   5.168291
    19  H    3.788242   2.606518   3.534767   3.181593   4.380544
                   16         17         18         19
    16  H    0.000000
    17  C    3.491425   0.000000
    18  H    4.304228   1.095029   0.000000
    19  H    4.152788   1.098534   1.770910   0.000000
 Stoichiometry    C6H13(2)
 Framework group  C1[X(C6H13)]
 Deg. of freedom    51
 Full point group                 C1      NOp   1
 Largest Abelian subgroup         C1      NOp   1
 Largest concise Abelian subgroup C1      NOp   1
                         Standard orientation:                         
 ---------------------------------------------------------------------
 Center     Atomic      Atomic             Coordinates (Angstroms)
 Number     Number       Type             X           Y           Z
 ---------------------------------------------------------------------
      1          6           0        2.565482   -0.174697    0.289928
      2          1           0        2.550095   -0.229859    1.385819
      3          1           0        2.794057    0.860228    0.013092
      4          1           0        3.396623   -0.797268   -0.060873
      5          6           0        1.236179   -0.653018   -0.305904
      6          1           0        1.276762   -0.572878   -1.402641
      7          1           0        1.117875   -1.723239   -0.085600
      8          6           0       -0.016352    0.090133    0.203933
      9          1           0       -0.015949    0.022404    1.304475
     10          6           0       -1.292127   -0.614733   -0.302624
     11          1           0       -1.205706   -1.688056   -0.082598
     12          1           0       -1.333116   -0.533346   -1.399254
     13          6           0       -2.604786   -0.096417    0.296649
     14          1           0       -2.802641    0.944969    0.020385
     15          1           0       -3.455304   -0.693520   -0.051977
     16          1           0       -2.588229   -0.152080    1.392498
     17          6           0        0.005693    1.578586   -0.177983
     18          1           0        0.894887    2.084445    0.212567
     19          1           0        0.006106    1.699071   -1.269890
 ---------------------------------------------------------------------
 Rotational constants (GHZ):      6.9084836      1.8383423      1.6032083
 Leave Link  202 at Sat Nov  7 02:04:18 2015, MaxMem=   805306368 cpu:         0.0
 (Enter /home/hetanjin/apps/g09D01/g09/l301.exe)
 Standard basis: 6-31G(d) (6D, 7F)
 Ernie: Thresh=  0.10000D-02 Tol=  0.10000D-05 Strict=F.
 There are   116 symmetry adapted cartesian basis functions of A   symmetry.
 There are   116 symmetry adapted basis functions of A   symmetry.
   116 basis functions,   220 primitive gaussians,   116 cartesian basis functions
    25 alpha electrons       24 beta electrons
       nuclear repulsion energy       244.7335117577 Hartrees.
 IExCor=  402 DFT=T Ex+Corr=B3LYP ExCW=0 ScaHFX=  0.200000
 ScaDFX=  0.800000  0.720000  1.000000  0.810000 ScalE2=  1.000000  1.000000
 IRadAn=      5 IRanWt=     -1 IRanGd=            0 ICorTp=0 IEmpDi=  4
 NAtoms=   19 NActive=   19 NUniq=   19 SFac= 1.00D+00 NAtFMM=   60 NAOKFM=F Big=F
 Integral buffers will be    131072 words long.
 Raffenetti 2 integral format.
 Two-electron integral symmetry is turned on.
 Leave Link  301 at Sat Nov  7 02:04:18 2015, MaxMem=   805306368 cpu:         0.2
 (Enter /home/hetanjin/apps/g09D01/g09/l302.exe)
 NPDir=0 NMtPBC=     1 NCelOv=     1 NCel=       1 NClECP=     1 NCelD=      1
         NCelK=      1 NCelE2=     1 NClLst=     1 CellRange=     0.0.
 One-electron integrals computed using PRISM.
 NBasis=   116 RedAO= T EigKep=  3.70D-03  NBF=   116
 NBsUse=   116 1.00D-06 EigRej= -1.00D+00 NBFU=   116
 Precomputing XC quadrature grid using
 IXCGrd= 4 IRadAn=           5 IRanWt=          -1 IRanGd=           0 AccXCQ= 0.00D+00.
 Generated NRdTot=       0 NPtTot=           0 NUsed=           0 NTot=          32
 NSgBfM=   116   116   116   116   116 MxSgAt=    19 MxSgA2=    19.
 Leave Link  302 at Sat Nov  7 02:04:18 2015, MaxMem=   805306368 cpu:         1.7
 (Enter /home/hetanjin/apps/g09D01/g09/l303.exe)
 DipDrv:  MaxL=1.
 Leave Link  303 at Sat Nov  7 02:04:18 2015, MaxMem=   805306368 cpu:         0.2
 (Enter /home/hetanjin/apps/g09D01/g09/l401.exe)
 ExpMin= 1.61D-01 ExpMax= 3.05D+03 ExpMxC= 4.57D+02 IAcc=3 IRadAn=         5 AccDes= 0.00D+00
 Harris functional with IExCor=  402 and IRadAn=       5 diagonalized for initial guess.
 HarFok:  IExCor=  402 AccDes= 0.00D+00 IRadAn=         5 IDoV= 1 UseB2=F ITyADJ=14
 ICtDFT=  3500011 ScaDFX=  1.000000  1.000000  1.000000  1.000000
 FoFCou: FMM=F IPFlag=           0 FMFlag=      100000 FMFlg1=           0
         NFxFlg=           0 DoJE=T BraDBF=F KetDBF=T FulRan=T
         wScrn=  0.000000 ICntrl=     500 IOpCl=  0 I1Cent=   200000004 NGrid=           0
         NMat0=    1 NMatS0=      1 NMatT0=    0 NMatD0=    1 NMtDS0=    0 NMtDT0=    0
 Petite list used in FoFCou.
 Harris En= -236.439727634189    
 JPrj=0 DoOrth=F DoCkMO=F.
 Initial guess <Sx>= 0.0000 <Sy>= 0.0000 <Sz>= 0.5000 <S**2>= 0.7500 S= 0.5000
 Leave Link  401 at Sat Nov  7 02:04:20 2015, MaxMem=   805306368 cpu:         8.5
 (Enter /home/hetanjin/apps/g09D01/g09/l502.exe)
 UHF open shell SCF:
 Using DIIS extrapolation, IDIIS=  1040.
 Integral symmetry usage will be decided dynamically.
 Keep R1 and R2 ints in memory in canonical form, NReq=47059932.
 IVT=       60514 IEndB=       60514 NGot=   805306368 MDV=   759189273
 LenX=   759189273 LenY=   759175376
 Requested convergence on RMS density matrix=1.00D-08 within 128 cycles.
 Requested convergence on MAX density matrix=1.00D-06.
 Requested convergence on             energy=1.00D-06.
 No special actions if energy rises.
 FoFCou: FMM=F IPFlag=           0 FMFlag=           0 FMFlg1=           0
         NFxFlg=           0 DoJE=F BraDBF=F KetDBF=F FulRan=T
         wScrn=  0.000000 ICntrl=     600 IOpCl=  0 I1Cent=           0 NGrid=           0
         NMat0=    1 NMatS0=   6786 NMatT0=    0 NMatD0=    1 NMtDS0=    0 NMtDT0=    0
 Symmetry not used in FoFCou.
 Integral accuracy reduced to 1.0D-05 until final iterations.

 Cycle   1  Pass 0  IDiag  1:
 E= -236.155337247168    
 DIIS: error= 4.07D-02 at cycle   1 NSaved=   1.
 NSaved= 1 IEnMin= 1 EnMin= -236.155337247168     IErMin= 1 ErrMin= 4.07D-02
 ErrMax= 4.07D-02  0.00D+00 EMaxC= 1.00D-01 BMatC= 8.64D-01 BMatP= 8.64D-01
 IDIUse=3 WtCom= 5.93D-01 WtEn= 4.07D-01
 Coeff-Com:  0.100D+01
 Coeff-En:   0.100D+01
 Coeff:      0.100D+01
 Gap=     0.279 Goal=   None    Shift=    0.000
 Gap=     0.253 Goal=   None    Shift=    0.000
 GapD=    0.253 DampG=1.000 DampE=0.500 DampFc=0.5000 IDamp=-1.
 Damping current iteration by 5.00D-01
 RMSDP=9.37D-03 MaxDP=1.37D-01              OVMax= 1.75D-01

 Cycle   2  Pass 0  IDiag  1:
 E= -236.265895088612     Delta-E=       -0.110557841444 Rises=F Damp=T
 DIIS: error= 7.84D-03 at cycle   2 NSaved=   2.
 NSaved= 2 IEnMin= 2 EnMin= -236.265895088612     IErMin= 2 ErrMin= 7.84D-03
 ErrMax= 7.84D-03  0.00D+00 EMaxC= 1.00D-01 BMatC= 3.73D-02 BMatP= 8.64D-01
 IDIUse=3 WtCom= 9.22D-01 WtEn= 7.84D-02
 Coeff-Com:  0.662D-01 0.934D+00
 Coeff-En:   0.106D+00 0.894D+00
 Coeff:      0.693D-01 0.931D+00
 Gap=     0.323 Goal=   None    Shift=    0.000
 Gap=     0.258 Goal=   None    Shift=    0.000
 RMSDP=1.47D-03 MaxDP=2.20D-02 DE=-1.11D-01 OVMax= 9.75D-02

 Cycle   3  Pass 0  IDiag  1:
 E= -236.399940812161     Delta-E=       -0.134045723549 Rises=F Damp=F
 DIIS: error= 2.15D-03 at cycle   3 NSaved=   3.
 NSaved= 3 IEnMin= 3 EnMin= -236.399940812161     IErMin= 3 ErrMin= 2.15D-03
 ErrMax= 2.15D-03  0.00D+00 EMaxC= 1.00D-01 BMatC= 4.12D-03 BMatP= 3.73D-02
 IDIUse=3 WtCom= 9.79D-01 WtEn= 2.15D-02
 Coeff-Com: -0.644D-02 0.183D+00 0.823D+00
 Coeff-En:   0.000D+00 0.000D+00 0.100D+01
 Coeff:     -0.630D-02 0.179D+00 0.827D+00
 Gap=     0.318 Goal=   None    Shift=    0.000
 Gap=     0.241 Goal=   None    Shift=    0.000
 RMSDP=4.82D-04 MaxDP=1.09D-02 DE=-1.34D-01 OVMax= 1.16D-02

 Cycle   4  Pass 0  IDiag  1:
 E= -236.400570242147     Delta-E=       -0.000629429986 Rises=F Damp=F
 DIIS: error= 1.54D-03 at cycle   4 NSaved=   4.
 NSaved= 4 IEnMin= 4 EnMin= -236.400570242147     IErMin= 4 ErrMin= 1.54D-03
 ErrMax= 1.54D-03  0.00D+00 EMaxC= 1.00D-01 BMatC= 1.82D-03 BMatP= 4.12D-03
 IDIUse=3 WtCom= 9.85D-01 WtEn= 1.54D-02
 Coeff-Com: -0.584D-02 0.357D-01 0.412D+00 0.558D+00
 Coeff-En:   0.000D+00 0.000D+00 0.265D+00 0.735D+00
 Coeff:     -0.575D-02 0.352D-01 0.410D+00 0.561D+00
 Gap=     0.315 Goal=   None    Shift=    0.000
 Gap=     0.246 Goal=   None    Shift=    0.000
 RMSDP=1.97D-04 MaxDP=4.72D-03 DE=-6.29D-04 OVMax= 6.63D-03

 Cycle   5  Pass 0  IDiag  1:
 E= -236.401007484718     Delta-E=       -0.000437242570 Rises=F Damp=F
 DIIS: error= 3.42D-04 at cycle   5 NSaved=   5.
 NSaved= 5 IEnMin= 5 EnMin= -236.401007484718     IErMin= 5 ErrMin= 3.42D-04
 ErrMax= 3.42D-04  0.00D+00 EMaxC= 1.00D-01 BMatC= 8.84D-05 BMatP= 1.82D-03
 IDIUse=3 WtCom= 9.97D-01 WtEn= 3.42D-03
 Coeff-Com: -0.141D-02-0.287D-02 0.902D-01 0.228D+00 0.686D+00
 Coeff-En:   0.000D+00 0.000D+00 0.000D+00 0.000D+00 0.100D+01
 Coeff:     -0.140D-02-0.286D-02 0.899D-01 0.227D+00 0.687D+00
 Gap=     0.316 Goal=   None    Shift=    0.000
 Gap=     0.246 Goal=   None    Shift=    0.000
 RMSDP=4.69D-05 MaxDP=9.86D-04 DE=-4.37D-04 OVMax= 1.01D-03

 Cycle   6  Pass 0  IDiag  1:
 E= -236.401030237609     Delta-E=       -0.000022752892 Rises=F Damp=F
 DIIS: error= 6.37D-05 at cycle   6 NSaved=   6.
 NSaved= 6 IEnMin= 6 EnMin= -236.401030237609     IErMin= 6 ErrMin= 6.37D-05
 ErrMax= 6.37D-05  0.00D+00 EMaxC= 1.00D-01 BMatC= 2.73D-06 BMatP= 8.84D-05
 IDIUse=1 WtCom= 1.00D+00 WtEn= 0.00D+00
 Coeff-Com:  0.710D-04-0.232D-02-0.110D-01 0.686D-03 0.913D-01 0.921D+00
 Coeff:      0.710D-04-0.232D-02-0.110D-01 0.686D-03 0.913D-01 0.921D+00
 Gap=     0.316 Goal=   None    Shift=    0.000
 Gap=     0.246 Goal=   None    Shift=    0.000
 RMSDP=1.40D-05 MaxDP=4.90D-04 DE=-2.28D-05 OVMax= 4.54D-04

 Cycle   7  Pass 0  IDiag  1:
 E= -236.401031375884     Delta-E=       -0.000001138275 Rises=F Damp=F
 DIIS: error= 3.47D-05 at cycle   7 NSaved=   7.
 NSaved= 7 IEnMin= 7 EnMin= -236.401031375884     IErMin= 7 ErrMin= 3.47D-05
 ErrMax= 3.47D-05  0.00D+00 EMaxC= 1.00D-01 BMatC= 1.09D-06 BMatP= 2.73D-06
 IDIUse=1 WtCom= 1.00D+00 WtEn= 0.00D+00
 Coeff-Com:  0.237D-03-0.450D-03-0.199D-01-0.380D-01-0.803D-01 0.403D+00
 Coeff-Com:  0.736D+00
 Coeff:      0.237D-03-0.450D-03-0.199D-01-0.380D-01-0.803D-01 0.403D+00
 Coeff:      0.736D+00
 Gap=     0.316 Goal=   None    Shift=    0.000
 Gap=     0.246 Goal=   None    Shift=    0.000
 RMSDP=6.35D-06 MaxDP=1.83D-04 DE=-1.14D-06 OVMax= 1.89D-04

 Initial convergence to 1.0D-05 achieved.  Increase integral accuracy.
 Cycle   8  Pass 1  IDiag  1:
 E= -236.401022890428     Delta-E=        0.000008485456 Rises=F Damp=F
 DIIS: error= 1.01D-05 at cycle   1 NSaved=   1.
 NSaved= 1 IEnMin= 1 EnMin= -236.401022890428     IErMin= 1 ErrMin= 1.01D-05
 ErrMax= 1.01D-05  0.00D+00 EMaxC= 1.00D-01 BMatC= 1.05D-07 BMatP= 1.05D-07
 IDIUse=1 WtCom= 1.00D+00 WtEn= 0.00D+00
 Coeff-Com:  0.100D+01
 Coeff:      0.100D+01
 Gap=     0.316 Goal=   None    Shift=    0.000
 Gap=     0.246 Goal=   None    Shift=    0.000
 RMSDP=6.35D-06 MaxDP=1.83D-04 DE= 8.49D-06 OVMax= 6.70D-05

 Cycle   9  Pass 1  IDiag  1:
 E= -236.401022897831     Delta-E=       -0.000000007403 Rises=F Damp=F
 DIIS: error= 1.10D-05 at cycle   2 NSaved=   2.
 NSaved= 2 IEnMin= 2 EnMin= -236.401022897831     IErMin= 1 ErrMin= 1.01D-05
 ErrMax= 1.10D-05  0.00D+00 EMaxC= 1.00D-01 BMatC= 1.16D-07 BMatP= 1.05D-07
 IDIUse=1 WtCom= 1.00D+00 WtEn= 0.00D+00
 Coeff-Com:  0.514D+00 0.486D+00
 Coeff:      0.514D+00 0.486D+00
 Gap=     0.316 Goal=   None    Shift=    0.000
 Gap=     0.246 Goal=   None    Shift=    0.000
 RMSDP=1.54D-06 MaxDP=2.94D-05 DE=-7.40D-09 OVMax= 3.40D-05

 Cycle  10  Pass 1  IDiag  1:
 E= -236.401022927325     Delta-E=       -0.000000029493 Rises=F Damp=F
 DIIS: error= 1.78D-06 at cycle   3 NSaved=   3.
 NSaved= 3 IEnMin= 3 EnMin= -236.401022927325     IErMin= 3 ErrMin= 1.78D-06
 ErrMax= 1.78D-06  0.00D+00 EMaxC= 1.00D-01 BMatC= 3.14D-09 BMatP= 1.05D-07
 IDIUse=1 WtCom= 1.00D+00 WtEn= 0.00D+00
 Coeff-Com: -0.341D-01 0.609D-01 0.973D+00
 Coeff:     -0.341D-01 0.609D-01 0.973D+00
 Gap=     0.316 Goal=   None    Shift=    0.000
 Gap=     0.246 Goal=   None    Shift=    0.000
 RMSDP=4.63D-07 MaxDP=1.03D-05 DE=-2.95D-08 OVMax= 1.20D-05

 Cycle  11  Pass 1  IDiag  1:
 E= -236.401022928712     Delta-E=       -0.000000001388 Rises=F Damp=F
 DIIS: error= 1.06D-06 at cycle   4 NSaved=   4.
 NSaved= 4 IEnMin= 4 EnMin= -236.401022928712     IErMin= 4 ErrMin= 1.06D-06
 ErrMax= 1.06D-06  0.00D+00 EMaxC= 1.00D-01 BMatC= 8.67D-10 BMatP= 3.14D-09
 IDIUse=1 WtCom= 1.00D+00 WtEn= 0.00D+00
 Coeff-Com: -0.121D+00-0.811D-01 0.364D+00 0.839D+00
 Coeff:     -0.121D+00-0.811D-01 0.364D+00 0.839D+00
 Gap=     0.316 Goal=   None    Shift=    0.000
 Gap=     0.246 Goal=   None    Shift=    0.000
 RMSDP=2.43D-07 MaxDP=7.85D-06 DE=-1.39D-09 OVMax= 7.24D-06

 Cycle  12  Pass 1  IDiag  1:
 E= -236.401022929050     Delta-E=       -0.000000000338 Rises=F Damp=F
 DIIS: error= 3.94D-07 at cycle   5 NSaved=   5.
 NSaved= 5 IEnMin= 5 EnMin= -236.401022929050     IErMin= 5 ErrMin= 3.94D-07
 ErrMax= 3.94D-07  0.00D+00 EMaxC= 1.00D-01 BMatC= 1.18D-10 BMatP= 8.67D-10
 IDIUse=1 WtCom= 1.00D+00 WtEn= 0.00D+00
 Coeff-Com: -0.545D-01-0.438D-01 0.859D-01 0.384D+00 0.628D+00
 Coeff:     -0.545D-01-0.438D-01 0.859D-01 0.384D+00 0.628D+00
 Gap=     0.316 Goal=   None    Shift=    0.000
 Gap=     0.246 Goal=   None    Shift=    0.000
 RMSDP=5.72D-08 MaxDP=2.09D-06 DE=-3.38D-10 OVMax= 1.99D-06

 Cycle  13  Pass 1  IDiag  1:
 E= -236.401022929086     Delta-E=       -0.000000000036 Rises=F Damp=F
 DIIS: error= 9.15D-08 at cycle   6 NSaved=   6.
 NSaved= 6 IEnMin= 6 EnMin= -236.401022929086     IErMin= 6 ErrMin= 9.15D-08
 ErrMax= 9.15D-08  0.00D+00 EMaxC= 1.00D-01 BMatC= 4.76D-12 BMatP= 1.18D-10
 IDIUse=1 WtCom= 1.00D+00 WtEn= 0.00D+00
 Coeff-Com: -0.289D-03-0.217D-02-0.178D-01 0.462D-02 0.166D+00 0.850D+00
 Coeff:     -0.289D-03-0.217D-02-0.178D-01 0.462D-02 0.166D+00 0.850D+00
 Gap=     0.316 Goal=   None    Shift=    0.000
 Gap=     0.246 Goal=   None    Shift=    0.000
 RMSDP=1.39D-08 MaxDP=4.80D-07 DE=-3.63D-11 OVMax= 4.65D-07

 Cycle  14  Pass 1  IDiag  1:
 E= -236.401022929086     Delta-E=        0.000000000000 Rises=F Damp=F
 DIIS: error= 3.17D-08 at cycle   7 NSaved=   7.
 NSaved= 7 IEnMin= 7 EnMin= -236.401022929086     IErMin= 7 ErrMin= 3.17D-08
 ErrMax= 3.17D-08  0.00D+00 EMaxC= 1.00D-01 BMatC= 4.80D-13 BMatP= 4.76D-12
 IDIUse=1 WtCom= 1.00D+00 WtEn= 0.00D+00
 Coeff-Com:  0.245D-02 0.127D-02-0.105D-01-0.168D-01 0.312D-01 0.317D+00
 Coeff-Com:  0.676D+00
 Coeff:      0.245D-02 0.127D-02-0.105D-01-0.168D-01 0.312D-01 0.317D+00
 Coeff:      0.676D+00
 Gap=     0.316 Goal=   None    Shift=    0.000
 Gap=     0.246 Goal=   None    Shift=    0.000
 RMSDP=4.73D-09 MaxDP=9.48D-08 DE=-1.71D-13 OVMax= 1.07D-07

 SCF Done:  E(UB3LYP) =  -236.401022929     A.U. after   14 cycles
            NFock= 14  Conv=0.47D-08     -V/T= 2.0104
 <Sx>= 0.0000 <Sy>= 0.0000 <Sz>= 0.5000 <S**2>= 0.7527 S= 0.5014
 <L.S>= 0.000000000000E+00
 KE= 2.339604628818D+02 PE=-1.034996821218D+03 EE= 3.199018236491D+02
 Annihilation of the first spin contaminant:
 S**2 before annihilation     0.7527,   after     0.7500
 Leave Link  502 at Sat Nov  7 02:05:04 2015, MaxMem=   805306368 cpu:       157.4
 (Enter /home/hetanjin/apps/g09D01/g09/l601.exe)
 Copying SCF densities to generalized density rwf, IOpCl= 1 IROHF=0.

 **********************************************************************

            Population analysis using the SCF density.

 **********************************************************************

 Orbital symmetries:
 Alpha Orbitals:
       Occupied  (A) (A) (A) (A) (A) (A) (A) (A) (A) (A) (A) (A)
                 (A) (A) (A) (A) (A) (A) (A) (A) (A) (A) (A) (A)
                 (A)
       Virtual   (A) (A) (A) (A) (A) (A) (A) (A) (A) (A) (A) (A)
                 (A) (A) (A) (A) (A) (A) (A) (A) (A) (A) (A) (A)
                 (A) (A) (A) (A) (A) (A) (A) (A) (A) (A) (A) (A)
                 (A) (A) (A) (A) (A) (A) (A) (A) (A) (A) (A) (A)
                 (A) (A) (A) (A) (A) (A) (A) (A) (A) (A) (A) (A)
                 (A) (A) (A) (A) (A) (A) (A) (A) (A) (A) (A) (A)
                 (A) (A) (A) (A) (A) (A) (A) (A) (A) (A) (A) (A)
                 (A) (A) (A) (A) (A) (A) (A)
 Beta  Orbitals:
       Occupied  (A) (A) (A) (A) (A) (A) (A) (A) (A) (A) (A) (A)
                 (A) (A) (A) (A) (A) (A) (A) (A) (A) (A) (A) (A)
       Virtual   (A) (A) (A) (A) (A) (A) (A) (A) (A) (A) (A) (A)
                 (A) (A) (A) (A) (A) (A) (A) (A) (A) (A) (A) (A)
                 (A) (A) (A) (A) (A) (A) (A) (A) (A) (A) (A) (A)
                 (A) (A) (A) (A) (A) (A) (A) (A) (A) (A) (A) (A)
                 (A) (A) (A) (A) (A) (A) (A) (A) (A) (A) (A) (A)
                 (A) (A) (A) (A) (A) (A) (A) (A) (A) (A) (A) (A)
                 (A) (A) (A) (A) (A) (A) (A) (A) (A) (A) (A) (A)
                 (A) (A) (A) (A) (A) (A) (A) (A)
 The electronic state is 2-A.
 Alpha  occ. eigenvalues --  -10.19313 -10.18751 -10.18402 -10.17628 -10.17432
 Alpha  occ. eigenvalues --  -10.16828  -0.81165  -0.74667  -0.70194  -0.64461
 Alpha  occ. eigenvalues --   -0.59651  -0.55149  -0.46283  -0.44342  -0.42900
 Alpha  occ. eigenvalues --   -0.41424  -0.39305  -0.38638  -0.36381  -0.35050
 Alpha  occ. eigenvalues --   -0.33507  -0.32829  -0.31873  -0.30987  -0.22724
 Alpha virt. eigenvalues --    0.08889   0.11862   0.11939   0.13037   0.15217
 Alpha virt. eigenvalues --    0.15827   0.16865   0.17372   0.17828   0.18309
 Alpha virt. eigenvalues --    0.19669   0.20516   0.22423   0.23638   0.25165
 Alpha virt. eigenvalues --    0.25395   0.27958   0.29060   0.49038   0.51191
 Alpha virt. eigenvalues --    0.51381   0.52785   0.53210   0.57240   0.58925
 Alpha virt. eigenvalues --    0.61944   0.63356   0.64513   0.65324   0.69227
 Alpha virt. eigenvalues --    0.69684   0.77949   0.79362   0.80637   0.85098
 Alpha virt. eigenvalues --    0.87151   0.88448   0.89996   0.90216   0.91220
 Alpha virt. eigenvalues --    0.91645   0.93070   0.94515   0.95674   0.96237
 Alpha virt. eigenvalues --    0.97307   0.99197   1.00514   1.00854   1.07433
 Alpha virt. eigenvalues --    1.21742   1.33782   1.39968   1.42597   1.47928
 Alpha virt. eigenvalues --    1.54998   1.57359   1.67145   1.72873   1.73902
 Alpha virt. eigenvalues --    1.83025   1.85208   1.89801   1.94464   1.94838
 Alpha virt. eigenvalues --    1.97016   1.98315   1.99454   2.01319   2.02084
 Alpha virt. eigenvalues --    2.11126   2.17362   2.20813   2.27292   2.30417
 Alpha virt. eigenvalues --    2.31140   2.34196   2.35125   2.42503   2.49305
 Alpha virt. eigenvalues --    2.52048   2.59013   2.67996   2.76672   2.79094
 Alpha virt. eigenvalues --    4.09141   4.20344   4.21665   4.39323   4.41823
 Alpha virt. eigenvalues --    4.58969
  Beta  occ. eigenvalues --  -10.18780 -10.18280 -10.17873 -10.17613 -10.17431
  Beta  occ. eigenvalues --  -10.16821  -0.80669  -0.74593  -0.69104  -0.62986
  Beta  occ. eigenvalues --   -0.59548  -0.54614  -0.45924  -0.43802  -0.42852
  Beta  occ. eigenvalues --   -0.40980  -0.39251  -0.38241  -0.35947  -0.34942
  Beta  occ. eigenvalues --   -0.33345  -0.32109  -0.31546  -0.30747
  Beta virt. eigenvalues --   -0.06158   0.09103   0.12062   0.12175   0.13311
  Beta virt. eigenvalues --    0.15373   0.16152   0.17188   0.17458   0.17963
  Beta virt. eigenvalues --    0.18694   0.19723   0.20760   0.22546   0.24040
  Beta virt. eigenvalues --    0.25655   0.26250   0.28118   0.29561   0.49109
  Beta virt. eigenvalues --    0.51517   0.52447   0.53037   0.54901   0.58162
  Beta virt. eigenvalues --    0.59321   0.62639   0.63944   0.65935   0.66854
  Beta virt. eigenvalues --    0.69572   0.70082   0.78426   0.79734   0.80822
  Beta virt. eigenvalues --    0.85372   0.87365   0.88668   0.90168   0.90396
  Beta virt. eigenvalues --    0.91571   0.92138   0.93367   0.94799   0.96033
  Beta virt. eigenvalues --    0.96824   0.97669   0.99535   1.00902   1.01305
  Beta virt. eigenvalues --    1.07684   1.22930   1.34042   1.40398   1.43510
  Beta virt. eigenvalues --    1.48634   1.55355   1.57561   1.67574   1.74159
  Beta virt. eigenvalues --    1.75703   1.83272   1.86978   1.89997   1.95313
  Beta virt. eigenvalues --    1.95924   1.98470   1.99958   2.00430   2.02166
  Beta virt. eigenvalues --    2.02769   2.12935   2.18816   2.21919   2.27694
  Beta virt. eigenvalues --    2.30938   2.31577   2.34320   2.35801   2.42784
  Beta virt. eigenvalues --    2.50275   2.52433   2.59267   2.68712   2.77245
  Beta virt. eigenvalues --    2.79265   4.10333   4.20813   4.23252   4.39811
  Beta virt. eigenvalues --    4.41935   4.59120
          Condensed to atoms (all electrons):
               1          2          3          4          5          6
     1  C    5.079642   0.377061   0.375425   0.370823   0.367060  -0.039618
     2  H    0.377061   0.576927  -0.032863  -0.030983  -0.036089   0.005308
     3  H    0.375425  -0.032863   0.574025  -0.030621  -0.032886  -0.004597
     4  H    0.370823  -0.030983  -0.030621   0.575962  -0.027146  -0.002188
     5  C    0.367060  -0.036089  -0.032886  -0.027146   5.015125   0.367777
     6  H   -0.039618   0.005308  -0.004597  -0.002188   0.367777   0.613165
     7  H   -0.039350  -0.003784   0.005175  -0.003544   0.368915  -0.037767
     8  C   -0.038787  -0.004603  -0.004951   0.003904   0.377742  -0.038028
     9  H   -0.005071   0.005693  -0.000158  -0.000007  -0.046951   0.006593
    10  C    0.004055   0.000061   0.000034  -0.000117  -0.041910  -0.004363
    11  H    0.000075   0.000000   0.000000  -0.000008  -0.005028  -0.000338
    12  H   -0.000030   0.000007   0.000003   0.000004  -0.004463   0.004790
    13  C   -0.000133  -0.000001   0.000001   0.000001   0.003978  -0.000032
    14  H    0.000001   0.000000  -0.000001   0.000000   0.000090   0.000003
    15  H    0.000001   0.000000   0.000000   0.000000  -0.000112   0.000004
    16  H   -0.000001  -0.000001   0.000000   0.000000   0.000052   0.000007
    17  C   -0.005720  -0.000494   0.003531   0.000221  -0.049786  -0.007430
    18  H    0.002085   0.000378   0.002805  -0.000064  -0.002701  -0.000143
    19  H   -0.000345   0.000073   0.000255  -0.000018  -0.003047   0.005813
               7          8          9         10         11         12
     1  C   -0.039350  -0.038787  -0.005071   0.004055   0.000075  -0.000030
     2  H   -0.003784  -0.004603   0.005693   0.000061   0.000000   0.000007
     3  H    0.005175  -0.004951  -0.000158   0.000034   0.000000   0.000003
     4  H   -0.003544   0.003904  -0.000007  -0.000117  -0.000008   0.000004
     5  C    0.368915   0.377742  -0.046951  -0.041910  -0.005028  -0.004463
     6  H   -0.037767  -0.038028   0.006593  -0.004363  -0.000338   0.004790
     7  H    0.606762  -0.036150  -0.003499  -0.005304   0.006898  -0.000311
     8  C   -0.036150   4.896903   0.370106   0.386895  -0.038648  -0.038400
     9  H   -0.003499   0.370106   0.642452  -0.047733  -0.003451   0.006491
    10  C   -0.005304   0.386895  -0.047733   4.990639   0.370970   0.369200
    11  H    0.006898  -0.038648  -0.003451   0.370970   0.619223  -0.038899
    12  H   -0.000311  -0.038400   0.006491   0.369200  -0.038899   0.618221
    13  C    0.000071  -0.039270  -0.004650   0.370689  -0.039669  -0.038919
    14  H   -0.000002  -0.005303  -0.000215  -0.032162   0.005077  -0.004595
    15  H   -0.000011   0.004050  -0.000027  -0.027848  -0.003673  -0.002336
    16  H    0.000003  -0.005020   0.005618  -0.035816  -0.003737   0.005312
    17  C    0.005801   0.381270  -0.048651  -0.049334   0.005465  -0.007843
    18  H   -0.000105  -0.037864  -0.004445   0.005013  -0.000203  -0.000027
    19  H   -0.000105  -0.044816   0.006131  -0.006822  -0.000039   0.005690
              13         14         15         16         17         18
     1  C   -0.000133   0.000001   0.000001  -0.000001  -0.005720   0.002085
     2  H   -0.000001   0.000000   0.000000  -0.000001  -0.000494   0.000378
     3  H    0.000001  -0.000001   0.000000   0.000000   0.003531   0.002805
     4  H    0.000001   0.000000   0.000000   0.000000   0.000221  -0.000064
     5  C    0.003978   0.000090  -0.000112   0.000052  -0.049786  -0.002701
     6  H   -0.000032   0.000003   0.000004   0.000007  -0.007430  -0.000143
     7  H    0.000071  -0.000002  -0.000011   0.000003   0.005801  -0.000105
     8  C   -0.039270  -0.005303   0.004050  -0.005020   0.381270  -0.037864
     9  H   -0.004650  -0.000215  -0.000027   0.005618  -0.048651  -0.004445
    10  C    0.370689  -0.032162  -0.027848  -0.035816  -0.049334   0.005013
    11  H   -0.039669   0.005077  -0.003673  -0.003737   0.005465  -0.000203
    12  H   -0.038919  -0.004595  -0.002336   0.005312  -0.007843  -0.000027
    13  C    5.069689   0.377470   0.370594   0.376791  -0.001865   0.000049
    14  H    0.377470   0.563656  -0.031438  -0.031354   0.007466  -0.000157
    15  H    0.370594  -0.031438   0.582825  -0.031681   0.000081   0.000002
    16  H    0.376791  -0.031354  -0.031681   0.580144  -0.000279  -0.000022
    17  C   -0.001865   0.007466   0.000081  -0.000279   5.347470   0.354946
    18  H    0.000049  -0.000157   0.000002  -0.000022   0.354946   0.592039
    19  H   -0.000295   0.000092  -0.000022   0.000071   0.353871  -0.045986
              19
     1  C   -0.000345
     2  H    0.000073
     3  H    0.000255
     4  H   -0.000018
     5  C   -0.003047
     6  H    0.005813
     7  H   -0.000105
     8  C   -0.044816
     9  H    0.006131
    10  C   -0.006822
    11  H   -0.000039
    12  H    0.005690
    13  C   -0.000295
    14  H    0.000092
    15  H   -0.000022
    16  H    0.000071
    17  C    0.353871
    18  H   -0.045986
    19  H    0.601708
          Atomic-Atomic Spin Densities.
               1          2          3          4          5          6
     1  C    0.005937  -0.000549  -0.003675   0.000617  -0.000464   0.000092
     2  H   -0.000549   0.000462   0.000502   0.000020  -0.000739   0.000003
     3  H   -0.003675   0.000502   0.002033  -0.000205  -0.001849   0.000223
     4  H    0.000617   0.000020  -0.000205  -0.001117   0.000249   0.000006
     5  C   -0.000464  -0.000739  -0.001849   0.000249   0.091243  -0.002652
     6  H    0.000092   0.000003   0.000223   0.000006  -0.002652  -0.002324
     7  H    0.000588   0.000329   0.000414  -0.000020  -0.014778   0.001191
     8  C    0.000705  -0.000012  -0.000495  -0.000106   0.015474   0.000332
     9  H    0.000155   0.000131   0.000149   0.000005  -0.006353   0.000062
    10  C    0.000059   0.000011   0.000028   0.000000  -0.005994   0.000167
    11  H   -0.000006  -0.000001  -0.000001   0.000001   0.000430   0.000000
    12  H    0.000003   0.000000   0.000001   0.000000  -0.000357  -0.000003
    13  C   -0.000004  -0.000001  -0.000001   0.000000   0.000489  -0.000013
    14  H    0.000000   0.000000   0.000000   0.000000   0.000066  -0.000002
    15  H    0.000000   0.000000   0.000000   0.000000   0.000016  -0.000001
    16  H    0.000000   0.000000   0.000000   0.000000   0.000022   0.000000
    17  C   -0.002511   0.000278   0.003566   0.000018  -0.028138   0.001435
    18  H   -0.000405   0.000054   0.001264  -0.000007  -0.002027   0.000088
    19  H   -0.000118   0.000007   0.000212   0.000002  -0.002175   0.000130
               7          8          9         10         11         12
     1  C    0.000588   0.000705   0.000155   0.000059  -0.000006   0.000003
     2  H    0.000329  -0.000012   0.000131   0.000011  -0.000001   0.000000
     3  H    0.000414  -0.000495   0.000149   0.000028  -0.000001   0.000001
     4  H   -0.000020  -0.000106   0.000005   0.000000   0.000001   0.000000
     5  C   -0.014778   0.015474  -0.006353  -0.005994   0.000430  -0.000357
     6  H    0.001191   0.000332   0.000062   0.000167   0.000000  -0.000003
     7  H    0.022328  -0.002028   0.001144   0.001230  -0.000437   0.000090
     8  C   -0.002028  -0.041735   0.003910   0.004837   0.000426   0.000509
     9  H    0.001144   0.003910   0.007760   0.002266  -0.000011   0.000006
    10  C    0.001230   0.004837   0.002266   0.010927   0.000259   0.000096
    11  H   -0.000437   0.000426  -0.000011   0.000259  -0.002828   0.000239
    12  H    0.000090   0.000509   0.000006   0.000096   0.000239  -0.000904
    13  C   -0.000113  -0.000081  -0.000457  -0.002219   0.000446  -0.000055
    14  H   -0.000006  -0.000557  -0.000091  -0.000118  -0.000045   0.000019
    15  H   -0.000004  -0.000074  -0.000023  -0.000074   0.000018  -0.000036
    16  H   -0.000005  -0.000053  -0.000089  -0.000253   0.000041  -0.000016
    17  C    0.002236  -0.030108  -0.003666  -0.006687   0.000109  -0.000151
    18  H    0.000114   0.000888   0.000964   0.000112   0.000005   0.000014
    19  H    0.000126   0.001445   0.000109   0.001097  -0.000027   0.000004
              13         14         15         16         17         18
     1  C   -0.000004   0.000000   0.000000   0.000000  -0.002511  -0.000405
     2  H   -0.000001   0.000000   0.000000   0.000000   0.000278   0.000054
     3  H   -0.000001   0.000000   0.000000   0.000000   0.003566   0.001264
     4  H    0.000000   0.000000   0.000000   0.000000   0.000018  -0.000007
     5  C    0.000489   0.000066   0.000016   0.000022  -0.028138  -0.002027
     6  H   -0.000013  -0.000002  -0.000001   0.000000   0.001435   0.000088
     7  H   -0.000113  -0.000006  -0.000004  -0.000005   0.002236   0.000114
     8  C   -0.000081  -0.000557  -0.000074  -0.000053  -0.030108   0.000888
     9  H   -0.000457  -0.000091  -0.000023  -0.000089  -0.003666   0.000964
    10  C   -0.002219  -0.000118  -0.000074  -0.000253  -0.006687   0.000112
    11  H    0.000446  -0.000045   0.000018   0.000041   0.000109   0.000005
    12  H   -0.000055   0.000019  -0.000036  -0.000016  -0.000151   0.000014
    13  C    0.008952  -0.000343  -0.000601  -0.000197  -0.000458  -0.000024
    14  H   -0.000343  -0.002574   0.000117   0.000298   0.002847  -0.000023
    15  H   -0.000601   0.000117   0.000570   0.000081   0.000119  -0.000001
    16  H   -0.000197   0.000298   0.000081   0.000036   0.000220  -0.000003
    17  C   -0.000458   0.002847   0.000119   0.000220   1.121497  -0.010887
    18  H   -0.000024  -0.000023  -0.000001  -0.000003  -0.010887  -0.028007
    19  H    0.000017  -0.000170  -0.000006  -0.000005  -0.011757   0.005939
              19
     1  C   -0.000118
     2  H    0.000007
     3  H    0.000212
     4  H    0.000002
     5  C   -0.002175
     6  H    0.000130
     7  H    0.000126
     8  C    0.001445
     9  H    0.000109
    10  C    0.001097
    11  H   -0.000027
    12  H    0.000004
    13  C    0.000017
    14  H   -0.000170
    15  H   -0.000006
    16  H   -0.000005
    17  C   -0.011757
    18  H    0.005939
    19  H   -0.025006
 Mulliken charges and spin densities:
               1          2
     1  C   -0.447175   0.000422
     2  H    0.143311   0.000497
     3  H    0.144822   0.002166
     4  H    0.143782  -0.000537
     5  C   -0.250620   0.042463
     6  H    0.131045  -0.001267
     7  H    0.136307   0.012398
     8  C   -0.089029  -0.046723
     9  H    0.121775   0.005972
    10  C   -0.246149   0.005746
    11  H    0.125983  -0.001380
    12  H    0.126104  -0.000541
    13  C   -0.444501   0.005336
    14  H    0.151370  -0.000580
    15  H    0.139592   0.000102
    16  H    0.139912   0.000078
    17  C   -0.288719   1.037962
    18  H    0.134398  -0.031940
    19  H    0.127791  -0.030173
 Sum of Mulliken charges =   0.00000   1.00000
 Mulliken charges and spin densities with hydrogens summed into heavy atoms:
               1          2
     1  C   -0.015260   0.002548
     5  C    0.016732   0.053595
     8  C    0.032746  -0.040751
    10  C    0.005938   0.003824
    13  C   -0.013626   0.004936
    17  C   -0.026529   0.975849
 Electronic spatial extent (au):  <R**2>=            837.8124
 Charge=              0.0000 electrons
 Dipole moment (field-independent basis, Debye):
    X=              0.5128    Y=             -0.5131    Z=             -0.1528  Tot=              0.7413
 Quadrupole moment (field-independent basis, Debye-Ang):
   XX=            -41.1474   YY=            -41.8111   ZZ=            -40.3349
   XY=              0.7975   XZ=              0.0765   YZ=             -0.5174
 Traceless Quadrupole moment (field-independent basis, Debye-Ang):
   XX=             -0.0496   YY=             -0.7133   ZZ=              0.7629
   XY=              0.7975   XZ=              0.0765   YZ=             -0.5174
 Octapole moment (field-independent basis, Debye-Ang**2):
  XXX=              1.0465  YYY=             -4.7574  ZZZ=              0.1002  XYY=              2.4559
  XXY=             -1.3409  XXZ=             -1.2047  XZZ=              0.2325  YZZ=             -0.1252
  YYZ=             -0.3725  XYZ=              0.2214
 Hexadecapole moment (field-independent basis, Debye-Ang**3):
 XXXX=           -836.6969 YYYY=           -232.1596 ZZZZ=           -102.6130 XXXY=              0.3602
 XXXZ=              0.3137 YYYX=              4.5270 YYYZ=             -1.4101 ZZZX=             -0.0178
 ZZZY=             -1.5231 XXYY=           -172.7469 XXZZ=           -157.3011 YYZZ=            -56.6219
 XXYZ=              0.6943 YYXZ=              0.3127 ZZXY=              0.2052
 N-N= 2.447335117577D+02 E-N=-1.034996827152D+03  KE= 2.339604628818D+02
                          Isotropic Fermi Contact Couplings
        Atom                 a.u.       MegaHertz       Gauss      10(-4) cm-1
     1  C(13)              0.00095       1.06732       0.38085       0.35602
     2  H(1)               0.00008       0.37653       0.13436       0.12560
     3  H(1)              -0.00009      -0.38063      -0.13582      -0.12696
     4  H(1)              -0.00008      -0.35174      -0.12551      -0.11733
     5  C(13)              0.04924      55.35108      19.75064      18.46313
     6  H(1)              -0.00062      -2.77950      -0.99180      -0.92714
     7  H(1)               0.00401      17.94136       6.40192       5.98459
     8  C(13)             -0.01193     -13.40640      -4.78374      -4.47189
     9  H(1)               0.00367      16.40420       5.85343       5.47185
    10  C(13)              0.00540       6.06754       2.16505       2.02391
    11  H(1)              -0.00048      -2.15119      -0.76760      -0.71756
    12  H(1)              -0.00024      -1.09379      -0.39029      -0.36485
    13  C(13)              0.00038       0.43027       0.15353       0.14352
    14  H(1)               0.00071       3.19102       1.13864       1.06441
    15  H(1)               0.00001       0.02728       0.00973       0.00910
    16  H(1)               0.00003       0.11581       0.04132       0.03863
    17  C(13)              0.30473     342.57470     122.23917     114.27062
    18  H(1)              -0.00463     -20.69271      -7.38367      -6.90234
    19  H(1)              -0.00428     -19.11231      -6.81975      -6.37518
 --------------------------------------------------------
       Center         ----  Spin Dipole Couplings  ----
                      3XX-RR        3YY-RR        3ZZ-RR
 --------------------------------------------------------
     1   Atom        0.004053      0.000842     -0.004895
     2   Atom        0.001834     -0.000930     -0.000904
     3   Atom        0.009257     -0.003377     -0.005880
     4   Atom        0.002585     -0.000099     -0.002486
     5   Atom        0.019573      0.011321     -0.030894
     6   Atom       -0.004583      0.001578      0.003005
     7   Atom       -0.002972      0.008559     -0.005588
     8   Atom       -0.013489      0.036244     -0.022755
     9   Atom       -0.009706      0.006985      0.002721
    10   Atom       -0.001432      0.010344     -0.008912
    11   Atom       -0.001612      0.005394     -0.003783
    12   Atom       -0.002308      0.004057     -0.001748
    13   Atom        0.000950      0.007009     -0.007959
    14   Atom        0.011536     -0.003131     -0.008405
    15   Atom        0.002178      0.000349     -0.002527
    16   Atom        0.001346     -0.000050     -0.001296
    17   Atom        0.463538     -0.181603     -0.281935
    18   Atom        0.047645     -0.016251     -0.031394
    19   Atom       -0.024109     -0.046505      0.070614
 --------------------------------------------------------
                        XY            XZ            YZ
 --------------------------------------------------------
     1   Atom       -0.004366      0.001173     -0.002300
     2   Atom       -0.002951      0.003374     -0.001600
     3   Atom       -0.003371      0.001492     -0.000465
     4   Atom       -0.002458      0.000218     -0.000025
     5   Atom       -0.050961     -0.015764      0.014035
     6   Atom       -0.006057     -0.006008      0.005922
     7   Atom       -0.001815     -0.000991     -0.001512
     8   Atom       -0.020305     -0.002704      0.000550
     9   Atom       -0.002752      0.000662     -0.015128
    10   Atom        0.011842      0.004265      0.004864
    11   Atom        0.002818     -0.000037      0.000029
    12   Atom        0.004963      0.003328      0.006109
    13   Atom        0.005104     -0.000707     -0.002838
    14   Atom        0.006971     -0.000382     -0.000795
    15   Atom        0.003233      0.000249      0.000136
    16   Atom        0.004234     -0.003291     -0.002776
    17   Atom       -0.530016     -0.428162      0.242001
    18   Atom        0.029926      0.023213      0.035486
    19   Atom       -0.020498     -0.005116     -0.010042
 --------------------------------------------------------


 ---------------------------------------------------------------------------------
              Anisotropic Spin Dipole Couplings in Principal Axis System
 ---------------------------------------------------------------------------------

       Atom             a.u.   MegaHertz   Gauss  10(-4) cm-1        Axes

              Baa    -0.0057    -0.767    -0.274    -0.256  0.0485  0.3590  0.9321
     1 C(13)  Bbb    -0.0018    -0.242    -0.086    -0.081  0.6072  0.7303 -0.3129
              Bcc     0.0075     1.009     0.360     0.337  0.7931 -0.5811  0.1826
 
              Baa    -0.0033    -1.759    -0.628    -0.587 -0.6463 -0.3459  0.6802
     2 H(1)   Bbb    -0.0025    -1.322    -0.472    -0.441  0.1355  0.8252  0.5484
              Bcc     0.0058     3.081     1.099     1.028  0.7510 -0.4466  0.4864
 
              Baa    -0.0060    -3.220    -1.149    -1.074 -0.0815  0.0704  0.9942
     3 H(1)   Bbb    -0.0042    -2.249    -0.803    -0.750  0.2475  0.9677 -0.0482
              Bcc     0.0103     5.470     1.952     1.825  0.9655 -0.2421  0.0963
 
              Baa    -0.0025    -1.334    -0.476    -0.445 -0.0745 -0.0657  0.9951
     4 H(1)   Bbb    -0.0015    -0.826    -0.295    -0.276  0.5050  0.8579  0.0944
              Bcc     0.0040     2.161     0.771     0.721  0.8599 -0.5096  0.0307
 
              Baa    -0.0359    -4.816    -1.719    -1.607  0.6608  0.5672  0.4915
     5 C(13)  Bbb    -0.0351    -4.704    -1.679    -1.569 -0.2110 -0.4881  0.8469
              Bcc     0.0709     9.521     3.397     3.176  0.7203 -0.6634 -0.2029
 
              Baa    -0.0089    -4.734    -1.689    -1.579  0.8916  0.3640  0.2695
     6 H(1)   Bbb    -0.0036    -1.937    -0.691    -0.646 -0.0771  0.7082 -0.7017
              Bcc     0.0125     6.671     2.380     2.225 -0.4463  0.6049  0.6595
 
              Baa    -0.0062    -3.309    -1.181    -1.104  0.3607  0.1388  0.9223
     7 H(1)   Bbb    -0.0028    -1.473    -0.526    -0.491  0.9218  0.0977 -0.3752
              Bcc     0.0090     4.782     1.706     1.595 -0.1422  0.9855 -0.0927
 
              Baa    -0.0243    -3.265    -1.165    -1.089  0.5219  0.1674  0.8364
     8 C(13)  Bbb    -0.0192    -2.574    -0.918    -0.859  0.7838  0.2926 -0.5477
              Bcc     0.0435     5.839     2.083     1.948 -0.3364  0.9415  0.0215
 
              Baa    -0.0115    -6.134    -2.189    -2.046  0.6336  0.5444  0.5497
     9 H(1)   Bbb    -0.0088    -4.720    -1.684    -1.574  0.7692 -0.3666 -0.5235
              Bcc     0.0203    10.853     3.873     3.620 -0.0834  0.7545 -0.6510
 
              Baa    -0.0109    -1.459    -0.521    -0.487 -0.4788  0.0665  0.8754
    10 C(13)  Bbb    -0.0083    -1.108    -0.396    -0.370  0.7068 -0.5622  0.4294
              Bcc     0.0191     2.568     0.916     0.857  0.5207  0.8243  0.2222
 
              Baa    -0.0038    -2.019    -0.721    -0.674  0.0351 -0.0140  0.9993
    11 H(1)   Bbb    -0.0026    -1.389    -0.496    -0.463  0.9425 -0.3320 -0.0377
              Bcc     0.0064     3.408     1.216     1.137  0.3323  0.9432  0.0015
 
              Baa    -0.0056    -3.012    -1.075    -1.005 -0.2225 -0.4354  0.8723
    12 H(1)   Bbb    -0.0050    -2.679    -0.956    -0.894  0.8807 -0.4736 -0.0117
              Bcc     0.0107     5.692     2.031     1.899  0.4182  0.7656  0.4888
 
              Baa    -0.0085    -1.139    -0.406    -0.380 -0.0288  0.1892  0.9815
    13 C(13)  Bbb    -0.0019    -0.250    -0.089    -0.083  0.8765 -0.4672  0.1158
              Bcc     0.0103     1.389     0.496     0.463  0.4805  0.8637 -0.1524
 
              Baa    -0.0086    -4.566    -1.629    -1.523 -0.0559  0.2145  0.9751
    14 H(1)   Bbb    -0.0058    -3.084    -1.101    -1.029 -0.3685  0.9033 -0.2198
              Bcc     0.0143     7.651     2.730     2.552  0.9280  0.3716 -0.0286
 
              Baa    -0.0025    -1.356    -0.484    -0.452 -0.0871  0.0504  0.9949
    15 H(1)   Bbb    -0.0021    -1.117    -0.398    -0.372 -0.5976  0.7964 -0.0927
              Bcc     0.0046     2.473     0.882     0.825  0.7971  0.6026  0.0392
 
              Baa    -0.0036    -1.944    -0.694    -0.649 -0.6710  0.7384 -0.0675
    16 H(1)   Bbb    -0.0035    -1.864    -0.665    -0.622  0.2968  0.3510  0.8881
              Bcc     0.0071     3.808     1.359     1.270  0.6794  0.5759 -0.4547
 
              Baa    -0.4799   -64.403   -22.981   -21.483  0.3336  0.8757 -0.3490
    17 C(13)  Bbb    -0.4768   -63.978   -22.829   -21.341  0.4822  0.1596  0.8614
              Bcc     0.9567   128.381    45.810    42.823  0.8101 -0.4556 -0.3690
 
              Baa    -0.0601   -32.074   -11.445   -10.699  0.0089 -0.6326  0.7744
    18 H(1)   Bbb    -0.0117    -6.240    -2.227    -2.081 -0.5378  0.6499  0.5370
              Bcc     0.0718    38.314    13.671    12.780  0.8430  0.4213  0.3345
 
              Baa    -0.0596   -31.819   -11.354   -10.614  0.5072  0.8575  0.0860
    19 H(1)   Bbb    -0.0120    -6.379    -2.276    -2.128  0.8611 -0.5084 -0.0085
              Bcc     0.0716    38.198    13.630    12.741 -0.0365 -0.0784  0.9963
 

 ---------------------------------------------------------------------------------

 No NMR shielding tensors so no spin-rotation constants.
 Leave Link  601 at Sat Nov  7 02:05:04 2015, MaxMem=   805306368 cpu:         1.6
 (Enter /home/hetanjin/apps/g09D01/g09/l701.exe)
 Compute integral first derivatives.
 ... and contract with generalized density number  0.
 Leave Link  701 at Sat Nov  7 02:05:05 2015, MaxMem=   805306368 cpu:         0.9
 (Enter /home/hetanjin/apps/g09D01/g09/l702.exe)
 L702 exits ... SP integral derivatives will be done elsewhere.
 Leave Link  702 at Sat Nov  7 02:05:05 2015, MaxMem=   805306368 cpu:         0.0
 (Enter /home/hetanjin/apps/g09D01/g09/l703.exe)
 Compute integral first derivatives, UseDBF=F ICtDFT=           0.
 Integral derivatives from FoFJK, PRISM(SPDF).
 Calling FoFJK, ICntrl=      2127 FMM=F ISym2X=0 I1Cent= 0 IOpClX= 1 NMat=1 NMatS=1 NMatT=0.
 FoFJK:  IHMeth= 1 ICntrl=    2127 DoSepK=F KAlg= 0 I1Cent=   0 FoldK=F
 IRaf=         0 NMat=   1 IRICut=       1 DoRegI=T DoRafI=F ISym2E= 0.
 FoFCou: FMM=F IPFlag=           0 FMFlag=      100000 FMFlg1=         800
         NFxFlg=           0 DoJE=F BraDBF=F KetDBF=F FulRan=T
         wScrn=  0.000000 ICntrl=    2127 IOpCl=  1 I1Cent=           0 NGrid=           0
         NMat0=    1 NMatS0=      1 NMatT0=    0 NMatD0=    1 NMtDS0=    0 NMtDT0=    0
 Symmetry not used in FoFCou.
 Leave Link  703 at Sat Nov  7 02:05:13 2015, MaxMem=   805306368 cpu:        32.3
 (Enter /home/hetanjin/apps/g09D01/g09/l716.exe)
 Dipole        = 2.01739248D-01-2.01853392D-01-6.01338047D-02
 ***** Axes restored to original set *****
 -------------------------------------------------------------------
 Center     Atomic                   Forces (Hartrees/Bohr)
 Number     Number              X              Y              Z
 -------------------------------------------------------------------
      1        6          -0.000510083    0.000052096   -0.000301894
      2        1           0.000033622    0.000009385    0.000121098
      3        1           0.000027831   -0.000119148    0.000027003
      4        1           0.000195531   -0.000118230    0.000011908
      5        6          -0.005403859    0.001610689    0.003257659
      6        1           0.000006823   -0.000209772   -0.000325817
      7        1           0.001346125    0.000333482   -0.000563823
      8        6           0.016793578    0.012556613   -0.006244996
      9        1          -0.000697104   -0.000767742   -0.000085907
     10        6           0.000623506   -0.001177730    0.000408971
     11        1          -0.000069777   -0.000137590    0.000191380
     12        1          -0.000138036    0.000090953   -0.000014115
     13        6          -0.000242815    0.000474587   -0.000176212
     14        1          -0.001483097    0.000774736   -0.000125207
     15        1          -0.000086185   -0.000358306    0.000025638
     16        1          -0.000054942    0.000089826    0.000137845
     17        6          -0.033247904   -0.028682890    0.012788682
     18        1           0.009784578    0.008963804   -0.008021214
     19        1           0.013122208    0.006615236   -0.001111002
 -------------------------------------------------------------------
 Cartesian Forces:  Max     0.033247904 RMS     0.007350425
 Leave Link  716 at Sat Nov  7 02:05:13 2015, MaxMem=   805306368 cpu:         0.1
 (Enter /home/hetanjin/apps/g09D01/g09/l103.exe)

 GradGradGradGradGradGradGradGradGradGradGradGradGradGradGradGradGradGrad
 Berny optimization.
 FormGI is forming the generalized inverse of G from B-inverse, IUseBI=4.
 Internal  Forces:  Max     0.014687042 RMS     0.003403371
 Search for a local minimum.
 Step number   1 out of a maximum of  103
 All quantities printed in internal units (Hartrees-Bohrs-Radians)
 RMS Force = .34034D-02 SwitMx=.10000D-02 MixMth= 1
 Mixed Optimization -- RFO/linear search
 Second derivative matrix not updated -- first step.
 ITU=  0
     Eigenvalues ---    0.00230   0.00230   0.00279   0.00326   0.00326
     Eigenvalues ---    0.03219   0.03219   0.03581   0.03678   0.04711
     Eigenvalues ---    0.04711   0.04872   0.05357   0.05357   0.05469
     Eigenvalues ---    0.05496   0.05496   0.08726   0.08726   0.12495
     Eigenvalues ---    0.12495   0.16000   0.16000   0.16000   0.16000
     Eigenvalues ---    0.16000   0.16000   0.16000   0.16000   0.16723
     Eigenvalues ---    0.18330   0.21941   0.21941   0.28249   0.28249
     Eigenvalues ---    0.28802   0.29125   0.29125   0.33394   0.33637
     Eigenvalues ---    0.33637   0.33788   0.33788   0.33845   0.33973
     Eigenvalues ---    0.33973   0.34116   0.34116   0.34193   0.34193
     Eigenvalues ---    0.34238
 RFO step:  Lambda=-1.43500987D-02 EMin= 2.30000000D-03
 Linear search not attempted -- first point.
 Iteration  1 RMS(Cart)=  0.05805418 RMS(Int)=  0.00946150
 Iteration  2 RMS(Cart)=  0.00803589 RMS(Int)=  0.00587087
 Iteration  3 RMS(Cart)=  0.00012696 RMS(Int)=  0.00587010
 Iteration  4 RMS(Cart)=  0.00000268 RMS(Int)=  0.00587010
 Iteration  5 RMS(Cart)=  0.00000008 RMS(Int)=  0.00587010
 ITry= 1 IFail=0 DXMaxC= 2.89D-01 DCOld= 1.00D+10 DXMaxT= 3.00D-01 DXLimC= 3.00D+00 Rises=F
 Variable       Old X    -DE/DX   Delta X   Delta X   Delta X     New X
                                 (Linear)    (Quad)   (Total)
    R1        2.07376  -0.00012   0.00000  -0.00034  -0.00034   2.07342
    R2        2.07005  -0.00011   0.00000  -0.00031  -0.00031   2.06974
    R3        2.07134  -0.00008   0.00000  -0.00023  -0.00023   2.07112
    R4        2.89742   0.00022   0.00000   0.00070   0.00070   2.89813
    R5        2.07947  -0.00034   0.00000  -0.00096  -0.00096   2.07851
    R6        2.07690  -0.00008   0.00000  -0.00022  -0.00022   2.07668
    R7        2.91596   0.00350   0.00000   0.01180   0.01180   2.92776
    R8        2.08366   0.00012   0.00000   0.00035   0.00035   2.08400
    R9        2.91596  -0.00093   0.00000  -0.00313  -0.00313   2.91284
   R10        2.90418  -0.01167   0.00000  -0.03860  -0.03860   2.86558
   R11        2.07690   0.00010   0.00000   0.00028   0.00028   2.07718
   R12        2.07947  -0.00001   0.00000  -0.00004  -0.00004   2.07943
   R13        2.89742  -0.00123   0.00000  -0.00403  -0.00403   2.89339
   R14        2.07005   0.00041   0.00000   0.00115   0.00115   2.07120
   R15        2.07134   0.00014   0.00000   0.00040   0.00040   2.07175
   R16        2.07376  -0.00014   0.00000  -0.00040  -0.00040   2.07336
   R17        2.06931  -0.00076   0.00000  -0.00214  -0.00214   2.06717
   R18        2.07593  -0.00049   0.00000  -0.00138  -0.00138   2.07455
    A1        1.87842   0.00003   0.00000   0.00053   0.00053   1.87895
    A2        1.87726   0.00010   0.00000   0.00029   0.00029   1.87755
    A3        1.93932   0.00001   0.00000   0.00008   0.00008   1.93940
    A4        1.87288   0.00013   0.00000   0.00072   0.00072   1.87360
    A5        1.95782   0.00002   0.00000   0.00025   0.00025   1.95807
    A6        1.93461  -0.00028   0.00000  -0.00179  -0.00179   1.93282
    A7        1.90987  -0.00039   0.00000   0.00247   0.00243   1.91231
    A8        1.89569   0.00044   0.00000   0.00232   0.00233   1.89802
    A9        2.00987   0.00119   0.00000   0.00511   0.00510   2.01497
   A10        1.84904   0.00030   0.00000   0.00122   0.00122   1.85026
   A11        1.90093   0.00002   0.00000   0.00324   0.00321   1.90413
   A12        1.89164  -0.00163   0.00000  -0.01482  -0.01481   1.87684
   A13        1.87539  -0.00028   0.00000   0.00037   0.00036   1.87575
   A14        1.92053   0.00235   0.00000   0.00863   0.00854   1.92907
   A15        1.95271  -0.00219   0.00000  -0.01592  -0.01591   1.93680
   A16        1.87539  -0.00033   0.00000   0.00480   0.00479   1.88018
   A17        1.88339   0.00127   0.00000   0.00991   0.00992   1.89331
   A18        1.95271  -0.00075   0.00000  -0.00663  -0.00663   1.94608
   A19        1.89165   0.00149   0.00000   0.00990   0.00997   1.90161
   A20        1.90093   0.00096   0.00000  -0.00143  -0.00154   1.89939
   A21        2.00987  -0.00422   0.00000  -0.01933  -0.01936   1.99051
   A22        1.84904  -0.00066   0.00000   0.00163   0.00162   1.85066
   A23        1.89569   0.00154   0.00000   0.01068   0.01074   1.90643
   A24        1.90987   0.00114   0.00000   0.00030   0.00018   1.91005
   A25        1.95782  -0.00173   0.00000  -0.01074  -0.01076   1.94707
   A26        1.93461   0.00009   0.00000   0.00234   0.00234   1.93695
   A27        1.93932   0.00019   0.00000   0.00005   0.00003   1.93935
   A28        1.87288   0.00113   0.00000   0.00837   0.00838   1.88126
   A29        1.87842   0.00035   0.00000  -0.00133  -0.00137   1.87705
   A30        1.87726   0.00008   0.00000   0.00197   0.00197   1.87923
   A31        1.95027   0.01469   0.00000   0.15109   0.12239   2.07267
   A32        1.93183   0.01340   0.00000   0.14492   0.11601   2.04784
   A33        1.87919  -0.00091   0.00000   0.12181   0.08574   1.96493
    D1        3.12776   0.00007   0.00000   0.00067   0.00067   3.12844
    D2       -1.14441   0.00046   0.00000   0.00473   0.00473  -1.13969
    D3        0.98010  -0.00052   0.00000  -0.00927  -0.00928   0.97082
    D4        1.02422   0.00001   0.00000  -0.00024  -0.00024   1.02398
    D5        3.03522   0.00040   0.00000   0.00381   0.00382   3.03904
    D6       -1.12345  -0.00058   0.00000  -0.01018  -0.01019  -1.13364
    D7       -1.06899   0.00002   0.00000  -0.00009  -0.00009  -1.06908
    D8        0.94202   0.00041   0.00000   0.00396   0.00397   0.94599
    D9        3.06653  -0.00057   0.00000  -0.01003  -0.01004   3.05649
   D10       -0.95817   0.00029   0.00000   0.00861   0.00860  -0.94957
   D11       -2.99494  -0.00041   0.00000  -0.00195  -0.00195  -2.99690
   D12        1.10606   0.00041   0.00000   0.01181   0.01183   1.11789
   D13       -3.11059  -0.00007   0.00000  -0.00087  -0.00088  -3.11147
   D14        1.13582  -0.00077   0.00000  -0.01142  -0.01144   1.12438
   D15       -1.04636   0.00005   0.00000   0.00233   0.00235  -1.04401
   D16        1.16853   0.00044   0.00000   0.00386   0.00386   1.17238
   D17       -0.86824  -0.00027   0.00000  -0.00669  -0.00670  -0.87495
   D18       -3.05042   0.00055   0.00000   0.00707   0.00708  -3.04334
   D19        0.86823   0.00104   0.00000   0.01828   0.01832   0.88655
   D20       -1.13583   0.00053   0.00000   0.01184   0.01189  -1.12394
   D21        2.99493   0.00130   0.00000   0.02646   0.02646   3.02139
   D22       -1.16854   0.00031   0.00000   0.01049   0.01049  -1.15805
   D23        3.11058  -0.00021   0.00000   0.00406   0.00406   3.11464
   D24        0.95816   0.00056   0.00000   0.01868   0.01863   0.97679
   D25        3.05041  -0.00060   0.00000  -0.00080  -0.00080   3.04961
   D26        1.04635  -0.00111   0.00000  -0.00724  -0.00722   1.03912
   D27       -1.10608  -0.00034   0.00000   0.00738   0.00734  -1.09874
   D28       -1.01213  -0.00842   0.00000  -0.18479  -0.19111  -1.20325
   D29        1.08212   0.00930   0.00000   0.16837   0.17483   1.25695
   D30        1.04733  -0.00924   0.00000  -0.18735  -0.19376   0.85357
   D31        3.14159   0.00848   0.00000   0.16581   0.17218  -2.96942
   D32        3.10679  -0.00929   0.00000  -0.17911  -0.18555   2.92125
   D33       -1.08213   0.00843   0.00000   0.17405   0.18039  -0.90174
   D34        1.12344  -0.00085   0.00000  -0.02182  -0.02178   1.10166
   D35       -3.06654  -0.00052   0.00000  -0.01680  -0.01677  -3.08331
   D36       -0.98010  -0.00024   0.00000  -0.01275  -0.01273  -0.99283
   D37       -3.03523  -0.00063   0.00000  -0.01410  -0.01410  -3.04933
   D38       -0.94203  -0.00029   0.00000  -0.00907  -0.00909  -0.95112
   D39        1.14441  -0.00002   0.00000  -0.00502  -0.00505   1.13936
   D40       -1.02422   0.00004   0.00000  -0.00613  -0.00613  -1.03035
   D41        1.06898   0.00038   0.00000  -0.00111  -0.00112   1.06786
   D42       -3.12777   0.00066   0.00000   0.00294   0.00293  -3.12484
         Item               Value     Threshold  Converged?
 Maximum Force            0.014687     0.000015     NO 
 RMS     Force            0.003403     0.000010     NO 
 Maximum Displacement     0.289185     0.000060     NO 
 RMS     Displacement     0.056696     0.000040     NO 
 Predicted change in Energy=-1.036611D-02
 Lowest energy point so far.  Saving SCF results.
 GradGradGradGradGradGradGradGradGradGradGradGradGradGradGradGradGradGrad

 Leave Link  103 at Sat Nov  7 02:05:13 2015, MaxMem=   805306368 cpu:         0.1
 (Enter /home/hetanjin/apps/g09D01/g09/l202.exe)
                          Input orientation:                          
 ---------------------------------------------------------------------
 Center     Atomic      Atomic             Coordinates (Angstroms)
 Number     Number       Type             X           Y           Z
 ---------------------------------------------------------------------
      1          6           0       -2.604656   -0.190845   -0.291241
      2          1           0       -2.586075   -0.220639   -1.387886
      3          1           0       -2.820831    0.839905    0.009455
      4          1           0       -3.444032   -0.811524    0.042520
      5          6           0       -1.283846   -0.701148    0.297867
      6          1           0       -1.325122   -0.647689    1.395692
      7          1           0       -1.174718   -1.766214    0.050133
      8          6           0       -0.008812    0.026340   -0.197505
      9          1           0       -0.010406   -0.016080   -1.299495
     10          6           0        1.256054   -0.701788    0.298354
     11          1           0        1.173496   -1.769572    0.050861
     12          1           0        1.290215   -0.646138    1.396804
     13          6           0        2.561390   -0.149371   -0.280657
     14          1           0        2.728240    0.890554    0.022663
     15          1           0        3.421446   -0.739057    0.057713
     16          1           0        2.549905   -0.176254   -1.377444
     17          6           0       -0.014801    1.481965    0.227452
     18          1           0       -0.741396    2.160440   -0.228994
     19          1           0        0.153018    1.697342    1.290759
 ---------------------------------------------------------------------
                    Distance matrix (angstroms):
                    1          2          3          4          5
     1  C    0.000000
     2  H    1.097206   0.000000
     3  H    1.095261   1.769866   0.000000
     4  H    1.095989   1.769547   1.765415   0.000000
     5  C    1.533622   2.183679   2.195529   2.178024   0.000000
     6  H    2.166023   3.085560   2.524229   2.519463   1.099900
     7  H    2.154773   2.539415   3.082726   2.461966   1.098930
     8  C    2.606600   2.849612   2.934650   3.544061   1.549304
     9  H    2.788772   2.585291   3.216294   3.771409   2.154653
    10  C    3.938752   4.223371   4.368211   4.708322   2.539900
    11  H    4.108995   4.313185   4.771345   4.715877   2.690924
    12  H    4.269287   4.791782   4.586258   4.926919   2.799371
    13  C    5.166223   5.265684   5.480066   6.050453   3.927465
    14  H    5.450481   5.609487   5.549318   6.402688   4.325053
    15  H    6.061040   6.200711   6.439058   6.865877   4.711569
    16  H    5.267784   5.136182   5.639226   6.192507   4.216613
    17  C    3.126450   3.481326   2.886792   4.129639   2.526147
    18  H    3.000692   3.227290   2.474817   4.026230   2.959817
    19  H    3.697667   4.284439   3.349734   4.559745   2.967013
                    6          7          8          9         10
     6  H    0.000000
     7  H    1.756203   0.000000
[...]
 8,-0.13030529,0.04632549,0.00211400,0.00030872,-0.00051294,-0.02428063
 ,-0.01630827,0.01137247,0.12219247,0.13800787,0.06515425,0.04633715,-0
 .07648450,0.02607501,0.01948746,-0.00956250,-0.00925891,-0.00564282,0.
 00310310,-0.06978653,-0.05218560,0.07839756,-0.16248143,0.03647508,-0.
 03692252,-0.00020499,-0.00032198,-0.00038769,-0.00387387,0.00205217,-0
 .00147174,-0.02152716,0.01138797,-0.01071750,0.43917021,0.03831258,-0.
 09941806,0.01612625,-0.00133845,-0.00007611,-0.00005146,0.02941360,-0.
 01084218,0.01370080,-0.01685270,0.00761956,-0.00849375,-0.03159566,0.5
 4166655,-0.03615615,0.01579554,-0.09746627,-0.03112598,0.01365442,-0.0
 1225574,0.00977347,-0.00294119,0.00402373,0.01006199,-0.00515887,0.003
 77985,0.00603853,0.03393252,0.56787473,-0.00040986,-0.00044849,-0.0313
 0311,-0.00522430,0.00267801,-0.00230448,0.00124478,-0.00017304,0.00082
 336,0.00107883,-0.00070940,0.00045224,-0.04778594,0.00064512,0.0072512
 0,0.05682299,0.00022388,0.00000369,0.01336333,0.00241368,-0.00010247,0
 .00137586,-0.00083575,0.00035982,0.00023975,-0.00032041,0.00030015,-0.
 00056108,0.00071761,-0.05149242,-0.00662266,0.00022004,0.05166601,-0.0
 0026399,-0.00026710,-0.01160903,-0.00230453,0.00099571,0.00075436,0.00
 009159,0.00039390,0.00059042,-0.00040247,-0.00031883,0.00048023,0.0063
 4997,-0.00642130,-0.30098509,-0.00707522,0.00489314,0.32837837,-0.0046
 0973,0.02937147,0.00862279,0.00117981,-0.00072054,-0.00008350,-0.00517
 857,0.00227622,-0.00291443,0.00095820,-0.00045225,0.00069621,-0.049018
 44,0.02430643,0.00710260,-0.00040603,0.00100285,0.00028187,0.06041504,
 0.00172777,-0.01091422,-0.00328600,-0.00028706,0.00024968,0.00043101,0
 .00200922,0.00056037,0.00118440,0.00035853,0.00072863,-0.00009197,0.02
 477739,-0.27697784,-0.06835015,-0.00011546,0.00010017,-0.00072690,-0.0
 2740231,0.30280814,-0.00224902,0.01331051,0.00365976,0.00082229,0.0001
 7208,0.00066869,-0.00262314,0.00136778,-0.00002192,0.00062191,-0.00049
 377,0.00024414,0.00676697,-0.06814983,-0.07255097,0.00335753,-0.032330
 82,-0.00906038,-0.00738939,0.07406281,0.07303378,-0.02670069,-0.014013
 61,0.00775313,0.00192588,-0.00045619,0.00097745,0.00119348,-0.00006357
 ,0.00054923,-0.00342726,0.00227576,-0.00157108,-0.11532073,-0.03828806
 ,0.01738881,-0.00298914,-0.00183750,0.00175359,-0.00193830,0.00000172,
 0.00125905,0.39606517,0.00668997,0.00813104,-0.00545197,0.00004347,0.0
 0020610,0.00008390,0.00032942,0.00001331,-0.00049662,0.00368237,-0.000
 49150,0.00123360,-0.01821571,-0.08781441,0.00870297,-0.00046529,-0.001
 19881,0.00069904,-0.02613040,-0.01749955,0.01181708,-0.01848110,0.4631
 9739,-0.00894746,-0.00774384,0.00450176,-0.00159803,-0.00056582,0.0002
 4373,0.00075880,-0.00003770,0.00003987,-0.00365284,0.00102380,-0.00108
 015,0.02327920,0.01745724,-0.08715919,0.02745538,0.01780260,-0.0117795
 1,-0.00769315,-0.00567154,0.00253117,0.01407831,0.02014779,0.58410445,
 0.00169851,0.00036402,0.00135116,-0.00027556,0.00006157,-0.00086848,-0
 .00008551,0.00002738,-0.00002100,0.00039529,-0.00012162,-0.00030899,-0
 .00370281,-0.00126400,0.02844939,-0.00430023,-0.00296707,0.00188764,0.
 00093283,0.00030288,-0.00076873,-0.04740041,0.00278086,-0.00058926,0.0
 5617058,0.00091722,0.00029200,-0.00033035,-0.00011526,0.00021447,-0.00
 034291,-0.00007976,0.00002615,-0.00008110,0.00021057,-0.00014793,-0.00
 002456,-0.00205397,0.00002591,0.01792199,-0.00298781,-0.00123123,0.001
 34711,0.00089341,0.00052459,-0.00005784,0.00269873,-0.04931312,-0.0053
 0095,0.00001196,0.05861099,-0.00095469,-0.00030042,0.00053103,0.000934
 49,-0.00019645,0.00065945,-0.00000567,0.00001313,0.00002943,-0.0000121
 4,0.00005603,0.00046690,0.00144880,0.00073833,-0.01308139,0.00167813,0
 .00164957,0.00055859,-0.00005735,0.00048289,0.00051566,-0.00087040,-0.
 00695663,-0.29210989,0.00080420,0.00591454,0.32025224,-0.00266395,-0.0
 0259425,0.00204322,-0.00003510,-0.00012362,-0.00007983,-0.00015916,0.0
 0012828,0.00009165,-0.00096176,0.00065363,-0.00050462,-0.03368100,0.00
 975009,-0.00899793,0.00179440,0.00086434,-0.00093534,0.00100664,0.0019
 6572,-0.00049663,-0.12856512,0.02928921,-0.02636635,-0.00237971,0.0011
 6721,-0.00107893,0.44758433,-0.00327297,-0.00300242,0.00154390,0.00024
 030,-0.00000608,-0.00003777,0.00020995,-0.00001197,0.00012444,-0.00152
 097,0.00037547,-0.00033401,-0.01151524,0.00907642,-0.00511037,-0.00009
 352,0.00003636,-0.00007361,-0.00181721,-0.00001846,-0.00032532,0.03987
 859,-0.09227490,0.01340504,-0.00024638,-0.00022265,0.00028410,0.020584
 76,0.55608299,0.00170403,0.00149497,-0.00159669,0.00000886,0.00002132,
 0.00047365,-0.00021155,-0.00004348,0.00001190,0.00086528,-0.00006156,0
 .00067661,0.00926101,-0.00456002,0.00448082,0.00119013,-0.00016064,0.0
 0002710,-0.00028826,-0.00017860,0.00000820,-0.02308737,0.01041335,-0.0
 9304364,-0.02832809,0.01640826,-0.01202789,-0.00413199,0.03292540,0.56
 509889,0.00017572,-0.00015404,-0.00011004,0.00002584,0.00001272,0.0000
 1795,0.00015716,-0.00009439,0.00002949,0.00002334,-0.00004653,0.000010
 70,0.00106159,0.00189597,0.00030918,-0.00007725,-0.00011177,0.00009532
 ,-0.00080410,-0.00069360,-0.00023858,-0.00184689,0.02632353,0.00845287
 ,0.00086491,-0.00067915,-0.00006713,-0.04844758,-0.01620689,-0.0044600
 2,0.05912730,0.00013164,0.00062252,0.00029997,-0.00000274,-0.00005484,
 -0.00000049,-0.00035082,0.00013287,-0.00005158,0.00007732,0.00000698,0
 .00002268,-0.00210454,-0.00005575,-0.00026029,0.00007811,0.00006926,0.
 00005455,0.00063401,0.00136609,-0.00000374,0.00017581,-0.01608527,-0.0
 0518086,-0.00023551,0.00036827,0.00051412,-0.01561089,-0.28399606,-0.0
 6182686,0.01817359,0.31048673,0.00016241,0.00021238,-0.00007870,-0.000
 03697,0.00002586,-0.00004375,-0.00003458,0.00001152,-0.00003443,0.0000
 6288,-0.00003848,0.00000582,0.00058517,-0.00018490,0.00008139,-0.00001
 554,-0.00017748,-0.00000445,0.00015812,-0.00006005,0.00031072,-0.00125
 557,0.01181232,0.00255168,0.00072136,0.00001720,0.00046157,-0.00388436
 ,-0.06181130,-0.06818689,0.00401212,0.06678664,0.06857625,-0.00012230,
 0.00007644,0.00012599,0.00010823,-0.00004799,0.00025122,0.00001647,0.0
 0000779,-0.00000548,-0.00004489,-0.00001299,0.00008961,0.00180981,0.00
 016763,-0.00122189,-0.00043151,-0.00000317,0.00071006,-0.00009219,-0.0
 0003309,0.00000945,-0.00296625,-0.00082282,-0.02888943,-0.00452890,0.0
 0279347,-0.00164727,-0.04808125,-0.00042851,-0.00812837,-0.00042498,0.
 00003697,-0.00211498,0.05694149,-0.00004255,-0.00005909,0.00006932,-0.
 00004675,-0.00003376,-0.00005450,0.00001526,-0.00001149,0.00001046,-0.
 00000863,0.00000575,-0.00006872,-0.00072250,-0.00008653,-0.00027420,-0
 .00006221,0.00034233,-0.00017817,0.00009068,0.00008429,-0.00013973,0.0
 0156752,-0.00044795,0.01689802,0.00281836,-0.00104033,0.00155087,-0.00
 064864,-0.05217324,-0.01378687,-0.00119066,-0.00098689,-0.03282420,0.0
 0001709,0.05224441,-0.00021233,-0.00000383,0.00051630,0.00027703,-0.00
 005173,0.00009633,-0.00000007,0.00002176,-0.00001538,-0.00012253,0.000
 01301,-0.00000728,0.00086847,-0.00001674,-0.00006843,-0.00069664,-0.00
 026723,0.00074760,-0.00005751,0.00009567,0.00002671,-0.00161102,0.0000
 4260,-0.01294413,-0.00214773,0.00129361,0.00055447,-0.00762033,-0.0134
 8010,-0.29773006,-0.00031406,-0.00108239,-0.00818437,0.00833834,0.0128
 6002,0.32596434,-0.00056374,-0.00104934,0.00084127,0.00006026,-0.00001
 408,-0.00003925,0.00005548,-0.00000921,0.00000614,-0.00042307,0.000124
 07,-0.00018206,-0.00291917,0.00332091,-0.00180861,-0.00009253,0.000036
 47,0.00021495,0.00014374,-0.00015761,-0.00016797,-0.02773952,-0.008088
 42,0.00932627,0.00177090,-0.00095289,0.00097490,-0.15921374,-0.0383907
 9,0.03673249,-0.00340260,-0.00147055,0.00172097,-0.00038803,-0.0001199
 7,0.00027395,0.50737125,0.00093712,0.00131589,-0.00030004,-0.00003181,
 -0.00001633,0.00003673,-0.00015334,-0.00000515,-0.00008287,0.00051699,
 -0.00013486,0.00017691,0.00248833,-0.00275602,0.00120713,-0.00005280,-
 0.00008203,0.00000921,0.00010439,0.00058600,0.00025821,0.01247444,0.00
 828828,-0.00792571,-0.00030508,0.00020656,-0.00025320,-0.03733303,-0.1
 0102786,0.01736443,-0.02936539,-0.01179897,0.01400431,0.00150494,0.000
 49252,-0.00061836,-0.03390490,0.56399970,-0.00084519,-0.00040457,0.000
 89022,0.00012414,-0.00004678,-0.00003340,0.00001061,0.00004966,-0.0000
 1554,-0.00039652,0.00007863,-0.00013819,-0.00223207,0.00158914,-0.0016
 3992,-0.00012195,0.00002345,0.00050158,0.00010841,0.00028408,-0.000050
 03,-0.00790956,-0.00577064,0.00495488,-0.00132440,-0.00034037,0.000531
 78,0.03752978,0.01772410,-0.09854878,-0.00745963,-0.00302293,0.0033403
 1,0.03074976,0.01405918,-0.01221311,0.03300647,0.01263977,0.55837278,0
 .00003996,0.00018780,-0.00001338,-0.00001288,0.00000065,0.00000448,-0.
 00011878,0.00003572,-0.00001228,0.00004041,0.00000273,0.00001481,-0.00
 027690,-0.00022676,0.00022957,0.00003805,-0.00001917,-0.00003171,0.000
 16702,0.00037119,0.00004542,0.00170200,-0.00035194,-0.00064083,-0.0001
 4978,0.00009528,-0.00001969,-0.00277770,-0.02934292,-0.00829514,-0.004
 97167,-0.00217510,0.00264899,0.00118317,0.00086105,-0.00011967,-0.0511
 4912,-0.02370759,-0.00706752,0.05404860,0.00001258,-0.00000138,0.00004
 002,-0.00000464,0.00000087,-0.00000557,-0.00005441,0.00004271,0.000000
 15,-0.00003165,0.00000943,-0.00000077,-0.00025300,-0.00001776,0.000024
 39,0.00000611,-0.00001500,0.00000492,0.00013851,0.00016633,0.00000660,
 0.00048348,0.00002543,0.00011157,-0.00011192,0.00006016,0.00000418,-0.
 00181741,-0.01199004,-0.00278913,-0.00230253,0.00048926,0.00150667,0.0
 0015426,0.00040681,0.00040102,-0.02438691,-0.29208862,-0.06466863,0.02
 873550,0.31790575,-0.00000675,-0.00008388,-0.00001560,0.00000175,-0.00
 000610,0.00000207,0.00000974,-0.00000109,0.00001910,-0.00000747,0.0000
 1380,-0.00000718,-0.00009187,0.00009578,-0.00000562,0.00001491,0.00002
 389,-0.00001331,-0.00003161,-0.00005509,-0.00004218,-0.00059586,-0.000
 52953,0.00013230,0.00000458,-0.00010163,0.00001165,0.00095710,0.014241
 84,0.00349087,0.00290839,0.00126368,-0.00012866,-0.00083625,0.00020480
 ,0.00054762,-0.00727993,-0.06477780,-0.06774012,0.00530506,0.07046562,
 0.06862476,-0.00039710,-0.00054122,0.00037584,0.00002857,0.00001036,-0
 .00004088,0.00003261,0.00003432,0.00000650,-0.00027593,0.00006517,-0.0
 0009757,-0.00097380,0.00149951,-0.00082574,-0.00004244,0.00000373,0.00
 011709,0.00003221,-0.00006882,-0.00006832,-0.00316331,-0.00376691,0.00
 369207,0.00035323,-0.00017994,0.00000195,-0.02154426,0.01522374,-0.010
 60255,0.00091627,-0.00037466,-0.00056954,0.00107277,0.00038632,0.00041
 002,-0.21312749,0.10486330,-0.07197911,0.00356289,-0.00158491,0.002126
 22,0.23283508,-0.00012290,-0.00014604,0.00008492,0.00000726,-0.0000044
 3,-0.00000177,-0.00001213,0.00000779,0.00001354,-0.00007263,0.00002526
 ,-0.00002582,-0.00080494,0.00035777,-0.00003873,0.00001795,0.00000901,
 0.00000915,0.00007117,0.00002747,-0.00004863,-0.00200909,-0.00070564,0
 .00121416,0.00006056,-0.00015148,0.00006465,-0.01224885,0.00725528,-0.
 00579356,0.00048447,0.00066722,-0.00053205,0.00073754,0.00032734,-0.00
 029640,0.10542855,-0.11628628,0.04544662,0.02554423,-0.01480205,0.0124
 0052,-0.11424449,0.12243407,0.00018043,0.00019581,-0.00013809,-0.00000
 526,0.00000881,0.00001059,-0.00001220,-0.00000296,-0.00000654,0.000102
 35,-0.00002642,0.00003310,0.00053204,-0.00036848,0.00068924,-0.0000890
 6,-0.00007286,-0.00001008,-0.00001271,0.00002485,0.00000683,0.00169392
 ,0.00142564,-0.00115814,0.00029898,0.00000554,0.00046521,0.01154527,-0
 .00813037,0.00436480,-0.00071374,-0.00012728,0.00024373,-0.00044456,-0
 .00058905,0.00055654,-0.07249417,0.04546070,-0.08111369,0.00833481,-0.
 00435314,0.00277788,0.07784507,-0.05135558,0.08354222,0.00005544,0.000
 03232,-0.00012205,-0.00005992,0.00001223,-0.00003670,-0.00000909,0.000
 00218,-0.00000161,0.00002698,-0.00000548,0.00000503,-0.00002774,-0.000
 22834,-0.00000675,0.00010401,0.00006375,-0.00026956,0.00001745,-0.0000
 0491,0.00003004,0.00191022,-0.00006112,0.00166964,-0.00029188,0.000095
 20,-0.00090809,-0.00042971,0.00258052,0.03038444,0.00120444,0.00031156
 ,-0.00083498,-0.00502625,-0.00246666,0.00236299,-0.04919773,0.00057705
 ,-0.00212263,-0.00094258,0.00036119,-0.00283801,0.00059914,-0.00332727
 ,-0.02677223,0.05200208,0.00001453,-0.00001304,-0.00006058,-0.00001297
 ,0.00001582,0.00000025,-0.00000202,-0.00000096,-0.00000500,-0.00000689
 ,-0.00000467,0.00000987,0.00013191,0.00003792,0.00007655,0.00003496,-0
 .00003579,-0.00005829,-0.00000386,-0.00005344,0.00001825,0.00054105,0.
 00011073,-0.00048455,-0.00000886,0.00022354,-0.00017700,0.00016471,0.0
 0051513,0.01447502,0.00078081,0.00034635,0.00017111,-0.00283516,-0.000
 21418,0.00115795,0.00056177,-0.05147562,-0.01741615,-0.00047378,-0.000
 47848,-0.03312129,-0.00081599,0.00094862,0.01776568,0.00198526,0.05015
 930,0.00003539,0.00004348,-0.00002412,0.00003686,-0.00000220,0.0000352
 1,-0.00000242,-0.00000717,0.00000189,0.00004212,-0.00000219,0.00000922
 ,0.00005431,-0.00005870,0.00044367,-0.00024281,-0.00006706,0.00009635,
 -0.00000974,0.00001269,-0.00004107,-0.00096136,0.00012911,0.00030218,0
 .00087113,-0.00030457,0.00066690,0.00037567,-0.00055921,-0.01275641,0.
 00001745,0.00045446,0.00066949,0.00236472,0.00147571,0.00065806,-0.001
 65948,-0.01714141,-0.30727659,-0.00052261,-0.00045185,-0.00747382,-0.0
 0028374,-0.00102015,-0.01037120,-0.00026331,0.01757440,0.33492448,-0.0
 0119035,-0.00119663,-0.00003881,0.00001142,-0.00016300,-0.00033073,0.0
 0046529,-0.00077448,-0.00004691,0.00019961,-0.00061991,-0.00007725,0.0
 0043754,-0.02051377,-0.00659787,0.00065530,0.00085101,-0.00037515,-0.0
 0299195,-0.00283991,0.00117649,-0.04615091,0.00799401,-0.01065440,0.00
 000130,-0.00229216,-0.00095818,-0.00128463,0.02360811,0.00647555,-0.00
 338179,0.00267702,-0.00136499,0.00068305,-0.00026146,0.00032188,-0.001
 45787,0.00100658,-0.00020914,0.00011775,0.00079040,0.00045194,0.000122
 00,0.00073651,0.00002117,0.00008068,-0.00007868,0.00014041,0.11630310,
 0.00035293,0.00143441,-0.00032232,-0.00009802,-0.00003029,-0.00004887,
 -0.00003201,-0.00029738,-0.00028290,0.00084007,-0.00032901,0.00024586,
 -0.01234658,-0.02879619,-0.00111709,0.00178877,0.00135876,-0.00109310,
 -0.00176574,-0.00135469,0.00005196,0.00986785,-0.20345656,-0.04493499,
 -0.00094427,-0.00439229,-0.00135931,0.00916981,-0.02657480,-0.00059611
 ,0.00203060,-0.00099631,0.00024097,-0.00157329,0.00122116,-0.00123095,
 -0.00091918,0.00101886,-0.00059963,0.00024612,0.00003984,0.00005157,-0
 .00074433,-0.00008664,0.00020662,0.00018285,-0.00008432,-0.00010803,-0
 .07596611,0.54525248,0.00025743,-0.00058712,-0.00009872,0.00013593,0.0
 0004223,0.00009578,-0.00018576,0.00012591,0.00012681,0.00015071,0.0001
 0565,0.00013413,-0.00415479,0.00518400,0.00424527,0.00009147,0.0013215
 3,0.00088069,0.00188972,0.00219769,0.00048073,-0.01001527,-0.03962644,
 -0.10204703,-0.00011612,-0.03465196,-0.01038147,0.00238979,0.01074004,
 0.00499946,-0.00301510,0.00263035,-0.00017868,-0.00006078,0.00157425,0
 .00074029,0.00046321,0.00023406,0.00007051,-0.00031235,-0.00049001,0.0
 0007458,-0.00021030,-0.00024906,0.00009231,-0.00017507,-0.00006014,0.0
 0001398,0.14178453,-0.01679375,0.57714282,-0.00024580,0.00006648,0.000
 05723,-0.00000516,0.00000062,-0.00000168,-0.00055665,-0.00038246,0.000
 01265,0.00003684,0.00010398,-0.00001239,-0.00139102,0.00011086,0.00017
 591,0.00008762,-0.00007063,-0.00014116,0.00010574,-0.00002775,-0.00025
 548,0.00482334,-0.00143619,0.00134725,-0.00020412,0.00005278,-0.000223
 21,-0.00119006,0.00098027,-0.00043169,-0.00006628,0.00019669,0.0001720
 4,0.00006997,-0.00012972,0.00020029,0.00014064,0.00022712,0.00006368,-
 0.00015979,-0.00007560,-0.00019011,0.00000578,-0.00010393,0.00001740,-
 0.00004102,0.00007041,0.00006951,-0.03931217,0.07468573,-0.06943335,0.
 03657737,0.00016038,-0.00024191,0.00007380,-0.00007626,-0.00006696,-0.
 00012408,-0.00048683,0.00023976,0.00016414,-0.00013335,0.00025765,-0.0
 0007650,0.00095470,-0.00128564,-0.00060260,-0.00001877,0.00001895,-0.0
 0000681,-0.00052828,-0.00035650,0.00001576,0.00984213,-0.01004744,0.01
 728807,-0.00020178,0.00140968,-0.00034357,-0.00229794,-0.00380561,-0.0
 0202676,0.00129051,-0.00074904,0.00040528,-0.00007642,0.00011356,0.000
 17190,-0.00022910,-0.00016006,0.00021650,0.00014751,0.00018142,-0.0000
 0898,0.00013586,0.00008643,-0.00006812,0.00004898,-0.00000509,-0.00008
 667,0.07203898,-0.21333410,0.12876119,-0.07811138,0.21991383,-0.000367
 60,0.00032384,0.00030642,0.00000201,-0.00001842,-0.00005916,0.00011419
 ,-0.00018377,-0.00011089,0.00000374,-0.00014317,-0.00006933,0.00067990
 ,-0.00061797,-0.00040643,-0.00011271,-0.00011354,0.00020993,-0.0001960
 2,-0.00023095,0.00019122,0.00274361,-0.00912362,0.00797729,0.00041664,
 0.00071450,0.00124331,-0.00008096,-0.00170977,-0.00027979,0.00037740,-
 0.00045865,0.00034758,0.00014450,-0.00024890,0.00036019,0.00006536,0.0
 0006550,0.00008714,0.00015288,0.00002330,-0.00010661,0.00002358,0.0000
 1764,-0.00001830,-0.00001128,0.00001850,0.00002309,-0.06623547,0.12887
 104,-0.16155888,0.07040860,-0.13765317,0.16319510,-0.00007373,-0.00011
 679,0.00002710,0.00005785,0.00012060,0.00012288,-0.00022760,0.00008276
 ,-0.00015501,-0.00001282,0.00001902,0.00001906,0.00070584,0.00088504,-
 0.00003974,-0.00006677,-0.00023188,0.00029706,0.00008062,0.00011608,0.
 00016811,0.00058842,0.00068707,-0.00102804,0.00113137,0.00040513,0.000
 96030,0.00102935,-0.00047084,0.00134324,-0.00013341,-0.00016790,-0.000
 13253,0.00022159,-0.00005655,-0.00015109,0.00013233,0.00015369,0.00007
 487,-0.00034067,-0.00005904,0.00009816,-0.00003622,-0.00014201,-0.0000
 2751,0.00002548,-0.00004717,-0.00006209,-0.02330736,-0.00477519,-0.059
 48391,0.00132476,-0.00245894,-0.00812838,0.01890095,0.00001282,-0.0001
 3936,0.00010965,0.00011482,-0.00001741,0.00005895,-0.00014653,0.000071
 13,0.00000175,-0.00010059,0.00007608,-0.00000792,0.00094895,0.00083478
 ,-0.00083937,-0.00034230,-0.00010676,0.00073740,-0.00006856,-0.0000270
 6,0.00046863,-0.00465794,-0.00063712,-0.02750233,-0.00002109,-0.005463
 29,-0.00168581,-0.00106313,0.00176243,-0.00127916,-0.00014726,0.000167
 56,0.00043420,0.00033731,-0.00018471,0.00099019,0.00022119,-0.00007602
 ,0.00015857,0.00006949,0.00006532,-0.00007610,0.00009896,0.00003629,0.
 00000060,-0.00015930,0.00000819,0.00011936,-0.00499649,-0.07059292,-0.
 06045839,0.00384273,0.00783106,0.02046761,0.00605691,0.06639180,-0.000
 07678,-0.00013144,0.00007730,0.00008489,0.00004642,0.00007413,0.000026
 58,0.00002179,-0.00010990,-0.00004848,-0.00004705,0.00001847,0.0001138
 1,0.00009912,0.00000034,-0.00035284,-0.00031974,0.00023664,-0.00012603
 ,-0.00012483,0.00008892,-0.00031962,0.00144804,-0.00601762,-0.00033227
 ,-0.00208652,0.00065247,-0.00075520,0.00058299,0.00053783,0.00014741,-
 0.00001137,0.00025139,0.00056535,-0.00053828,0.00039429,0.00000548,-0.
 00035756,0.00002015,0.00029916,0.00017065,-0.00014775,0.00007943,0.000
 11051,0.00003358,-0.00008988,0.00011543,0.00009871,-0.06348305,-0.0611
 8095,-0.31483257,-0.00183550,-0.00609938,-0.01133188,0.06609753,0.0683
 0217,0.32995550\\0.00000031,0.00000016,0.00000015,-0.00000013,0.000000
 47,0.00000006,0.00000019,0.00000023,0.00000039,0.,0.00000031,0.0000001
 3,-0.00000033,0.00000001,0.00000021,-0.00000008,-0.00000016,0.00000006
 ,-0.00000015,0.00000031,-0.00000031,0.00000014,0.00000004,-0.00000042,
 -0.00000003,0.00000042,-0.00000005,-0.00000062,0.,-0.00000017,-0.00000
 013,-0.00000014,-0.00000037,0.00000004,-0.00000039,-0.00000007,-0.0000
 0010,-0.00000011,-0.00000042,0.00000014,-0.00000023,0.00000001,-0.0000
 0007,-0.00000039,-0.00000022,-0.00000006,0.,-0.00000015,0.00000048,-0.
 00000015,0.00000094,0.00000013,-0.00000021,0.00000003,0.00000026,-0.00
 000018,0.00000019\\\@


 WHEN YOU REACH FOR THE STARS, YOU MAY NOT QUITE GET ONE,
 BUT YOU WON'T COME UP WITH A HANDFUL OF MUD, EITHER.

                                         -- LEO BURNETT (AD AGENCY HEAD)
 Job cpu time:       0 days  0 hours 27 minutes 13.3 seconds.
 File lengths (MBytes):  RWF=     64 Int=      0 D2E=      0 Chk=      3 Scr=      1
 Normal termination of Gaussian 09 at Sat Nov  7 02:21:13 2015.
