using PM6 to do opt and freq calc.                                      
FOpt      RPM6                                                        ZDO                 
Number of atoms                            I               20
Info1-9                                    I   N=           9
          33          29           0           0           0         110
           2           8         302
Charge                                     I                0
Multiplicity                               I                1
Number of electrons                        I               38
Number of alpha electrons                  I               19
Number of beta electrons                   I               19
Number of basis functions                  I               38
Number of independent functions            I               38
Number of point charges in /Mol/           I                0
Number of translation vectors              I                0
Atomic numbers                             I   N=          20
           6           1           1           1           6           1
           6           1           1           6           1           1
           6           1           1           1           6           1
           1           1
Nuclear charges                            R   N=          20
  4.00000000E+00  1.00000000E+00  1.00000000E+00  1.00000000E+00  4.00000000E+00
  1.00000000E+00  4.00000000E+00  1.00000000E+00  1.00000000E+00  4.00000000E+00
  1.00000000E+00  1.00000000E+00  4.00000000E+00  1.00000000E+00  1.00000000E+00
  1.00000000E+00  4.00000000E+00  1.00000000E+00  1.00000000E+00  1.00000000E+00
Current cartesian coordinates              R   N=          60
  3.78475125E+00 -1.96426654E+00 -2.17452072E-01  3.16680037E+00 -3.92504262E+00
 -4.47736228E-01  4.67043418E+00 -1.80373771E+00  1.64584062E+00  5.25458678E+00
 -1.60785371E+00 -1.62977188E+00  1.57182606E+00 -1.11146701E-01 -5.14920874E-01
  7.14492959E-01 -4.04847714E-01 -2.42523798E+00 -4.66992798E-01 -6.48835714E-01
  1.50118559E+00  2.30373241E-01 -4.80127333E-02  3.37844343E+00 -7.71908813E-01
 -2.71288590E+00  1.65116328E+00 -2.99571734E+00  6.60689858E-01  9.48161134E-01
 -2.66811842E+00  2.68237383E+00  5.10231705E-01 -4.17054480E+00  6.39411230E-01
  2.68126766E+00 -4.45204496E+00 -5.79832066E-01 -1.21320126E+00 -4.90284126E+00
 -2.55615982E+00 -7.91420781E-01 -6.23604456E+00  4.03704319E-01 -1.57830368E+00
 -3.35752306E+00 -5.60973160E-01 -2.97249966E+00  2.52063381E+00  2.62395701E+00
 -3.51758291E-01  9.61869991E-01  3.97033825E+00 -5.63403919E-01  3.43106138E+00
  3.01019738E+00  1.46564908E+00  3.90262587E+00  3.03009326E+00 -1.83630704E+00
Force Field                                I                0
Int Atom Types                             I   N=          20
           0           0           0           0           0           0
           0           0           0           0           0           0
           0           0           0           0           0           0
           0           0
MM charges                                 R   N=          20
  0.00000000E+00  0.00000000E+00  0.00000000E+00  0.00000000E+00  0.00000000E+00
  0.00000000E+00  0.00000000E+00  0.00000000E+00  0.00000000E+00  0.00000000E+00
  0.00000000E+00  0.00000000E+00  0.00000000E+00  0.00000000E+00  0.00000000E+00
  0.00000000E+00  0.00000000E+00  0.00000000E+00  0.00000000E+00  0.00000000E+00
Integer atomic weights                     I   N=          20
          12           1           1           1          12           1
          12           1           1          12           1           1
          12           1           1           1          12           1
           1           1
Real atomic weights                        R   N=          20
  1.20000000E+01  1.00782504E+00  1.00782504E+00  1.00782504E+00  1.20000000E+01
  1.00782504E+00  1.20000000E+01  1.00782504E+00  1.00782504E+00  1.20000000E+01
  1.00782504E+00  1.00782504E+00  1.20000000E+01  1.00782504E+00  1.00782504E+00
  1.00782504E+00  1.20000000E+01  1.00782504E+00  1.00782504E+00  1.00782504E+00
Atom fragment info                         I   N=          20
           0           0           0           0           0           0
           0           0           0           0           0           0
           0           0           0           0           0           0
           0           0
Atom residue num                           I   N=          20
           0           0           0           0           0           0
           0           0           0           0           0           0
           0           0           0           0           0           0
           0           0
Nuclear spins                              I   N=          20
           0           1           1           1           0           1
           0           1           1           0           1           1
           0           1           1           1           0           1
           1           1
Nuclear ZEff                               R   N=          20
 -3.90000000E+00 -1.00000000E+00 -1.00000000E+00 -1.00000000E+00 -3.90000000E+00
 -1.00000000E+00 -3.90000000E+00 -1.00000000E+00 -1.00000000E+00 -3.90000000E+00
 -1.00000000E+00 -1.00000000E+00 -3.90000000E+00 -1.00000000E+00 -1.00000000E+00
 -1.00000000E+00 -3.90000000E+00 -1.00000000E+00 -1.00000000E+00 -1.00000000E+00
Nuclear QMom                               R   N=          20
  0.00000000E+00  0.00000000E+00  0.00000000E+00  0.00000000E+00  0.00000000E+00
  0.00000000E+00  0.00000000E+00  0.00000000E+00  0.00000000E+00  0.00000000E+00
  0.00000000E+00  0.00000000E+00  0.00000000E+00  0.00000000E+00  0.00000000E+00
  0.00000000E+00  0.00000000E+00  0.00000000E+00  0.00000000E+00  0.00000000E+00
Nuclear GFac                               R   N=          20
  0.00000000E+00  2.79284600E+00  2.79284600E+00  2.79284600E+00  0.00000000E+00
  2.79284600E+00  0.00000000E+00  2.79284600E+00  2.79284600E+00  0.00000000E+00
  2.79284600E+00  2.79284600E+00  0.00000000E+00  2.79284600E+00  2.79284600E+00
  2.79284600E+00  0.00000000E+00  2.79284600E+00  2.79284600E+00  2.79284600E+00
MicOpt                                     I   N=          20
          -1          -1          -1          -1          -1          -1
          -1          -1          -1          -1          -1          -1
          -1          -1          -1          -1          -1          -1
          -1          -1
Number of contracted shells                I               20
Number of primitive shells                 I              120
Pure/Cartesian d shells                    I                0
Pure/Cartesian f shells                    I                0
Highest angular momentum                   I                1
Largest degree of contraction              I                6
Shell types                                I   N=          20
          -1           0           0           0          -1           0
          -1           0           0          -1           0           0
          -1           0           0           0          -1           0
           0           0
Number of primitives per shell             I   N=          20
           6           6           6           6           6           6
           6           6           6           6           6           6
           6           6           6           6           6           6
           6           6
Shell to atom map                          I   N=          20
           1           2           3           4           5           6
           7           8           9          10          11          12
          13          14          15          16          17          18
          19          20
Primitive exponents                        R   N=         120
  1.14476344E+01  3.29633588E+00  1.29653143E+00  5.92558930E-01  2.94896438E-01
  1.51447622E-01  4.39461478E+00  1.26542531E+00  4.97723458E-01  2.27476537E-01
  1.13207340E-01  5.81389949E-02  4.39461478E+00  1.26542531E+00  4.97723458E-01
  2.27476537E-01  1.13207340E-01  5.81389949E-02  4.39461478E+00  1.26542531E+00
  4.97723458E-01  2.27476537E-01  1.13207340E-01  5.81389949E-02  1.14476344E+01
  3.29633588E+00  1.29653143E+00  5.92558930E-01  2.94896438E-01  1.51447622E-01
  4.39461478E+00  1.26542531E+00  4.97723458E-01  2.27476537E-01  1.13207340E-01
  5.81389949E-02  1.14476344E+01  3.29633588E+00  1.29653143E+00  5.92558930E-01
  2.94896438E-01  1.51447622E-01  4.39461478E+00  1.26542531E+00  4.97723458E-01
  2.27476537E-01  1.13207340E-01  5.81389949E-02  4.39461478E+00  1.26542531E+00
  4.97723458E-01  2.27476537E-01  1.13207340E-01  5.81389949E-02  1.14476344E+01
  3.29633588E+00  1.29653143E+00  5.92558930E-01  2.94896438E-01  1.51447622E-01
  4.39461478E+00  1.26542531E+00  4.97723458E-01  2.27476537E-01  1.13207340E-01
  5.81389949E-02  4.39461478E+00  1.26542531E+00  4.97723458E-01  2.27476537E-01
  1.13207340E-01  5.81389949E-02  1.14476344E+01  3.29633588E+00  1.29653143E+00
  5.92558930E-01  2.94896438E-01  1.51447622E-01  4.39461478E+00  1.26542531E+00
  4.97723458E-01  2.27476537E-01  1.13207340E-01  5.81389949E-02  4.39461478E+00
  1.26542531E+00  4.97723458E-01  2.27476537E-01  1.13207340E-01  5.81389949E-02
  4.39461478E+00  1.26542531E+00  4.97723458E-01  2.27476537E-01  1.13207340E-01
  5.81389949E-02  1.14476344E+01  3.29633588E+00  1.29653143E+00  5.92558930E-01
  2.94896438E-01  1.51447622E-01  4.39461478E+00  1.26542531E+00  4.97723458E-01
  2.27476537E-01  1.13207340E-01  5.81389949E-02  4.39461478E+00  1.26542531E+00
  4.97723458E-01  2.27476537E-01  1.13207340E-01  5.81389949E-02  4.39461478E+00
  1.26542531E+00  4.97723458E-01  2.27476537E-01  1.13207340E-01  5.81389949E-02
Contraction coefficients                   R   N=         120
 -9.73739553E-03 -7.26587678E-02 -1.71615520E-01  1.28977624E-01  7.28861451E-01
  3.01331742E-01 -9.73739553E-03 -7.26587678E-02 -1.71615520E-01  1.28977624E-01
  7.28861451E-01  3.01331742E-01 -9.73739553E-03 -7.26587678E-02 -1.71615520E-01
  1.28977624E-01  7.28861451E-01  3.01331742E-01 -9.73739553E-03 -7.26587678E-02
 -1.71615520E-01  1.28977624E-01  7.28861451E-01  3.01331742E-01 -9.73739553E-03
 -7.26587678E-02 -1.71615520E-01  1.28977624E-01  7.28861451E-01  3.01331742E-01
 -9.73739553E-03 -7.26587678E-02 -1.71615520E-01  1.28977624E-01  7.28861451E-01
  3.01331742E-01 -9.73739553E-03 -7.26587678E-02 -1.71615520E-01  1.28977624E-01
  7.28861451E-01  3.01331742E-01 -9.73739553E-03 -7.26587678E-02 -1.71615520E-01
  1.28977624E-01  7.28861451E-01  3.01331742E-01 -9.73739553E-03 -7.26587678E-02
 -1.71615520E-01  1.28977624E-01  7.28861451E-01  3.01331742E-01 -9.73739553E-03
 -7.26587678E-02 -1.71615520E-01  1.28977624E-01  7.28861451E-01  3.01331742E-01
 -9.73739553E-03 -7.26587678E-02 -1.71615520E-01  1.28977624E-01  7.28861451E-01
  3.01331742E-01 -9.73739553E-03 -7.26587678E-02 -1.71615520E-01  1.28977624E-01
  7.28861451E-01  3.01331742E-01 -9.73739553E-03 -7.26587678E-02 -1.71615520E-01
  1.28977624E-01  7.28861451E-01  3.01331742E-01 -9.73739553E-03 -7.26587678E-02
 -1.71615520E-01  1.28977624E-01  7.28861451E-01  3.01331742E-01 -9.73739553E-03
 -7.26587678E-02 -1.71615520E-01  1.28977624E-01  7.28861451E-01  3.01331742E-01
 -9.73739553E-03 -7.26587678E-02 -1.71615520E-01  1.28977624E-01  7.28861451E-01
  3.01331742E-01 -9.73739553E-03 -7.26587678E-02 -1.71615520E-01  1.28977624E-01
  7.28861451E-01  3.01331742E-01 -9.73739553E-03 -7.26587678E-02 -1.71615520E-01
  1.28977624E-01  7.28861451E-01  3.01331742E-01 -9.73739553E-03 -7.26587678E-02
 -1.71615520E-01  1.28977624E-01  7.28861451E-01  3.01331742E-01 -9.73739553E-03
 -7.26587678E-02 -1.71615520E-01  1.28977624E-01  7.28861451E-01  3.01331742E-01
P(S=P) Contraction coefficients            R   N=         120
 -8.10494336E-03 -1.71547892E-02  7.36978576E-02  3.96514999E-01  4.97808488E-01
  1.17482582E-01  0.00000000E+00  0.00000000E+00  0.00000000E+00  0.00000000E+00
  0.00000000E+00  0.00000000E+00  0.00000000E+00  0.00000000E+00  0.00000000E+00
  0.00000000E+00  0.00000000E+00  0.00000000E+00  0.00000000E+00  0.00000000E+00
  0.00000000E+00  0.00000000E+00  0.00000000E+00  0.00000000E+00 -8.10494336E-03
 -1.71547892E-02  7.36978576E-02  3.96514999E-01  4.97808488E-01  1.17482582E-01
  0.00000000E+00  0.00000000E+00  0.00000000E+00  0.00000000E+00  0.00000000E+00
  0.00000000E+00 -8.10494336E-03 -1.71547892E-02  7.36978576E-02  3.96514999E-01
  4.97808488E-01  1.17482582E-01  0.00000000E+00  0.00000000E+00  0.00000000E+00
  0.00000000E+00  0.00000000E+00  0.00000000E+00  0.00000000E+00  0.00000000E+00
  0.00000000E+00  0.00000000E+00  0.00000000E+00  0.00000000E+00 -8.10494336E-03
 -1.71547892E-02  7.36978576E-02  3.96514999E-01  4.97808488E-01  1.17482582E-01
  0.00000000E+00  0.00000000E+00  0.00000000E+00  0.00000000E+00  0.00000000E+00
  0.00000000E+00  0.00000000E+00  0.00000000E+00  0.00000000E+00  0.00000000E+00
  0.00000000E+00  0.00000000E+00 -8.10494336E-03 -1.71547892E-02  7.36978576E-02
  3.96514999E-01  4.97808488E-01  1.17482582E-01  0.00000000E+00  0.00000000E+00
  0.00000000E+00  0.00000000E+00  0.00000000E+00  0.00000000E+00  0.00000000E+00
  0.00000000E+00  0.00000000E+00  0.00000000E+00  0.00000000E+00  0.00000000E+00
  0.00000000E+00  0.00000000E+00  0.00000000E+00  0.00000000E+00  0.00000000E+00
  0.00000000E+00 -8.10494336E-03 -1.71547892E-02  7.36978576E-02  3.96514999E-01
  4.97808488E-01  1.17482582E-01  0.00000000E+00  0.00000000E+00  0.00000000E+00
  0.00000000E+00  0.00000000E+00  0.00000000E+00  0.00000000E+00  0.00000000E+00
  0.00000000E+00  0.00000000E+00  0.00000000E+00  0.00000000E+00  0.00000000E+00
  0.00000000E+00  0.00000000E+00  0.00000000E+00  0.00000000E+00  0.00000000E+00
Coordinates of each shell                  R   N=          60
  3.78475125E+00 -1.96426654E+00 -2.17452072E-01  3.16680037E+00 -3.92504262E+00
 -4.47736228E-01  4.67043418E+00 -1.80373771E+00  1.64584062E+00  5.25458678E+00
 -1.60785371E+00 -1.62977188E+00  1.57182606E+00 -1.11146701E-01 -5.14920874E-01
  7.14492959E-01 -4.04847714E-01 -2.42523798E+00 -4.66992798E-01 -6.48835714E-01
  1.50118559E+00  2.30373241E-01 -4.80127333E-02  3.37844343E+00 -7.71908813E-01
 -2.71288590E+00  1.65116328E+00 -2.99571734E+00  6.60689858E-01  9.48161134E-01
 -2.66811842E+00  2.68237383E+00  5.10231705E-01 -4.17054480E+00  6.39411230E-01
  2.68126766E+00 -4.45204496E+00 -5.79832066E-01 -1.21320126E+00 -4.90284126E+00
 -2.55615982E+00 -7.91420781E-01 -6.23604456E+00  4.03704319E-01 -1.57830368E+00
 -3.35752306E+00 -5.60973160E-01 -2.97249966E+00  2.52063381E+00  2.62395701E+00
 -3.51758291E-01  9.61869991E-01  3.97033825E+00 -5.63403919E-01  3.43106138E+00
  3.01019738E+00  1.46564908E+00  3.90262587E+00  3.03009326E+00 -1.83630704E+00
Constraint Structure                       R   N=          60
  4.08559596E+00 -1.48913603E+00 -5.42562300E-01  3.75818032E+00 -3.44673565E+00
 -1.24483513E+00  4.88993548E+00 -1.59403338E+00  1.40069971E+00  5.49688045E+00
 -5.74514631E-01 -1.80907764E+00  1.60170436E+00  1.28341690E-02 -5.45003611E-01
  9.28774972E-01  6.44618865E-02 -2.54041211E+00 -4.02556118E-01 -1.35229430E+00
  1.08807122E+00  3.12251148E-01 -1.48882248E+00  3.06603808E+00 -6.32208983E-01
 -3.32178314E+00  3.72003719E-01 -3.04441845E+00 -1.42877743E-01  1.19083303E+00
 -2.94021625E+00  1.75601738E+00  2.09142650E+00 -4.25498400E+00 -1.34804080E+00
  2.42368210E+00 -4.34887472E+00  8.72305554E-02 -1.37457173E+00 -4.39408608E+00
 -1.77887364E+00 -2.34658469E+00 -6.32625075E+00  7.51378437E-01 -1.09711676E+00
 -3.35066728E+00  1.48213726E+00 -2.59167878E+00  2.08781861E+00  2.74537018E+00
  3.06939672E-01  3.65236010E-01  3.92145365E+00  3.81762884E-02  2.64466257E+00
  2.80142422E+00  2.33621291E+00  3.62687448E+00  3.60916994E+00 -8.40771864E-01
Num ILSW                                   I              100
ILSW                                       I   N=         100
           0           0           0           0           2           0
           0           0           0           0           0          -1
           0           0           0           0           0           0
           0           0           0           0           1           0
           1           0           0           0           0           0
           0           0      100000           0          -1           0
           0           0           0           0           0           0
           0           0           0          40           0           0
           0           0           1           0           0           0
           0           0           4          40           0           0
           0           0           0           0           0           0
           0           0           0           0           0           0
           0           0           0           0           0           0
           0           0           0           0           0           0
           0           0           0           0           0           0
           0           0           0           0           0           0
           0           0           0           0
Num RLSW                                   I               40
RLSW                                       R   N=          40
  1.00000000E+00  1.00000000E+00  1.00000000E+00  1.00000000E+00  1.00000000E+00
  0.00000000E+00  0.00000000E+00  1.00000000E+00  0.00000000E+00  0.00000000E+00
  0.00000000E+00  0.00000000E+00  1.00000000E+00  0.00000000E+00  0.00000000E+00
  0.00000000E+00  0.00000000E+00  1.00000000E+00  0.00000000E+00  0.00000000E+00
  0.00000000E+00  0.00000000E+00  1.00000000E+00  0.00000000E+00  0.00000000E+00
  0.00000000E+00  0.00000000E+00  1.00000000E+00  0.00000000E+00  0.00000000E+00
  0.00000000E+00  0.00000000E+00  0.00000000E+00  0.00000000E+00  0.00000000E+00
  0.00000000E+00  0.00000000E+00  0.00000000E+00  1.00000000E+00  1.00000000E+00
MxBond                                     I                4
NBond                                      I   N=          20
           4           1           1           1           4           1
           4           1           1           4           1           1
           4           1           1           1           4           1
           1           1
IBond                                      I   N=          80
           2           3           4           5           1           0
           0           0           1           0           0           0
           1           0           0           0           1           6
           7          17           5           0           0           0
           5           8           9          10           7           0
           0           0           7           0           0           0
           7          11          12          13          10           0
           0           0          10           0           0           0
          10          14          15          16          13           0
           0           0          13           0           0           0
          13           0           0           0           5          18
          19          20          17           0           0           0
          17           0           0           0          17           0
           0           0
RBond                                      R   N=          80
  1.00000000E+00  1.00000000E+00  1.00000000E+00  1.00000000E+00  1.00000000E+00
  0.00000000E+00  0.00000000E+00  0.00000000E+00  1.00000000E+00  0.00000000E+00
  0.00000000E+00  0.00000000E+00  1.00000000E+00  0.00000000E+00  0.00000000E+00
  0.00000000E+00  1.00000000E+00  1.00000000E+00  1.00000000E+00  1.00000000E+00
  1.00000000E+00  0.00000000E+00  0.00000000E+00  0.00000000E+00  1.00000000E+00
  1.00000000E+00  1.00000000E+00  1.00000000E+00  1.00000000E+00  0.00000000E+00
  0.00000000E+00  0.00000000E+00  1.00000000E+00  0.00000000E+00  0.00000000E+00
  0.00000000E+00  1.00000000E+00  1.00000000E+00  1.00000000E+00  1.00000000E+00
  1.00000000E+00  0.00000000E+00  0.00000000E+00  0.00000000E+00  1.00000000E+00
  0.00000000E+00  0.00000000E+00  0.00000000E+00  1.00000000E+00  1.00000000E+00
  1.00000000E+00  1.00000000E+00  1.00000000E+00  0.00000000E+00  0.00000000E+00
  0.00000000E+00  1.00000000E+00  0.00000000E+00  0.00000000E+00  0.00000000E+00
  1.00000000E+00  0.00000000E+00  0.00000000E+00  0.00000000E+00  1.00000000E+00
  1.00000000E+00  1.00000000E+00  1.00000000E+00  1.00000000E+00  0.00000000E+00
  0.00000000E+00  0.00000000E+00  1.00000000E+00  0.00000000E+00  0.00000000E+00
  0.00000000E+00  1.00000000E+00  0.00000000E+00  0.00000000E+00  0.00000000E+00
Virial Ratio                               R      9.989767276068239E-01
SCF Energy                                 R     -5.756466703221008E-02
Total Energy                               R     -5.756466703221008E-02
RMS Force                                  R      3.703585907459456E-06
RMS Density                                R      3.763534160595048E-09
External E-field                           R   N=          35
  0.00000000E+00  0.00000000E+00  0.00000000E+00  0.00000000E+00  0.00000000E+00
  0.00000000E+00  0.00000000E+00  0.00000000E+00  0.00000000E+00  0.00000000E+00
  0.00000000E+00  0.00000000E+00  0.00000000E+00  0.00000000E+00  0.00000000E+00
  0.00000000E+00  0.00000000E+00  0.00000000E+00  0.00000000E+00  0.00000000E+00
  0.00000000E+00  0.00000000E+00  0.00000000E+00  0.00000000E+00  0.00000000E+00
  0.00000000E+00  0.00000000E+00  0.00000000E+00  0.00000000E+00  0.00000000E+00
  0.00000000E+00  0.00000000E+00  0.00000000E+00  0.00000000E+00  0.00000000E+00
IOpCl                                      I                0
IROHF                                      I                0
Alpha Orbital Energies                     R   N=          38
 -1.06358833E+00 -9.84656832E-01 -8.83203159E-01 -8.66104823E-01 -7.61692552E-01
 -6.97117619E-01 -5.82257551E-01 -5.69806640E-01 -5.32263749E-01 -5.24651616E-01
 -5.11644216E-01 -4.84560441E-01 -4.75108937E-01 -4.50821993E-01 -4.42992398E-01
 -4.40264558E-01 -4.12307202E-01 -4.09856037E-01 -3.98554652E-01  1.54745467E-01
  1.62691049E-01  1.66655658E-01  1.76254590E-01  1.81616329E-01  2.11259428E-01
  2.17763501E-01  2.21421142E-01  2.23335432E-01  2.23383342E-01  2.25159940E-01
  2.26461514E-01  2.31251038E-01  2.39170983E-01  2.44813363E-01  2.48222272E-01
  2.58291131E-01  2.59407639E-01  2.63068733E-01
Alpha MO coefficients                      R   N=        1444
  2.81884262E-01 -7.63524462E-02  6.26736588E-02  7.83955262E-04  1.16677354E-01
  1.21209488E-01  1.12340556E-01  4.50543417E-01 -1.53095685E-02  6.75713432E-03
  5.17184869E-02  1.90478197E-01  4.10512462E-01  1.55800867E-02  4.08923543E-02
 -7.21882094E-02  1.69613717E-01  1.70275680E-01  3.37682163E-01  6.26056778E-02
 -4.18810360E-02 -2.37413580E-02  1.50262306E-01  1.30119598E-01  2.30195420E-01
  5.43990345E-02  2.26946174E-02  4.82065689E-02  9.76104251E-02  8.63712370E-02
  1.08552124E-01  2.98824562E-01 -3.98013852E-02 -9.16662250E-02  5.77937684E-03
  1.31802810E-01  1.27868696E-01  1.17675125E-01 -3.29642355E-01  3.20177304E-02
 -5.29501494E-02  9.36677349E-03 -1.31447017E-01 -1.43556455E-01 -1.49977487E-01
 -2.78745170E-01 -1.31857320E-01 -5.08874171E-03  8.46007606E-03 -9.18355859E-02
  1.09000974E-01 -1.78969271E-01  2.40001587E-02  1.72237078E-02  2.86791346E-02
  5.17396872E-02  4.32788954E-01 -5.70217545E-02 -4.87033239E-02 -5.34355122E-02
  1.69143565E-01  1.91674807E-01  4.39424322E-01  3.71004153E-02  3.57534059E-02
  6.98062531E-02  1.89253206E-01  1.89964434E-01  1.79273641E-01 -2.61446516E-01
 -1.50972616E-02  6.65826078E-02  7.23932092E-03 -8.62160244E-02 -1.16000080E-01
 -1.24035467E-01 -4.76413484E-01 -5.39400298E-03  7.38722800E-02 -5.60300183E-03
 -2.55312971E-01 -2.16580784E-01 -2.08065959E-01  1.38925492E-03 -4.80377237E-02
  2.84311754E-01 -2.04092904E-02 -9.11598979E-04 -6.45081252E-02 -1.66313774E-02
  8.69508276E-02 -2.78832319E-03 -1.72098030E-02 -8.01027909E-02  1.37252901E-02
  1.68003867E-02  4.21473543E-02  3.77115330E-03  4.29888955E-02  1.49707724E-03
 -5.13405245E-02  3.37387624E-03  1.34279241E-02  1.27310286E-03 -3.19076178E-02
 -2.19829891E-02 -2.25112067E-02  5.42769850E-01 -1.91294420E-02  6.82448266E-02
 -5.51206983E-03  2.81248385E-01  2.45466708E-01  2.48785433E-01 -2.18389994E-01
 -5.82208756E-02 -7.65808793E-03  3.38287030E-02 -8.62958288E-02 -9.52013305E-02
 -1.36632411E-01  2.56751107E-02 -1.79650071E-01 -3.80788221E-02  1.19545168E-01
 -1.52527048E-02  4.84861236E-01 -1.16075421E-02  8.79621642E-03  5.46600363E-02
  2.43007029E-01  2.11186514E-01  9.13880482E-02  2.18223194E-01 -7.39040147E-03
  1.66011406E-01  3.32440970E-02  4.98776004E-02 -4.58935749E-01  6.91916178E-02
  7.76237110E-03  6.27979128E-02 -2.12349657E-01 -2.46122257E-01 -2.17640815E-01
 -1.81597209E-01 -5.38420796E-02 -1.50910612E-02  3.46151919E-02 -6.60511025E-02
 -7.91445881E-02 -1.18852888E-01  2.41200434E-01  1.75981411E-01 -8.05716312E-02
  8.15708390E-03  1.23044633E-01  1.55584531E-01  1.73376227E-01 -2.98869434E-01
  1.53165014E-01  4.34751989E-02 -4.24971772E-03 -1.77361420E-01 -1.60341793E-01
 -2.07457460E-01  1.07759292E-01  1.04617628E-01 -3.67774485E-02 -1.12671833E-01
  4.10812938E-01 -5.87298928E-02  1.42367335E-01  1.42501396E-01  2.45178413E-01
  2.73468902E-01 -2.34262312E-01  5.47722036E-02  1.21772936E-01  1.78912017E-01
 -1.61519017E-01 -1.19943162E-01 -1.85616825E-01  1.16237616E-01  6.89321505E-02
  1.21236954E-01  1.04079888E-02  7.99745953E-02  9.05341059E-02  9.16077974E-02
 -8.63064988E-02 -1.43138940E-01  1.10946290E-01 -1.25876466E-01 -7.35750869E-02
 -1.45585234E-01 -4.05490016E-02  3.73889149E-01 -4.84439359E-02 -2.47084067E-03
 -2.37486680E-01  3.11441872E-01 -2.63635280E-01 -8.18491495E-03  1.44930738E-01
 -2.51523099E-01 -2.40446793E-01 -2.23429414E-01  2.15350685E-01 -5.23873152E-02
  1.68362912E-01 -4.44791380E-02  1.95780450E-01  9.29470211E-02 -1.28051731E-01
  8.40846070E-02  1.31540947E-01  7.94908992E-02 -1.40080485E-01 -7.49807271E-02
 -5.89289842E-02 -1.67630294E-01 -1.19038213E-01 -2.10934038E-01 -1.08376234E-01
 -9.09782207E-02 -1.95881984E-01 -1.05656610E-01 -3.96517654E-03 -2.23434862E-02
  1.72872671E-01  2.49929839E-01 -1.30330490E-01  1.52449769E-01 -1.10364663E-01
  9.26171369E-02  1.06248775E-01  9.81537937E-02  3.43696599E-01 -2.09812254E-01
 -3.39881789E-02  3.17416130E-01  2.40365585E-01  1.06018193E-01  1.70116757E-01
 -2.06488548E-01 -1.91219346E-02 -7.60979622E-02  2.88121884E-01 -1.45890069E-04
  1.66038906E-01  1.82436273E-02  3.84945281E-02 -1.91991781E-01  1.65546965E-01
 -9.38048927E-02 -7.45025885E-02  1.93270978E-01 -5.55943067E-03 -5.34862194E-02
 -6.38149916E-02 -2.04411915E-01  2.72893792E-01 -9.20783413E-02  9.35135551E-02
 -2.13565751E-01 -4.90151879E-02 -1.10829323E-01  2.89581127E-01 -6.47198474E-02
 -1.79570926E-01 -7.77838248E-02 -1.15121841E-02  1.15841733E-01  2.83714477E-01
 -1.12766067E-02 -5.34862516E-02 -6.45273619E-03 -3.82499053E-02 -1.82608045E-02
 -1.48693638E-01  1.93775443E-01  6.51825892E-02  8.82302189E-02  2.14155280E-02
 -2.84809551E-01 -1.79228151E-01  2.89529932E-01 -1.94006981E-01  2.87960549E-01
 -1.73283873E-03 -2.19862244E-01 -1.36071109E-01  2.50462855E-01  1.54377264E-01
  5.37039826E-02 -2.23945318E-01  9.08272979E-04  2.28726863E-01 -2.21743473E-01
 -5.42481207E-02 -2.22250777E-01  8.76056577E-03  9.98188400E-02  1.10095642E-02
  3.95953214E-01  2.54090314E-01 -1.21978065E-01 -2.39395226E-01  5.99870831E-02
  2.90354475E-01 -2.44875806E-02  9.41417309E-02  2.80821969E-01 -7.88143111E-02
 -5.27893330E-03  5.63701956E-02 -1.88434703E-01  2.70786757E-01  1.32593919E-01
  1.21070852E-01 -1.40841222E-01 -8.28613038E-03  2.90374147E-01 -7.49103626E-02
  3.99165700E-02 -3.53107605E-02 -9.62485345E-02  1.78563524E-02  1.58572292E-01
 -1.83880067E-01 -1.89332090E-01  7.72171833E-02 -1.25113079E-01  1.75310809E-01
 -3.73346529E-02 -4.22129171E-03 -2.68712706E-01 -9.16293271E-02 -1.29693810E-01
 -1.06596595E-01 -4.99669315E-03  1.81223597E-03 -1.77090793E-02  1.50011415E-01
  2.80213400E-01 -1.16631301E-01  1.79116834E-01 -1.25532539E-01  2.96725562E-02
  4.74426448E-02 -1.91921606E-02  2.01501869E-01 -1.24647701E-01 -5.65115014E-02
 -8.68268145E-02 -6.24644806E-02 -3.10925266E-01 -2.54339255E-01  8.56582895E-03
  1.01635206E-01  4.70334107E-03 -2.44659342E-01 -2.29983817E-01 -9.24604602E-02
 -8.82404307E-02  4.33931576E-03  3.74586916E-01 -1.11826137E-01  2.26153493E-01
  5.24970950E-02 -2.93694643E-01 -1.14502830E-03  1.44836999E-02  1.56530868E-01
 -8.95693327E-02  2.64829289E-01 -1.40755128E-01  2.04215345E-01 -6.84438097E-02
 -2.15629683E-02 -9.01585895E-02  1.89629424E-01 -1.02173697E-01 -1.08489684E-01
 -9.01268883E-02  2.34468915E-02 -5.05629749E-02  1.69393037E-01 -1.75453114E-01
 -2.97700600E-02 -2.39544855E-02  5.18583191E-02 -6.62923433E-03 -1.85609986E-01
  9.02134863E-02  4.34598177E-02  1.51282567E-01  2.14236033E-02  2.70008968E-02
  1.43049950E-01 -2.01537623E-01  1.25022019E-01 -1.23393263E-01  1.03696778E-03
  1.72770121E-01  3.85662414E-01 -2.22880248E-01 -3.18212529E-01  5.40870577E-02
  1.99380761E-01 -1.20264007E-02  4.42105865E-01 -4.93021057E-03 -9.12900842E-02
 -2.29934760E-01  7.32703780E-02  2.51891934E-01  9.72288488E-03 -2.45919695E-01
 -1.22420678E-01 -3.97361273E-01  1.74367869E-01 -3.34665285E-01  5.70795299E-02
  7.55972949E-03  6.39849301E-02 -1.48523998E-01 -9.43168411E-04  7.14546909E-03
 -3.85112413E-02 -2.30306917E-02  1.86181142E-01  4.49992347E-02  4.85563006E-02
 -1.44270026E-01  1.68836822E-02  1.08826615E-01  5.84256513E-02  1.39693751E-01
  3.40891213E-02  5.03998194E-02 -5.70410263E-03  7.04695489E-02 -2.26690058E-01
 -1.41777158E-01  1.21521012E-01 -1.10035976E-01  1.10725521E-01 -5.11007157E-03
  1.72251174E-01  3.72895830E-02  4.45521482E-01 -1.09962992E-01  3.39149669E-01