 Entering Gaussian System, Link 0=/share/apps/g09/g09
 Input=C6H14_2_03_1_opt_PM6.gjf
 Output=C6H14_2_03_1_opt_PM6.log
 Initial command:
 /share/apps/g09/l1.exe /state/partition1/Gau-12312.inp -scrdir=/state/partition1/
 Entering Link 1 = /share/apps/g09/l1.exe PID=     12320.
  
 Copyright (c) 1988,1990,1992,1993,1995,1998,2003,2009, Gaussian, Inc.
                  All Rights Reserved.
  
 This is part of the Gaussian(R) 09 program.  It is based on
 the Gaussian(R) 03 system (copyright 2003, Gaussian, Inc.),
 the Gaussian(R) 98 system (copyright 1998, Gaussian, Inc.),
 the Gaussian(R) 94 system (copyright 1995, Gaussian, Inc.),
 the Gaussian 92(TM) system (copyright 1992, Gaussian, Inc.),
 the Gaussian 90(TM) system (copyright 1990, Gaussian, Inc.),
 the Gaussian 88(TM) system (copyright 1988, Gaussian, Inc.),
 the Gaussian 86(TM) system (copyright 1986, Carnegie Mellon
 University), and the Gaussian 82(TM) system (copyright 1983,
 Carnegie Mellon University). Gaussian is a federally registered
 trademark of Gaussian, Inc.
  
 This software contains proprietary and confidential information,
 including trade secrets, belonging to Gaussian, Inc.
  
 This software is provided under written license and may be
 used, copied, transmitted, or stored only in accord with that
 written license.
  
 The following legend is applicable only to US Government
 contracts under FAR:
  
                    RESTRICTED RIGHTS LEGEND
  
 Use, reproduction and disclosure by the US Government is
 subject to restrictions as set forth in subparagraphs (a)
 and (c) of the Commercial Computer Software - Restricted
 Rights clause in FAR 52.227-19.
  
 Gaussian, Inc.
 340 Quinnipiac St., Bldg. 40, Wallingford CT 06492
  
  
 ---------------------------------------------------------------
 Warning -- This program may not be used in any manner that
 competes with the business of Gaussian, Inc. or will provide
 assistance to any competitor of Gaussian, Inc.  The licensee
 of this program is prohibited from giving any competitor of
 Gaussian, Inc. access to this program.  By using this program,
 the user acknowledges that Gaussian, Inc. is engaged in the
 business of creating and licensing software in the field of
 computational chemistry and represents and warrants to the
 licensee that it is not a competitor of Gaussian, Inc. and that
 it will not use this program in any manner prohibited above.
 ---------------------------------------------------------------
  

 Cite this work as:
 Gaussian 09, Revision A.01,
 M. J. Frisch, G. W. Trucks, H. B. Schlegel, G. E. Scuseria, 
 M. A. Robb, J. R. Cheeseman, G. Scalmani, V. Barone, B. Mennucci, 
 G. A. Petersson, H. Nakatsuji, M. Caricato, X. Li, H. P. Hratchian, 
 A. F. Izmaylov, J. Bloino, G. Zheng, J. L. Sonnenberg, M. Hada, 
 M. Ehara, K. Toyota, R. Fukuda, J. Hasegawa, M. Ishida, T. Nakajima, 
 Y. Honda, O. Kitao, H. Nakai, T. Vreven, J. A. Montgomery, Jr., 
 J. E. Peralta, F. Ogliaro, M. Bearpark, J. J. Heyd, E. Brothers, 
 K. N. Kudin, V. N. Staroverov, R. Kobayashi, J. Normand, 
 K. Raghavachari, A. Rendell, J. C. Burant, S. S. Iyengar, J. Tomasi, 
 M. Cossi, N. Rega, J. M. Millam, M. Klene, J. E. Knox, J. B. Cross, 
 V. Bakken, C. Adamo, J. Jaramillo, R. Gomperts, R. E. Stratmann, 
 O. Yazyev, A. J. Austin, R. Cammi, C. Pomelli, J. W. Ochterski, 
 R. L. Martin, K. Morokuma, V. G. Zakrzewski, G. A. Voth, 
 P. Salvador, J. J. Dannenberg, S. Dapprich, A. D. Daniels, 
 O. Farkas, J. B. Foresman, J. V. Ortiz, J. Cioslowski, 
 and D. J. Fox, Gaussian, Inc., Wallingford CT, 2009.
 
 ******************************************
 Gaussian 09:  EM64L-G09RevA.01  8-May-2009
                14-Sep-2015 
 ******************************************
 %mem=3GB
 %nprocshared=2
 Will use up to    2 processors via shared memory.
 %chk=C6H14_2_03_1_opt_PM6.chk
 ----------
 #p PM6 opt
 ----------
 1/14=-1,18=20,19=15,26=1,38=1/1,3;
 2/9=110,12=2,17=6,18=5,40=1/2;
 3/5=2,16=1,25=1,41=3900000,71=1/1,2,3;
 4/35=1/1;
 5/5=2,35=1,38=5/2;
 6/7=2,8=2,9=2,10=2,28=1/1;
 7//1,2,3,16;
 1/14=-1,18=20,19=15/3(2);
 2/9=110/2;
 99//99;
 2/9=110/2;
 3/5=2,16=1,25=1,41=3900000,71=1,135=20/1,2,3;
 4/5=5,16=3,35=1/1;
 5/5=2,35=1,38=5/2;
 7//1,2,3,16;
 1/14=-1,18=20,19=15/3(-5);
 2/9=110/2;
 6/7=2,8=2,9=2,10=2,19=2,28=1/1;
 99/9=1/99;
 Leave Link    1 at Mon Sep 14 19:12:09 2015, MaxMem=  402653184 cpu:       3.0
 (Enter /share/apps/g09/l101.exe)
 ----------------------------------
 using PM6 to do opt and freq calc.
 ----------------------------------
 Symbolic Z-matrix:
 Charge =  0 Multiplicity = 1
 C                     0.4609   -2.5393    1.6021 
 H                     0.5694   -1.9177    2.5203 
 H                     1.4198   -2.5102    1.0352 
 H                     0.2655   -3.589     1.9201 
 C                    -0.6968   -2.0178    0.7377 
 H                    -1.6187   -2.0911    1.36 
 C                    -0.4612   -0.5335    0.3704 
 H                     0.4881   -0.4534   -0.2095 
 H                    -0.323     0.0507    1.3107 
 C                    -1.5652    0.1584   -0.4478 
 H                    -1.6636   -0.3241   -1.4465 
 H                    -1.2484    1.2128   -0.6227 
 C                    -2.9312    0.188     0.2359 
 H                    -2.8461    0.6253    1.2566 
 H                    -3.6316    0.8131   -0.363 
 H                    -3.3558   -0.8382    0.309 
 C                    -0.8833   -2.9179   -0.4933 
 H                    -1.8102   -2.6413   -1.0436 
 H                    -0.0125   -2.8263   -1.1819 
 H                    -0.9842   -3.9833   -0.1837 
 
 NAtoms=     20 NQM=     20 NQMF=      0 NMic=      0 NMicF=      0 NTot=     20.
                    Isotopes and Nuclear Properties:
 (Nuclear quadrupole moments (NQMom) in fm**2, nuclear magnetic moments (NMagM)
  in nuclear magnetons)

  Atom         1           2           3           4           5           6           7           8           9          10
 IAtWgt=          12           1           1           1          12           1          12           1           1          12
 AtmWgt=  12.0000000   1.0078250   1.0078250   1.0078250  12.0000000   1.0078250  12.0000000   1.0078250   1.0078250  12.0000000
 NucSpn=           0           1           1           1           0           1           0           1           1           0
 AtZEff=   0.0000000   0.0000000   0.0000000   0.0000000   0.0000000   0.0000000   0.0000000   0.0000000   0.0000000   0.0000000
 NQMom=    0.0000000   0.0000000   0.0000000   0.0000000   0.0000000   0.0000000   0.0000000   0.0000000   0.0000000   0.0000000
 NMagM=    0.0000000   2.7928460   2.7928460   2.7928460   0.0000000   2.7928460   0.0000000   2.7928460   2.7928460   0.0000000

  Atom        11          12          13          14          15          16          17          18          19          20
 IAtWgt=           1           1          12           1           1           1          12           1           1           1
 AtmWgt=   1.0078250   1.0078250  12.0000000   1.0078250   1.0078250   1.0078250  12.0000000   1.0078250   1.0078250   1.0078250
 NucSpn=           1           1           0           1           1           1           0           1           1           1
 AtZEff=   0.0000000   0.0000000   0.0000000   0.0000000   0.0000000   0.0000000   0.0000000   0.0000000   0.0000000   0.0000000
 NQMom=    0.0000000   0.0000000   0.0000000   0.0000000   0.0000000   0.0000000   0.0000000   0.0000000   0.0000000   0.0000000
 NMagM=    2.7928460   2.7928460   0.0000000   2.7928460   2.7928460   2.7928460   0.0000000   2.7928460   2.7928460   2.7928460
 Leave Link  101 at Mon Sep 14 19:12:12 2015, MaxMem=  402653184 cpu:       0.1
 (Enter /share/apps/g09/l103.exe)

 GradGradGradGradGradGradGradGradGradGradGradGradGradGradGradGradGradGrad
 Berny optimization.
 Initialization pass.
                           ----------------------------
                           !    Initial Parameters    !
                           ! (Angstroms and Degrees)  !
 --------------------------                            --------------------------
 ! Name  Definition              Value          Derivative Info.                !
 --------------------------------------------------------------------------------
 ! R1    R(1,2)                  1.1141         estimate D2E/DX2                !
 ! R2    R(1,3)                  1.1143         estimate D2E/DX2                !
 ! R3    R(1,4)                  1.1141         estimate D2E/DX2                !
 ! R4    R(1,5)                  1.536          estimate D2E/DX2                !
 ! R5    R(5,6)                  1.1147         estimate D2E/DX2                !
 ! R6    R(5,7)                  1.5471         estimate D2E/DX2                !
 ! R7    R(5,17)                 1.5363         estimate D2E/DX2                !
 ! R8    R(7,8)                  1.1153         estimate D2E/DX2                !
 ! R9    R(7,9)                  1.1156         estimate D2E/DX2                !
 ! R10   R(7,10)                 1.5385         estimate D2E/DX2                !
 ! R11   R(10,11)                1.1135         estimate D2E/DX2                !
 ! R12   R(10,12)                1.1148         estimate D2E/DX2                !
 ! R13   R(10,13)                1.5278         estimate D2E/DX2                !
 ! R14   R(13,14)                1.1137         estimate D2E/DX2                !
 ! R15   R(13,15)                1.1135         estimate D2E/DX2                !
 ! R16   R(13,16)                1.113          estimate D2E/DX2                !
 ! R17   R(17,18)                1.1129         estimate D2E/DX2                !
 ! R18   R(17,19)                1.1139         estimate D2E/DX2                !
 ! R19   R(17,20)                1.1141         estimate D2E/DX2                !
 ! A1    A(2,1,3)              108.7177         estimate D2E/DX2                !
 ! A2    A(2,1,4)              107.9103         estimate D2E/DX2                !
 ! A3    A(2,1,5)              110.3507         estimate D2E/DX2                !
 ! A4    A(3,1,4)              108.7081         estimate D2E/DX2                !
 ! A5    A(3,1,5)              110.6961         estimate D2E/DX2                !
 ! A6    A(4,1,5)              110.3851         estimate D2E/DX2                !
 ! A7    A(1,5,6)              106.6693         estimate D2E/DX2                !
 ! A8    A(1,5,7)              110.1544         estimate D2E/DX2                !
 ! A9    A(1,5,17)             110.0895         estimate D2E/DX2                !
 ! A10   A(6,5,7)              108.7581         estimate D2E/DX2                !
 ! A11   A(6,5,17)             107.9626         estimate D2E/DX2                !
 ! A12   A(7,5,17)             112.9761         estimate D2E/DX2                !
 ! A13   A(5,7,8)              108.7818         estimate D2E/DX2                !
 ! A14   A(5,7,9)              108.7334         estimate D2E/DX2                !
 ! A15   A(5,7,10)             116.644          estimate D2E/DX2                !
 ! A16   A(8,7,9)              107.1696         estimate D2E/DX2                !
 ! A17   A(8,7,10)             107.5756         estimate D2E/DX2                !
 ! A18   A(9,7,10)             107.5561         estimate D2E/DX2                !
 ! A19   A(7,10,11)            110.2138         estimate D2E/DX2                !
 ! A20   A(7,10,12)            107.751          estimate D2E/DX2                !
 ! A21   A(7,10,13)            114.3493         estimate D2E/DX2                !
 ! A22   A(11,10,12)           107.1124         estimate D2E/DX2                !
 ! A23   A(11,10,13)           109.314          estimate D2E/DX2                !
 ! A24   A(12,10,13)           107.8163         estimate D2E/DX2                !
 ! A25   A(10,13,14)           110.4519         estimate D2E/DX2                !
 ! A26   A(10,13,15)           109.4239         estimate D2E/DX2                !
 ! A27   A(10,13,16)           110.6475         estimate D2E/DX2                !
 ! A28   A(14,13,15)           108.697          estimate D2E/DX2                !
 ! A29   A(14,13,16)           109.3295         estimate D2E/DX2                !
 ! A30   A(15,13,16)           108.2377         estimate D2E/DX2                !
 ! A31   A(5,17,18)            110.5914         estimate D2E/DX2                !
 ! A32   A(5,17,19)            110.6243         estimate D2E/DX2                !
 ! A33   A(5,17,20)            110.4024         estimate D2E/DX2                !
 ! A34   A(18,17,19)           108.9646         estimate D2E/DX2                !
 ! A35   A(18,17,20)           107.4382         estimate D2E/DX2                !
 ! A36   A(19,17,20)           108.7375         estimate D2E/DX2                !
 ! D1    D(2,1,5,6)            -60.4751         estimate D2E/DX2                !
 ! D2    D(2,1,5,7)             57.3953         estimate D2E/DX2                !
 ! D3    D(2,1,5,17)          -177.3661         estimate D2E/DX2                !
 ! D4    D(3,1,5,6)            179.1265         estimate D2E/DX2                !
 ! D5    D(3,1,5,7)            -63.0031         estimate D2E/DX2                !
 ! D6    D(3,1,5,17)            62.2355         estimate D2E/DX2                !
 ! D7    D(4,1,5,6)             58.7175         estimate D2E/DX2                !
 ! D8    D(4,1,5,7)            176.588          estimate D2E/DX2                !
 ! D9    D(4,1,5,17)           -58.1735         estimate D2E/DX2                !
 ! D10   D(1,5,7,8)             60.662          estimate D2E/DX2                !
 ! D11   D(1,5,7,9)            -55.7342         estimate D2E/DX2                !
 ! D12   D(1,5,7,10)          -177.5038         estimate D2E/DX2                !
 ! D13   D(6,5,7,8)            177.2354         estimate D2E/DX2                !
 ! D14   D(6,5,7,9)             60.8392         estimate D2E/DX2                !
 ! D15   D(6,5,7,10)           -60.9304         estimate D2E/DX2                !
 ! D16   D(17,5,7,8)           -62.9133         estimate D2E/DX2                !
 ! D17   D(17,5,7,9)          -179.3095         estimate D2E/DX2                !
 ! D18   D(17,5,7,10)           58.9209         estimate D2E/DX2                !
 ! D19   D(1,5,17,18)          171.5407         estimate D2E/DX2                !
 ! D20   D(1,5,17,19)          -67.6397         estimate D2E/DX2                !
 ! D21   D(1,5,17,20)           52.7705         estimate D2E/DX2                !
 ! D22   D(6,5,17,18)           55.459          estimate D2E/DX2                !
 ! D23   D(6,5,17,19)          176.2785         estimate D2E/DX2                !
 ! D24   D(6,5,17,20)          -63.3112         estimate D2E/DX2                !
 ! D25   D(7,5,17,18)          -64.8482         estimate D2E/DX2                !
 ! D26   D(7,5,17,19)           55.9714         estimate D2E/DX2                !
 ! D27   D(7,5,17,20)          176.3817         estimate D2E/DX2                !
 ! D28   D(5,7,10,11)          -63.733          estimate D2E/DX2                !
 ! D29   D(5,7,10,12)          179.709          estimate D2E/DX2                !
 ! D30   D(5,7,10,13)           59.8742         estimate D2E/DX2                !
 ! D31   D(8,7,10,11)           58.7315         estimate D2E/DX2                !
 ! D32   D(8,7,10,12)          -57.8265         estimate D2E/DX2                !
 ! D33   D(8,7,10,13)         -177.6614         estimate D2E/DX2                !
 ! D34   D(9,7,10,11)          173.8818         estimate D2E/DX2                !
 ! D35   D(9,7,10,12)           57.3238         estimate D2E/DX2                !
 ! D36   D(9,7,10,13)          -62.511          estimate D2E/DX2                !
 ! D37   D(7,10,13,14)          53.3355         estimate D2E/DX2                !
 ! D38   D(7,10,13,15)         172.9578         estimate D2E/DX2                !
 ! D39   D(7,10,13,16)         -67.8657         estimate D2E/DX2                !
 ! D40   D(11,10,13,14)        177.4248         estimate D2E/DX2                !
 ! D41   D(11,10,13,15)        -62.9529         estimate D2E/DX2                !
 ! D42   D(11,10,13,16)         56.2236         estimate D2E/DX2                !
 ! D43   D(12,10,13,14)        -66.4628         estimate D2E/DX2                !
 ! D44   D(12,10,13,15)         53.1595         estimate D2E/DX2                !
 ! D45   D(12,10,13,16)        172.336          estimate D2E/DX2                !
 --------------------------------------------------------------------------------
 Trust Radius=3.00D-01 FncErr=1.00D-07 GrdErr=1.00D-07
 Number of steps in this run= 110 maximum allowed number of steps= 120.
 GradGradGradGradGradGradGradGradGradGradGradGradGradGradGradGradGradGrad

 Leave Link  103 at Mon Sep 14 19:12:18 2015, MaxMem=  402653184 cpu:       0.0
 (Enter /share/apps/g09/l202.exe)
                          Input orientation:                          
 ---------------------------------------------------------------------
 Center     Atomic      Atomic             Coordinates (Angstroms)
 Number     Number       Type             X           Y           Z
 ---------------------------------------------------------------------
      1          6           0        0.460900   -2.539300    1.602100
      2          1           0        0.569400   -1.917700    2.520300
      3          1           0        1.419800   -2.510200    1.035200
      4          1           0        0.265500   -3.589000    1.920100
      5          6           0       -0.696800   -2.017800    0.737700
      6          1           0       -1.618700   -2.091100    1.360000
      7          6           0       -0.461200   -0.533500    0.370400
      8          1           0        0.488100   -0.453400   -0.209500
      9          1           0       -0.323000    0.050700    1.310700
     10          6           0       -1.565200    0.158400   -0.447800
     11          1           0       -1.663600   -0.324100   -1.446500
     12          1           0       -1.248400    1.212800   -0.622700
     13          6           0       -2.931200    0.188000    0.235900
     14          1           0       -2.846100    0.625300    1.256600
     15          1           0       -3.631600    0.813100   -0.363000
     16          1           0       -3.355800   -0.838200    0.309000
     17          6           0       -0.883300   -2.917900   -0.493300
     18          1           0       -1.810200   -2.641300   -1.043600
     19          1           0       -0.012500   -2.826300   -1.181900
     20          1           0       -0.984200   -3.983300   -0.183700
 ---------------------------------------------------------------------
                    Distance matrix (angstroms):
                    1          2          3          4          5
     1  C    0.000000
     2  H    1.114114   0.000000
     3  H    1.114321   1.811010   0.000000
     4  H    1.114080   1.801621   1.810874   0.000000
     5  C    1.536040   2.188823   2.193390   2.189237   0.000000
     6  H    2.141082   2.482770   3.084416   2.471361   1.114688
     7  C    2.527961   2.756849   2.808463   3.502248   1.547114
     8  H    2.762899   3.098805   2.578327   3.796937   2.179111
     9  H    2.721675   2.476713   3.109897   3.736993   2.178703
    10  C    3.947753   4.204322   4.269770   4.795980   2.625905
    11  H    4.326034   4.823002   4.521639   5.070995   2.928148
    12  H    4.685050   4.794046   4.871206   5.640479   3.548482
    13  C    4.561909   4.680455   5.181734   5.226964   3.179607
    14  H    4.590241   4.441782   5.298894   5.280399   3.445972
    15  H    5.643471   5.780925   6.206120   6.307013   4.223575
    16  H    4.374134   4.632749   5.111683   4.824558   2.940327
    17  C    2.518117   3.491779   2.794065   2.755833   1.536334
    18  H    3.488270   4.345972   3.843370   3.740345   2.191219
    19  H    2.838509   3.856222   2.658371   3.206462   2.192442
    20  H    2.713399   3.740587   3.071637   2.478547   2.189696
                    6          7          8          9         10
     6  H    0.000000
     7  C    2.178355   0.000000
     8  H    3.095803   1.115289   0.000000
     9  H    2.503712   1.115595   1.795274   0.000000
    10  C    2.886391   1.538503   2.155720   2.155686   0.000000
    11  H    3.316737   2.188776   2.485297   3.088662   1.113504
    12  H    3.870914   2.157660   2.441800   2.438212   1.114770
    13  C    2.860167   2.576733   3.507333   2.824315   1.527834
    14  H    2.982622   2.795696   3.798675   2.588267   2.182586
    15  H    3.931269   3.521739   4.312715   3.785414   2.169293
    16  H    2.385765   2.911240   3.897753   3.315331   2.184538
    17  C    2.158502   2.570897   2.834615   3.518656   3.151298
    18  H    2.473193   2.874373   3.280977   3.873158   2.872860
    19  H    3.095425   2.804978   2.612818   3.819240   3.443576
    20  H    2.523097   3.532942   3.824726   4.352421   4.190583
                   11         12         13         14         15
    11  H    0.000000
    12  H    1.792512   0.000000
    13  C    2.167839   2.149238   0.000000
    14  H    3.099422   2.535660   1.113688   0.000000
    15  H    2.517979   2.430400   1.113549   1.809802   0.000000
    16  H    2.491911   3.084769   1.112976   1.816472   1.804007
    17  C    2.871456   4.148822   3.791074   4.412369   4.635784
    18  H    2.356530   3.917507   3.301318   4.127310   3.964038
    19  H    3.009510   4.260808   4.428879   5.088135   5.197472
    20  H    3.930139   5.221300   4.622404   5.174971   5.481453
                   16         17         18         19         20
    16  H    0.000000
    17  C    3.328978   0.000000
    18  H    2.733052   1.112871   0.000000
    19  H    4.165691   1.113936   1.812478   0.000000
    20  H    3.969747   1.114051   1.795179   1.810871   0.000000
 Stoichiometry    C6H14
 Framework group  C1[X(C6H14)]
 Deg. of freedom    54
 Full point group                 C1      NOp   1
 Largest Abelian subgroup         C1      NOp   1
 Largest concise Abelian subgroup C1      NOp   1
                         Standard orientation:                         
 ---------------------------------------------------------------------
 Center     Atomic      Atomic             Coordinates (Angstroms)
 Number     Number       Type             X           Y           Z
 ---------------------------------------------------------------------
      1          6           0        2.162004   -0.788017   -0.287112
      2          1           0        1.988743   -1.823934   -0.658738
      3          1           0        2.587642   -0.843526    0.741218
      4          1           0        2.908824   -0.304020   -0.957323
      5          6           0        0.847585    0.006792   -0.288403
      6          1           0        0.491487    0.034112   -1.344328
      7          6           0       -0.213024   -0.715603    0.575782
      8          1           0        0.165236   -0.787851    1.622477
      9          1           0       -0.334551   -1.757812    0.196856
     10          6           0       -1.611037   -0.075608    0.630162
     11          1           0       -1.555895    0.929244    1.106735
     12          1           0       -2.251641   -0.713352    1.282557
     13          6           0       -2.301325    0.046160   -0.727392
     14          1           0       -2.325250   -0.941339   -1.241759
     15          1           0       -3.347708    0.397612   -0.580569
     16          1           0       -1.773097    0.784313   -1.371457
     17          6           0        1.104826    1.452787    0.162425
     18          1           0        0.193275    2.075144    0.020202
     19          1           0        1.399495    1.482450    1.236271
     20          1           0        1.919259    1.909890   -0.444917
 ---------------------------------------------------------------------
 Rotational constants (GHZ):      5.4667378      1.9461714      1.7569489
 Leave Link  202 at Mon Sep 14 19:12:18 2015, MaxMem=  402653184 cpu:       0.0
 (Enter /share/apps/g09/l301.exe)
 Standard basis: VSTO-6G (5D, 7F)
 Ernie: Thresh=  0.10000D-02 Tol=  0.10000D-05 Strict=F.
  NNHCO=     0 NNPyr=     0 NCTC=     0               EPep=         0.000000000
    EC=       129.592366803  ECS=         3.136285630   EG=         0.305827884
   EHC=         0.000407955  EAt=       -31.187935768  AtH=         2.796400831
 EPDDG=         0.000000000  ECC=       133.034888272 EAtT=        33.984336599
 There are    38 symmetry adapted basis functions of A   symmetry.
 Integral buffers will be    131072 words long.
 Regular integral format.
 Two-electron integral symmetry is turned off.
    38 basis functions,   228 primitive gaussians,    38 cartesian basis functions
    19 alpha electrons       19 beta electrons
       nuclear repulsion energy       167.0192248715 Hartrees.
 IExCor=    0 DFT=F Ex=HF Corr=None ExCW=0 ScaHFX=  1.000000
 ScaDFX=  1.000000  1.000000  1.000000  1.000000 ScalE2=  1.000000  1.000000
 IRadAn=      0 IRanWt=     -1 IRanGd=            0 ICorTp=0
 Leave Link  301 at Mon Sep 14 19:12:18 2015, MaxMem=  402653184 cpu:       0.2
 (Enter /share/apps/g09/l302.exe)
 Do NDO integrals.
 NPDir=0 NMtPBC=     1 NCelOv=     1 NCel=       1 NClECP=     1 NCelD=      1
         NCelK=      1 NCelE2=     1 NClLst=     1 CellRange=     0.0.
 One-electron integrals computed using PRISM.
 NBasis=    38 RedAO= F  NBF=    38
 NBsUse=    38 1.00D-04 NBFU=    38
 Leave Link  302 at Mon Sep 14 19:12:18 2015, MaxMem=  402653184 cpu:       0.1
 (Enter /share/apps/g09/l303.exe)
 DipDrv:  MaxL=1.
 Leave Link  303 at Mon Sep 14 19:12:21 2015, MaxMem=  402653184 cpu:       0.0
 (Enter /share/apps/g09/l401.exe)
 Simple Huckel Guess.
 Initial guess orbital symmetries:
       Occupied  (A) (A) (A) (A) (A) (A) (A) (A) (A) (A) (A) (A)
                 (A) (A) (A) (A) (A) (A) (A)
       Virtual   (A) (A) (A) (A) (A) (A) (A) (A) (A) (A) (A) (A)
                 (A) (A) (A) (A) (A) (A) (A)
 The electronic state of the initial guess is 1-A.
 Leave Link  401 at Mon Sep 14 19:12:22 2015, MaxMem=  402653184 cpu:       0.1
 (Enter /share/apps/g09/l502.exe)
 Closed shell SCF:
 Requested convergence on RMS density matrix=1.00D-08 within 128 cycles.
 Requested convergence on MAX density matrix=1.00D-06.
 Requested convergence on             energy=1.00D-06.
 No special actions if energy rises.
 Using DIIS extrapolation, IDIIS=  1040.
 Overlap will be assumed to be unity.
 Two-electron integral symmetry not used.
 Keep J ints in memory in canonical form, NReq=884654.
 IEnd=       81865 IEndB=       81865 NGot=   402653184 MDV=   402586639
 LenX=   402586639 LenY=   402584754
 Symmetry not used in FoFDir.
 MinBra= 0 MaxBra= 1 Meth=40.
 IRaf=       0 NMat=   1 IRICut=       1 DoRegI=T DoRafI=F ISym2E= 0 JSym2E=0.

 Cycle   1  Pass 1  IDiag  1:
 E= 0.729871503694710E-01
 DIIS: error= 2.20D-02 at cycle   1 NSaved=   1.
 NSaved= 1 IEnMin= 1 EnMin= 0.729871503694710E-01 IErMin= 1 ErrMin= 2.20D-02
 ErrMax= 2.20D-02 EMaxC= 1.00D-01 BMatC= 4.38D-02 BMatP= 4.38D-02
 IDIUse=3 WtCom= 7.80D-01 WtEn= 2.20D-01
 Coeff-Com:  0.100D+01
 Coeff-En:   0.100D+01
 Coeff:      0.100D+01
 GapD=    2.000 DampG=2.000 DampE=0.500 DampFc=1.0000 IDamp=-1.
 RMSDP=8.41D-03 MaxDP=6.94D-02              OVMax= 0.00D+00

 Cycle   2  Pass 1  IDiag  1:
 E=-0.430727583528210E-01 Delta-E=       -0.116059908722 Rises=F Damp=F
 DIIS: error= 5.37D-03 at cycle   2 NSaved=   2.
 NSaved= 2 IEnMin= 2 EnMin=-0.430727583528210E-01 IErMin= 2 ErrMin= 5.37D-03
 ErrMax= 5.37D-03 EMaxC= 1.00D-01 BMatC= 2.97D-03 BMatP= 4.38D-02
 IDIUse=3 WtCom= 9.46D-01 WtEn= 5.37D-02
 Coeff-Com: -0.315D+00 0.131D+01
 Coeff-En:   0.000D+00 0.100D+01
 Coeff:     -0.298D+00 0.130D+01
 RMSDP=3.06D-03 MaxDP=2.15D-02 DE=-1.16D-01 OVMax= 0.00D+00

 Cycle   3  Pass 1  IDiag  3:
 E=-0.530483984197190E-01 Delta-E=       -0.009975640067 Rises=F Damp=F
 DIIS: error= 1.63D-03 at cycle   3 NSaved=   3.
 NSaved= 3 IEnMin= 3 EnMin=-0.530483984197190E-01 IErMin= 3 ErrMin= 1.63D-03
 ErrMax= 1.63D-03 EMaxC= 1.00D-01 BMatC= 1.43D-04 BMatP= 2.97D-03
 IDIUse=3 WtCom= 9.84D-01 WtEn= 1.63D-02
 Coeff-Com:  0.243D+00-0.108D+01 0.183D+01
 Coeff-En:   0.000D+00 0.000D+00 0.100D+01
 Coeff:      0.239D+00-0.106D+01 0.182D+01
 Gap=     0.552 Goal=   None    Shift=    0.000
 RMSDP=1.21D-03 MaxDP=1.27D-02 DE=-9.98D-03 OVMax= 0.00D+00

 Cycle   4  Pass 1  IDiag  3:
 E=-0.540362408618478E-01 Delta-E=       -0.000987842442 Rises=F Damp=F
 DIIS: error= 5.86D-04 at cycle   4 NSaved=   4.
 NSaved= 4 IEnMin= 4 EnMin=-0.540362408618478E-01 IErMin= 4 ErrMin= 5.86D-04
 ErrMax= 5.86D-04 EMaxC= 1.00D-01 BMatC= 1.55D-05 BMatP= 1.43D-04
 IDIUse=3 WtCom= 9.94D-01 WtEn= 5.86D-03
 Coeff-Com: -0.146D+00 0.659D+00-0.140D+01 0.188D+01
 Coeff-En:   0.000D+00 0.000D+00 0.000D+00 0.100D+01
 Coeff:     -0.145D+00 0.655D+00-0.139D+01 0.188D+01
 Gap=     0.553 Goal=   None    Shift=    0.000
 RMSDP=5.44D-04 MaxDP=5.47D-03 DE=-9.88D-04 OVMax= 0.00D+00

 Cycle   5  Pass 1  IDiag  3:
 E=-0.541681280860189E-01 Delta-E=       -0.000131887224 Rises=F Damp=F
 DIIS: error= 2.00D-04 at cycle   5 NSaved=   5.
 NSaved= 5 IEnMin= 5 EnMin=-0.541681280860189E-01 IErMin= 5 ErrMin= 2.00D-04
 ErrMax= 2.00D-04 EMaxC= 1.00D-01 BMatC= 1.16D-06 BMatP= 1.55D-05
 IDIUse=3 WtCom= 9.98D-01 WtEn= 2.00D-03
 Coeff-Com:  0.974D-01-0.443D+00 0.986D+00-0.154D+01 0.189D+01
 Coeff-En:   0.000D+00 0.000D+00 0.000D+00 0.000D+00 0.100D+01
 Coeff:      0.972D-01-0.442D+00 0.984D+00-0.153D+01 0.189D+01
 Gap=     0.553 Goal=   None    Shift=    0.000
 RMSDP=1.45D-04 MaxDP=1.70D-03 DE=-1.32D-04 OVMax= 0.00D+00

 Cycle   6  Pass 1  IDiag  3:
 E=-0.541776492805184E-01 Delta-E=       -0.000009521194 Rises=F Damp=F
 DIIS: error= 3.92D-05 at cycle   6 NSaved=   6.
 NSaved= 6 IEnMin= 6 EnMin=-0.541776492805184E-01 IErMin= 6 ErrMin= 3.92D-05
 ErrMax= 3.92D-05 EMaxC= 1.00D-01 BMatC= 7.31D-08 BMatP= 1.16D-06
 IDIUse=1 WtCom= 1.00D+00 WtEn= 0.00D+00
 Coeff-Com: -0.725D-02 0.337D-01-0.870D-01 0.168D+00-0.414D+00 0.131D+01
 Coeff:     -0.725D-02 0.337D-01-0.870D-01 0.168D+00-0.414D+00 0.131D+01
 Gap=     0.553 Goal=   None    Shift=    0.000
 RMSDP=3.06D-05 MaxDP=3.24D-04 DE=-9.52D-06 OVMax= 0.00D+00

 Cycle   7  Pass 1  IDiag  3:
 E=-0.541781705219364E-01 Delta-E=       -0.000000521241 Rises=F Damp=F
 DIIS: error= 1.84D-05 at cycle   7 NSaved=   7.
 NSaved= 7 IEnMin= 7 EnMin=-0.541781705219364E-01 IErMin= 7 ErrMin= 1.84D-05
 ErrMax= 1.84D-05 EMaxC= 1.00D-01 BMatC= 8.78D-09 BMatP= 7.31D-08
 IDIUse=1 WtCom= 1.00D+00 WtEn= 0.00D+00
 Coeff-Com:  0.256D-02-0.121D-01 0.325D-01-0.638D-01 0.173D+00-0.813D+00
 Coeff-Com:  0.168D+01
 Coeff:      0.256D-02-0.121D-01 0.325D-01-0.638D-01 0.173D+00-0.813D+00
 Coeff:      0.168D+01
 Gap=     0.553 Goal=   None    Shift=    0.000
 RMSDP=1.12D-05 MaxDP=1.40D-04 DE=-5.21D-07 OVMax= 0.00D+00

 Cycle   8  Pass 1  IDiag  3:
 E=-0.541782328093348E-01 Delta-E=       -0.000000062287 Rises=F Damp=F
 DIIS: error= 5.20D-06 at cycle   8 NSaved=   8.
 NSaved= 8 IEnMin= 8 EnMin=-0.541782328093348E-01 IErMin= 8 ErrMin= 5.20D-06
 ErrMax= 5.20D-06 EMaxC= 1.00D-01 BMatC= 5.67D-10 BMatP= 8.78D-09
 IDIUse=1 WtCom= 1.00D+00 WtEn= 0.00D+00
 Coeff-Com: -0.662D-03 0.332D-02-0.112D-01 0.263D-01-0.879D-01 0.496D+00
 Coeff-Com: -0.122D+01 0.179D+01
 Coeff:     -0.662D-03 0.332D-02-0.112D-01 0.263D-01-0.879D-01 0.496D+00
 Coeff:     -0.122D+01 0.179D+01
 Gap=     0.553 Goal=   None    Shift=    0.000
 RMSDP=2.80D-06 MaxDP=3.70D-05 DE=-6.23D-08 OVMax= 0.00D+00

 Cycle   9  Pass 1  IDiag  3:
 E=-0.541782366621248E-01 Delta-E=       -0.000000003853 Rises=F Damp=F
 DIIS: error= 7.49D-07 at cycle   9 NSaved=   9.
 NSaved= 9 IEnMin= 9 EnMin=-0.541782366621248E-01 IErMin= 9 ErrMin= 7.49D-07
 ErrMax= 7.49D-07 EMaxC= 1.00D-01 BMatC= 2.07D-11 BMatP= 5.67D-10
 IDIUse=1 WtCom= 1.00D+00 WtEn= 0.00D+00
 Coeff-Com: -0.722D-04 0.212D-03 0.947D-03-0.469D-02 0.244D-01-0.166D+00
 Coeff-Com:  0.433D+00-0.760D+00 0.147D+01
 Coeff:     -0.722D-04 0.212D-03 0.947D-03-0.469D-02 0.244D-01-0.166D+00
 Coeff:      0.433D+00-0.760D+00 0.147D+01
 Gap=     0.553 Goal=   None    Shift=    0.000
 RMSDP=4.50D-07 MaxDP=4.57D-06 DE=-3.85D-09 OVMax= 0.00D+00

 Cycle  10  Pass 1  IDiag  3:
 E=-0.541782367928363E-01 Delta-E=       -0.000000000131 Rises=F Damp=F
 DIIS: error= 2.75D-07 at cycle  10 NSaved=  10.
 NSaved=10 IEnMin=10 EnMin=-0.541782367928363E-01 IErMin=10 ErrMin= 2.75D-07
 ErrMax= 2.75D-07 EMaxC= 1.00D-01 BMatC= 2.42D-12 BMatP= 2.07D-11
 IDIUse=1 WtCom= 1.00D+00 WtEn= 0.00D+00
 Coeff-Com:  0.358D-04-0.802D-04-0.833D-03 0.357D-02-0.176D-01 0.119D+00
 Coeff-Com: -0.311D+00 0.561D+00-0.130D+01 0.195D+01
 Coeff:      0.358D-04-0.802D-04-0.833D-03 0.357D-02-0.176D-01 0.119D+00
 Coeff:     -0.311D+00 0.561D+00-0.130D+01 0.195D+01
 Gap=     0.553 Goal=   None    Shift=    0.000
 RMSDP=1.91D-07 MaxDP=2.32D-06 DE=-1.31D-10 OVMax= 0.00D+00

 Cycle  11  Pass 1  IDiag  3:
 E=-0.541782368108557E-01 Delta-E=       -0.000000000018 Rises=F Damp=F
 DIIS: error= 5.26D-08 at cycle  11 NSaved=  11.
 NSaved=11 IEnMin=11 EnMin=-0.541782368108557E-01 IErMin=11 ErrMin= 5.26D-08
 ErrMax= 5.26D-08 EMaxC= 1.00D-01 BMatC= 1.32D-13 BMatP= 2.42D-12
 IDIUse=1 WtCom= 1.00D+00 WtEn= 0.00D+00
 Coeff-Com:  0.139D-04-0.977D-04 0.638D-03-0.193D-02 0.795D-02-0.503D-01
 Coeff-Com:  0.130D+00-0.234D+00 0.562D+00-0.103D+01 0.161D+01
 Coeff:      0.139D-04-0.977D-04 0.638D-03-0.193D-02 0.795D-02-0.503D-01
 Coeff:      0.130D+00-0.234D+00 0.562D+00-0.103D+01 0.161D+01
 Gap=     0.553 Goal=   None    Shift=    0.000
 RMSDP=4.52D-08 MaxDP=5.42D-07 DE=-1.80D-11 OVMax= 0.00D+00

 Cycle  12  Pass 1  IDiag  3:
 E=-0.541782368119925E-01 Delta-E=       -0.000000000001 Rises=F Damp=F
 DIIS: error= 6.79D-09 at cycle  12 NSaved=  12.
 NSaved=12 IEnMin=12 EnMin=-0.541782368119925E-01 IErMin=12 ErrMin= 6.79D-09
 ErrMax= 6.79D-09 EMaxC= 1.00D-01 BMatC= 2.98D-15 BMatP= 1.32D-13
 IDIUse=1 WtCom= 1.00D+00 WtEn= 0.00D+00
 Coeff-Com: -0.145D-05 0.184D-04-0.185D-03 0.608D-03-0.263D-02 0.170D-01
 Coeff-Com: -0.442D-01 0.797D-01-0.193D+00 0.367D+00-0.663D+00 0.144D+01
 Coeff:     -0.145D-05 0.184D-04-0.185D-03 0.608D-03-0.263D-02 0.170D-01
 Coeff:     -0.442D-01 0.797D-01-0.193D+00 0.367D+00-0.663D+00 0.144D+01
 Gap=     0.553 Goal=   None    Shift=    0.000
 RMSDP=4.91D-09 MaxDP=4.46D-08 DE=-1.14D-12 OVMax= 0.00D+00

 Cycle  13  Pass 2  IDiag  1:
 RMSDP=4.91D-09 MaxDP=4.46D-08 DE=-1.14D-12 OVMax= 0.00D+00

 SCF Done:  E(RPM6) = -0.541782368120E-01 A.U. after   13 cycles
             Convg  =    0.4913D-08             -V/T =  0.9990
 KE=-5.616722736636D+01 PE=-2.551653211753D+02 EE= 1.442591454334D+02
 Leave Link  502 at Mon Sep 14 19:12:23 2015, MaxMem=  402653184 cpu:       1.9
 (Enter /share/apps/g09/l601.exe)
 Copying SCF densities to generalized density rwf, IOpCl= 0 IROHF=0.

 **********************************************************************

            Population analysis using the SCF density.

 **********************************************************************

 Orbital symmetries:
       Occupied  (A) (A) (A) (A) (A) (A) (A) (A) (A) (A) (A) (A)
                 (A) (A) (A) (A) (A) (A) (A)
       Virtual   (A) (A) (A) (A) (A) (A) (A) (A) (A) (A) (A) (A)
                 (A) (A) (A) (A) (A) (A) (A)
 The electronic state is 1-A.
 Alpha  occ. eigenvalues --   -1.05428  -0.97843  -0.87094  -0.85816  -0.75591
 Alpha  occ. eigenvalues --   -0.68324  -0.58614  -0.56531  -0.53120  -0.52373
 Alpha  occ. eigenvalues --   -0.50286  -0.48193  -0.47332  -0.44945  -0.44101
 Alpha  occ. eigenvalues --   -0.43603  -0.41040  -0.40635  -0.39843
 Alpha virt. eigenvalues --    0.15425   0.16217   0.16777   0.17728   0.18084
 Alpha virt. eigenvalues --    0.21011   0.21699   0.21929   0.22030   0.22148
 Alpha virt. eigenvalues --    0.22357   0.22419   0.23158   0.23923   0.24209
 Alpha virt. eigenvalues --    0.24409   0.25202   0.25331   0.25759
          Condensed to atoms (all electrons):
              1          2          3          4          5          6
     1  C    4.504189   0.000000   0.000000   0.000000   0.000000   0.000000
     2  H    0.000000   0.852296   0.000000   0.000000   0.000000   0.000000
     3  H    0.000000   0.000000   0.848046   0.000000   0.000000   0.000000
     4  H    0.000000   0.000000   0.000000   0.850301   0.000000   0.000000
     5  C    0.000000   0.000000   0.000000   0.000000   3.974734   0.000000
     6  H    0.000000   0.000000   0.000000   0.000000   0.000000   0.891577
     7  C    0.000000   0.000000   0.000000   0.000000   0.000000   0.000000
     8  H    0.000000   0.000000   0.000000   0.000000   0.000000   0.000000
     9  H    0.000000   0.000000   0.000000   0.000000   0.000000   0.000000
    10  C    0.000000   0.000000   0.000000   0.000000   0.000000   0.000000
    11  H    0.000000   0.000000   0.000000   0.000000   0.000000   0.000000
    12  H    0.000000   0.000000   0.000000   0.000000   0.000000   0.000000
    13  C    0.000000   0.000000   0.000000   0.000000   0.000000   0.000000
    14  H    0.000000   0.000000   0.000000   0.000000   0.000000   0.000000
    15  H    0.000000   0.000000   0.000000   0.000000   0.000000   0.000000
    16  H    0.000000   0.000000   0.000000   0.000000   0.000000   0.000000
    17  C    0.000000   0.000000   0.000000   0.000000   0.000000   0.000000
    18  H    0.000000   0.000000   0.000000   0.000000   0.000000   0.000000
    19  H    0.000000   0.000000   0.000000   0.000000   0.000000   0.000000
    20  H    0.000000   0.000000   0.000000   0.000000   0.000000   0.000000
              7          8          9         10         11         12
     1  C    0.000000   0.000000   0.000000   0.000000   0.000000   0.000000
     2  H    0.000000   0.000000   0.000000   0.000000   0.000000   0.000000
     3  H    0.000000   0.000000   0.000000   0.000000   0.000000   0.000000
     4  H    0.000000   0.000000   0.000000   0.000000   0.000000   0.000000
     5  C    0.000000   0.000000   0.000000   0.000000   0.000000   0.000000
     6  H    0.000000   0.000000   0.000000   0.000000   0.000000   0.000000
     7  C    4.304346   0.000000   0.000000   0.000000   0.000000   0.000000
     8  H    0.000000   0.867172   0.000000   0.000000   0.000000   0.000000
     9  H    0.000000   0.000000   0.866769   0.000000   0.000000   0.000000
    10  C    0.000000   0.000000   0.000000   4.217194   0.000000   0.000000
    11  H    0.000000   0.000000   0.000000   0.000000   0.873479   0.000000
    12  H    0.000000   0.000000   0.000000   0.000000   0.000000   0.879479
    13  C    0.000000   0.000000   0.000000   0.000000   0.000000   0.000000
    14  H    0.000000   0.000000   0.000000   0.000000   0.000000   0.000000
    15  H    0.000000   0.000000   0.000000   0.000000   0.000000   0.000000
    16  H    0.000000   0.000000   0.000000   0.000000   0.000000   0.000000
    17  C    0.000000   0.000000   0.000000   0.000000   0.000000   0.000000
    18  H    0.000000   0.000000   0.000000   0.000000   0.000000   0.000000
    19  H    0.000000   0.000000   0.000000   0.000000   0.000000   0.000000
    20  H    0.000000   0.000000   0.000000   0.000000   0.000000   0.000000
             13         14         15         16         17         18
     1  C    0.000000   0.000000   0.000000   0.000000   0.000000   0.000000
     2  H    0.000000   0.000000   0.000000   0.000000   0.000000   0.000000
     3  H    0.000000   0.000000   0.000000   0.000000   0.000000   0.000000
     4  H    0.000000   0.000000   0.000000   0.000000   0.000000   0.000000
     5  C    0.000000   0.000000   0.000000   0.000000   0.000000   0.000000
     6  H    0.000000   0.000000   0.000000   0.000000   0.000000   0.000000
     7  C    0.000000   0.000000   0.000000   0.000000   0.000000   0.000000
     8  H    0.000000   0.000000   0.000000   0.000000   0.000000   0.000000
     9  H    0.000000   0.000000   0.000000   0.000000   0.000000   0.000000
    10  C    0.000000   0.000000   0.000000   0.000000   0.000000   0.000000
    11  H    0.000000   0.000000   0.000000   0.000000   0.000000   0.000000
    12  H    0.000000   0.000000   0.000000   0.000000   0.000000   0.000000
    13  C    4.460284   0.000000   0.000000   0.000000   0.000000   0.000000
    14  H    0.000000   0.852708   0.000000   0.000000   0.000000   0.000000
    15  H    0.000000   0.000000   0.858657   0.000000   0.000000   0.000000
    16  H    0.000000   0.000000   0.000000   0.851500   0.000000   0.000000
    17  C    0.000000   0.000000   0.000000   0.000000   4.494142   0.000000
    18  H    0.000000   0.000000   0.000000   0.000000   0.000000   0.850285
    19  H    0.000000   0.000000   0.000000   0.000000   0.000000   0.000000
    20  H    0.000000   0.000000   0.000000   0.000000   0.000000   0.000000
             19         20
     1  C    0.000000   0.000000
     2  H    0.000000   0.000000
     3  H    0.000000   0.000000
     4  H    0.000000   0.000000
     5  C    0.000000   0.000000
     6  H    0.000000   0.000000
     7  C    0.000000   0.000000
     8  H    0.000000   0.000000
     9  H    0.000000   0.000000
    10  C    0.000000   0.000000
    11  H    0.000000   0.000000
    12  H    0.000000   0.000000
    13  C    0.000000   0.000000
    14  H    0.000000   0.000000
    15  H    0.000000   0.000000
    16  H    0.000000   0.000000
    17  C    0.000000   0.000000
    18  H    0.000000   0.000000
    19  H    0.849359   0.000000
    20  H    0.000000   0.853484
 Mulliken atomic charges:
              1
     1  C   -0.504189
     2  H    0.147704
     3  H    0.151954
     4  H    0.149699
     5  C    0.025266
     6  H    0.108423
     7  C   -0.304346
     8  H    0.132828
     9  H    0.133231
    10  C   -0.217194
    11  H    0.126521
    12  H    0.120521
    13  C   -0.460284
    14  H    0.147292
    15  H    0.141343
    16  H    0.148500
    17  C   -0.494142
    18  H    0.149715
    19  H    0.150641
    20  H    0.146516
 Sum of Mulliken atomic charges =   0.00000
 Mulliken charges with hydrogens summed into heavy atoms:
              1
     1  C   -0.054832
     5  C    0.133689
     7  C   -0.038287
    10  C    0.029848
    13  C   -0.023148
    17  C   -0.047271
 Sum of Mulliken charges with hydrogens summed into heavy atoms =   0.00000
 Charge=              0.0000 electrons
 Dipole moment (field-independent basis, Debye):
    X=              0.0032    Y=             -0.0289    Z=              0.0319  Tot=              0.0432
 N-N= 1.670192248715D+02 E-N=-2.551653211412D+02  KE=-5.616722736636D+01
 Leave Link  601 at Mon Sep 14 19:12:23 2015, MaxMem=  402653184 cpu:       0.0
 (Enter /share/apps/g09/l701.exe)
 Compute integral first derivatives.
 ... and contract with generalized density number  0.
 Leave Link  701 at Mon Sep 14 19:12:25 2015, MaxMem=  402653184 cpu:       0.1
 (Enter /share/apps/g09/l702.exe)
 L702 exits ... SP integral derivatives will be done elsewhere.
 Leave Link  702 at Mon Sep 14 19:12:26 2015, MaxMem=  402653184 cpu:       0.0
 (Enter /share/apps/g09/l703.exe)
 Compute integral first derivatives, UseDBF=F ICtDFT=           0.
 Integral derivatives from FoFDir, PRISM(SPDF).
 Calling FoFJK, ICntrl=      2127 FMM=F ISym2X=0 I1Cent= 0 IOpClX= 0 NMat=1 NMatS=1 NMatT=0.
 FoFCou: FMM=F IPFlag=           0 FMFlag=      100000 FMFlg1=         800
         NFxFlg=           0 DoJE=F BraDBF=F KetDBF=F FulRan=T
         Omega=  0.000000  0.000000  1.000000  0.000000  0.000000 ICntrl=    2127 IOpCl=  0
         NMat0=    1 NMatS0=    1 NMatT0=    0 NMatD0=    1 NMtDS0=    0 NMtDT0=    0
         I1Cent=           0 NGrid=           0.
 Symmetry not used in FoFCou.
 Leave Link  703 at Mon Sep 14 19:12:26 2015, MaxMem=  402653184 cpu:       0.1
 (Enter /share/apps/g09/l716.exe)
 Dipole        = 1.27125126D-03-1.13630018D-02 1.25696543D-02
 ***** Axes restored to original set *****
 -------------------------------------------------------------------
 Center     Atomic                   Forces (Hartrees/Bohr)
 Number     Number              X              Y              Z
 -------------------------------------------------------------------
      1        6           0.005234184   -0.000024821    0.002845311
      2        1           0.001149529   -0.006805138   -0.008015738
      3        1          -0.007970085   -0.001392895    0.007360522
      4        1           0.003896845    0.009628950   -0.002530043
      5        6          -0.002047809    0.000454748   -0.001619023
      6        1          -0.003415234    0.001816618   -0.000268556
      7        6           0.001219650    0.000627088   -0.000781129
      8        1          -0.002451608   -0.000029068    0.003667258
      9        1           0.001611072   -0.003309521   -0.003072673
     10        6           0.000003781   -0.001735067   -0.000061350
     11        1           0.001356013    0.001717762    0.003176102
     12        1           0.000424190   -0.003100148   -0.002161790
     13        6          -0.002547215   -0.000377737    0.000837351
     14        1          -0.003415112   -0.004990018   -0.008631604
     15        1           0.003703118   -0.005714636    0.007223956
     16        1           0.002233943    0.009621162    0.001474836
     17        6          -0.000203466   -0.000831087   -0.003115155
     18        1           0.009057959   -0.002552119    0.003176306
     19        1          -0.009418352   -0.002297408    0.005111231
     20        1           0.001578597    0.009293335   -0.004615812
 -------------------------------------------------------------------
 Cartesian Forces:  Max     0.009628950 RMS     0.004352621
 Leave Link  716 at Mon Sep 14 19:12:27 2015, MaxMem=  402653184 cpu:       0.1
 (Enter /share/apps/g09/l103.exe)

 GradGradGradGradGradGradGradGradGradGradGradGradGradGradGradGradGradGrad
 Berny optimization.
 Internal  Forces:  Max     0.010711153 RMS     0.003681346
 Search for a local minimum.
 Step number   1 out of a maximum of  110
 All quantities printed in internal units (Hartrees-Bohrs-Radians)
 RMS Force = .36813D-02 SwitMx=.10000D-02 MixMth= 1
 Mixed Optimization -- RFO/linear search
 Second derivative matrix not updated -- first step.
     Eigenvalues ---    0.00230   0.00257   0.00285   0.00289   0.00398
     Eigenvalues ---    0.03113   0.03357   0.03419   0.04529   0.04686
     Eigenvalues ---    0.04806   0.05000   0.05509   0.05529   0.05598
     Eigenvalues ---    0.05606   0.05610   0.05779   0.08572   0.08906
     Eigenvalues ---    0.12390   0.12619   0.16000   0.16000   0.16000
     Eigenvalues ---    0.16000   0.16000   0.16000   0.16000   0.16000
     Eigenvalues ---    0.16000   0.16537   0.17089   0.21971   0.22023
     Eigenvalues ---    0.27898   0.28652   0.28846   0.28873   0.29624
     Eigenvalues ---    0.32015   0.32046   0.32100   0.32109   0.32147
     Eigenvalues ---    0.32168   0.32172   0.32175   0.32187   0.32213
     Eigenvalues ---    0.32227   0.32232   0.32287   0.322981000.00000
     Eigenvalues --- 1000.000001000.000001000.000001000.000001000.00000
     Eigenvalues --- 1000.000001000.000001000.000001000.000001000.00000
     Eigenvalues --- 1000.000001000.000001000.000001000.000001000.00000
     Eigenvalues --- 1000.000001000.000001000.000001000.000001000.00000
     Eigenvalues --- 1000.000001000.000001000.000001000.000001000.00000
     Eigenvalues --- 1000.000001000.000001000.000001000.000001000.00000
     Eigenvalues --- 1000.000001000.000001000.000001000.000001000.00000
     Eigenvalues --- 1000.000001000.000001000.000001000.000001000.00000
     Eigenvalues --- 1000.000001000.000001000.000001000.000001000.00000
 RFO step:  Lambda=-5.26732808D-03 EMin= 2.30000000D-03
 Linear search not attempted -- first point.
 Iteration  1 RMS(Cart)=  0.05017546 RMS(Int)=  0.00096578
 Iteration  2 RMS(Cart)=  0.00124682 RMS(Int)=  0.00011146
 Iteration  3 RMS(Cart)=  0.00000098 RMS(Int)=  0.00011146
 Variable       Old X    -DE/DX   Delta X   Delta X   Delta X     New X
                                 (Linear)    (Quad)   (Total)
    R1        2.10537  -0.01029   0.00000  -0.03148  -0.03148   2.07389
    R2        2.10576  -0.01064   0.00000  -0.03256  -0.03256   2.07320
    R3        2.10531  -0.01048   0.00000  -0.03204  -0.03204   2.07326
    R4        2.90269   0.00107   0.00000   0.00365   0.00365   2.90634
    R5        2.10646   0.00256   0.00000   0.00783   0.00783   2.11428
    R6        2.92362  -0.00707   0.00000  -0.02486  -0.02486   2.89877
    R7        2.90325  -0.00269   0.00000  -0.00914  -0.00914   2.89411
    R8        2.10759  -0.00400   0.00000  -0.01227  -0.01227   2.09532
    R9        2.10817  -0.00412   0.00000  -0.01267  -0.01267   2.09550
   R10        2.90735  -0.00431   0.00000  -0.01477  -0.01477   2.89258
   R11        2.10422  -0.00371   0.00000  -0.01133  -0.01133   2.09288
   R12        2.10661  -0.00247   0.00000  -0.00758  -0.00758   2.09903
   R13        2.88719   0.00040   0.00000   0.00132   0.00132   2.88851
   R14        2.10457  -0.01013   0.00000  -0.03095  -0.03095   2.07362
   R15        2.10430  -0.00942   0.00000  -0.02877  -0.02877   2.07554
   R16        2.10322  -0.00963   0.00000  -0.02934  -0.02934   2.07388
   R17        2.10302  -0.00975   0.00000  -0.02970  -0.02970   2.07332
   R18        2.10503  -0.01071   0.00000  -0.03274  -0.03274   2.07229
   R19        2.10525  -0.01031   0.00000  -0.03154  -0.03154   2.07371
    A1        1.89748  -0.00270   0.00000  -0.01629  -0.01641   1.88107
    A2        1.88339  -0.00197   0.00000  -0.00932  -0.00946   1.87393
    A3        1.92598   0.00262   0.00000   0.01722   0.01708   1.94306
    A4        1.89731  -0.00263   0.00000  -0.01852  -0.01856   1.87876
    A5        1.93201   0.00255   0.00000   0.01412   0.01404   1.94605
    A6        1.92658   0.00187   0.00000   0.01128   0.01119   1.93777
    A7        1.86173   0.00091   0.00000   0.02899   0.02889   1.89062
    A8        1.92256  -0.00031   0.00000  -0.00730  -0.00732   1.91524
    A9        1.92142   0.00151   0.00000   0.00649   0.00616   1.92759
   A10        1.89819  -0.00004   0.00000  -0.00796  -0.00792   1.89027
   A11        1.88430   0.00036   0.00000   0.00728   0.00689   1.89119
   A12        1.97181  -0.00225   0.00000  -0.02424  -0.02429   1.94752
   A13        1.89860   0.00223   0.00000   0.00589   0.00608   1.90468
   A14        1.89776   0.00161   0.00000   0.00099   0.00122   1.89897
   A15        2.03582  -0.00885   0.00000  -0.03898  -0.03886   1.99697
   A16        1.87046  -0.00213   0.00000  -0.00994  -0.01022   1.86024
   A17        1.87755   0.00346   0.00000   0.01974   0.01961   1.89716
   A18        1.87721   0.00404   0.00000   0.02398   0.02380   1.90101
   A19        1.92359   0.00025   0.00000  -0.01133  -0.01140   1.91219
   A20        1.88061   0.00111   0.00000   0.01102   0.01110   1.89171
   A21        1.99577  -0.00384   0.00000  -0.01554  -0.01561   1.98017
   A22        1.86946  -0.00142   0.00000  -0.01208  -0.01210   1.85736
   A23        1.90789   0.00167   0.00000   0.00350   0.00327   1.91116
   A24        1.88175   0.00237   0.00000   0.02538   0.02540   1.90715
   A25        1.92775   0.00270   0.00000   0.01448   0.01435   1.94210
   A26        1.90981   0.00379   0.00000   0.02614   0.02588   1.93569
   A27        1.93116   0.00206   0.00000   0.01102   0.01091   1.94207
   A28        1.89712  -0.00295   0.00000  -0.01509  -0.01535   1.88177
   A29        1.90816  -0.00328   0.00000  -0.02598  -0.02597   1.88219
   A30        1.88910  -0.00251   0.00000  -0.01159  -0.01182   1.87728
   A31        1.93018   0.00112   0.00000   0.00705   0.00699   1.93717
   A32        1.93076   0.00241   0.00000   0.01222   0.01218   1.94294
   A33        1.92688   0.00197   0.00000   0.01402   0.01392   1.94080
   A34        1.90179  -0.00235   0.00000  -0.01816  -0.01816   1.88363
   A35        1.87515  -0.00101   0.00000  -0.00152  -0.00163   1.87352
   A36        1.89783  -0.00236   0.00000  -0.01478  -0.01486   1.88297
    D1       -1.05549   0.00034   0.00000   0.00556   0.00564  -1.04985
    D2        1.00174   0.00064   0.00000   0.00882   0.00884   1.01057
    D3       -3.09562  -0.00139   0.00000  -0.02274  -0.02285  -3.11847
    D4        3.12635   0.00033   0.00000   0.00547   0.00553   3.13187
    D5       -1.09961   0.00064   0.00000   0.00872   0.00873  -1.09088
    D6        1.08621  -0.00139   0.00000  -0.02284  -0.02296   1.06325
    D7        1.02481   0.00074   0.00000   0.01204   0.01215   1.03696
    D8        3.08204   0.00104   0.00000   0.01530   0.01535   3.09739
    D9       -1.01532  -0.00099   0.00000  -0.01626  -0.01634  -1.03166
   D10        1.05875  -0.00030   0.00000   0.00004   0.00008   1.05883
   D11       -0.97274   0.00013   0.00000   0.00810   0.00826  -0.96449
   D12       -3.09803  -0.00023   0.00000   0.00320   0.00325  -3.09477
   D13        3.09334   0.00060   0.00000   0.02624   0.02614   3.11948
   D14        1.06184   0.00103   0.00000   0.03430   0.03431   1.09616
   D15       -1.06344   0.00067   0.00000   0.02939   0.02931  -1.03412
   D16       -1.09804  -0.00041   0.00000   0.01457   0.01449  -1.08355
   D17       -3.12954   0.00003   0.00000   0.02263   0.02267  -3.10687
   D18        1.02836  -0.00034   0.00000   0.01772   0.01766   1.04603
   D19        2.99395   0.00151   0.00000   0.03815   0.03819   3.03214
   D20       -1.18054   0.00090   0.00000   0.02808   0.02808  -1.15246
   D21        0.92102   0.00082   0.00000   0.02672   0.02673   0.94775
   D22        0.96794  -0.00059   0.00000  -0.00408  -0.00408   0.96386
   D23        3.07664  -0.00120   0.00000  -0.01415  -0.01419   3.06245
   D24       -1.10499  -0.00129   0.00000  -0.01551  -0.01554  -1.12053
   D25       -1.13181   0.00062   0.00000   0.01604   0.01608  -1.11574
   D26        0.97689   0.00001   0.00000   0.00597   0.00596   0.98285
   D27        3.07844  -0.00008   0.00000   0.00461   0.00461   3.08305
   D28       -1.11235  -0.00013   0.00000   0.01812   0.01803  -1.09432
   D29        3.13651   0.00080   0.00000   0.03240   0.03238  -3.11429
   D30        1.04500  -0.00057   0.00000   0.00229   0.00232   1.04732
   D31        1.02506  -0.00059   0.00000   0.01453   0.01431   1.03936
   D32       -1.00926   0.00033   0.00000   0.02880   0.02866  -0.98060
   D33       -3.10078  -0.00103   0.00000  -0.00131  -0.00140  -3.10218
   D34        3.03481   0.00067   0.00000   0.02477   0.02488   3.05969
   D35        1.00049   0.00160   0.00000   0.03905   0.03924   1.03973
   D36       -1.09102   0.00024   0.00000   0.00893   0.00918  -1.08185
   D37        0.93088   0.00020   0.00000   0.01392   0.01385   0.94473
   D38        3.01868   0.00062   0.00000   0.02071   0.02072   3.03940
   D39       -1.18448   0.00117   0.00000   0.02963   0.02969  -1.15479
   D40        3.09665  -0.00095   0.00000  -0.00961  -0.00970   3.08694
   D41       -1.09874  -0.00054   0.00000  -0.00281  -0.00283  -1.10157
   D42        0.98129   0.00001   0.00000   0.00611   0.00614   0.98743
   D43       -1.15999  -0.00045   0.00000  -0.00816  -0.00820  -1.16819
   D44        0.92781  -0.00004   0.00000  -0.00136  -0.00133   0.92648
   D45        3.00783   0.00051   0.00000   0.00755   0.00765   3.01548
         Item               Value     Threshold  Converged?
 Maximum Force            0.010711     0.000450     NO 
 RMS     Force            0.003681     0.000300     NO 
 Maximum Displacement     0.168478     0.001800     NO 
 RMS     Displacement     0.050006     0.001200     NO 
 Predicted change in Energy=-2.730928D-03
 GradGradGradGradGradGradGradGradGradGradGradGradGradGradGradGradGradGrad

 Leave Link  103 at Mon Sep 14 19:12:27 2015, MaxMem=  402653184 cpu:       0.1
 (Enter /share/apps/g09/l202.exe)
                          Input orientation:                          
 ---------------------------------------------------------------------
 Center     Atomic      Atomic             Coordinates (Angstroms)
 Number     Number       Type             X           Y           Z
 ---------------------------------------------------------------------
      1          6           0        0.432874   -2.528092    1.611524
      2          1           0        0.554343   -1.925652    2.520768
      3          1           0        1.388442   -2.517661    1.072650
      4          1           0        0.239960   -3.561176    1.926486
      5          6           0       -0.713750   -1.994823    0.736178
      6          1           0       -1.660155   -2.038332    1.331332
      7          6           0       -0.444645   -0.530859    0.365464
      8          1           0        0.503598   -0.469100   -0.205898
      9          1           0       -0.291513    0.051317    1.296732
     10          6           0       -1.555849    0.128640   -0.455080
     11          1           0       -1.660005   -0.394103   -1.425884
     12          1           0       -1.247058    1.169340   -0.690409
     13          6           0       -2.907069    0.152616    0.259097
     14          1           0       -2.825269    0.615918    1.250437
     15          1           0       -3.645826    0.723945   -0.318953
     16          1           0       -3.304360   -0.861513    0.393640
     17          6           0       -0.886717   -2.868802   -0.509504
     18          1           0       -1.770844   -2.564472   -1.083480
     19          1           0       -0.014514   -2.798128   -1.170427
     20          1           0       -1.019743   -3.923865   -0.238673
 ---------------------------------------------------------------------
                    Distance matrix (angstroms):
                    1          2          3          4          5
     1  C    0.000000
     2  H    1.097458   0.000000
     3  H    1.097090   1.772919   0.000000
     4  H    1.097123   1.768318   1.771150   0.000000
     5  C    1.537971   2.190344   2.192211   2.186289   0.000000
     6  H    2.167751   2.516239   3.096873   2.506731   1.118831
     7  C    2.512298   2.754770   2.794227   3.476822   1.533961
     8  H    2.747267   3.091735   2.571816   3.765302   2.167320
     9  H    2.697625   2.474296   3.077680   3.705288   2.163145
    10  C    3.909488   4.186729   4.243315   4.744632   2.576300
    11  H    4.261443   4.777556   4.477187   4.987845   2.851703
    12  H    4.668198   4.809956   4.862943   5.606883   3.511622
    13  C    4.491155   4.627712   5.122857   5.145505   3.106404
    14  H    4.542100   4.415324   5.254168   5.225015   3.396901
    15  H    5.562219   5.720646   6.147229   6.205126   4.135464
    16  H    4.269384   4.532841   5.022577   4.711687   2.848330
    17  C    2.521143   3.485503   2.793360   2.771791   1.531496
    18  H    3.481485   4.336494   3.825203   3.754549   2.180160
    19  H    2.830605   3.835327   2.660516   3.199667   2.183889
    20  H    2.735235   3.753015   3.081613   2.531068   2.182927
                    6          7          8          9         10
     6  H    0.000000
     7  C    2.163987   0.000000
     8  H    3.083406   1.108798   0.000000
     9  H    2.498202   1.108890   1.777901   0.000000
    10  C    2.810323   1.530689   2.158867   2.161798   0.000000
    11  H    3.210253   2.169040   2.484989   3.079579   1.107506
    12  H    3.814085   2.156250   2.446228   2.472199   1.110760
    13  C    2.739477   2.557730   3.497913   2.815685   1.528535
    14  H    2.899840   2.786691   3.792035   2.596312   2.181205
    15  H    3.781071   3.505784   4.319011   3.783422   2.177366
    16  H    2.228806   2.878906   3.874788   3.275070   2.181289
    17  C    2.162536   2.535148   2.789933   3.484803   3.071703
    18  H    2.473942   2.827335   3.214626   3.833559   2.773799
    19  H    3.089372   2.772090   2.573544   3.779277   3.384288
    20  H    2.535799   3.494025   3.775851   4.323178   4.093537
                   11         12         13         14         15
    11  H    0.000000
    12  H    1.776458   0.000000
    13  C    2.166387   2.165854   0.000000
    14  H    3.088799   2.562013   1.097313   0.000000
    15  H    2.533538   2.467882   1.098326   1.774251   0.000000
    16  H    2.496606   3.087396   1.097452   1.773818   1.771458
    17  C    2.749884   4.058222   3.715042   4.358744   4.533964
    18  H    2.200006   3.790805   3.236678   4.083363   3.861832
    19  H    2.924420   4.182151   4.372334   5.041491   5.129955
    20  H    3.778707   5.118249   4.519676   5.107544   5.338998
                   16         17         18         19         20
    16  H    0.000000
    17  C    3.269538   0.000000
    18  H    2.726467   1.097154   0.000000
    19  H    4.125514   1.096609   1.773936   0.000000
    20  H    3.872634   1.097362   1.767994   1.773679   0.000000
 Stoichiometry    C6H14
 Framework group  C1[X(C6H14)]
 Deg. of freedom    54
 Full point group                 C1      NOp   1
 Largest Abelian subgroup         C1      NOp   1
 Largest concise Abelian subgroup C1      NOp   1
                         Standard orientation:                         
 ---------------------------------------------------------------------
 Center     Atomic      Atomic             Coordinates (Angstroms)
 Number     Number       Type             X           Y           Z
 ---------------------------------------------------------------------
      1          6           0        2.147198   -0.777016   -0.284735
      2          1           0        2.003424   -1.814833   -0.611351
      3          1           0        2.593526   -0.799954    0.717199
      4          1           0        2.876930   -0.318180   -0.963440
      5          6           0        0.820543    0.000974   -0.293164
      6          1           0        0.418732   -0.000135   -1.337352
      7          6           0       -0.197073   -0.700502    0.615366
      8          1           0        0.198296   -0.727439    1.650930
      9          1           0       -0.300632   -1.755079    0.288594
     10          6           0       -1.581996   -0.048900    0.635621
     11          1           0       -1.502433    0.978651    1.041056
     12          1           0       -2.225691   -0.615890    1.341288
     13          6           0       -2.254048   -0.005419   -0.736558
     14          1           0       -2.297966   -1.003612   -1.190185
     15          1           0       -3.281951    0.373421   -0.657716
     16          1           0       -1.710282    0.653395   -1.425530
     17          6           0        1.049677    1.453753    0.133933
     18          1           0        0.131827    2.044878    0.024997
     19          1           0        1.368799    1.515872    1.181242
     20          1           0        1.821617    1.931561   -0.482518
 ---------------------------------------------------------------------
 Rotational constants (GHZ):      5.4645423      2.0034704      1.8135588
 Leave Link  202 at Mon Sep 14 19:12:28 2015, MaxMem=  402653184 cpu:       0.0
 (Enter /share/apps/g09/l301.exe)
 Standard basis: VSTO-6G (5D, 7F)
 Ernie: Thresh=  0.10000D-02 Tol=  0.10000D-05 Strict=F.
  NNHCO=     0 NNPyr=     0 NCTC=     0               EPep=         0.000000000
    EC=       130.556247152  ECS=         3.231414750   EG=         0.308051227
   EHC=         0.000459592  EAt=       -31.187935768  AtH=         2.796400831
 EPDDG=         0.000000000  ECC=       134.096172722 EAtT=        33.984336599
 There are    38 symmetry adapted basis functions of A   symmetry.
 Integral buffers will be    131072 words long.
 Regular integral format.
 Two-electron integral symmetry is turned off.
    38 basis functions,   228 primitive gaussians,    38 cartesian basis functions
    19 alpha electrons       19 beta electrons
       nuclear repulsion energy       168.0805093205 Hartrees.
 IExCor=    0 DFT=F Ex=HF Corr=None ExCW=0 ScaHFX=  1.000000
 ScaDFX=  1.000000  1.000000  1.000000  1.000000 ScalE2=  1.000000  1.000000
 IRadAn=      0 IRanWt=     -1 IRanGd=            0 ICorTp=0
 Leave Link  301 at Mon Sep 14 19:12:28 2015, MaxMem=  402653184 cpu:       0.1
 (Enter /share/apps/g09/l302.exe)
 Do NDO integrals.
 NPDir=0 NMtPBC=     1 NCelOv=     1 NCel=       1 NClECP=     1 NCelD=      1
         NCelK=      1 NCelE2=     1 NClLst=     1 CellRange=     0.0.
 One-electron integrals computed using PRISM.
 NBasis=    38 RedAO= F  NBF=    38
 NBsUse=    38 1.00D-04 NBFU=    38
 Leave Link  302 at Mon Sep 14 19:12:29 2015, MaxMem=  402653184 cpu:       0.1
 (Enter /share/apps/g09/l303.exe)
 DipDrv:  MaxL=1.
 Leave Link  303 at Mon Sep 14 19:12:29 2015, MaxMem=  402653184 cpu:       0.0
 (Enter /share/apps/g09/l401.exe)
 Initial guess read from the read-write file.
 B after Tr=     0.000000    0.000000    0.000000
         Rot=    1.000000    0.000000    0.000000    0.000000 Ang=   0.00 deg.
 Guess basis will be translated and rotated to current coordinates.
 Initial guess orbital symmetries:
       Occupied  (A) (A) (A) (A) (A) (A) (A) (A) (A) (A) (A) (A)
                 (A) (A) (A) (A) (A) (A) (A)
       Virtual   (A) (A) (A) (A) (A) (A) (A) (A) (A) (A) (A) (A)
                 (A) (A) (A) (A) (A) (A) (A)
 The electronic state of the initial guess is 1-A.
 Leave Link  401 at Mon Sep 14 19:12:31 2015, MaxMem=  402653184 cpu:       0.2
 (Enter /share/apps/g09/l502.exe)
 Closed shell SCF:
 Requested convergence on RMS density matrix=1.00D-08 within 128 cycles.
 Requested convergence on MAX density matrix=1.00D-06.
 Requested convergence on             energy=1.00D-06.
 No special actions if energy rises.
 Using DIIS extrapolation, IDIIS=  1040.
 Overlap will be assumed to be unity.
 Two-electron integral symmetry not used.
 Keep J ints in memory in canonical form, NReq=884654.
 IEnd=       81865 IEndB=       81865 NGot=   402653184 MDV=   402586639
 LenX=   402586639 LenY=   402584754
 Symmetry not used in FoFDir.
 MinBra= 0 MaxBra= 1 Meth=40.
 IRaf=       0 NMat=   1 IRICut=       1 DoRegI=T DoRafI=F ISym2E= 0 JSym2E=0.

 Cycle   1  Pass 1  IDiag  1:
 E=-0.488974370030348E-01
 DIIS: error= 7.44D-03 at cycle   1 NSaved=   1.
 NSaved= 1 IEnMin= 1 EnMin=-0.488974370030348E-01 IErMin= 1 ErrMin= 7.44D-03
 ErrMax= 7.44D-03 EMaxC= 1.00D-01 BMatC= 1.71D-03 BMatP= 1.71D-03
 IDIUse=3 WtCom= 9.26D-01 WtEn= 7.44D-02
 Coeff-Com:  0.100D+01
 Coeff-En:   0.100D+01
 Coeff:      0.100D+01
 GapD=    2.000 DampG=2.000 DampE=1.000 DampFc=2.0000 IDamp=-1.
 RMSDP=2.06D-03 MaxDP=1.55D-02              OVMax= 0.00D+00

 Cycle   2  Pass 1  IDiag  3:
 E=-0.553685512302025E-01 Delta-E=       -0.006471114227 Rises=F Damp=F
 DIIS: error= 3.25D-03 at cycle   2 NSaved=   2.
 NSaved= 2 IEnMin= 2 EnMin=-0.553685512302025E-01 IErMin= 2 ErrMin= 3.25D-03
 ErrMax= 3.25D-03 EMaxC= 1.00D-01 BMatC= 3.09D-04 BMatP= 1.71D-03
 IDIUse=3 WtCom= 9.68D-01 WtEn= 3.25D-02
 Coeff-Com: -0.686D+00 0.169D+01
 Coeff-En:   0.000D+00 0.100D+01
 Coeff:     -0.663D+00 0.166D+01
 Gap=     0.554 Goal=   None    Shift=    0.000
 RMSDP=1.52D-03 MaxDP=1.16D-02 DE=-6.47D-03 OVMax= 0.00D+00

 Cycle   3  Pass 1  IDiag  3:
 E=-0.569034180830386E-01 Delta-E=       -0.001534866853 Rises=F Damp=F
 DIIS: error= 2.38D-04 at cycle   3 NSaved=   3.
 NSaved= 3 IEnMin= 3 EnMin=-0.569034180830386E-01 IErMin= 3 ErrMin= 2.38D-04
 ErrMax= 2.38D-04 EMaxC= 1.00D-01 BMatC= 3.52D-06 BMatP= 3.09D-04
 IDIUse=3 WtCom= 9.98D-01 WtEn= 2.38D-03
 Coeff-Com:  0.234D+00-0.643D+00 0.141D+01
 Coeff-En:   0.000D+00 0.000D+00 0.100D+01
 Coeff:      0.234D+00-0.642D+00 0.141D+01
 Gap=     0.554 Goal=   None    Shift=    0.000
 RMSDP=1.70D-04 MaxDP=1.08D-03 DE=-1.53D-03 OVMax= 0.00D+00

 Cycle   4  Pass 1  IDiag  3:
 E=-0.569210336308856E-01 Delta-E=       -0.000017615548 Rises=F Damp=F
 DIIS: error= 2.87D-05 at cycle   4 NSaved=   4.
 NSaved= 4 IEnMin= 4 EnMin=-0.569210336308856E-01 IErMin= 4 ErrMin= 2.87D-05
 ErrMax= 2.87D-05 EMaxC= 1.00D-01 BMatC= 6.50D-08 BMatP= 3.52D-06
 IDIUse=1 WtCom= 1.00D+00 WtEn= 0.00D+00
 Coeff-Com: -0.998D-01 0.275D+00-0.642D+00 0.147D+01
 Coeff:     -0.998D-01 0.275D+00-0.642D+00 0.147D+01
 Gap=     0.554 Goal=   None    Shift=    0.000
 RMSDP=2.21D-05 MaxDP=1.79D-04 DE=-1.76D-05 OVMax= 0.00D+00

 Cycle   5  Pass 1  IDiag  3:
 E=-0.569214191042704E-01 Delta-E=       -0.000000385473 Rises=F Damp=F
 DIIS: error= 1.26D-05 at cycle   5 NSaved=   5.
 NSaved= 5 IEnMin= 5 EnMin=-0.569214191042704E-01 IErMin= 5 ErrMin= 1.26D-05
 ErrMax= 1.26D-05 EMaxC= 1.00D-01 BMatC= 9.01D-09 BMatP= 6.50D-08
 IDIUse=1 WtCom= 1.00D+00 WtEn= 0.00D+00
 Coeff-Com:  0.673D-01-0.186D+00 0.437D+00-0.121D+01 0.189D+01
 Coeff:      0.673D-01-0.186D+00 0.437D+00-0.121D+01 0.189D+01
 Gap=     0.554 Goal=   None    Shift=    0.000
 RMSDP=1.16D-05 MaxDP=1.12D-04 DE=-3.85D-07 OVMax= 0.00D+00

 Cycle   6  Pass 1  IDiag  3:
 E=-0.569214930224291E-01 Delta-E=       -0.000000073918 Rises=F Damp=F
 DIIS: error= 4.21D-06 at cycle   6 NSaved=   6.
 NSaved= 6 IEnMin= 6 EnMin=-0.569214930224291E-01 IErMin= 6 ErrMin= 4.21D-06
 ErrMax= 4.21D-06 EMaxC= 1.00D-01 BMatC= 1.08D-09 BMatP= 9.01D-09
 IDIUse=1 WtCom= 1.00D+00 WtEn= 0.00D+00
 Coeff-Com: -0.349D-01 0.963D-01-0.227D+00 0.668D+00-0.134D+01 0.184D+01
 Coeff:     -0.349D-01 0.963D-01-0.227D+00 0.668D+00-0.134D+01 0.184D+01
 Gap=     0.554 Goal=   None    Shift=    0.000
 RMSDP=4.73D-06 MaxDP=4.92D-05 DE=-7.39D-08 OVMax= 0.00D+00

 Cycle   7  Pass 1  IDiag  3:
 E=-0.569215026057464E-01 Delta-E=       -0.000000009583 Rises=F Damp=F
 DIIS: error= 1.06D-06 at cycle   7 NSaved=   7.
 NSaved= 7 IEnMin= 7 EnMin=-0.569215026057464E-01 IErMin= 7 ErrMin= 1.06D-06
 ErrMax= 1.06D-06 EMaxC= 1.00D-01 BMatC= 7.04D-11 BMatP= 1.08D-09
 IDIUse=1 WtCom= 1.00D+00 WtEn= 0.00D+00
 Coeff-Com:  0.920D-02-0.254D-01 0.597D-01-0.183D+00 0.416D+00-0.813D+00
 Coeff-Com:  0.154D+01
 Coeff:      0.920D-02-0.254D-01 0.597D-01-0.183D+00 0.416D+00-0.813D+00
 Coeff:      0.154D+01
 Gap=     0.554 Goal=   None    Shift=    0.000
 RMSDP=1.12D-06 MaxDP=1.12D-05 DE=-9.58D-09 OVMax= 0.00D+00

 Cycle   8  Pass 1  IDiag  3:
 E=-0.569215031452472E-01 Delta-E=       -0.000000000540 Rises=F Damp=F
 DIIS: error= 2.38D-07 at cycle   8 NSaved=   8.
 NSaved= 8 IEnMin= 8 EnMin=-0.569215031452472E-01 IErMin= 8 ErrMin= 2.38D-07
 ErrMax= 2.38D-07 EMaxC= 1.00D-01 BMatC= 2.93D-12 BMatP= 7.04D-11
 IDIUse=1 WtCom= 1.00D+00 WtEn= 0.00D+00
 Coeff-Com: -0.122D-02 0.336D-02-0.788D-02 0.256D-01-0.669D-01 0.169D+00
 Coeff-Com: -0.512D+00 0.139D+01
 Coeff:     -0.122D-02 0.336D-02-0.788D-02 0.256D-01-0.669D-01 0.169D+00
 Coeff:     -0.512D+00 0.139D+01
 Gap=     0.554 Goal=   None    Shift=    0.000
 RMSDP=1.89D-07 MaxDP=1.98D-06 DE=-5.40D-10 OVMax= 0.00D+00

 Cycle   9  Pass 1  IDiag  3:
 E=-0.569215031639487E-01 Delta-E=       -0.000000000019 Rises=F Damp=F
 DIIS: error= 6.91D-08 at cycle   9 NSaved=   9.
 NSaved= 9 IEnMin= 9 EnMin=-0.569215031639487E-01 IErMin= 9 ErrMin= 6.91D-08
 ErrMax= 6.91D-08 EMaxC= 1.00D-01 BMatC= 1.83D-13 BMatP= 2.93D-12
 IDIUse=1 WtCom= 1.00D+00 WtEn= 0.00D+00
 Coeff-Com:  0.220D-03-0.599D-03 0.140D-02-0.520D-02 0.172D-01-0.560D-01
 Coeff-Com:  0.215D+00-0.769D+00 0.160D+01
 Coeff:      0.220D-03-0.599D-03 0.140D-02-0.520D-02 0.172D-01-0.560D-01
 Coeff:      0.215D+00-0.769D+00 0.160D+01
 Gap=     0.554 Goal=   None    Shift=    0.000
 RMSDP=4.29D-08 MaxDP=4.20D-07 DE=-1.87D-11 OVMax= 0.00D+00

 Cycle  10  Pass 1  IDiag  3:
 E=-0.569215031651709E-01 Delta-E=       -0.000000000001 Rises=F Damp=F
 DIIS: error= 1.65D-08 at cycle  10 NSaved=  10.
 NSaved=10 IEnMin=10 EnMin=-0.569215031651709E-01 IErMin=10 ErrMin= 1.65D-08
 ErrMax= 1.65D-08 EMaxC= 1.00D-01 BMatC= 1.05D-14 BMatP= 1.83D-13
 IDIUse=1 WtCom= 1.00D+00 WtEn= 0.00D+00
 Coeff-Com: -0.333D-04 0.883D-04-0.201D-03 0.102D-02-0.470D-02 0.187D-01
 Coeff-Com: -0.808D-01 0.312D+00-0.806D+00 0.156D+01
 Coeff:     -0.333D-04 0.883D-04-0.201D-03 0.102D-02-0.470D-02 0.187D-01
 Coeff:     -0.808D-01 0.312D+00-0.806D+00 0.156D+01
 Gap=     0.554 Goal=   None    Shift=    0.000
 RMSDP=1.05D-08 MaxDP=1.15D-07 DE=-1.22D-12 OVMax= 0.00D+00

 Cycle  11  Pass 1  IDiag  3:
 E=-0.569215031647730E-01 Delta-E=        0.000000000000 Rises=F Damp=F
 DIIS: error= 3.63D-09 at cycle  11 NSaved=  11.
 NSaved=11 IEnMin=10 EnMin=-0.569215031651709E-01 IErMin=11 ErrMin= 3.63D-09
 ErrMax= 3.63D-09 EMaxC= 1.00D-01 BMatC= 7.91D-16 BMatP= 1.05D-14
 IDIUse=1 WtCom= 1.00D+00 WtEn= 0.00D+00
 Coeff-Com:  0.821D-05-0.209D-04 0.455D-04-0.343D-03 0.199D-02-0.872D-02
 Coeff-Com:  0.392D-01-0.154D+00 0.420D+00-0.100D+01 0.170D+01
 Coeff:      0.821D-05-0.209D-04 0.455D-04-0.343D-03 0.199D-02-0.872D-02
 Coeff:      0.392D-01-0.154D+00 0.420D+00-0.100D+01 0.170D+01
 Gap=     0.554 Goal=   None    Shift=    0.000
 RMSDP=3.15D-09 MaxDP=2.88D-08 DE= 3.98D-13 OVMax= 0.00D+00

 Cycle  12  Pass 2  IDiag  1:
 RMSDP=3.15D-09 MaxDP=2.88D-08 DE= 3.98D-13 OVMax= 0.00D+00

 SCF Done:  E(RPM6) = -0.569215031648E-01 A.U. after   12 cycles
             Convg  =    0.3153D-08             -V/T =  0.9990
 KE=-5.626517992341D+01 PE=-2.570417556155D+02 EE= 1.451695047152D+02
 Leave Link  502 at Mon Sep 14 19:12:35 2015, MaxMem=  402653184 cpu:       1.6
 (Enter /share/apps/g09/l701.exe)
 Compute integral first derivatives.
 ... and contract with generalized density number  0.
 Leave Link  701 at Mon Sep 14 19:12:35 2015, MaxMem=  402653184 cpu:       0.2
 (Enter /share/apps/g09/l702.exe)
 L702 exits ... SP integral derivatives will be done elsewhere.
 Leave Link  702 at Mon Sep 14 19:12:37 2015, MaxMem=  402653184 cpu:       0.0
 (Enter /share/apps/g09/l703.exe)
 Compute integral first derivatives, UseDBF=F ICtDFT=           0.
 Integral derivatives from FoFDir, PRISM(SPDF).
 Calling FoFJK, ICntrl=      2127 FMM=F ISym2X=0 I1Cent= 0 IOpClX= 0 NMat=1 NMatS=1 NMatT=0.
 FoFCou: FMM=F IPFlag=           0 FMFlag=      100000 FMFlg1=         800
         NFxFlg=           0 DoJE=F BraDBF=F KetDBF=F FulRan=T
         Omega=  0.000000  0.000000  1.000000  0.000000  0.000000 ICntrl=    2127 IOpCl=  0
         NMat0=    1 NMatS0=    1 NMatT0=    0 NMatD0=    1 NMtDS0=    0 NMtDT0=    0
         I1Cent=           0 NGrid=           0.
 Symmetry not used in FoFCou.
 Leave Link  703 at Mon Sep 14 19:12:37 2015, MaxMem=  402653184 cpu:       0.0
 (Enter /share/apps/g09/l716.exe)
 Dipole        = 9.55880918D-03 1.60406424D-03 8.10485958D-03
 ***** Axes restored to original set *****
 -------------------------------------------------------------------
 Center     Atomic                   Forces (Hartrees/Bohr)
 Number     Number              X              Y              Z
 -------------------------------------------------------------------
      1        6          -0.000602341   -0.000158324    0.000681994
      2        1           0.000164959   -0.000914582   -0.001273982
      3        1          -0.001016232   -0.000258199    0.000962522
      4        1           0.000638678    0.001105701   -0.000453833
      5        6          -0.000451143   -0.004068433    0.002378552
      6        1          -0.000040793   -0.000678362    0.000405041
      7        6           0.002748371    0.004116931    0.000558447
      8        1           0.000152075    0.001015385    0.000990208
      9        1           0.001151584    0.000086430   -0.000578437
     10        6          -0.002155119    0.001729658   -0.000689233
     11        1          -0.000210786    0.000743130   -0.000655670
     12        1          -0.000694599   -0.001007543   -0.000765207
     13        6           0.000061239    0.001118659   -0.000862617
     14        1          -0.000689805   -0.000649984   -0.000814606
     15        1           0.000752394   -0.000831285    0.001225588
     16        1           0.000004604    0.001012552    0.000474426
     17        6          -0.000220570   -0.002321953   -0.000720333
     18        1           0.001025549   -0.000402054   -0.000192481
     19        1          -0.001121886   -0.000730660    0.000118135
     20        1           0.000503821    0.001092933   -0.000788514
 -------------------------------------------------------------------
 Cartesian Forces:  Max     0.004116931 RMS     0.001215430
 Leave Link  716 at Mon Sep 14 19:12:39 2015, MaxMem=  402653184 cpu:       0.1
 (Enter /share/apps/g09/l103.exe)

 GradGradGradGradGradGradGradGradGradGradGradGradGradGradGradGradGradGrad
 Berny optimization.
 Using GEDIIS/GDIIS optimizer.
 Internal  Forces:  Max     0.007465721 RMS     0.001047104
 Search for a local minimum.
 Step number   2 out of a maximum of  110
 All quantities printed in internal units (Hartrees-Bohrs-Radians)
 RMS Force = .10471D-02 SwitMx=.10000D-02 MixMth= 1
 Mixed Optimization -- RFO/linear search
 Update second derivatives using D2CorX and points    1    2
 DE= -2.74D-03 DEPred=-2.73D-03 R= 1.00D+00
 SS=  1.41D+00  RLast= 1.89D-01 DXNew= 5.0454D-01 5.6847D-01
 Trust test= 1.00D+00 RLast= 1.89D-01 DXMaxT set to 5.05D-01
 Use linear search instead of GDIIS.
     Eigenvalues ---    0.00228   0.00255   0.00285   0.00289   0.00398
     Eigenvalues ---    0.03280   0.03451   0.03613   0.04638   0.04770
     Eigenvalues ---    0.04777   0.04881   0.05386   0.05410   0.05442
     Eigenvalues ---    0.05461   0.05491   0.05541   0.08486   0.08616
     Eigenvalues ---    0.12293   0.12389   0.14845   0.16000   0.16000
     Eigenvalues ---    0.16000   0.16000   0.16000   0.16000   0.16000
     Eigenvalues ---    0.16023   0.16556   0.16766   0.21463   0.21947
     Eigenvalues ---    0.26585   0.28454   0.28806   0.28873   0.29625
     Eigenvalues ---    0.32011   0.32042   0.32064   0.32109   0.32151
     Eigenvalues ---    0.32160   0.32173   0.32176   0.32201   0.32206
     Eigenvalues ---    0.32224   0.32267   0.32293   0.361791000.00000
     Eigenvalues --- 1000.000001000.000001000.000001000.000001000.00000
     Eigenvalues --- 1000.000001000.000001000.000001000.000001000.00000
     Eigenvalues --- 1000.000001000.000001000.000001000.000001000.00000
     Eigenvalues --- 1000.000001000.000001000.000001000.000001000.00000
     Eigenvalues --- 1000.000001000.000001000.000001000.000001000.00000
     Eigenvalues --- 1000.000001000.000001000.000001000.000001000.00000
     Eigenvalues --- 1000.000001000.000001000.000001000.000001000.00000
     Eigenvalues --- 1000.000001000.000001000.000001000.000001000.00000
     Eigenvalues --- 1000.000001000.000001000.000001000.000001000.00000
 RFO step:  Lambda=-7.92816610D-04 EMin= 2.27954134D-03
 Quartic linear search produced a step of  0.03239.
 Iteration  1 RMS(Cart)=  0.08041157 RMS(Int)=  0.00166074
 Iteration  2 RMS(Cart)=  0.00252512 RMS(Int)=  0.00001147
 Iteration  3 RMS(Cart)=  0.00000201 RMS(Int)=  0.00001133
 Iteration  4 RMS(Cart)=  0.00000000 RMS(Int)=  0.00001133
 Variable       Old X    -DE/DX   Delta X   Delta X   Delta X     New X
                                 (Linear)    (Quad)   (Total)
    R1        2.07389  -0.00154  -0.00102  -0.00797  -0.00899   2.06490
    R2        2.07320  -0.00136  -0.00105  -0.00751  -0.00856   2.06464
    R3        2.07326  -0.00128  -0.00104  -0.00721  -0.00825   2.06501
    R4        2.90634  -0.00058   0.00012  -0.00169  -0.00158   2.90477
    R5        2.11428   0.00028   0.00025   0.00164   0.00190   2.11618
    R6        2.89877   0.00747  -0.00081   0.02502   0.02422   2.92298
    R7        2.89411   0.00261  -0.00030   0.00840   0.00811   2.90222
    R8        2.09532  -0.00032  -0.00040  -0.00223  -0.00263   2.09270
    R9        2.09550  -0.00028  -0.00041  -0.00213  -0.00254   2.09295
   R10        2.89258   0.00416  -0.00048   0.01345   0.01297   2.90555
   R11        2.09288   0.00024  -0.00037  -0.00033  -0.00069   2.09219
   R12        2.09903  -0.00097  -0.00025  -0.00385  -0.00410   2.09493
   R13        2.88851  -0.00009   0.00004  -0.00019  -0.00015   2.88836
   R14        2.07362  -0.00106  -0.00100  -0.00639  -0.00739   2.06623
   R15        2.07554  -0.00158  -0.00093  -0.00784  -0.00877   2.06676
   R16        2.07388  -0.00088  -0.00095  -0.00565  -0.00660   2.06729
[...]
 ! D10   D(1,5,7,8)             71.6807         -DE/DX =    0.0                 !
 ! D11   D(1,5,7,9)            -43.5861         -DE/DX =    0.0                 !
 ! D12   D(1,5,7,10)          -165.9205         -DE/DX =    0.0                 !
 ! D13   D(6,5,7,8)           -170.0613         -DE/DX =    0.0                 !
 ! D14   D(6,5,7,9)             74.6719         -DE/DX =    0.0                 !
 ! D15   D(6,5,7,10)           -47.6624         -DE/DX =    0.0                 !
 ! D16   D(17,5,7,8)           -51.0106         -DE/DX =    0.0                 !
 ! D17   D(17,5,7,9)          -166.2774         -DE/DX =    0.0                 !
 ! D18   D(17,5,7,10)           71.3882         -DE/DX =    0.0                 !
 ! D19   D(1,5,17,18)          179.9258         -DE/DX =    0.0                 !
 ! D20   D(1,5,17,19)          -60.0816         -DE/DX =    0.0                 !
 ! D21   D(1,5,17,20)           60.0108         -DE/DX =    0.0                 !
 ! D22   D(6,5,17,18)           61.6056         -DE/DX =    0.0                 !
 ! D23   D(6,5,17,19)         -178.4018         -DE/DX =    0.0                 !
 ! D24   D(6,5,17,20)          -58.3094         -DE/DX =    0.0                 !
 ! D25   D(7,5,17,18)          -57.4762         -DE/DX =    0.0                 !
 ! D26   D(7,5,17,19)           62.5163         -DE/DX =    0.0                 !
 ! D27   D(7,5,17,20)         -177.3913         -DE/DX =    0.0                 !
 ! D28   D(5,7,10,11)          -49.1452         -DE/DX =    0.0                 !
 ! D29   D(5,7,10,12)         -164.555          -DE/DX =    0.0                 !
 ! D30   D(5,7,10,13)           73.6158         -DE/DX =    0.0                 !
 ! D31   D(8,7,10,11)           73.3295         -DE/DX =    0.0                 !
 ! D32   D(8,7,10,12)          -42.0804         -DE/DX =    0.0                 !
 ! D33   D(8,7,10,13)         -163.9095         -DE/DX =    0.0                 !
 ! D34   D(9,7,10,11)         -171.5219         -DE/DX =    0.0                 !
 ! D35   D(9,7,10,12)           73.0682         -DE/DX =    0.0                 !
 ! D36   D(9,7,10,13)          -48.7609         -DE/DX =    0.0                 !
 ! D37   D(7,10,13,14)          60.4404         -DE/DX =    0.0                 !
 ! D38   D(7,10,13,15)        -179.4158         -DE/DX =    0.0                 !
 ! D39   D(7,10,13,16)         -59.4131         -DE/DX =    0.0                 !
 ! D40   D(11,10,13,14)       -176.7289         -DE/DX =    0.0                 !
 ! D41   D(11,10,13,15)        -56.585          -DE/DX =    0.0                 !
 ! D42   D(11,10,13,16)         63.4176         -DE/DX =    0.0                 !
 ! D43   D(12,10,13,14)        -61.1963         -DE/DX =    0.0                 !
 ! D44   D(12,10,13,15)         58.9475         -DE/DX =    0.0                 !
 ! D45   D(12,10,13,16)        178.9501         -DE/DX =    0.0                 !
 --------------------------------------------------------------------------------
 GradGradGradGradGradGradGradGradGradGradGradGradGradGradGradGradGradGrad

 Largest change from initial coordinates is atom   16       0.627 Angstoms.
 Leave Link  103 at Mon Sep 14 19:15:08 2015, MaxMem=  402653184 cpu:       0.0
 (Enter /share/apps/g09/l202.exe)
                          Input orientation:                          
 ---------------------------------------------------------------------
 Center     Atomic      Atomic             Coordinates (Angstroms)
 Number     Number       Type             X           Y           Z
 ---------------------------------------------------------------------
      1          6           0        0.313035   -2.527531    1.660451
      2          1           0        0.245452   -1.952491    2.589511
      3          1           0        1.335063   -2.423598    1.281299
      4          1           0        0.166483   -3.582158    1.916172
      5          6           0       -0.724178   -2.056298    0.630960
      6          1           0       -1.741148   -2.158592    1.086153
      7          6           0       -0.492753   -0.569654    0.285218
      8          1           0        0.424838   -0.470147   -0.324898
      9          1           0       -0.294117   -0.001425    1.214196
     10          6           0       -1.672745    0.069083   -0.460513
     11          1           0       -1.976467   -0.577562   -1.307799
     12          1           0       -1.339791    1.022919   -0.915568
     13          6           0       -2.875055    0.330832    0.444436
     14          1           0       -2.622331    1.015089    1.261994
     15          1           0       -3.704129    0.776555   -0.115398
     16          1           0       -3.243986   -0.596460    0.898650
     17          6           0       -0.666530   -2.936662   -0.624435
     18          1           0       -1.402663   -2.613299   -1.368817
     19          1           0        0.319042   -2.899239   -1.099891
     20          1           0       -0.876121   -3.984162   -0.385722
 ---------------------------------------------------------------------
                    Distance matrix (angstroms):
                    1          2          3          4          5
     1  C    0.000000
     2  H    1.094711   0.000000
     3  H    1.095034   1.766526   0.000000
     4  H    1.095038   1.765060   1.763776   0.000000
     5  C    1.535488   2.187894   2.190508   2.184788   0.000000
     6  H    2.164625   2.499829   3.093766   2.520819   1.118880
     7  C    2.524647   2.786925   2.787507   3.488522   1.543763
     8  H    2.861283   3.274646   2.687815   3.843665   2.179399
     9  H    2.636094   2.447302   2.919873   3.677849   2.178903
    10  C    3.896692   4.131451   4.277181   4.728948   2.570668
    11  H    4.225483   4.692162   4.591025   4.900390   2.741109
    12  H    4.687580   4.863295   4.884624   5.611983   3.500329
    13  C    4.451163   4.421819   5.100228   5.169957   3.218611
    14  H    4.617933   4.335091   5.242701   5.416652   3.665325
    15  H    5.496201   5.510301   6.130677   6.173111   4.178781
    16  H    4.118468   4.107799   4.944952   4.645540   2.924417
    17  C    2.519452   3.482780   2.810948   2.750502   1.534400
    18  H    3.482447   4.338354   3.815003   3.767236   2.183965
    19  H    2.785263   3.809651   2.632224   3.096174   2.189681
    20  H    2.778972   3.773278   3.178625   2.558779   2.184808
                    6          7          8          9         10
     6  H    0.000000
     7  C    2.173639   0.000000
     8  H    3.087622   1.106399   0.000000
     9  H    2.600704   1.106951   1.762217   0.000000
    10  C    2.712819   1.535083   2.170026   2.170307   0.000000
    11  H    2.878548   2.176965   2.596902   3.085887   1.108283
    12  H    3.780210   2.166945   2.385802   2.584300   1.108033
    13  C    2.809765   2.551781   3.481772   2.713699   1.527414
    14  H    3.298432   2.828534   3.742913   2.540898   2.182584
    15  H    3.729893   3.505097   4.318162   3.741824   2.178565
    16  H    2.175761   2.818918   3.869534   3.025783   2.181529
    17  C    2.164789   2.541731   2.713762   3.483515   3.173931
    18  H    2.519566   2.782131   3.003769   3.837019   2.844843
    19  H    3.093822   2.829224   2.551920   3.758762   3.631384
    20  H    2.499479   3.500856   3.747598   4.331358   4.131464
                   11         12         13         14         15
    11  H    0.000000
    12  H    1.766563   0.000000
    13  C    2.168633   2.164631   0.000000
    14  H    3.091524   2.527202   1.095664   0.000000
    15  H    2.498053   2.508199   1.095192   1.767595   0.000000
    16  H    2.544676   3.088646   1.096491   1.765096   1.767822
    17  C    2.783572   4.026950   4.086146   4.795843   4.824325
    18  H    2.115939   3.664897   3.758155   4.644778   4.284730
    19  H    3.271509   4.262514   4.797975   5.436189   5.537743
    20  H    3.696742   5.056341   4.827429   5.545875   5.543927
                   16         17         18         19         20
    16  H    0.000000
    17  C    3.799949   0.000000
    18  H    3.549579   1.095701   0.000000
    19  H    4.689576   1.094902   1.765885   0.000000
    20  H    4.328154   1.094608   1.767197   1.765080   0.000000
 Stoichiometry    C6H14
 Framework group  C1[X(C6H14)]
 Deg. of freedom    54
 Full point group                 C1      NOp   1
 Largest Abelian subgroup         C1      NOp   1
 Largest concise Abelian subgroup C1      NOp   1
                         Standard orientation:                         
 ---------------------------------------------------------------------
 Center     Atomic      Atomic             Coordinates (Angstroms)
 Number     Number       Type             X           Y           Z
 ---------------------------------------------------------------------
      1          6           0        2.002804   -1.039445   -0.115071
      2          1           0        1.675799   -2.077043   -0.236932
      3          1           0        2.471487   -0.954497    0.870941
      4          1           0        2.780608   -0.850840   -0.862438
      5          6           0        0.831775   -0.058816   -0.272484
      6          1           0        0.378093   -0.214236   -1.283381
      7          6           0       -0.247122   -0.343349    0.794393
      8          1           0        0.121908   -0.025407    1.787795
      9          1           0       -0.408477   -1.435597    0.873758
     10          6           0       -1.585265    0.349622    0.501745
     11          1           0       -1.411907    1.419451    0.270003
     12          1           0       -2.206957    0.338362    1.418866
     13          6           0       -2.355921   -0.306834   -0.641998
     14          1           0       -2.594472   -1.352662   -0.418802
     15          1           0       -3.299973    0.213631   -0.835202
     16          1           0       -1.776725   -0.296854   -1.572979
     17          6           0        1.333862    1.388538   -0.186142
     18          1           0        0.509000    2.101013   -0.298141
     19          1           0        1.815639    1.592928    0.775588
     20          1           0        2.065181    1.603456   -0.971732
 ---------------------------------------------------------------------
 Rotational constants (GHZ):      5.4145516      1.9477090      1.7419063
 Leave Link  202 at Mon Sep 14 19:15:10 2015, MaxMem=  402653184 cpu:       0.0
 (Enter /share/apps/g09/l601.exe)
 Copying SCF densities to generalized density rwf, IOpCl= 0 IROHF=0.

 **********************************************************************

            Population analysis using the SCF density.

 **********************************************************************

 Orbital symmetries:
       Occupied  (A) (A) (A) (A) (A) (A) (A) (A) (A) (A) (A) (A)
                 (A) (A) (A) (A) (A) (A) (A)
       Virtual   (A) (A) (A) (A) (A) (A) (A) (A) (A) (A) (A) (A)
                 (A) (A) (A) (A) (A) (A) (A)
 The electronic state is 1-A.
 Alpha  occ. eigenvalues --   -1.06359  -0.98466  -0.88320  -0.86610  -0.76169
 Alpha  occ. eigenvalues --   -0.69712  -0.58226  -0.56981  -0.53226  -0.52465
 Alpha  occ. eigenvalues --   -0.51164  -0.48456  -0.47511  -0.45082  -0.44299
 Alpha  occ. eigenvalues --   -0.44026  -0.41231  -0.40986  -0.39855
 Alpha virt. eigenvalues --    0.15475   0.16269   0.16666   0.17625   0.18162
 Alpha virt. eigenvalues --    0.21126   0.21776   0.22142   0.22334   0.22338
 Alpha virt. eigenvalues --    0.22516   0.22646   0.23125   0.23917   0.24481
 Alpha virt. eigenvalues --    0.24822   0.25829   0.25941   0.26307
          Condensed to atoms (all electrons):
              1          2          3          4          5          6
     1  C    4.506432   0.000000   0.000000   0.000000   0.000000   0.000000
     2  H    0.000000   0.852250   0.000000   0.000000   0.000000   0.000000
     3  H    0.000000   0.000000   0.848996   0.000000   0.000000   0.000000
     4  H    0.000000   0.000000   0.000000   0.850529   0.000000   0.000000
     5  C    0.000000   0.000000   0.000000   0.000000   3.966526   0.000000
     6  H    0.000000   0.000000   0.000000   0.000000   0.000000   0.889140
     7  C    0.000000   0.000000   0.000000   0.000000   0.000000   0.000000
     8  H    0.000000   0.000000   0.000000   0.000000   0.000000   0.000000
     9  H    0.000000   0.000000   0.000000   0.000000   0.000000   0.000000
    10  C    0.000000   0.000000   0.000000   0.000000   0.000000   0.000000
    11  H    0.000000   0.000000   0.000000   0.000000   0.000000   0.000000
    12  H    0.000000   0.000000   0.000000   0.000000   0.000000   0.000000
    13  C    0.000000   0.000000   0.000000   0.000000   0.000000   0.000000
    14  H    0.000000   0.000000   0.000000   0.000000   0.000000   0.000000
    15  H    0.000000   0.000000   0.000000   0.000000   0.000000   0.000000
    16  H    0.000000   0.000000   0.000000   0.000000   0.000000   0.000000
    17  C    0.000000   0.000000   0.000000   0.000000   0.000000   0.000000
    18  H    0.000000   0.000000   0.000000   0.000000   0.000000   0.000000
    19  H    0.000000   0.000000   0.000000   0.000000   0.000000   0.000000
    20  H    0.000000   0.000000   0.000000   0.000000   0.000000   0.000000
              7          8          9         10         11         12
     1  C    0.000000   0.000000   0.000000   0.000000   0.000000   0.000000
     2  H    0.000000   0.000000   0.000000   0.000000   0.000000   0.000000
     3  H    0.000000   0.000000   0.000000   0.000000   0.000000   0.000000
     4  H    0.000000   0.000000   0.000000   0.000000   0.000000   0.000000
     5  C    0.000000   0.000000   0.000000   0.000000   0.000000   0.000000
     6  H    0.000000   0.000000   0.000000   0.000000   0.000000   0.000000
     7  C    4.308337   0.000000   0.000000   0.000000   0.000000   0.000000
     8  H    0.000000   0.866746   0.000000   0.000000   0.000000   0.000000
     9  H    0.000000   0.000000   0.863657   0.000000   0.000000   0.000000
    10  C    0.000000   0.000000   0.000000   4.213011   0.000000   0.000000
    11  H    0.000000   0.000000   0.000000   0.000000   0.873390   0.000000
    12  H    0.000000   0.000000   0.000000   0.000000   0.000000   0.878975
    13  C    0.000000   0.000000   0.000000   0.000000   0.000000   0.000000
    14  H    0.000000   0.000000   0.000000   0.000000   0.000000   0.000000
    15  H    0.000000   0.000000   0.000000   0.000000   0.000000   0.000000
    16  H    0.000000   0.000000   0.000000   0.000000   0.000000   0.000000
    17  C    0.000000   0.000000   0.000000   0.000000   0.000000   0.000000
    18  H    0.000000   0.000000   0.000000   0.000000   0.000000   0.000000
    19  H    0.000000   0.000000   0.000000   0.000000   0.000000   0.000000
    20  H    0.000000   0.000000   0.000000   0.000000   0.000000   0.000000
             13         14         15         16         17         18
     1  C    0.000000   0.000000   0.000000   0.000000   0.000000   0.000000
     2  H    0.000000   0.000000   0.000000   0.000000   0.000000   0.000000
     3  H    0.000000   0.000000   0.000000   0.000000   0.000000   0.000000
     4  H    0.000000   0.000000   0.000000   0.000000   0.000000   0.000000
     5  C    0.000000   0.000000   0.000000   0.000000   0.000000   0.000000
     6  H    0.000000   0.000000   0.000000   0.000000   0.000000   0.000000
     7  C    0.000000   0.000000   0.000000   0.000000   0.000000   0.000000
     8  H    0.000000   0.000000   0.000000   0.000000   0.000000   0.000000
     9  H    0.000000   0.000000   0.000000   0.000000   0.000000   0.000000
    10  C    0.000000   0.000000   0.000000   0.000000   0.000000   0.000000
    11  H    0.000000   0.000000   0.000000   0.000000   0.000000   0.000000
    12  H    0.000000   0.000000   0.000000   0.000000   0.000000   0.000000
    13  C    4.462370   0.000000   0.000000   0.000000   0.000000   0.000000
    14  H    0.000000   0.854732   0.000000   0.000000   0.000000   0.000000
    15  H    0.000000   0.000000   0.858396   0.000000   0.000000   0.000000
    16  H    0.000000   0.000000   0.000000   0.852372   0.000000   0.000000
    17  C    0.000000   0.000000   0.000000   0.000000   4.500021   0.000000
    18  H    0.000000   0.000000   0.000000   0.000000   0.000000   0.850808
    19  H    0.000000   0.000000   0.000000   0.000000   0.000000   0.000000
    20  H    0.000000   0.000000   0.000000   0.000000   0.000000   0.000000
             19         20
     1  C    0.000000   0.000000
     2  H    0.000000   0.000000
     3  H    0.000000   0.000000
     4  H    0.000000   0.000000
     5  C    0.000000   0.000000
     6  H    0.000000   0.000000
     7  C    0.000000   0.000000
     8  H    0.000000   0.000000
     9  H    0.000000   0.000000
    10  C    0.000000   0.000000
    11  H    0.000000   0.000000
    12  H    0.000000   0.000000
    13  C    0.000000   0.000000
    14  H    0.000000   0.000000
    15  H    0.000000   0.000000
    16  H    0.000000   0.000000
    17  C    0.000000   0.000000
    18  H    0.000000   0.000000
    19  H    0.850152   0.000000
    20  H    0.000000   0.853160
 Mulliken atomic charges:
              1
     1  C   -0.506432
     2  H    0.147750
     3  H    0.151004
     4  H    0.149471
     5  C    0.033474
     6  H    0.110860
     7  C   -0.308337
     8  H    0.133254
     9  H    0.136343
    10  C   -0.213011
    11  H    0.126610
    12  H    0.121025
    13  C   -0.462370
    14  H    0.145268
    15  H    0.141604
    16  H    0.147628
    17  C   -0.500021
    18  H    0.149192
    19  H    0.149848
    20  H    0.146840
 Sum of Mulliken atomic charges =   0.00000
 Mulliken charges with hydrogens summed into heavy atoms:
              1
     1  C   -0.058208
     5  C    0.144335
     7  C   -0.038740
    10  C    0.034624
    13  C   -0.027871
    17  C   -0.054140
 Sum of Mulliken charges with hydrogens summed into heavy atoms =   0.00000
 Charge=              0.0000 electrons
 Dipole moment (field-independent basis, Debye):
    X=              0.0432    Y=             -0.0107    Z=              0.0182  Tot=              0.0481
 N-N= 1.673152985294D+02 E-N=-2.555073521135D+02  KE=-5.625546767028D+01
 Leave Link  601 at Mon Sep 14 19:15:10 2015, MaxMem=  402653184 cpu:       0.0
 (Enter /share/apps/g09/l9999.exe)
 1\1\GINC-COMPUTE-0-0\FOpt\RPM6\ZDO\C6H14\HETANJIN\14-Sep-2015\0\\#p PM
 6 opt\\using PM6 to do opt and freq calc.\\0,1\C,0.3130352137,-2.52753
 1378,1.660450624\H,0.2454524596,-1.9524909086,2.5895111223\H,1.3350634
 102,-2.423598086,1.2812987938\H,0.1664834835,-3.5821580427,1.916172306
 8\C,-0.7241778846,-2.0562979485,0.6309603615\H,-1.7411481041,-2.158591
 656,1.0861534635\C,-0.4927532786,-0.569654253,0.2852184644\H,0.4248381
 146,-0.4701468622,-0.3248981484\H,-0.2941174158,-0.0014245631,1.214196
 006\C,-1.6727446597,0.0690826608,-0.4605127092\H,-1.9764671651,-0.5775
 624449,-1.3077992313\H,-1.3397906717,1.0229191542,-0.9155678509\C,-2.8
 750547293,0.3308324787,0.4444355362\H,-2.6223313598,1.0150889984,1.261
 9944979\H,-3.7041289415,0.7765549224,-0.1153975584\H,-3.2439859481,-0.
 5964601959,0.8986498204\C,-0.6665297766,-2.9366621376,-0.6244349973\H,
 -1.4026632418,-2.6132989422,-1.3688170871\H,0.319041681,-2.8992392531,
 -1.0998913988\H,-0.8761211858,-3.9841615428,-0.3857220154\\Version=EM6
 4L-G09RevA.01\State=1-A\HF=-0.0575647\RMSD=3.764e-09\RMSF=3.704e-06\Di
 pole=0.016645,-0.008059,0.0039584\PG=C01 [X(C6H14)]\\@


 Age does not diminish the extreme disappointment of
 having a scoop of ice cream fall from the cone.
 -- Jim Fiebig
 Job cpu time:  0 days  0 hours  0 minutes 31.7 seconds.
 File lengths (MBytes):  RWF=      5 Int=      0 D2E=      0 Chk=      3 Scr=      1
 Normal termination of Gaussian 09 at Mon Sep 14 19:15:10 2015.
