 Entering Gaussian System, Link 0=/share/apps/g09/g09
 Input=C6H14_2_00_1_opt_B3L.gjf
 Output=C6H14_2_00_1_opt_B3L.log
 Initial command:
 /share/apps/g09/l1.exe /state/partition1/Gau-16530.inp -scrdir=/state/partition1/
 Entering Link 1 = /share/apps/g09/l1.exe PID=     16531.
  
 Copyright (c) 1988,1990,1992,1993,1995,1998,2003,2009, Gaussian, Inc.
                  All Rights Reserved.
  
 This is part of the Gaussian(R) 09 program.  It is based on
 the Gaussian(R) 03 system (copyright 2003, Gaussian, Inc.),
 the Gaussian(R) 98 system (copyright 1998, Gaussian, Inc.),
 the Gaussian(R) 94 system (copyright 1995, Gaussian, Inc.),
 the Gaussian 92(TM) system (copyright 1992, Gaussian, Inc.),
 the Gaussian 90(TM) system (copyright 1990, Gaussian, Inc.),
 the Gaussian 88(TM) system (copyright 1988, Gaussian, Inc.),
 the Gaussian 86(TM) system (copyright 1986, Carnegie Mellon
 University), and the Gaussian 82(TM) system (copyright 1983,
 Carnegie Mellon University). Gaussian is a federally registered
 trademark of Gaussian, Inc.
  
 This software contains proprietary and confidential information,
 including trade secrets, belonging to Gaussian, Inc.
  
 This software is provided under written license and may be
 used, copied, transmitted, or stored only in accord with that
 written license.
  
 The following legend is applicable only to US Government
 contracts under FAR:
  
                    RESTRICTED RIGHTS LEGEND
  
 Use, reproduction and disclosure by the US Government is
 subject to restrictions as set forth in subparagraphs (a)
 and (c) of the Commercial Computer Software - Restricted
 Rights clause in FAR 52.227-19.
  
 Gaussian, Inc.
 340 Quinnipiac St., Bldg. 40, Wallingford CT 06492
  
  
 ---------------------------------------------------------------
 Warning -- This program may not be used in any manner that
 competes with the business of Gaussian, Inc. or will provide
 assistance to any competitor of Gaussian, Inc.  The licensee
 of this program is prohibited from giving any competitor of
 Gaussian, Inc. access to this program.  By using this program,
 the user acknowledges that Gaussian, Inc. is engaged in the
 business of creating and licensing software in the field of
 computational chemistry and represents and warrants to the
 licensee that it is not a competitor of Gaussian, Inc. and that
 it will not use this program in any manner prohibited above.
 ---------------------------------------------------------------
  

 Cite this work as:
 Gaussian 09, Revision A.01,
 M. J. Frisch, G. W. Trucks, H. B. Schlegel, G. E. Scuseria, 
 M. A. Robb, J. R. Cheeseman, G. Scalmani, V. Barone, B. Mennucci, 
 G. A. Petersson, H. Nakatsuji, M. Caricato, X. Li, H. P. Hratchian, 
 A. F. Izmaylov, J. Bloino, G. Zheng, J. L. Sonnenberg, M. Hada, 
 M. Ehara, K. Toyota, R. Fukuda, J. Hasegawa, M. Ishida, T. Nakajima, 
 Y. Honda, O. Kitao, H. Nakai, T. Vreven, J. A. Montgomery, Jr., 
 J. E. Peralta, F. Ogliaro, M. Bearpark, J. J. Heyd, E. Brothers, 
 K. N. Kudin, V. N. Staroverov, R. Kobayashi, J. Normand, 
 K. Raghavachari, A. Rendell, J. C. Burant, S. S. Iyengar, J. Tomasi, 
 M. Cossi, N. Rega, J. M. Millam, M. Klene, J. E. Knox, J. B. Cross, 
 V. Bakken, C. Adamo, J. Jaramillo, R. Gomperts, R. E. Stratmann, 
 O. Yazyev, A. J. Austin, R. Cammi, C. Pomelli, J. W. Ochterski, 
 R. L. Martin, K. Morokuma, V. G. Zakrzewski, G. A. Voth, 
 P. Salvador, J. J. Dannenberg, S. Dapprich, A. D. Daniels, 
 O. Farkas, J. B. Foresman, J. V. Ortiz, J. Cioslowski, 
 and D. J. Fox, Gaussian, Inc., Wallingford CT, 2009.
 
 ******************************************
 Gaussian 09:  EM64L-G09RevA.01  8-May-2009
                18-Sep-2015 
 ******************************************
 %mem=3GB
 %nprocshared=2
 Will use up to    2 processors via shared memory.
 -----------------------------------------
 #p B3LYP/6-31G(d) opt=tight int=ultrafine
 -----------------------------------------
 1/7=10,14=-1,18=20,19=15,26=3,38=1/1,3;
 2/9=110,12=2,17=6,18=5,40=1/2;
 3/5=1,6=6,7=1,11=2,16=1,25=1,30=1,71=1,74=-5,75=-5/1,2,3;
 4//1;
 5/5=2,38=5/2;
 6/7=2,8=2,9=2,10=2,28=1/1;
 7//1,2,3,16;
 1/7=10,14=-1,18=20,19=15/3(2);
 2/9=110/2;
 99//99;
 2/9=110/2;
 3/5=1,6=6,7=1,11=2,16=1,25=1,30=1,71=1,74=-5,75=-5/1,2,3;
 4/5=5,16=3/1;
 5/5=2,38=5/2;
 7//1,2,3,16;
 1/7=10,14=-1,18=20,19=15/3(-5);
 2/9=110/2;
 6/7=2,8=2,9=2,10=2,19=2,28=1/1;
 99/9=1/99;
 Leave Link    1 at Fri Sep 18 13:22:31 2015, MaxMem=  402653184 cpu:       0.1
 (Enter /share/apps/g09/l101.exe)
 ---------------------------------------------
 using B3LYP/6-31G(d) to do opt and freq calc.
 ---------------------------------------------
 Symbolic Z-matrix:
 Charge =  0 Multiplicity = 1
 C                     2.15008  -1.02887   0.01551 
 H                     1.93122  -2.01235  -0.4127 
 H                     2.25355  -1.156     1.09832 
 H                     3.12518  -0.71295  -0.36991 
 C                     1.05743  -0.00779  -0.33272 
 H                     0.98345   0.05719  -1.44702 
 C                    -0.30371  -0.47848   0.22257 
 H                    -0.31044  -0.39162   1.32511 
 H                    -0.43696  -1.55655   0.00968 
 C                    -1.48039   0.30741  -0.37129 
 H                    -1.46829   0.22582  -1.47577 
 H                    -1.36394   1.38603  -0.14628 
 C                    -2.82107  -0.18829   0.16713 
 H                    -2.87884  -0.08969   1.25701 
 H                    -3.65407   0.3816   -0.25888 
 H                    -2.9876   -1.24402  -0.07474 
 C                     1.43332   1.37824   0.20741 
 H                     0.67084   2.12369  -0.04276 
 H                     1.53809   1.37144   1.29753 
 H                     2.38382   1.72417  -0.21126 
 
 NAtoms=     20 NQM=     20 NQMF=      0 NMic=      0 NMicF=      0 NTot=     20.
                    Isotopes and Nuclear Properties:
 (Nuclear quadrupole moments (NQMom) in fm**2, nuclear magnetic moments (NMagM)
  in nuclear magnetons)

  Atom         1           2           3           4           5           6           7           8           9          10
 IAtWgt=          12           1           1           1          12           1          12           1           1          12
 AtmWgt=  12.0000000   1.0078250   1.0078250   1.0078250  12.0000000   1.0078250  12.0000000   1.0078250   1.0078250  12.0000000
 NucSpn=           0           1           1           1           0           1           0           1           1           0
 AtZEff=   0.0000000   0.0000000   0.0000000   0.0000000   0.0000000   0.0000000   0.0000000   0.0000000   0.0000000   0.0000000
 NQMom=    0.0000000   0.0000000   0.0000000   0.0000000   0.0000000   0.0000000   0.0000000   0.0000000   0.0000000   0.0000000
 NMagM=    0.0000000   2.7928460   2.7928460   2.7928460   0.0000000   2.7928460   0.0000000   2.7928460   2.7928460   0.0000000

  Atom        11          12          13          14          15          16          17          18          19          20
 IAtWgt=           1           1          12           1           1           1          12           1           1           1
 AtmWgt=   1.0078250   1.0078250  12.0000000   1.0078250   1.0078250   1.0078250  12.0000000   1.0078250   1.0078250   1.0078250
 NucSpn=           1           1           0           1           1           1           0           1           1           1
 AtZEff=   0.0000000   0.0000000   0.0000000   0.0000000   0.0000000   0.0000000   0.0000000   0.0000000   0.0000000   0.0000000
 NQMom=    0.0000000   0.0000000   0.0000000   0.0000000   0.0000000   0.0000000   0.0000000   0.0000000   0.0000000   0.0000000
 NMagM=    2.7928460   2.7928460   0.0000000   2.7928460   2.7928460   2.7928460   0.0000000   2.7928460   2.7928460   2.7928460
 Leave Link  101 at Fri Sep 18 13:22:31 2015, MaxMem=  402653184 cpu:       0.1
 (Enter /share/apps/g09/l103.exe)

 GradGradGradGradGradGradGradGradGradGradGradGradGradGradGradGradGradGrad
 Berny optimization.
 Initialization pass.
                           ----------------------------
                           !    Initial Parameters    !
                           ! (Angstroms and Degrees)  !
 --------------------------                            --------------------------
 ! Name  Definition              Value          Derivative Info.                !
 --------------------------------------------------------------------------------
 ! R1    R(1,2)                  1.0948         estimate D2E/DX2                !
 ! R2    R(1,3)                  1.0951         estimate D2E/DX2                !
 ! R3    R(1,4)                  1.0951         estimate D2E/DX2                !
 ! R4    R(1,5)                  1.5355         estimate D2E/DX2                !
 ! R5    R(5,6)                  1.1186         estimate D2E/DX2                !
 ! R6    R(5,7)                  1.5436         estimate D2E/DX2                !
 ! R7    R(5,17)                 1.5343         estimate D2E/DX2                !
 ! R8    R(7,8)                  1.106          estimate D2E/DX2                !
 ! R9    R(7,9)                  1.1069         estimate D2E/DX2                !
 ! R10   R(7,10)                 1.5346         estimate D2E/DX2                !
 ! R11   R(10,11)                1.1076         estimate D2E/DX2                !
 ! R12   R(10,12)                1.108          estimate D2E/DX2                !
 ! R13   R(10,13)                1.5274         estimate D2E/DX2                !
 ! R14   R(13,14)                1.0959         estimate D2E/DX2                !
 ! R15   R(13,15)                1.0955         estimate D2E/DX2                !
 ! R16   R(13,16)                1.0958         estimate D2E/DX2                !
 ! R17   R(17,18)                1.0953         estimate D2E/DX2                !
 ! R18   R(17,19)                1.0952         estimate D2E/DX2                !
 ! R19   R(17,20)                1.0947         estimate D2E/DX2                !
 ! A1    A(2,1,3)              107.5383         estimate D2E/DX2                !
 ! A2    A(2,1,4)              107.4287         estimate D2E/DX2                !
 ! A3    A(2,1,5)              111.4953         estimate D2E/DX2                !
 ! A4    A(3,1,4)              107.2986         estimate D2E/DX2                !
 ! A5    A(3,1,5)              111.633          estimate D2E/DX2                !
 ! A6    A(4,1,5)              111.2212         estimate D2E/DX2                !
 ! A7    A(1,5,6)              108.1552         estimate D2E/DX2                !
 ! A8    A(1,5,7)              110.0678         estimate D2E/DX2                !
 ! A9    A(1,5,17)             110.2769         estimate D2E/DX2                !
 ! A10   A(6,5,7)              108.5262         estimate D2E/DX2                !
 ! A11   A(6,5,17)             108.324          estimate D2E/DX2                !
 ! A12   A(7,5,17)             111.399          estimate D2E/DX2                !
 ! A13   A(5,7,8)              109.8792         estimate D2E/DX2                !
 ! A14   A(5,7,9)              109.5087         estimate D2E/DX2                !
 ! A15   A(5,7,10)             112.3822         estimate D2E/DX2                !
 ! A16   A(8,7,9)              105.5144         estimate D2E/DX2                !
 ! A17   A(8,7,10)             109.9319         estimate D2E/DX2                !
 ! A18   A(9,7,10)             109.3927         estimate D2E/DX2                !
 ! A19   A(7,10,11)            109.8657         estimate D2E/DX2                !
 ! A20   A(7,10,12)            109.839          estimate D2E/DX2                !
 ! A21   A(7,10,13)            111.7418         estimate D2E/DX2                !
 ! A22   A(11,10,12)           105.8475         estimate D2E/DX2                !
 ! A23   A(11,10,13)           109.7065         estimate D2E/DX2                !
 ! A24   A(12,10,13)           109.6697         estimate D2E/DX2                !
 ! A25   A(10,13,14)           111.5706         estimate D2E/DX2                !
 ! A26   A(10,13,15)           111.1934         estimate D2E/DX2                !
 ! A27   A(10,13,16)           111.6076         estimate D2E/DX2                !
 ! A28   A(14,13,15)           107.4487         estimate D2E/DX2                !
 ! A29   A(14,13,16)           107.3485         estimate D2E/DX2                !
 ! A30   A(15,13,16)           107.4457         estimate D2E/DX2                !
 ! A31   A(5,17,18)            111.3387         estimate D2E/DX2                !
 ! A32   A(5,17,19)            111.6069         estimate D2E/DX2                !
 ! A33   A(5,17,20)            111.3177         estimate D2E/DX2                !
 ! A34   A(18,17,19)           107.348          estimate D2E/DX2                !
 ! A35   A(18,17,20)           107.579          estimate D2E/DX2                !
 ! A36   A(19,17,20)           107.4319         estimate D2E/DX2                !
 ! D1    D(2,1,5,6)            -58.2802         estimate D2E/DX2                !
 ! D2    D(2,1,5,7)             60.1306         estimate D2E/DX2                !
 ! D3    D(2,1,5,17)          -176.566          estimate D2E/DX2                !
 ! D4    D(3,1,5,6)           -178.5847         estimate D2E/DX2                !
 ! D5    D(3,1,5,7)            -60.1738         estimate D2E/DX2                !
 ! D6    D(3,1,5,17)            63.1295         estimate D2E/DX2                !
 ! D7    D(4,1,5,6)             61.6036         estimate D2E/DX2                !
 ! D8    D(4,1,5,7)           -179.9855         estimate D2E/DX2                !
 ! D9    D(4,1,5,17)           -56.6821         estimate D2E/DX2                !
 ! D10   D(1,5,7,8)             71.0944         estimate D2E/DX2                !
 ! D11   D(1,5,7,9)            -44.3641         estimate D2E/DX2                !
 ! D12   D(1,5,7,10)          -166.1579         estimate D2E/DX2                !
 ! D13   D(6,5,7,8)           -170.7232         estimate D2E/DX2                !
 ! D14   D(6,5,7,9)             73.8183         estimate D2E/DX2                !
 ! D15   D(6,5,7,10)           -47.9755         estimate D2E/DX2                !
 ! D16   D(17,5,7,8)           -51.5506         estimate D2E/DX2                !
 ! D17   D(17,5,7,9)          -167.0092         estimate D2E/DX2                !
 ! D18   D(17,5,7,10)           71.1971         estimate D2E/DX2                !
 ! D19   D(1,5,17,18)          179.2704         estimate D2E/DX2                !
 ! D20   D(1,5,17,19)          -60.7929         estimate D2E/DX2                !
 ! D21   D(1,5,17,20)           59.2362         estimate D2E/DX2                !
 ! D22   D(6,5,17,18)           61.0882         estimate D2E/DX2                !
 ! D23   D(6,5,17,19)         -178.9751         estimate D2E/DX2                !
 ! D24   D(6,5,17,20)          -58.946          estimate D2E/DX2                !
 ! D25   D(7,5,17,18)          -58.2048         estimate D2E/DX2                !
 ! D26   D(7,5,17,19)           61.732          estimate D2E/DX2                !
 ! D27   D(7,5,17,20)         -178.2389         estimate D2E/DX2                !
 ! D28   D(5,7,10,11)           56.8687         estimate D2E/DX2                !
 ! D29   D(5,7,10,12)          -59.1737         estimate D2E/DX2                !
 ! D30   D(5,7,10,13)          178.8801         estimate D2E/DX2                !
 ! D31   D(8,7,10,11)          179.5867         estimate D2E/DX2                !
 ! D32   D(8,7,10,12)           63.5443         estimate D2E/DX2                !
 ! D33   D(8,7,10,13)          -58.4019         estimate D2E/DX2                !
 ! D34   D(9,7,10,11)          -64.9911         estimate D2E/DX2                !
 ! D35   D(9,7,10,12)          178.9665         estimate D2E/DX2                !
 ! D36   D(9,7,10,13)           57.0203         estimate D2E/DX2                !
 ! D37   D(7,10,13,14)          59.796          estimate D2E/DX2                !
 ! D38   D(7,10,13,15)         179.7371         estimate D2E/DX2                !
 ! D39   D(7,10,13,16)         -60.3006         estimate D2E/DX2                !
 ! D40   D(11,10,13,14)       -178.1011         estimate D2E/DX2                !
 ! D41   D(11,10,13,15)        -58.16           estimate D2E/DX2                !
 ! D42   D(11,10,13,16)         61.8023         estimate D2E/DX2                !
 ! D43   D(12,10,13,14)        -62.2474         estimate D2E/DX2                !
 ! D44   D(12,10,13,15)         57.6937         estimate D2E/DX2                !
 ! D45   D(12,10,13,16)        177.656          estimate D2E/DX2                !
 --------------------------------------------------------------------------------
 Trust Radius=3.00D-01 FncErr=1.00D-07 GrdErr=1.00D-06
 Number of steps in this run= 110 maximum allowed number of steps= 120.
 GradGradGradGradGradGradGradGradGradGradGradGradGradGradGradGradGradGrad

 Leave Link  103 at Fri Sep 18 13:22:31 2015, MaxMem=  402653184 cpu:       0.0
 (Enter /share/apps/g09/l202.exe)
                          Input orientation:                          
 ---------------------------------------------------------------------
 Center     Atomic      Atomic             Coordinates (Angstroms)
 Number     Number       Type             X           Y           Z
 ---------------------------------------------------------------------
      1          6           0        2.150080   -1.028872    0.015511
      2          1           0        1.931219   -2.012349   -0.412700
      3          1           0        2.253555   -1.156004    1.098322
      4          1           0        3.125179   -0.712949   -0.369909
      5          6           0        1.057434   -0.007792   -0.332715
      6          1           0        0.983453    0.057187   -1.447019
      7          6           0       -0.303712   -0.478483    0.222569
      8          1           0       -0.310440   -0.391623    1.325114
      9          1           0       -0.436964   -1.556552    0.009681
     10          6           0       -1.480386    0.307405   -0.371288
     11          1           0       -1.468287    0.225824   -1.475771
     12          1           0       -1.363935    1.386030   -0.146276
     13          6           0       -2.821069   -0.188292    0.167125
     14          1           0       -2.878839   -0.089694    1.257011
     15          1           0       -3.654069    0.381601   -0.258876
     16          1           0       -2.987597   -1.244024   -0.074737
     17          6           0        1.433315    1.378242    0.207405
     18          1           0        0.670841    2.123691   -0.042756
     19          1           0        1.538094    1.371442    1.297528
     20          1           0        2.383816    1.724168   -0.211259
 ---------------------------------------------------------------------
                    Distance matrix (angstroms):
                    1          2          3          4          5
     1  C    0.000000
     2  H    1.094757   0.000000
     3  H    1.095148   1.766470   0.000000
     4  H    1.095068   1.765166   1.764009   0.000000
     5  C    1.535494   2.188183   2.190197   2.184994   0.000000
     6  H    2.163224   2.500211   3.092532   2.517988   1.118646
     7  C    2.523271   2.784103   2.786681   3.487592   1.543570
     8  H    2.859249   3.266770   2.685104   3.844455   2.183301
     9  H    2.640318   2.448356   2.929927   3.680301   2.179247
    10  C    3.887870   4.125775   4.271257   4.717240   2.557610
    11  H    4.109837   4.206683   4.731544   4.817069   2.782161
    12  H    4.266876   4.741097   4.593168   4.960632   2.800094
    13  C    5.043995   5.123243   5.249324   5.993458   3.914742
    14  H    5.264352   5.442536   5.244394   6.251684   4.245961
    15  H    5.979370   6.078659   6.253498   6.867938   4.728143
    16  H    5.142972   4.989919   5.371544   6.142898   4.237582
    17  C    2.518883   3.482606   2.808724   2.751141   1.534310
    18  H    3.482843   4.339613   3.816208   3.765280   2.185578
    19  H    2.789194   3.811754   2.634303   3.105458   2.188838
    20  H    2.772235   3.769215   3.166601   2.552318   2.184886
                    6          7          8          9         10
     6  H    0.000000
     7  C    2.175146   0.000000
     8  H    3.091975   1.105982   0.000000
     9  H    2.596866   1.106937   1.761656   0.000000
    10  C    2.700057   1.534551   2.176050   2.169839   0.000000
    11  H    2.457701   2.176383   3.093026   2.539106   1.107558
    12  H    2.994660   2.176357   2.536709   3.089075   1.107982
    13  C    4.140061   2.534634   2.772281   2.753340   1.527428
    14  H    4.717060   2.802232   2.586981   3.109704   2.182823
    15  H    4.798285   3.492338   3.779782   3.765412   2.177852
    16  H    4.398357   2.806721   3.139003   2.571095   2.183245
    17  C    2.164412   2.542621   2.724404   3.485693   3.157726
    18  H    2.517959   2.791319   3.026679   3.843718   2.834538
    19  H    3.093126   2.823120   2.554650   3.759329   3.609480
    20  H    2.503387   3.501812   3.754468   4.332290   4.118845
                   11         12         13         14         15
    11  H    0.000000
    12  H    1.767632   0.000000
    13  C    2.168091   2.167937   0.000000
    14  H    3.091489   2.538092   1.095861   0.000000
    15  H    2.506540   2.503252   1.095511   1.766639   0.000000
    16  H    2.536070   3.091695   1.095810   1.765746   1.766564
    17  C    3.546892   2.819532   4.533810   4.674525   5.205016
    18  H    3.198640   2.166835   4.193179   4.380490   4.667594
    19  H    4.247582   3.241382   4.765804   4.652511   5.510058
    20  H    4.322352   3.763535   5.558013   5.756861   6.185532
                   16         17         18         19         20
    16  H    0.000000
    17  C    5.147849   0.000000
    18  H    4.972594   1.095281   0.000000
    19  H    5.404225   1.095168   1.764757   0.000000
    20  H    6.138475   1.094713   1.767002   1.765248   0.000000
 Stoichiometry    C6H14
 Framework group  C1[X(C6H14)]
 Deg. of freedom    54
 Full point group                 C1      NOp   1
 Largest Abelian subgroup         C1      NOp   1
 Largest concise Abelian subgroup C1      NOp   1
                         Standard orientation:                         
 ---------------------------------------------------------------------
 Center     Atomic      Atomic             Coordinates (Angstroms)
 Number     Number       Type             X           Y           Z
 ---------------------------------------------------------------------
      1          6           0        2.150080   -1.028872    0.015511
      2          1           0        1.931219   -2.012349   -0.412700
      3          1           0        2.253555   -1.156004    1.098322
      4          1           0        3.125179   -0.712949   -0.369909
      5          6           0        1.057434   -0.007792   -0.332715
      6          1           0        0.983453    0.057187   -1.447019
      7          6           0       -0.303712   -0.478483    0.222569
      8          1           0       -0.310440   -0.391623    1.325114
      9          1           0       -0.436964   -1.556552    0.009681
     10          6           0       -1.480386    0.307405   -0.371288
     11          1           0       -1.468287    0.225824   -1.475771
     12          1           0       -1.363935    1.386030   -0.146276
     13          6           0       -2.821069   -0.188292    0.167125
     14          1           0       -2.878839   -0.089694    1.257011
     15          1           0       -3.654069    0.381601   -0.258876
     16          1           0       -2.987597   -1.244024   -0.074737
     17          6           0        1.433315    1.378242    0.207405
     18          1           0        0.670841    2.123691   -0.042756
     19          1           0        1.538094    1.371442    1.297528
     20          1           0        2.383816    1.724168   -0.211259
 ---------------------------------------------------------------------
 Rotational constants (GHZ):      6.5682476      1.7113428      1.4805869
 Leave Link  202 at Fri Sep 18 13:22:31 2015, MaxMem=  402653184 cpu:       0.0
 (Enter /share/apps/g09/l301.exe)
 Standard basis: 6-31G(d) (6D, 7F)
 Ernie: Thresh=  0.10000D-02 Tol=  0.10000D-05 Strict=F.
 There are   118 symmetry adapted basis functions of A   symmetry.
 Integral buffers will be    131072 words long.
 Raffenetti 2 integral format.
 Two-electron integral symmetry is turned on.
   118 basis functions,   224 primitive gaussians,   118 cartesian basis functions
    25 alpha electrons       25 beta electrons
       nuclear repulsion energy       253.1760174645 Hartrees.
 IExCor=  402 DFT=T Ex+Corr=B3LYP ExCW=0 ScaHFX=  0.200000
 ScaDFX=  0.800000  0.720000  1.000000  0.810000 ScalE2=  1.000000  1.000000
 IRadAn=      5 IRanWt=     -1 IRanGd=            0 ICorTp=0
 NAtoms=   20 NActive=   20 NUniq=   20 SFac= 7.50D-01 NAtFMM=   80 NAOKFM=F Big=F
 Leave Link  301 at Fri Sep 18 13:22:31 2015, MaxMem=  402653184 cpu:       0.1
 (Enter /share/apps/g09/l302.exe)
 NPDir=0 NMtPBC=     1 NCelOv=     1 NCel=       1 NClECP=     1 NCelD=      1
         NCelK=      1 NCelE2=     1 NClLst=     1 CellRange=     0.0.
 One-electron integrals computed using PRISM.
 NBasis=   118 RedAO= T  NBF=   118
 NBsUse=   118 1.00D-06 NBFU=   118
 Precomputing XC quadrature grid using
 IXCGrd= 2 IRadAn=           5 IRanWt=          -1 IRanGd=           0 AccXCQ= 1.00D-10.
 NRdTot=    1649 NPtTot=      440934 NUsed=      452750 NTot=      452782
 NSgBfM=   118   118   118   118   118 NAtAll=    20    20.
 Leave Link  302 at Fri Sep 18 13:22:32 2015, MaxMem=  402653184 cpu:       1.2
 (Enter /share/apps/g09/l303.exe)
 DipDrv:  MaxL=1.
 Leave Link  303 at Fri Sep 18 13:22:32 2015, MaxMem=  402653184 cpu:       0.0
 (Enter /share/apps/g09/l401.exe)
 Harris functional with IExCor=  402 diagonalized for initial guess.
 ExpMin= 1.61D-01 ExpMax= 3.05D+03 ExpMxC= 4.57D+02 IAcc=3 IRadAn=         5 AccDes= 0.00D+00
 HarFok:  IExCor=  402 AccDes= 0.00D+00 IRadAn=         5 IDoV= 1
 ScaDFX=  1.000000  1.000000  1.000000  1.000000
 FoFCou: FMM=F IPFlag=           0 FMFlag=      100000 FMFlg1=           0
         NFxFlg=           0 DoJE=T BraDBF=F KetDBF=T FulRan=T
         Omega=  0.000000  0.000000  1.000000  0.000000  0.000000 ICntrl=     500 IOpCl=  0
         NMat0=    1 NMatS0=    1 NMatT0=    0 NMatD0=    1 NMtDS0=    0 NMtDT0=    0
         I1Cent=           4 NGrid=           0.
 Petite list used in FoFCou.
 Harris En= -237.179722051718    
 Initial guess orbital symmetries:
       Occupied  (A) (A) (A) (A) (A) (A) (A) (A) (A) (A) (A) (A)
                 (A) (A) (A) (A) (A) (A) (A) (A) (A) (A) (A) (A)
                 (A)
       Virtual   (A) (A) (A) (A) (A) (A) (A) (A) (A) (A) (A) (A)
                 (A) (A) (A) (A) (A) (A) (A) (A) (A) (A) (A) (A)
                 (A) (A) (A) (A) (A) (A) (A) (A) (A) (A) (A) (A)
                 (A) (A) (A) (A) (A) (A) (A) (A) (A) (A) (A) (A)
                 (A) (A) (A) (A) (A) (A) (A) (A) (A) (A) (A) (A)
                 (A) (A) (A) (A) (A) (A) (A) (A) (A) (A) (A) (A)
                 (A) (A) (A) (A) (A) (A) (A) (A) (A) (A) (A) (A)
                 (A) (A) (A) (A) (A) (A) (A) (A) (A)
 The electronic state of the initial guess is 1-A.
 Leave Link  401 at Fri Sep 18 13:22:37 2015, MaxMem=  402653184 cpu:      10.2
 (Enter /share/apps/g09/l502.exe)
 Closed shell SCF:
 Requested convergence on RMS density matrix=1.00D-08 within 128 cycles.
 Requested convergence on MAX density matrix=1.00D-06.
 Requested convergence on             energy=1.00D-06.
 No special actions if energy rises.
 Using DIIS extrapolation, IDIIS=  1040.
 Integral symmetry usage will be decided dynamically.
       452557 words used for storage of precomputed grid.
 Keep R1 ints in memory in canonical form, NReq=26106612.
 IEnd=      514101 IEndB=      514101 NGot=   402653184 MDV=   377519007
 LenX=   377519007 LenY=   377504642
 Symmetry not used in FoFDir.
 MinBra= 0 MaxBra= 2 Meth= 1.
 IRaf=       0 NMat=   1 IRICut=       1 DoRegI=T DoRafI=F ISym2E= 0 JSym2E=0.
 Integral accuracy reduced to 1.0D-05 until final iterations.

 Cycle   1  Pass 0  IDiag  1:
 E= -236.791582562341    
 DIIS: error= 5.61D-02 at cycle   1 NSaved=   1.
 NSaved= 1 IEnMin= 1 EnMin= -236.791582562341     IErMin= 1 ErrMin= 5.61D-02
 ErrMax= 5.61D-02 EMaxC= 1.00D-01 BMatC= 2.58D-01 BMatP= 2.58D-01
 IDIUse=3 WtCom= 4.39D-01 WtEn= 5.61D-01
 Coeff-Com:  0.100D+01
 Coeff-En:   0.100D+01
 Coeff:      0.100D+01
 Gap=     0.358 Goal=   None    Shift=    0.000
 GapD=    0.358 DampG=1.000 DampE=0.500 DampFc=0.5000 IDamp=-1.
 Damping current iteration by 5.00D-01
 RMSDP=1.02D-02 MaxDP=1.44D-01              OVMax= 1.87D-01

 Cycle   2  Pass 0  IDiag  1:
 E= -236.920489519731     Delta-E=       -0.128906957390 Rises=F Damp=T
 DIIS: error= 9.56D-03 at cycle   2 NSaved=   2.
 NSaved= 2 IEnMin= 2 EnMin= -236.920489519731     IErMin= 2 ErrMin= 9.56D-03
 ErrMax= 9.56D-03 EMaxC= 1.00D-01 BMatC= 9.58D-03 BMatP= 2.58D-01
 IDIUse=3 WtCom= 9.04D-01 WtEn= 9.56D-02
 Coeff-Com:  0.839D-01 0.916D+00
 Coeff-En:   0.138D+00 0.862D+00
 Coeff:      0.891D-01 0.911D+00
 Gap=     0.394 Goal=   None    Shift=    0.000
 RMSDP=1.59D-03 MaxDP=2.34D-02 DE=-1.29D-01 OVMax= 1.02D-01

 Cycle   3  Pass 0  IDiag  1:
 E= -237.082694890185     Delta-E=       -0.162205370453 Rises=F Damp=F
 DIIS: error= 2.25D-03 at cycle   3 NSaved=   3.
 NSaved= 3 IEnMin= 3 EnMin= -237.082694890185     IErMin= 3 ErrMin= 2.25D-03
 ErrMax= 2.25D-03 EMaxC= 1.00D-01 BMatC= 8.30D-04 BMatP= 9.58D-03
 IDIUse=3 WtCom= 9.78D-01 WtEn= 2.25D-02
 Coeff-Com:  0.787D-02 0.165D+00 0.827D+00
 Coeff-En:   0.000D+00 0.000D+00 0.100D+01
 Coeff:      0.769D-02 0.161D+00 0.831D+00
 Gap=     0.386 Goal=   None    Shift=    0.000
 RMSDP=4.61D-04 MaxDP=7.86D-03 DE=-1.62D-01 OVMax= 7.91D-03

 Cycle   4  Pass 0  IDiag  1:
 E= -237.083108700555     Delta-E=       -0.000413810370 Rises=F Damp=F
 DIIS: error= 1.77D-03 at cycle   4 NSaved=   4.
 NSaved= 4 IEnMin= 4 EnMin= -237.083108700555     IErMin= 4 ErrMin= 1.77D-03
 ErrMax= 1.77D-03 EMaxC= 1.00D-01 BMatC= 4.31D-04 BMatP= 8.30D-04
 IDIUse=3 WtCom= 9.82D-01 WtEn= 1.77D-02
 Coeff-Com:  0.308D-03 0.267D-01 0.421D+00 0.552D+00
 Coeff-En:   0.000D+00 0.000D+00 0.326D+00 0.674D+00
 Coeff:      0.303D-03 0.263D-01 0.419D+00 0.554D+00
 Gap=     0.388 Goal=   None    Shift=    0.000
 RMSDP=1.90D-04 MaxDP=3.94D-03 DE=-4.14D-04 OVMax= 4.20D-03

 Cycle   5  Pass 0  IDiag  1:
 E= -237.083518212602     Delta-E=       -0.000409512048 Rises=F Damp=F
 DIIS: error= 2.11D-04 at cycle   5 NSaved=   5.
 NSaved= 5 IEnMin= 5 EnMin= -237.083518212602     IErMin= 5 ErrMin= 2.11D-04
 ErrMax= 2.11D-04 EMaxC= 1.00D-01 BMatC= 1.37D-05 BMatP= 4.31D-04
 IDIUse=3 WtCom= 9.98D-01 WtEn= 2.11D-03
 Coeff-Com:  0.203D-03-0.144D-02 0.108D+00 0.218D+00 0.675D+00
 Coeff-En:   0.000D+00 0.000D+00 0.000D+00 0.000D+00 0.100D+01
 Coeff:      0.202D-03-0.144D-02 0.108D+00 0.218D+00 0.676D+00
 Gap=     0.388 Goal=   None    Shift=    0.000
 RMSDP=3.22D-05 MaxDP=5.75D-04 DE=-4.10D-04 OVMax= 6.64D-04

 Cycle   6  Pass 0  IDiag  1:
 E= -237.083530973458     Delta-E=       -0.000012760856 Rises=F Damp=F
 DIIS: error= 3.05D-05 at cycle   6 NSaved=   6.
 NSaved= 6 IEnMin= 6 EnMin= -237.083530973458     IErMin= 6 ErrMin= 3.05D-05
 ErrMax= 3.05D-05 EMaxC= 1.00D-01 BMatC= 2.67D-07 BMatP= 1.37D-05
 IDIUse=1 WtCom= 1.00D+00 WtEn= 0.00D+00
 Coeff-Com:  0.168D-03-0.117D-02 0.311D-01 0.686D-01 0.251D+00 0.650D+00
 Coeff:      0.168D-03-0.117D-02 0.311D-01 0.686D-01 0.251D+00 0.650D+00
 Gap=     0.388 Goal=   None    Shift=    0.000
 RMSDP=6.51D-06 MaxDP=1.00D-04 DE=-1.28D-05 OVMax= 1.70D-04

 Initial convergence to 1.0D-05 achieved.  Increase integral accuracy.
 Cycle   7  Pass 1  IDiag  1:
 E= -237.083518543793     Delta-E=        0.000012429665 Rises=F Damp=F
 DIIS: error= 6.91D-06 at cycle   1 NSaved=   1.
 NSaved= 1 IEnMin= 1 EnMin= -237.083518543793     IErMin= 1 ErrMin= 6.91D-06
 ErrMax= 6.91D-06 EMaxC= 1.00D-01 BMatC= 1.69D-08 BMatP= 1.69D-08
 IDIUse=1 WtCom= 1.00D+00 WtEn= 0.00D+00
 Coeff-Com:  0.100D+01
 Coeff:      0.100D+01
 Gap=     0.388 Goal=   None    Shift=    0.000
 RMSDP=6.51D-06 MaxDP=1.00D-04 DE= 1.24D-05 OVMax= 5.04D-05

 Cycle   8  Pass 1  IDiag  1:
 E= -237.083518540338     Delta-E=        0.000000003455 Rises=F Damp=F
 DIIS: error= 8.27D-06 at cycle   2 NSaved=   2.
 NSaved= 2 IEnMin= 1 EnMin= -237.083518543793     IErMin= 1 ErrMin= 6.91D-06
 ErrMax= 8.27D-06 EMaxC= 1.00D-01 BMatC= 2.15D-08 BMatP= 1.69D-08
 IDIUse=1 WtCom= 1.00D+00 WtEn= 0.00D+00
 Coeff-Com:  0.531D+00 0.469D+00
 Coeff:      0.531D+00 0.469D+00
 Gap=     0.388 Goal=   None    Shift=    0.000
 RMSDP=1.18D-06 MaxDP=2.92D-05 DE= 3.45D-09 OVMax= 2.90D-05

 Cycle   9  Pass 1  IDiag  1:
 E= -237.083518561547     Delta-E=       -0.000000021209 Rises=F Damp=F
 DIIS: error= 7.92D-07 at cycle   3 NSaved=   3.
 NSaved= 3 IEnMin= 3 EnMin= -237.083518561547     IErMin= 3 ErrMin= 7.92D-07
 ErrMax= 7.92D-07 EMaxC= 1.00D-01 BMatC= 1.16D-10 BMatP= 1.69D-08
 IDIUse=1 WtCom= 1.00D+00 WtEn= 0.00D+00
 Coeff-Com:  0.435D-01 0.844D-01 0.872D+00
 Coeff:      0.435D-01 0.844D-01 0.872D+00
 Gap=     0.388 Goal=   None    Shift=    0.000
 RMSDP=1.38D-07 MaxDP=2.02D-06 DE=-2.12D-08 OVMax= 2.97D-06

 Cycle  10  Pass 1  IDiag  1:
 E= -237.083518561645     Delta-E=       -0.000000000097 Rises=F Damp=F
 DIIS: error= 4.99D-07 at cycle   4 NSaved=   4.
 NSaved= 4 IEnMin= 4 EnMin= -237.083518561645     IErMin= 4 ErrMin= 4.99D-07
 ErrMax= 4.99D-07 EMaxC= 1.00D-01 BMatC= 2.37D-11 BMatP= 1.16D-10
 IDIUse=1 WtCom= 1.00D+00 WtEn= 0.00D+00
 Coeff-Com: -0.715D-02 0.143D-01 0.383D+00 0.610D+00
 Coeff:     -0.715D-02 0.143D-01 0.383D+00 0.610D+00
 Gap=     0.388 Goal=   None    Shift=    0.000
 RMSDP=5.02D-08 MaxDP=1.31D-06 DE=-9.74D-11 OVMax= 1.32D-06

 Cycle  11  Pass 1  IDiag  1:
 E= -237.083518561665     Delta-E=       -0.000000000020 Rises=F Damp=F
 DIIS: error= 1.16D-07 at cycle   5 NSaved=   5.
 NSaved= 5 IEnMin= 5 EnMin= -237.083518561665     IErMin= 5 ErrMin= 1.16D-07
 ErrMax= 1.16D-07 EMaxC= 1.00D-01 BMatC= 1.78D-12 BMatP= 2.37D-11
 IDIUse=1 WtCom= 1.00D+00 WtEn= 0.00D+00
 Coeff-Com: -0.588D-02 0.185D-02 0.129D+00 0.293D+00 0.582D+00
 Coeff:     -0.588D-02 0.185D-02 0.129D+00 0.293D+00 0.582D+00
 Gap=     0.388 Goal=   None    Shift=    0.000
 RMSDP=1.23D-08 MaxDP=2.81D-07 DE=-1.99D-11 OVMax= 2.83D-07

 Cycle  12  Pass 1  IDiag  1:
 E= -237.083518561667     Delta-E=       -0.000000000002 Rises=F Damp=F
 DIIS: error= 1.11D-08 at cycle   6 NSaved=   6.
 NSaved= 6 IEnMin= 6 EnMin= -237.083518561667     IErMin= 6 ErrMin= 1.11D-08
 ErrMax= 1.11D-08 EMaxC= 1.00D-01 BMatC= 2.55D-14 BMatP= 1.78D-12
 IDIUse=1 WtCom= 1.00D+00 WtEn= 0.00D+00
 Coeff-Com: -0.162D-02 0.983D-04 0.271D-01 0.713D-01 0.182D+00 0.721D+00
 Coeff:     -0.162D-02 0.983D-04 0.271D-01 0.713D-01 0.182D+00 0.721D+00
 Gap=     0.388 Goal=   None    Shift=    0.000
 RMSDP=2.24D-09 MaxDP=2.82D-08 DE=-1.99D-12 OVMax= 4.37D-08

 SCF Done:  E(RB3LYP) =  -237.083518562     A.U. after   12 cycles
             Convg  =    0.2240D-08             -V/T =  2.0105
 KE= 2.346113606263D+02 PE=-1.053264085450D+03 EE= 3.283931887972D+02
 Leave Link  502 at Fri Sep 18 13:23:28 2015, MaxMem=  402653184 cpu:     102.4
 (Enter /share/apps/g09/l601.exe)
 Copying SCF densities to generalized density rwf, IOpCl= 0 IROHF=0.

 **********************************************************************

            Population analysis using the SCF density.

 **********************************************************************

 Orbital symmetries:
       Occupied  (A) (A) (A) (A) (A) (A) (A) (A) (A) (A) (A) (A)
                 (A) (A) (A) (A) (A) (A) (A) (A) (A) (A) (A) (A)
                 (A)
       Virtual   (A) (A) (A) (A) (A) (A) (A) (A) (A) (A) (A) (A)
                 (A) (A) (A) (A) (A) (A) (A) (A) (A) (A) (A) (A)
                 (A) (A) (A) (A) (A) (A) (A) (A) (A) (A) (A) (A)
                 (A) (A) (A) (A) (A) (A) (A) (A) (A) (A) (A) (A)
                 (A) (A) (A) (A) (A) (A) (A) (A) (A) (A) (A) (A)
                 (A) (A) (A) (A) (A) (A) (A) (A) (A) (A) (A) (A)
                 (A) (A) (A) (A) (A) (A) (A) (A) (A) (A) (A) (A)
                 (A) (A) (A) (A) (A) (A) (A) (A) (A)
 The electronic state is 1-A.
 Alpha  occ. eigenvalues --  -10.18445 -10.17709 -10.17369 -10.16889 -10.16746
 Alpha  occ. eigenvalues --  -10.16672  -0.80608  -0.75490  -0.67670  -0.66845
 Alpha  occ. eigenvalues --   -0.58556  -0.55230  -0.46414  -0.44011  -0.43431
 Alpha  occ. eigenvalues --   -0.41130  -0.39190  -0.37819  -0.37451  -0.35783
 Alpha  occ. eigenvalues --   -0.34395  -0.32933  -0.31744  -0.31134  -0.29971
 Alpha virt. eigenvalues --    0.08784   0.11074   0.11945   0.12653   0.15239
 Alpha virt. eigenvalues --    0.15864   0.16528   0.16970   0.17851   0.18550
 Alpha virt. eigenvalues --    0.19454   0.19895   0.21311   0.23124   0.23983
 Alpha virt. eigenvalues --    0.25227   0.26716   0.27633   0.29036   0.50009
 Alpha virt. eigenvalues --    0.51480   0.52095   0.52555   0.53658   0.56053
 Alpha virt. eigenvalues --    0.58730   0.63116   0.65447   0.68397   0.69577
 Alpha virt. eigenvalues --    0.71964   0.73272   0.74487   0.80422   0.81705
 Alpha virt. eigenvalues --    0.85133   0.86454   0.88402   0.89972   0.90239
 Alpha virt. eigenvalues --    0.90875   0.91786   0.92019   0.93945   0.95345
 Alpha virt. eigenvalues --    0.96903   0.97121   0.97448   0.99827   1.01859
 Alpha virt. eigenvalues --    1.03877   1.11134   1.27499   1.41222   1.43165
 Alpha virt. eigenvalues --    1.45048   1.45907   1.55409   1.63085   1.69362
 Alpha virt. eigenvalues --    1.73874   1.79665   1.83258   1.84577   1.90066
 Alpha virt. eigenvalues --    1.92394   1.97291   1.97990   1.99979   2.01948
 Alpha virt. eigenvalues --    2.03521   2.10393   2.13608   2.21974   2.23945
 Alpha virt. eigenvalues --    2.25121   2.26485   2.33178   2.36137   2.38362
 Alpha virt. eigenvalues --    2.45246   2.51160   2.53506   2.58414   2.68468
 Alpha virt. eigenvalues --    2.76358   2.81346   4.12869   4.21703   4.29297
 Alpha virt. eigenvalues --    4.33745   4.47117   4.59910
          Condensed to atoms (all electrons):
              1          2          3          4          5          6
     1  C    5.113249   0.369783   0.372286   0.367296   0.376519  -0.045389
     2  H    0.369783   0.581869  -0.032004  -0.030857  -0.029313  -0.003385
     3  H    0.372286  -0.032004   0.583817  -0.032560  -0.032512   0.005588
     4  H    0.367296  -0.030857  -0.032560   0.586612  -0.029206  -0.003097
     5  C    0.376519  -0.029313  -0.032512  -0.029206   4.837610   0.379603
     6  H   -0.045389  -0.003385   0.005588  -0.003097   0.379603   0.642870
     7  C   -0.047599  -0.004616  -0.005871   0.004947   0.385344  -0.048757
     8  H   -0.002802  -0.000213   0.003944  -0.000134  -0.035172   0.005939
     9  H   -0.005218   0.005268  -0.000224   0.000081  -0.037704  -0.001964
    10  C    0.004130   0.000006   0.000054  -0.000157  -0.035374  -0.005921
    11  H    0.000098  -0.000002   0.000007  -0.000002  -0.004366   0.006430
    12  H    0.000056   0.000000   0.000000   0.000005  -0.004244  -0.000275
    13  C   -0.000159  -0.000004   0.000002   0.000002   0.003900   0.000119
    14  H    0.000001   0.000000  -0.000001   0.000000   0.000071   0.000008
    15  H    0.000002   0.000000   0.000000   0.000000  -0.000142  -0.000001
    16  H   -0.000004  -0.000001   0.000001   0.000000   0.000012   0.000005
    17  C   -0.054907   0.005342  -0.005422  -0.003821   0.381088  -0.047104
    18  H    0.005389  -0.000194  -0.000040  -0.000051  -0.031551  -0.003006
    19  H   -0.005472  -0.000019   0.004848  -0.000215  -0.033390   0.005631
    20  H   -0.004205  -0.000044  -0.000214   0.004233  -0.029341  -0.003365
              7          8          9         10         11         12
     1  C   -0.047599  -0.002802  -0.005218   0.004130   0.000098   0.000056
     2  H   -0.004616  -0.000213   0.005268   0.000006  -0.000002   0.000000
     3  H   -0.005871   0.003944  -0.000224   0.000054   0.000007   0.000000
     4  H    0.004947  -0.000134   0.000081  -0.000157  -0.000002   0.000005
     5  C    0.385344  -0.035172  -0.037704  -0.035374  -0.004366  -0.004244
     6  H   -0.048757   0.005939  -0.001964  -0.005921   0.006430  -0.000275
     7  C    5.019152   0.364992   0.368911   0.385219  -0.039934  -0.039308
     8  H    0.364992   0.620479  -0.040502  -0.038979   0.005675  -0.005307
     9  H    0.368911  -0.040502   0.620669  -0.039786  -0.005082   0.005659
    10  C    0.385219  -0.038979  -0.039786   4.962579   0.376535   0.375987
    11  H   -0.039934   0.005675  -0.005082   0.376535   0.612355  -0.040350
    12  H   -0.039308  -0.005307   0.005659   0.375987  -0.040350   0.607492
    13  C   -0.045478  -0.002926  -0.003371   0.368886  -0.038257  -0.037035
    14  H   -0.004585   0.004803  -0.000399  -0.034510   0.005179  -0.004485
    15  H    0.004376  -0.000031  -0.000011  -0.028238  -0.002628  -0.002622
    16  H   -0.004708  -0.000395   0.005056  -0.034389  -0.004589   0.005075
    17  C   -0.048081  -0.008797   0.005501  -0.005501  -0.000282   0.001229
    18  H   -0.004729   0.000056  -0.000038   0.001351   0.000309   0.004960
    19  H   -0.006253   0.005698   0.000022  -0.000098   0.000041   0.000235
    20  H    0.004973   0.000023  -0.000174   0.000109  -0.000026  -0.000137
             13         14         15         16         17         18
     1  C   -0.000159   0.000001   0.000002  -0.000004  -0.054907   0.005389
     2  H   -0.000004   0.000000   0.000000  -0.000001   0.005342  -0.000194
     3  H    0.000002  -0.000001   0.000000   0.000001  -0.005422  -0.000040
     4  H    0.000002   0.000000   0.000000   0.000000  -0.003821  -0.000051
     5  C    0.003900   0.000071  -0.000142   0.000012   0.381088  -0.031551
     6  H    0.000119   0.000008  -0.000001   0.000005  -0.047104  -0.003006
     7  C   -0.045478  -0.004585   0.004376  -0.004708  -0.048081  -0.004729
     8  H   -0.002926   0.004803  -0.000031  -0.000395  -0.008797   0.000056
     9  H   -0.003371  -0.000399  -0.000011   0.005056   0.005501  -0.000038
    10  C    0.368886  -0.034510  -0.028238  -0.034389  -0.005501   0.001351
    11  H   -0.038257   0.005179  -0.002628  -0.004589  -0.000282   0.000309
    12  H   -0.037035  -0.004485  -0.002622   0.005075   0.001229   0.004960
    13  C    5.069466   0.378060   0.370248   0.377969   0.000155  -0.000167
    14  H    0.378060   0.579668  -0.031470  -0.033396  -0.000005   0.000013
    15  H    0.370248  -0.031470   0.582830  -0.031668   0.000004   0.000008
    16  H    0.377969  -0.033396  -0.031668   0.579969  -0.000003   0.000001
    17  C    0.000155  -0.000005   0.000004  -0.000003   5.114175   0.369805
    18  H   -0.000167   0.000013   0.000008   0.000001   0.369805   0.576681
    19  H   -0.000019  -0.000002   0.000000   0.000001   0.372341  -0.032261
    20  H    0.000000   0.000000   0.000000   0.000000   0.369369  -0.029755
             19         20
     1  C   -0.005472  -0.004205
     2  H   -0.000019  -0.000044
     3  H    0.004848  -0.000214
     4  H   -0.000215   0.004233
     5  C   -0.033390  -0.029341
     6  H    0.005631  -0.003365
     7  C   -0.006253   0.004973
     8  H    0.005698   0.000023
     9  H    0.000022  -0.000174
    10  C   -0.000098   0.000109
    11  H    0.000041  -0.000026
    12  H    0.000235  -0.000137
    13  C   -0.000019   0.000000
    14  H   -0.000002   0.000000
    15  H    0.000000   0.000000
    16  H    0.000001   0.000000
    17  C    0.372341   0.369369
    18  H   -0.032261  -0.029755
    19  H    0.582342  -0.032099
    20  H   -0.032099   0.581331
 Mulliken atomic charges:
              1
     1  C   -0.443055
     2  H    0.138383
     3  H    0.138302
     4  H    0.136927
     5  C   -0.061830
     6  H    0.116071
     7  C   -0.237997
     8  H    0.123650
     9  H    0.123306
    10  C   -0.251904
    11  H    0.128889
    12  H    0.133065
    13  C   -0.441391
    14  H    0.141049
    15  H    0.139344
    16  H    0.141064
    17  C   -0.445086
    18  H    0.143218
    19  H    0.138671
    20  H    0.139323
 Sum of Mulliken atomic charges =   0.00000
 Mulliken charges with hydrogens summed into heavy atoms:
              1
     1  C   -0.029443
     5  C    0.054241
     7  C    0.008959
    10  C    0.010051
    13  C   -0.019934
    17  C   -0.023873
 Sum of Mulliken charges with hydrogens summed into heavy atoms =   0.00000
 Electronic spatial extent (au):  <R**2>=            899.0778
 Charge=              0.0000 electrons
 Dipole moment (field-independent basis, Debye):
    X=             -0.0141    Y=              0.0284    Z=             -0.0511  Tot=              0.0601
 Quadrupole moment (field-independent basis, Debye-Ang):
   XX=            -42.3263   YY=            -41.7025   ZZ=            -41.1327
   XY=              0.0339   XZ=              0.0096   YZ=              0.1260
 Traceless Quadrupole moment (field-independent basis, Debye-Ang):
   XX=             -0.6058   YY=              0.0180   ZZ=              0.5878
   XY=              0.0339   XZ=              0.0096   YZ=              0.1260
 Octapole moment (field-independent basis, Debye-Ang**2):
  XXX=              1.8132  YYY=             -1.0249  ZZZ=              0.8934  XYY=             -1.5368
  XXY=              1.7505  XXZ=             -1.4326  XZZ=              0.1112  YZZ=             -0.0155
  YYZ=             -0.9183  XYZ=             -0.3429
 Hexadecapole moment (field-independent basis, Debye-Ang**3):
 XXXX=           -903.4804 YYYY=           -246.1771 ZZZZ=           -101.1450 XXXY=              1.4040
 XXXZ=             -0.1336 YYYX=             -0.4150 YYYZ=              1.0901 ZZZX=              0.6093
 ZZZY=              0.2427 XXYY=           -192.2132 XXZZ=           -166.0165 YYZZ=            -59.9538
 XXYZ=             -0.9399 YYXZ=             -0.2545 ZZXY=             -0.3457
 N-N= 2.531760174645D+02 E-N=-1.053264086674D+03  KE= 2.346113606263D+02
 No NMR shielding tensors so no spin-rotation constants.
 Leave Link  601 at Fri Sep 18 13:23:28 2015, MaxMem=  402653184 cpu:       0.3
 (Enter /share/apps/g09/l701.exe)
 Compute integral first derivatives.
 ... and contract with generalized density number  0.
 Leave Link  701 at Fri Sep 18 13:23:29 2015, MaxMem=  402653184 cpu:       0.3
 (Enter /share/apps/g09/l702.exe)
 L702 exits ... SP integral derivatives will be done elsewhere.
 Leave Link  702 at Fri Sep 18 13:23:29 2015, MaxMem=  402653184 cpu:       0.0
 (Enter /share/apps/g09/l703.exe)
 Compute integral first derivatives, UseDBF=F ICtDFT=           0.
 Integral derivatives from FoFDir, PRISM(SPDF).
 Calling FoFJK, ICntrl=      2127 FMM=F ISym2X=0 I1Cent= 0 IOpClX= 0 NMat=1 NMatS=1 NMatT=0.
 FoFCou: FMM=F IPFlag=           0 FMFlag=      100000 FMFlg1=         800
         NFxFlg=           0 DoJE=F BraDBF=F KetDBF=F FulRan=T
         Omega=  0.000000  0.000000  1.000000  0.000000  0.000000 ICntrl=    2127 IOpCl=  0
         NMat0=    1 NMatS0=    1 NMatT0=    0 NMatD0=    1 NMtDS0=    0 NMtDT0=    0
         I1Cent=           0 NGrid=           0.
 Symmetry not used in FoFCou.
 Leave Link  703 at Fri Sep 18 13:23:40 2015, MaxMem=  402653184 cpu:      23.3
 (Enter /share/apps/g09/l716.exe)
 Dipole        =-5.53612649D-03 1.11706292D-02-2.00926089D-02
 ***** Axes restored to original set *****
 -------------------------------------------------------------------
 Center     Atomic                   Forces (Hartrees/Bohr)
 Number     Number              X              Y              Z
 -------------------------------------------------------------------
      1        6           0.002335178    0.000398118   -0.003649594
      2        1          -0.000775512   -0.001167387   -0.000413541
      3        1          -0.000941695    0.000659897    0.001881370
      4        1           0.001432113    0.000366086   -0.000347942
      5        6           0.002269407   -0.004469034   -0.000087842
      6        1           0.000025171   -0.001055294    0.010837538
      7        6           0.000976094    0.000702816   -0.005901959
      8        1           0.000742743    0.000908000   -0.003624269
      9        1           0.000018325    0.004650946   -0.000645240
     10        6          -0.001208924    0.001659689    0.001034078
     11        1           0.000619757   -0.000586983    0.005380856
     12        1          -0.001664813   -0.006468514   -0.000887428
     13        6          -0.004711429    0.002432896   -0.001395857
     14        1           0.000617593    0.000303468    0.000773087
     15        1          -0.001183269    0.000019806    0.000082757
     16        1           0.000665630   -0.000827459   -0.000463962
     17        6          -0.001230388    0.002773977   -0.003506950
     18        1           0.001000050    0.001121573   -0.000045550
     19        1          -0.000033273   -0.001708602    0.001731063
     20        1           0.001047242    0.000286002   -0.000750614
 -------------------------------------------------------------------
 Cartesian Forces:  Max     0.010837538 RMS     0.002550986
 Leave Link  716 at Fri Sep 18 13:23:40 2015, MaxMem=  402653184 cpu:       0.0
 (Enter /share/apps/g09/l103.exe)

 GradGradGradGradGradGradGradGradGradGradGradGradGradGradGradGradGradGrad
 Berny optimization.
 Internal  Forces:  Max     0.011962937 RMS     0.002391149
 Search for a local minimum.
 Step number   1 out of a maximum of  110
 All quantities printed in internal units (Hartrees-Bohrs-Radians)
 RMS Force = .23911D-02 SwitMx=.10000D-02 MixMth= 1
 Mixed Optimization -- RFO/linear search
 Second derivative matrix not updated -- first step.
     Eigenvalues ---    0.00230   0.00296   0.00309   0.00312   0.00403
     Eigenvalues ---    0.03434   0.03574   0.03596   0.04640   0.04740
     Eigenvalues ---    0.04810   0.04823   0.05369   0.05399   0.05419
     Eigenvalues ---    0.05421   0.05445   0.05485   0.08215   0.08289
     Eigenvalues ---    0.12117   0.12182   0.16000   0.16000   0.16000
     Eigenvalues ---    0.16000   0.16000   0.16000   0.16000   0.16000
     Eigenvalues ---    0.16000   0.16461   0.16704   0.21856   0.21858
     Eigenvalues ---    0.28205   0.28922   0.29007   0.29029   0.29662
     Eigenvalues ---    0.31701   0.32815   0.32860   0.32926   0.33029
     Eigenvalues ---    0.34144   0.34150   0.34183   0.34209   0.34222
     Eigenvalues ---    0.34224   0.34233   0.34269   0.342741000.00000
     Eigenvalues --- 1000.000001000.000001000.000001000.000001000.00000
     Eigenvalues --- 1000.000001000.000001000.000001000.000001000.00000
     Eigenvalues --- 1000.000001000.000001000.000001000.000001000.00000
     Eigenvalues --- 1000.000001000.000001000.000001000.000001000.00000
     Eigenvalues --- 1000.000001000.000001000.000001000.000001000.00000
     Eigenvalues --- 1000.000001000.000001000.000001000.000001000.00000
     Eigenvalues --- 1000.000001000.000001000.000001000.000001000.00000
     Eigenvalues --- 1000.000001000.000001000.000001000.000001000.00000
     Eigenvalues --- 1000.000001000.000001000.000001000.000001000.00000
 RFO step:  Lambda=-2.61105241D-03 EMin= 2.30000000D-03
 Linear search not attempted -- first point.
 Iteration  1 RMS(Cart)=  0.03818876 RMS(Int)=  0.00045248
 Iteration  2 RMS(Cart)=  0.00066065 RMS(Int)=  0.00009765
 Iteration  3 RMS(Cart)=  0.00000035 RMS(Int)=  0.00009765
 Variable       Old X    -DE/DX   Delta X   Delta X   Delta X     New X
                                 (Linear)    (Quad)   (Total)
    R1        2.06879   0.00137   0.00000   0.00395   0.00395   2.07274
    R2        2.06953   0.00169   0.00000   0.00491   0.00491   2.07444
    R3        2.06938   0.00150   0.00000   0.00436   0.00436   2.07374
    R4        2.90166   0.00071   0.00000   0.00245   0.00245   2.90411
    R5        2.11393  -0.01086   0.00000  -0.03397  -0.03397   2.07996
    R6        2.91692   0.00164   0.00000   0.00576   0.00576   2.92268
    R7        2.89943   0.00152   0.00000   0.00519   0.00519   2.90462
    R8        2.09000  -0.00355   0.00000  -0.01065  -0.01065   2.07935
    R9        2.09181  -0.00441   0.00000  -0.01328  -0.01328   2.07853
   R10        2.89988   0.00174   0.00000   0.00594   0.00594   2.90582
   R11        2.09298  -0.00532   0.00000  -0.01605  -0.01605   2.07693
   R12        2.09378  -0.00665   0.00000  -0.02011  -0.02011   2.07367
   R13        2.88642   0.00307   0.00000   0.01025   0.01025   2.89667
   R14        2.07088   0.00076   0.00000   0.00222   0.00222   2.07310
   R15        2.07022   0.00088   0.00000   0.00255   0.00255   2.07276
   R16        2.07078   0.00080   0.00000   0.00232   0.00232   2.07310
   R17        2.06978   0.00008   0.00000   0.00023   0.00023   2.07001
   R18        2.06957   0.00173   0.00000   0.00502   0.00502   2.07459
   R19        2.06871   0.00129   0.00000   0.00373   0.00373   2.07243
    A1        1.87690   0.00086   0.00000   0.00164   0.00158   1.87847
    A2        1.87498   0.00019   0.00000   0.00540   0.00538   1.88036
    A3        1.94596  -0.00026   0.00000  -0.00130  -0.00134   1.94462
    A4        1.87271   0.00064   0.00000   0.00342   0.00344   1.87615
    A5        1.94836  -0.00210   0.00000  -0.01520  -0.01522   1.93315
    A6        1.94118   0.00078   0.00000   0.00679   0.00679   1.94797
    A7        1.88766  -0.00001   0.00000  -0.01233  -0.01225   1.87541
    A8        1.92105   0.00109   0.00000   0.01651   0.01622   1.93727
    A9        1.92470  -0.00142   0.00000   0.00245   0.00193   1.92662
   A10        1.89414  -0.00151   0.00000  -0.02051  -0.02033   1.87381
   A11        1.89061  -0.00016   0.00000  -0.01035  -0.01023   1.88038
   A12        1.94428   0.00193   0.00000   0.02231   0.02209   1.96637
   A13        1.91775  -0.00424   0.00000  -0.01847  -0.01858   1.89917
   A14        1.91129  -0.00337   0.00000  -0.01353  -0.01343   1.89786
   A15        1.96144   0.01196   0.00000   0.05640   0.05650   2.01794
   A16        1.84157   0.00261   0.00000   0.00404   0.00370   1.84527
   A17        1.91867  -0.00337   0.00000  -0.01150  -0.01150   1.90718
   A18        1.90926  -0.00425   0.00000  -0.02057  -0.02057   1.88869
   A19        1.91752  -0.00268   0.00000  -0.01671  -0.01667   1.90085
   A20        1.91705  -0.00090   0.00000   0.00228   0.00228   1.91933
   A21        1.95026   0.00581   0.00000   0.02737   0.02738   1.97764
   A22        1.84739   0.00129   0.00000   0.00222   0.00217   1.84955
   A23        1.91474  -0.00128   0.00000  -0.00567  -0.00557   1.90917
   A24        1.91410  -0.00253   0.00000  -0.01104  -0.01119   1.90291
   A25        1.94727  -0.00105   0.00000  -0.00742  -0.00745   1.93983
   A26        1.94069   0.00162   0.00000   0.01197   0.01199   1.95268
   A27        1.94792  -0.00127   0.00000  -0.00889  -0.00891   1.93901
   A28        1.87533  -0.00008   0.00000   0.00146   0.00148   1.87681
   A29        1.87359   0.00082   0.00000   0.00128   0.00121   1.87479
   A30        1.87528   0.00002   0.00000   0.00191   0.00194   1.87722
   A31        1.94323   0.00246   0.00000   0.01776   0.01779   1.96102
   A32        1.94791  -0.00269   0.00000  -0.01761  -0.01763   1.93028
   A33        1.94286  -0.00037   0.00000  -0.00387  -0.00393   1.93893
   A34        1.87358   0.00045   0.00000   0.00569   0.00577   1.87935
   A35        1.87761  -0.00089   0.00000  -0.00353  -0.00354   1.87407
   A36        1.87504   0.00109   0.00000   0.00182   0.00170   1.87674
    D1       -1.01718  -0.00032   0.00000  -0.00832  -0.00829  -1.02547
    D2        1.04948  -0.00153   0.00000  -0.03098  -0.03098   1.01850
    D3       -3.08166   0.00069   0.00000   0.01015   0.01015  -3.07151
    D4       -3.11689   0.00020   0.00000   0.00094   0.00094  -3.11595
    D5       -1.05023  -0.00101   0.00000  -0.02172  -0.02175  -1.07198
    D6        1.10182   0.00121   0.00000   0.01941   0.01938   1.12119
    D7        1.07519   0.00027   0.00000   0.00225   0.00228   1.07746
    D8       -3.14134  -0.00094   0.00000  -0.02041  -0.02041   3.12144
    D9       -0.98929   0.00128   0.00000   0.02072   0.02071  -0.96858
   D10        1.24083  -0.00057   0.00000  -0.00660  -0.00637   1.23446
   D11       -0.77430   0.00059   0.00000   0.00666   0.00677  -0.76753
   D12       -2.90000   0.00034   0.00000   0.00447   0.00457  -2.89544
   D13       -2.97968  -0.00086   0.00000  -0.02419  -0.02409  -3.00377
   D14        1.28837   0.00031   0.00000  -0.01093  -0.01095   1.27742
   D15       -0.83733   0.00005   0.00000  -0.01312  -0.01316  -0.85049
   D16       -0.89973  -0.00086   0.00000  -0.03654  -0.03661  -0.93634
   D17       -2.91486   0.00031   0.00000  -0.02328  -0.02347  -2.93833
   D18        1.24262   0.00006   0.00000  -0.02547  -0.02567   1.21695
   D19        3.12886  -0.00101   0.00000  -0.03418  -0.03417   3.09469
   D20       -1.06104  -0.00059   0.00000  -0.02679  -0.02686  -1.08789
   D21        1.03387  -0.00129   0.00000  -0.03909  -0.03908   0.99479
   D22        1.06619  -0.00009   0.00000  -0.01448  -0.01446   1.05172
   D23       -3.12370   0.00033   0.00000  -0.00709  -0.00715  -3.13086
   D24       -1.02880  -0.00037   0.00000  -0.01939  -0.01937  -1.04817
   D25       -1.01586   0.00072   0.00000   0.00395   0.00400  -1.01186
   D26        1.07743   0.00113   0.00000   0.01134   0.01132   1.08874
   D27       -3.11086   0.00044   0.00000  -0.00096  -0.00090  -3.11176
   D28        0.99255  -0.00026   0.00000  -0.01075  -0.01080   0.98175
   D29       -1.03278   0.00025   0.00000  -0.00511  -0.00515  -1.03792
   D30        3.12205   0.00017   0.00000  -0.01110  -0.01127   3.11078
   D31        3.13438   0.00017   0.00000  -0.00358  -0.00356   3.13082
   D32        1.10906   0.00068   0.00000   0.00207   0.00210   1.11115
   D33       -1.01930   0.00060   0.00000  -0.00393  -0.00402  -1.02333
   D34       -1.13431  -0.00100   0.00000  -0.01688  -0.01674  -1.15105
   D35        3.12355  -0.00049   0.00000  -0.01123  -0.01109   3.11247
   D36        0.99519  -0.00057   0.00000  -0.01723  -0.01721   0.97798
   D37        1.04364   0.00020   0.00000   0.00443   0.00442   1.04806
   D38        3.13700   0.00049   0.00000   0.00942   0.00939  -3.13679
   D39       -1.05244   0.00075   0.00000   0.01399   0.01393  -1.03851
   D40       -3.10845  -0.00018   0.00000  -0.00231  -0.00229  -3.11074
   D41       -1.01508   0.00010   0.00000   0.00268   0.00267  -1.01241
   D42        1.07865   0.00036   0.00000   0.00725   0.00722   1.08587
   D43       -1.08642  -0.00080   0.00000  -0.00917  -0.00910  -1.09553
   D44        1.00694  -0.00052   0.00000  -0.00418  -0.00414   1.00280
   D45        3.10068  -0.00025   0.00000   0.00039   0.00041   3.10109
         Item               Value     Threshold  Converged?
 Maximum Force            0.011963     0.000015     NO 
 RMS     Force            0.002391     0.000010     NO 
 Maximum Displacement     0.143750     0.000060     NO 
 RMS     Displacement     0.038276     0.000040     NO 
 Predicted change in Energy=-1.336722D-03
 GradGradGradGradGradGradGradGradGradGradGradGradGradGradGradGradGradGrad

 Leave Link  103 at Fri Sep 18 13:23:40 2015, MaxMem=  402653184 cpu:       0.1
 (Enter /share/apps/g09/l202.exe)
                          Input orientation:                          
 ---------------------------------------------------------------------
 Center     Atomic      Atomic             Coordinates (Angstroms)
 Number     Number       Type             X           Y           Z
 ---------------------------------------------------------------------
      1          6           0        2.160923   -1.032253    0.021867
      2          1           0        1.924711   -2.016823   -0.399920
      3          1           0        2.256424   -1.150544    1.109037
      4          1           0        3.142453   -0.729757   -0.364559
      5          6           0        1.075198    0.000082   -0.320484
      6          1           0        1.006973    0.055920   -1.417617
      7          6           0       -0.306641   -0.453850    0.205338
      8          1           0       -0.309795   -0.381496    1.303296
      9          1           0       -0.438445   -1.521597   -0.023448
     10          6           0       -1.516150    0.311097   -0.357197
     11          1           0       -1.501042    0.244342   -1.454129
     12          1           0       -1.428547    1.378553   -0.118421
     13          6           0       -2.859729   -0.209397    0.165794
     14          1           0       -2.918066   -0.126596    1.258144
     15          1           0       -3.705609    0.348928   -0.253562
     16          1           0       -3.000841   -1.266482   -0.091404
     17          6           0        1.477350    1.391122    0.195101
     18          1           0        0.746910    2.162121   -0.073080
     19          1           0        1.569916    1.385652    1.289001
     20          1           0        2.445695    1.699934   -0.216797
 ---------------------------------------------------------------------
                    Distance matrix (angstroms):
                    1          2          3          4          5
     1  C    0.000000
     2  H    1.096849   0.000000
     3  H    1.097748   1.771277   0.000000
     4  H    1.097374   1.772198   1.770196   0.000000
     5  C    1.536789   2.189951   2.182377   2.192750   0.000000
     6  H    2.141923   2.484796   3.066050   2.507288   1.100669
     7  C    2.541079   2.790726   2.805594   3.506730   1.546616
     8  H    2.858319   3.250885   2.686010   3.849810   2.168057
     9  H    2.645416   2.443662   2.946612   3.683232   2.166761
    10  C    3.933083   4.154582   4.303319   4.773469   2.610203
    11  H    4.149487   4.237924   4.757528   4.868067   2.825212
    12  H    4.326194   4.780393   4.634867   5.039801   2.865266
    13  C    5.089671   5.145647   5.286822   6.047994   3.970390
    14  H    5.305160   5.456612   5.276936   6.302924   4.295843
    15  H    6.033218   6.108904   6.296899   6.933386   4.793984
    16  H    5.168316   4.991919   5.393824   6.172742   4.274430
    17  C    2.523891   3.488304   2.811103   2.753890   1.537058
    18  H    3.494634   4.354033   3.827503   3.766502   2.200771
    19  H    2.793060   3.815124   2.633624   3.111605   2.180595
    20  H    2.757336   3.757558   3.149426   2.531936   2.185981
                    6          7          8          9         10
     6  H    0.000000
     7  C    2.149286   0.000000
     8  H    3.054272   1.100345   0.000000
     9  H    2.553723   1.099909   1.754033   0.000000
    10  C    2.748773   1.537693   2.166152   2.152116   0.000000
    11  H    2.515348   2.160531   3.068246   2.508884   1.099065
    12  H    3.060887   2.172830   2.524016   3.065973   1.097338
    13  C    4.186761   2.565069   2.797444   2.760489   1.532853
    14  H    4.753834   2.834614   2.621086   3.120420   2.183179
    15  H    4.863056   3.522503   3.806427   3.771761   2.192237
    16  H    4.423817   2.829688   3.157549   2.575960   2.182592
    17  C    2.145897   2.566447   2.750302   3.493132   3.229943
    18  H    2.512268   2.833864   3.079127   3.870053   2.937423
    19  H    3.067715   2.842457   2.579986   3.769368   3.659022
    20  H    2.492924   3.520275   3.773031   4.328269   4.200571
                   11         12         13         14         15
    11  H    0.000000
    12  H    1.753798   0.000000
    13  C    2.162420   2.156535   0.000000
    14  H    3.082527   2.525682   1.097035   0.000000
    15  H    2.512452   2.502679   1.096859   1.769634   0.000000
    16  H    2.527648   3.077181   1.097038   1.768465   1.769899
    17  C    3.592476   2.922788   4.623070   4.770033   5.305708
    18  H    3.261666   2.312714   4.323078   4.521331   4.810943
    19  H    4.272954   3.312350   4.840199   4.736014   5.593341
    20  H    4.384800   3.888794   5.651499   5.855049   6.298025
                   16         17         18         19         20
    16  H    0.000000
    17  C    5.215279   0.000000
    18  H    5.079497   1.095401   0.000000
    19  H    5.461790   1.097824   1.770736   0.000000
    20  H    6.203233   1.096684   1.766392   1.770083   0.000000
 Stoichiometry    C6H14
 Framework group  C1[X(C6H14)]
 Deg. of freedom    54
 Full point group                 C1      NOp   1
 Largest Abelian subgroup         C1      NOp   1
 Largest concise Abelian subgroup C1      NOp   1
                         Standard orientation:                         
 ---------------------------------------------------------------------
 Center     Atomic      Atomic             Coordinates (Angstroms)
 Number     Number       Type             X           Y           Z
 ---------------------------------------------------------------------
      1          6           0        2.152821   -1.052504    0.017941
      2          1           0        1.908336   -2.033969   -0.406362
      3          1           0        2.247819   -1.174478    1.104747
      4          1           0        3.136637   -0.757058   -0.368126
      5          6           0        1.075473   -0.010366   -0.321162
      6          1           0        1.007233    0.048960   -1.418110
      7          6           0       -0.309823   -0.454322    0.204079
      8          1           0       -0.311904   -0.384876    1.302228
      9          1           0       -0.450503   -1.520335   -0.027492
     10          6           0       -1.513244    0.322043   -0.355862
     11          1           0       -1.499163    0.258094   -1.452974
     12          1           0       -1.416762    1.388102   -0.114281
     13          6           0       -2.860831   -0.188779    0.166354
     14          1           0       -2.918010   -0.108418    1.258947
     15          1           0       -3.702273    0.377600   -0.251126
     16          1           0       -3.010743   -1.243978   -0.093596
     17          6           0        1.489276    1.375938    0.197945
     18          1           0        0.765085    2.153631   -0.067845
     19          1           0        1.582270    1.366788    1.291785
     20          1           0        2.459949    1.677876   -0.213570
 ---------------------------------------------------------------------
 Rotational constants (GHZ):      6.5829139      1.6686915      1.4444089
 Leave Link  202 at Fri Sep 18 13:23:40 2015, MaxMem=  402653184 cpu:       0.0
 (Enter /share/apps/g09/l301.exe)
 Standard basis: 6-31G(d) (6D, 7F)
 Ernie: Thresh=  0.10000D-02 Tol=  0.10000D-05 Strict=F.
 There are   118 symmetry adapted basis functions of A   symmetry.
 Integral buffers will be    131072 words long.
 Raffenetti 2 integral format.
 Two-electron integral symmetry is turned on.
   118 basis functions,   224 primitive gaussians,   118 cartesian basis functions
    25 alpha electrons       25 beta electrons
       nuclear repulsion energy       251.9602780604 Hartrees.
 IExCor=  402 DFT=T Ex+Corr=B3LYP ExCW=0 ScaHFX=  0.200000
 ScaDFX=  0.800000  0.720000  1.000000  0.810000 ScalE2=  1.000000  1.000000
 IRadAn=      5 IRanWt=     -1 IRanGd=            0 ICorTp=0
 NAtoms=   20 NActive=   20 NUniq=   20 SFac= 7.50D-01 NAtFMM=   80 NAOKFM=F Big=F
 Leave Link  301 at Fri Sep 18 13:23:40 2015, MaxMem=  402653184 cpu:       0.1
 (Enter /share/apps/g09/l302.exe)
 NPDir=0 NMtPBC=     1 NCelOv=     1 NCel=       1 NClECP=     1 NCelD=      1
         NCelK=      1 NCelE2=     1 NClLst=     1 CellRange=     0.0.
 One-electron integrals computed using PRISM.
 NBasis=   118 RedAO= T  NBF=   118
 NBsUse=   118 1.00D-06 NBFU=   118
 Precomputing XC quadrature grid using
 IXCGrd= 2 IRadAn=           5 IRanWt=          -1 IRanGd=           0 AccXCQ= 1.00D-10.
 NRdTot=    1649 NPtTot=      440934 NUsed=      452750 NTot=      452782
 NSgBfM=   118   118   118   118   118 NAtAll=    20    20.
 Leave Link  302 at Fri Sep 18 13:23:41 2015, MaxMem=  402653184 cpu:       1.2
 (Enter /share/apps/g09/l303.exe)
 DipDrv:  MaxL=1.
 Leave Link  303 at Fri Sep 18 13:23:41 2015, MaxMem=  402653184 cpu:       0.0
 (Enter /share/apps/g09/l401.exe)
 Initial guess read from the read-write file.
 B after Tr=     0.000000    0.000000    0.000000
         Rot=    1.000000    0.000000    0.000000    0.000000 Ang=   0.00 deg.
 Guess basis will be translated and rotated to current coordinates.
 Initial guess orbital symmetries:
       Occupied  (A) (A) (A) (A) (A) (A) (A) (A) (A) (A) (A) (A)
                 (A) (A) (A) (A) (A) (A) (A) (A) (A) (A) (A) (A)
                 (A)
       Virtual   (A) (A) (A) (A) (A) (A) (A) (A) (A) (A) (A) (A)
                 (A) (A) (A) (A) (A) (A) (A) (A) (A) (A) (A) (A)
                 (A) (A) (A) (A) (A) (A) (A) (A) (A) (A) (A) (A)
                 (A) (A) (A) (A) (A) (A) (A) (A) (A) (A) (A) (A)
                 (A) (A) (A) (A) (A) (A) (A) (A) (A) (A) (A) (A)
                 (A) (A) (A) (A) (A) (A) (A) (A) (A) (A) (A) (A)
                 (A) (A) (A) (A) (A) (A) (A) (A) (A) (A) (A) (A)
                 (A) (A) (A) (A) (A) (A) (A) (A) (A)
 The electronic state of the initial guess is 1-A.
 Generating alternative initial guess.
 Harris functional with IExCor=  402 diagonalized for initial guess.
 ExpMin= 1.61D-01 ExpMax= 3.05D+03 ExpMxC= 4.57D+02 IAcc=3 IRadAn=         5 AccDes= 0.00D+00
 HarFok:  IExCor=  402 AccDes= 0.00D+00 IRadAn=         5 IDoV= 1
 ScaDFX=  1.000000  1.000000  1.000000  1.000000
 FoFCou: FMM=F IPFlag=           0 FMFlag=      100000 FMFlg1=           0
         NFxFlg=           0 DoJE=T BraDBF=F KetDBF=T FulRan=T
         Omega=  0.000000  0.000000  1.000000  0.000000  0.000000 ICntrl=     500 IOpCl=  0
         NMat0=    1 NMatS0=    1 NMatT0=    0 NMatD0=    1 NMtDS0=    0 NMtDT0=    0
         I1Cent=           4 NGrid=           0.
 Petite list used in FoFCou.
 Harris En= -237.181985145482    
 Leave Link  401 at Fri Sep 18 13:23:45 2015, MaxMem=  402653184 cpu:       8.7
 (Enter /share/apps/g09/l502.exe)
 Closed shell SCF:
 Requested convergence on RMS density matrix=1.00D-08 within 128 cycles.
 Requested convergence on MAX density matrix=1.00D-06.
 Requested convergence on             energy=1.00D-06.
 No special actions if energy rises.
 Using DIIS extrapolation, IDIIS=  1040.
 Integral symmetry usage will be decided dynamically.
       452557 words used for storage of precomputed grid.
 Keep R1 ints in memory in canonical form, NReq=26106612.
 IEnd=      514101 IEndB=      514101 NGot=   402653184 MDV=   377519007
 LenX=   377519007 LenY=   377504642
 Symmetry not used in FoFDir.
 MinBra= 0 MaxBra= 2 Meth= 1.
 IRaf=       0 NMat=   1 IRICut=       1 DoRegI=T DoRafI=F ISym2E= 0 JSym2E=0.
 Integral accuracy reduced to 1.0D-05 until final iterations.

 Cycle   1  Pass 0  IDiag  1:
 E= -237.083337838027    
 DIIS: error= 1.52D-03 at cycle   1 NSaved=   1.
 NSaved= 1 IEnMin= 1 EnMin= -237.083337838027     IErMin= 1 ErrMin= 1.52D-03
 ErrMax= 1.52D-03 EMaxC= 1.00D-01 BMatC= 6.60D-04 BMatP= 6.60D-04
 IDIUse=3 WtCom= 9.85D-01 WtEn= 1.52D-02
 Coeff-Com:  0.100D+01
 Coeff-En:   0.100D+01
 Coeff:      0.100D+01
 Gap=     0.394 Goal=   None    Shift=    0.000
 GapD=    0.394 DampG=1.000 DampE=1.000 DampFc=1.0000 IDamp=-1.
 RMSDP=3.34D-04 MaxDP=4.99D-03              OVMax= 8.75D-03

 Cycle   2  Pass 0  IDiag  1:
 E= -237.084540471831     Delta-E=       -0.001202633804 Rises=F Damp=F
 DIIS: error= 2.84D-04 at cycle   2 NSaved=   2.
 NSaved= 2 IEnMin= 2 EnMin= -237.084540471831     IErMin= 2 ErrMin= 2.84D-04
 ErrMax= 2.84D-04 EMaxC= 1.00D-01 BMatC= 2.55D-05 BMatP= 6.60D-04
 IDIUse=3 WtCom= 9.97D-01 WtEn= 2.84D-03
 Coeff-Com:  0.490D-02 0.995D+00
 Coeff-En:   0.000D+00 0.100D+01
 Coeff:      0.489D-02 0.995D+00
 Gap=     0.392 Goal=   None    Shift=    0.000
 RMSDP=9.41D-05 MaxDP=1.63D-03 DE=-1.20D-03 OVMax= 2.25D-03

 Cycle   3  Pass 0  IDiag  1:
 E= -237.084543390078     Delta-E=       -0.000002918248 Rises=F Damp=F
 DIIS: error= 3.17D-04 at cycle   3 NSaved=   3.
 NSaved= 3 IEnMin= 3 EnMin= -237.084543390078     IErMin= 2 ErrMin= 2.84D-04
 ErrMax= 3.17D-04 EMaxC= 1.00D-01 BMatC= 2.91D-05 BMatP= 2.55D-05
 IDIUse=3 WtCom= 3.60D-01 WtEn= 6.40D-01
 Coeff-Com: -0.337D-01 0.535D+00 0.499D+00
 Coeff-En:   0.000D+00 0.472D+00 0.528D+00
 Coeff:     -0.121D-01 0.495D+00 0.517D+00
 Gap=     0.393 Goal=   None    Shift=    0.000
 RMSDP=5.18D-05 MaxDP=9.47D-04 DE=-2.92D-06 OVMax= 1.06D-03

 Cycle   4  Pass 0  IDiag  1:
 E= -237.084571725549     Delta-E=       -0.000028335471 Rises=F Damp=F
 DIIS: error= 5.58D-05 at cycle   4 NSaved=   4.
 NSaved= 4 IEnMin= 4 EnMin= -237.084571725549     IErMin= 4 ErrMin= 5.58D-05
 ErrMax= 5.58D-05 EMaxC= 1.00D-01 BMatC= 7.78D-07 BMatP= 2.55D-05
 IDIUse=1 WtCom= 1.00D+00 WtEn= 0.00D+00
 Coeff-Com: -0.117D-01 0.107D+00 0.198D+00 0.706D+00
 Coeff:     -0.117D-01 0.107D+00 0.198D+00 0.706D+00
 Gap=     0.393 Goal=   None    Shift=    0.000
 RMSDP=8.46D-06 MaxDP=1.26D-04 DE=-2.83D-05 OVMax= 1.70D-04

 Initial convergence to 1.0D-05 achieved.  Increase integral accuracy.
 Cycle   5  Pass 1  IDiag  1:
 E= -237.084556983645     Delta-E=        0.000014741905 Rises=F Damp=F
 DIIS: error= 9.38D-06 at cycle   1 NSaved=   1.
 NSaved= 1 IEnMin= 1 EnMin= -237.084556983645     IErMin= 1 ErrMin= 9.38D-06
 ErrMax= 9.38D-06 EMaxC= 1.00D-01 BMatC= 1.92D-08 BMatP= 1.92D-08
 IDIUse=1 WtCom= 1.00D+00 WtEn= 0.00D+00
 Coeff-Com:  0.100D+01
 Coeff:      0.100D+01
 Gap=     0.393 Goal=   None    Shift=    0.000
 RMSDP=8.46D-06 MaxDP=1.26D-04 DE= 1.47D-05 OVMax= 6.22D-05

 Cycle   6  Pass 1  IDiag  1:
 E= -237.084556981975     Delta-E=        0.000000001670 Rises=F Damp=F
 DIIS: error= 8.37D-06 at cycle   2 NSaved=   2.
 NSaved= 2 IEnMin= 1 EnMin= -237.084556983645     IErMin= 2 ErrMin= 8.37D-06
 ErrMax= 8.37D-06 EMaxC= 1.00D-01 BMatC= 2.25D-08 BMatP= 1.92D-08
 IDIUse=1 WtCom= 1.00D+00 WtEn= 0.00D+00
 Coeff-Com:  0.521D+00 0.479D+00
 Coeff:      0.521D+00 0.479D+00
 Gap=     0.393 Goal=   None    Shift=    0.000
 RMSDP=1.29D-06 MaxDP=3.28D-05 DE= 1.67D-09 OVMax= 3.10D-05

 Cycle   7  Pass 1  IDiag  1:
 E= -237.084557003826     Delta-E=       -0.000000021851 Rises=F Damp=F
 DIIS: error= 8.42D-07 at cycle   3 NSaved=   3.
 NSaved= 3 IEnMin= 3 EnMin= -237.084557003826     IErMin= 3 ErrMin= 8.42D-07
 ErrMax= 8.42D-07 EMaxC= 1.00D-01 BMatC= 2.64D-10 BMatP= 1.92D-08
 IDIUse=1 WtCom= 1.00D+00 WtEn= 0.00D+00
 Coeff-Com:  0.951D-01 0.136D+00 0.768D+00
 Coeff:      0.951D-01 0.136D+00 0.768D+00
 Gap=     0.393 Goal=   None    Shift=    0.000
 RMSDP=2.10D-07 MaxDP=3.24D-06 DE=-2.19D-08 OVMax= 3.97D-06

 Cycle   8  Pass 1  IDiag  1:
 E= -237.084557004071     Delta-E=       -0.000000000246 Rises=F Damp=F
 DIIS: error= 3.61D-07 at cycle   4 NSaved=   4.
 NSaved= 4 IEnMin= 4 EnMin= -237.084557004071     IErMin= 4 ErrMin= 3.61D-07
 ErrMax= 3.61D-07 EMaxC= 1.00D-01 BMatC= 3.00D-11 BMatP= 2.64D-10
 IDIUse=1 WtCom= 1.00D+00 WtEn= 0.00D+00
 Coeff-Com: -0.661D-02 0.109D-01 0.285D+00 0.710D+00
 Coeff:     -0.661D-02 0.109D-01 0.285D+00 0.710D+00
 Gap=     0.393 Goal=   None    Shift=    0.000
 RMSDP=6.31D-08 MaxDP=1.15D-06 DE=-2.46D-10 OVMax= 1.43D-06

 Cycle   9  Pass 1  IDiag  1:
 E= -237.084557004100     Delta-E=       -0.000000000029 Rises=F Damp=F
 DIIS: error= 1.14D-07 at cycle   5 NSaved=   5.
 NSaved= 5 IEnMin= 5 EnMin= -237.084557004100     IErMin= 5 ErrMin= 1.14D-07
 ErrMax= 1.14D-07 EMaxC= 1.00D-01 BMatC= 2.79D-12 BMatP= 3.00D-11
 IDIUse=1 WtCom= 1.00D+00 WtEn= 0.00D+00
 Coeff-Com: -0.723D-02 0.636D-05 0.117D+00 0.362D+00 0.528D+00
 Coeff:     -0.723D-02 0.636D-05 0.117D+00 0.362D+00 0.528D+00
 Gap=     0.393 Goal=   None    Shift=    0.000
 RMSDP=1.42D-08 MaxDP=3.41D-07 DE=-2.89D-11 OVMax= 3.46D-07

 Cycle  10  Pass 1  IDiag  1:
 E= -237.084557004103     Delta-E=       -0.000000000003 Rises=F Damp=F
 DIIS: error= 1.18D-08 at cycle   6 NSaved=   6.
 NSaved= 6 IEnMin= 6 EnMin= -237.084557004103     IErMin= 6 ErrMin= 1.18D-08
 ErrMax= 1.18D-08 EMaxC= 1.00D-01 BMatC= 2.84D-14 BMatP= 2.79D-12
 IDIUse=1 WtCom= 1.00D+00 WtEn= 0.00D+00
 Coeff-Com: -0.136D-02-0.620D-03 0.149D-01 0.559D-01 0.135D+00 0.796D+00
 Coeff:     -0.136D-02-0.620D-03 0.149D-01 0.559D-01 0.135D+00 0.796D+00
 Gap=     0.393 Goal=   None    Shift=    0.000
 RMSDP=2.12D-09 MaxDP=2.75D-08 DE=-2.90D-12 OVMax= 3.86D-08

 SCF Done:  E(RB3LYP) =  -237.084557004     A.U. after   10 cycles
             Convg  =    0.2116D-08             -V/T =  2.0105
 KE= 2.346132196880D+02 PE=-1.050824762916D+03 EE= 3.271667081637D+02
 Leave Link  502 at Fri Sep 18 13:24:29 2015, MaxMem=  402653184 cpu:      87.9
 (Enter /share/apps/g09/l701.exe)
 Compute integral first derivatives.
 ... and contract with generalized density number  0.
 Leave Link  701 at Fri Sep 18 13:24:30 2015, MaxMem=  402653184 cpu:       0.3
 (Enter /share/apps/g09/l702.exe)
 L702 exits ... SP integral derivatives will be done elsewhere.
 Leave Link  702 at Fri Sep 18 13:24:30 2015, MaxMem=  402653184 cpu:       0.0
 (Enter /share/apps/g09/l703.exe)
 Compute integral first derivatives, UseDBF=F ICtDFT=           0.
 Integral derivatives from FoFDir, PRISM(SPDF).
 Calling FoFJK, ICntrl=      2127 FMM=F ISym2X=0 I1Cent= 0 IOpClX= 0 NMat=1 NMatS=1 NMatT=0.
 FoFCou: FMM=F IPFlag=           0 FMFlag=      100000 FMFlg1=         800
         NFxFlg=           0 DoJE=F BraDBF=F KetDBF=F FulRan=T
         Omega=  0.000000  0.000000  1.000000  0.000000  0.000000 ICntrl=    2127 IOpCl=  0
         NMat0=    1 NMatS0=    1 NMatT0=    0 NMatD0=    1 NMtDS0=    0 NMtDT0=    0
         I1Cent=           0 NGrid=           0.
 Symmetry not used in FoFCou.
 Leave Link  703 at Fri Sep 18 13:24:40 2015, MaxMem=  402653184 cpu:      20.4
 (Enter /share/apps/g09/l716.exe)
 Dipole        =-6.95346274D-03 1.04125829D-02-3.16279438D-02
 ***** Axes restored to original set *****
 -------------------------------------------------------------------
 Center     Atomic                   Forces (Hartrees/Bohr)
 Number     Number              X              Y              Z
 -------------------------------------------------------------------
      1        6          -0.000535568   -0.000316676    0.000737315
      2        1          -0.000133140    0.000156115    0.000144853
      3        1           0.000206309   -0.000224858    0.000279650
      4        1          -0.000731410    0.000378980   -0.000003986
      5        6          -0.001138851    0.000136763   -0.001564207
      6        1          -0.000074087    0.000047506   -0.000608799
      7        6           0.000305299   -0.000112511    0.000422207
      8        1          -0.000009046   -0.000071308    0.000683024
      9        1           0.000292889   -0.000106160   -0.000411533
     10        6           0.001438180    0.001076053   -0.000506158
     11        1          -0.000117967   -0.000061438   -0.000350467
     12        1           0.000165333    0.000528132    0.000209753
     13        6           0.000325440   -0.000919325    0.000580226
     14        1           0.000031764   -0.000035159    0.000096116
     15        1           0.001001078    0.000200097   -0.000238629
     16        1          -0.000058760   -0.000155852    0.000076218
     17        6          -0.000532117   -0.000119641    0.000321991
     18        1          -0.000409194   -0.000226484   -0.000113347
     19        1           0.000001616    0.000168117    0.000306512
     20        1          -0.000027772   -0.000342349   -0.000060738
 -------------------------------------------------------------------
 Cartesian Forces:  Max     0.001564207 RMS     0.000487998
 Leave Link  716 at Fri Sep 18 13:24:40 2015, MaxMem=  402653184 cpu:       0.0
 (Enter /share/apps/g09/l103.exe)

 GradGradGradGradGradGradGradGradGradGradGradGradGradGradGradGradGradGrad
 Berny optimization.
[...]
 (Enter /share/apps/g09/l202.exe)
                          Input orientation:                          
 ---------------------------------------------------------------------
 Center     Atomic      Atomic             Coordinates (Angstroms)
 Number     Number       Type             X           Y           Z
 ---------------------------------------------------------------------
      1          6           0        2.161455   -1.029491    0.062957
      2          1           0        1.931213   -2.035082   -0.309088
      3          1           0        2.254734   -1.092445    1.155228
      4          1           0        3.140619   -0.739412   -0.336575
      5          6           0        1.073974   -0.020924   -0.337081
      6          1           0        1.022216   -0.002522   -1.437185
      7          6           0       -0.303429   -0.475409    0.185523
      8          1           0       -0.287928   -0.468592    1.286773
      9          1           0       -0.458182   -1.524733   -0.106815
     10          6           0       -1.500566    0.348176   -0.309334
     11          1           0       -1.487195    0.380321   -1.408468
     12          1           0       -1.406493    1.388647    0.027457
     13          6           0       -2.845120   -0.212551    0.166949
     14          1           0       -2.901159   -0.230585    1.262470
     15          1           0       -3.683495    0.391337   -0.198923
     16          1           0       -2.994525   -1.240038   -0.187351
     17          6           0        1.449292    1.390698    0.139877
     18          1           0        0.731145    2.145463   -0.197921
     19          1           0        1.488672    1.433719    1.236646
     20          1           0        2.436459    1.682380   -0.238177
 ---------------------------------------------------------------------
                    Distance matrix (angstroms):
                    1          2          3          4          5
     1  C    0.000000
     2  H    1.096651   0.000000
     3  H    1.098053   1.771285   0.000000
     4  H    1.096601   1.772620   1.770565   0.000000
     5  C    1.536182   2.189173   2.183882   2.187978   0.000000
     6  H    2.145451   2.496033   3.070446   2.498396   1.101475
     7  C    2.529365   2.769630   2.804508   3.493387   1.541723
     8  H    2.794962   3.150437   2.621379   3.803096   2.166122
     9  H    2.671439   2.451649   3.023167   3.690649   2.159159
    10  C    3.930263   4.178161   4.280492   4.766990   2.601011
    11  H    4.179152   4.327624   4.769026   4.880514   2.805076
    12  H    4.310326   4.793273   4.564238   5.033625   2.876194
    13  C    5.073855   5.134354   5.268721   6.029942   3.956017
    14  H    5.263758   5.392387   5.228532   6.270482   4.290013
    15  H    6.020862   6.117564   6.268804   6.918531   4.777296
    16  H    5.166344   4.990973   5.420242   6.157344   4.249864
    17  C    2.523967   3.488523   2.801014   2.761334   1.536564
    18  H    3.492017   4.350803   3.825753   3.761289   2.197756
    19  H    2.810265   3.823313   2.641020   3.150627   2.182791
    20  H    2.742362   3.752310   3.110347   2.524004   2.183436
                    6          7          8          9         10
     6  H    0.000000
     7  C    2.148055   0.000000
     8  H    3.058373   1.101380   0.000000
     9  H    2.505711   1.100224   1.756846   0.000000
    10  C    2.785582   1.535028   2.164522   2.152990   0.000000
    11  H    2.538609   2.162032   3.069726   2.526341   1.099686
    12  H    3.158980   2.171736   2.507270   3.066774   1.097660
    13  C    4.192093   2.555314   2.803354   2.737561   1.532673
    14  H    4.767916   2.822757   2.624160   3.085110   2.183391
    15  H    4.881816   3.510540   3.804818   3.752659   2.186146
    16  H    4.384944   2.822355   3.177079   2.553541   2.183854
    17  C    2.147226   2.560560   2.791105   3.492714   3.160744
    18  H    2.496865   2.843649   3.174289   3.859163   2.867610
    19  H    3.070789   2.821570   2.603385   3.787819   3.536100
    20  H    2.505314   3.513198   3.791364   4.322242   4.157563
                   11         12         13         14         15
    11  H    0.000000
    12  H    1.756449   0.000000
    13  C    2.162730   2.157068   0.000000
    14  H    3.083248   2.526103   1.097102   0.000000
    15  H    2.507360   2.496120   1.096091   1.770454   0.000000
    16  H    2.527595   3.078632   1.097078   1.769094   1.770931
    17  C    3.470041   2.857997   4.584006   4.776526   5.240134
    18  H    3.082561   2.278829   4.299190   4.579518   4.750369
    19  H    4.118502   3.137858   4.757753   4.694805   5.467973
    20  H    4.296510   3.863305   5.625831   5.865284   6.254772
                   16         17         18         19         20
    16  H    0.000000
    17  C    5.174491   0.000000
    18  H    5.034118   1.095222   0.000000
    19  H    5.410712   1.098319   1.771556   0.000000
    20  H    6.167552   1.096587   1.767531   1.770660   0.000000
 Stoichiometry    C6H14
 Framework group  C1[X(C6H14)]
 Deg. of freedom    54
 Full point group                 C1      NOp   1
 Largest Abelian subgroup         C1      NOp   1
 Largest concise Abelian subgroup C1      NOp   1
                         Standard orientation:                         
 ---------------------------------------------------------------------
 Center     Atomic      Atomic             Coordinates (Angstroms)
 Number     Number       Type             X           Y           Z
 ---------------------------------------------------------------------
      1          6           0        2.158795   -1.038263    0.033292
      2          1           0        1.927533   -2.029220   -0.375566
      3          1           0        2.248000   -1.140771    1.122904
      4          1           0        3.140067   -0.736397   -0.352086
      5          6           0        1.075128   -0.013246   -0.333942
      6          1           0        1.027368    0.044919   -1.432842
      7          6           0       -0.305207   -0.482861    0.167105
      8          1           0       -0.293649   -0.515776    1.267932
      9          1           0       -0.461370   -1.520582   -0.163410
     10          6           0       -1.498622    0.360983   -0.301937
     11          1           0       -1.481225    0.432686   -1.399145
     12          1           0       -1.403319    1.388404    0.072469
     13          6           0       -2.846191   -0.213217    0.149104
     14          1           0       -2.906210   -0.270582    1.243060
     15          1           0       -3.681826    0.405537   -0.197700
     16          1           0       -2.996731   -1.226895   -0.242527
     17          6           0        1.452040    1.379337    0.194906
     18          1           0        0.736885    2.147560   -0.117982
     19          1           0        1.487579    1.382705    1.292645
     20          1           0        2.441242    1.682010   -0.168923
 ---------------------------------------------------------------------
 Rotational constants (GHZ):      6.5879110      1.6911747      1.4550940
 Leave Link  202 at Fri Sep 18 13:30:13 2015, MaxMem=  402653184 cpu:       0.0
 (Enter /share/apps/g09/l601.exe)
 Copying SCF densities to generalized density rwf, IOpCl= 0 IROHF=0.

 **********************************************************************

            Population analysis using the SCF density.

 **********************************************************************

 Orbital symmetries:
       Occupied  (A) (A) (A) (A) (A) (A) (A) (A) (A) (A) (A) (A)
                 (A) (A) (A) (A) (A) (A) (A) (A) (A) (A) (A) (A)
                 (A)
       Virtual   (A) (A) (A) (A) (A) (A) (A) (A) (A) (A) (A) (A)
                 (A) (A) (A) (A) (A) (A) (A) (A) (A) (A) (A) (A)
                 (A) (A) (A) (A) (A) (A) (A) (A) (A) (A) (A) (A)
                 (A) (A) (A) (A) (A) (A) (A) (A) (A) (A) (A) (A)
                 (A) (A) (A) (A) (A) (A) (A) (A) (A) (A) (A) (A)
                 (A) (A) (A) (A) (A) (A) (A) (A) (A) (A) (A) (A)
                 (A) (A) (A) (A) (A) (A) (A) (A) (A) (A) (A) (A)
                 (A) (A) (A) (A) (A) (A) (A) (A) (A)
 The electronic state is 1-A.
 Alpha  occ. eigenvalues --  -10.18306 -10.17579 -10.17248 -10.17016 -10.16811
 Alpha  occ. eigenvalues --  -10.16807  -0.80550  -0.75519  -0.67622  -0.66928
 Alpha  occ. eigenvalues --   -0.58798  -0.55159  -0.46603  -0.43950  -0.43383
 Alpha  occ. eigenvalues --   -0.41205  -0.39201  -0.37763  -0.37395  -0.35934
 Alpha  occ. eigenvalues --   -0.34337  -0.32923  -0.31443  -0.31140  -0.30443
 Alpha virt. eigenvalues --    0.08741   0.11080   0.12371   0.13037   0.14994
 Alpha virt. eigenvalues --    0.15863   0.16481   0.16976   0.17946   0.18665
 Alpha virt. eigenvalues --    0.19452   0.19896   0.21712   0.22067   0.23745
 Alpha virt. eigenvalues --    0.25193   0.26766   0.27449   0.28676   0.49576
 Alpha virt. eigenvalues --    0.51288   0.52154   0.52458   0.53654   0.56101
 Alpha virt. eigenvalues --    0.58369   0.63044   0.65726   0.67819   0.69164
 Alpha virt. eigenvalues --    0.71855   0.72962   0.74503   0.80756   0.81554
 Alpha virt. eigenvalues --    0.85669   0.86929   0.88637   0.89956   0.90311
 Alpha virt. eigenvalues --    0.90745   0.91670   0.92244   0.94296   0.95320
 Alpha virt. eigenvalues --    0.96873   0.97032   0.97265   0.99825   1.01114
 Alpha virt. eigenvalues --    1.03465   1.10294   1.27673   1.40877   1.43317
 Alpha virt. eigenvalues --    1.44495   1.46320   1.54728   1.61229   1.69301
 Alpha virt. eigenvalues --    1.73430   1.79055   1.83996   1.84509   1.90995
 Alpha virt. eigenvalues --    1.93431   1.96612   1.98400   2.00311   2.02073
 Alpha virt. eigenvalues --    2.04075   2.10154   2.13958   2.21127   2.24167
 Alpha virt. eigenvalues --    2.24914   2.26279   2.33379   2.35715   2.37870
 Alpha virt. eigenvalues --    2.44820   2.51816   2.53302   2.59267   2.68782
 Alpha virt. eigenvalues --    2.76851   2.80168   4.12369   4.21512   4.29138
 Alpha virt. eigenvalues --    4.33815   4.46880   4.59381
          Condensed to atoms (all electrons):
              1          2          3          4          5          6
     1  C    5.110815   0.369584   0.371719   0.367917   0.378414  -0.046102
     2  H    0.369584   0.581106  -0.031666  -0.030317  -0.029741  -0.003363
     3  H    0.371719  -0.031666   0.584710  -0.032057  -0.033979   0.005883
     4  H    0.367917  -0.030317  -0.032057   0.583153  -0.028425  -0.003399
     5  C    0.378414  -0.029741  -0.033979  -0.028425   4.835251   0.378603
     6  H   -0.046102  -0.003363   0.005883  -0.003399   0.378603   0.644457
     7  C   -0.046623  -0.004267  -0.006029   0.004712   0.390288  -0.048846
     8  H   -0.003959  -0.000270   0.004853  -0.000087  -0.037614   0.006606
     9  H   -0.004833   0.005335  -0.000290   0.000028  -0.037478  -0.003561
    10  C    0.004018   0.000005   0.000017  -0.000140  -0.032835  -0.005555
    11  H    0.000073  -0.000004   0.000009   0.000000  -0.003612   0.006222
    12  H    0.000013   0.000001   0.000001   0.000003  -0.004634  -0.000271
    13  C   -0.000134  -0.000003   0.000000   0.000002   0.003568   0.000029
    14  H    0.000001   0.000000  -0.000001   0.000000   0.000058   0.000009
    15  H    0.000002   0.000000   0.000000   0.000000  -0.000125   0.000000
    16  H   -0.000005   0.000000   0.000000   0.000000  -0.000018   0.000002
    17  C   -0.054445   0.005296  -0.005522  -0.003693   0.381062  -0.048679
    18  H    0.005128  -0.000185  -0.000039  -0.000044  -0.028897  -0.003391
    19  H   -0.005203  -0.000048   0.004876  -0.000224  -0.034898   0.005950
    20  H   -0.004492  -0.000017  -0.000224   0.004380  -0.029931  -0.003206
              7          8          9         10         11         12
     1  C   -0.046623  -0.003959  -0.004833   0.004018   0.000073   0.000013
     2  H   -0.004267  -0.000270   0.005335   0.000005  -0.000004   0.000001
     3  H   -0.006029   0.004853  -0.000290   0.000017   0.000009   0.000001
     4  H    0.004712  -0.000087   0.000028  -0.000140   0.000000   0.000003
     5  C    0.390288  -0.037614  -0.037478  -0.032835  -0.003612  -0.004634
     6  H   -0.048846   0.006606  -0.003561  -0.005555   0.006222  -0.000271
     7  C    5.008724   0.364738   0.369089   0.386831  -0.041861  -0.037773
     8  H    0.364738   0.624736  -0.039715  -0.040480   0.006068  -0.005719
     9  H    0.369089  -0.039715   0.622469  -0.042146  -0.004893   0.005893
    10  C    0.386831  -0.040480  -0.042146   4.959539   0.376321   0.376776
    11  H   -0.041861   0.006068  -0.004893   0.376321   0.614101  -0.040389
    12  H   -0.037773  -0.005719   0.005893   0.376776  -0.040389   0.605784
    13  C   -0.041780  -0.002828  -0.003862   0.370578  -0.038732  -0.038322
    14  H   -0.004280   0.004676  -0.000400  -0.034884   0.005277  -0.004533
    15  H    0.004067  -0.000049   0.000010  -0.027665  -0.002690  -0.002525
    16  H   -0.004672  -0.000377   0.005454  -0.034734  -0.004552   0.005196
    17  C   -0.048076  -0.008231   0.005678  -0.004321  -0.000693   0.002419
    18  H   -0.004641  -0.000021  -0.000043   0.001971   0.000458   0.003140
    19  H   -0.005902   0.005728  -0.000009  -0.000361   0.000079   0.000306
    20  H    0.004903  -0.000037  -0.000170   0.000107  -0.000031  -0.000090
             13         14         15         16         17         18
     1  C   -0.000134   0.000001   0.000002  -0.000005  -0.054445   0.005128
     2  H   -0.000003   0.000000   0.000000   0.000000   0.005296  -0.000185
     3  H    0.000000  -0.000001   0.000000   0.000000  -0.005522  -0.000039
     4  H    0.000002   0.000000   0.000000   0.000000  -0.003693  -0.000044
     5  C    0.003568   0.000058  -0.000125  -0.000018   0.381062  -0.028897
     6  H    0.000029   0.000009   0.000000   0.000002  -0.048679  -0.003391
     7  C   -0.041780  -0.004280   0.004067  -0.004672  -0.048076  -0.004641
     8  H   -0.002828   0.004676  -0.000049  -0.000377  -0.008231  -0.000021
     9  H   -0.003862  -0.000400   0.000010   0.005454   0.005678  -0.000043
    10  C    0.370578  -0.034884  -0.027665  -0.034734  -0.004321   0.001971
    11  H   -0.038732   0.005277  -0.002690  -0.004552  -0.000693   0.000458
    12  H   -0.038322  -0.004533  -0.002525   0.005196   0.002419   0.003140
    13  C    5.067195   0.377401   0.371479   0.377164   0.000148  -0.000095
    14  H    0.377401   0.579810  -0.031432  -0.032918  -0.000012   0.000008
    15  H    0.371479  -0.031432   0.579526  -0.031361   0.000004   0.000005
    16  H    0.377164  -0.032918  -0.031361   0.580020   0.000001   0.000001
    17  C    0.000148  -0.000012   0.000004   0.000001   5.111822   0.370417
    18  H   -0.000095   0.000008   0.000005   0.000001   0.370417   0.574228
    19  H   -0.000026   0.000001   0.000000   0.000000   0.371278  -0.031812
    20  H    0.000000   0.000000   0.000000   0.000000   0.369989  -0.030421
             19         20
     1  C   -0.005203  -0.004492
     2  H   -0.000048  -0.000017
     3  H    0.004876  -0.000224
     4  H   -0.000224   0.004380
     5  C   -0.034898  -0.029931
     6  H    0.005950  -0.003206
     7  C   -0.005902   0.004903
     8  H    0.005728  -0.000037
     9  H   -0.000009  -0.000170
    10  C   -0.000361   0.000107
    11  H    0.000079  -0.000031
    12  H    0.000306  -0.000090
    13  C   -0.000026   0.000000
    14  H    0.000001   0.000000
    15  H    0.000000   0.000000
    16  H    0.000000   0.000000
    17  C    0.371278   0.369989
    18  H   -0.031812  -0.030421
    19  H    0.585226  -0.031867
    20  H   -0.031867   0.582316
 Mulliken atomic charges:
              1
     1  C   -0.441887
     2  H    0.138554
     3  H    0.137739
     4  H    0.138191
     5  C   -0.065054
     6  H    0.118611
     7  C   -0.238599
     8  H    0.121984
     9  H    0.123447
    10  C   -0.253042
    11  H    0.128850
    12  H    0.134725
    13  C   -0.441782
    14  H    0.141218
    15  H    0.140753
    16  H    0.140799
    17  C   -0.444441
    18  H    0.144235
    19  H    0.136908
    20  H    0.138793
 Sum of Mulliken atomic charges =   0.00000
 Mulliken charges with hydrogens summed into heavy atoms:
              1
     1  C   -0.027404
     5  C    0.053556
     7  C    0.006832
    10  C    0.010533
    13  C   -0.019012
    17  C   -0.024506
 Sum of Mulliken charges with hydrogens summed into heavy atoms =   0.00000
 Electronic spatial extent (au):  <R**2>=            908.5782
 Charge=              0.0000 electrons
 Dipole moment (field-independent basis, Debye):
    X=             -0.0159    Y=              0.0332    Z=             -0.0783  Tot=              0.0865
 Quadrupole moment (field-independent basis, Debye-Ang):
   XX=            -42.1059   YY=            -41.7336   ZZ=            -41.1457
   XY=             -0.0422   XZ=             -0.0428   YZ=              0.1559
 Traceless Quadrupole moment (field-independent basis, Debye-Ang):
   XX=             -0.4442   YY=             -0.0719   ZZ=              0.5161
   XY=             -0.0422   XZ=             -0.0428   YZ=              0.1559
 Octapole moment (field-independent basis, Debye-Ang**2):
  XXX=              1.6513  YYY=             -0.7607  ZZZ=              0.8673  XYY=             -1.5386
  XXY=              1.9151  XXZ=             -1.5382  XZZ=             -0.0305  YZZ=             -0.1064
  YYZ=             -1.1230  XYZ=             -0.3640
 Hexadecapole moment (field-independent basis, Debye-Ang**3):
 XXXX=           -914.3419 YYYY=           -249.7485 ZZZZ=            -96.9424 XXXY=              0.0646
 XXXZ=             -1.0079 YYYX=             -0.8577 YYYZ=              1.4659 ZZZX=              0.3751
 ZZZY=             -0.2617 XXYY=           -195.5504 XXZZ=           -168.0240 YYZZ=            -59.5353
 XXYZ=             -0.6110 YYXZ=             -0.2301 ZZXY=             -0.1374
 N-N= 2.525618146324D+02 E-N=-1.052042917903D+03  KE= 2.346282007839D+02
 No NMR shielding tensors so no spin-rotation constants.
 Leave Link  601 at Fri Sep 18 13:30:13 2015, MaxMem=  402653184 cpu:       0.3
 (Enter /share/apps/g09/l9999.exe)
 1\1\GINC-COMPUTE-0-11\FOpt\RB3LYP\6-31G(d)\C6H14\HETANJIN\18-Sep-2015\
 0\\#p B3LYP/6-31G(d) opt=tight int=ultrafine\\using B3LYP/6-31G(d) to 
 do opt and freq calc.\\0,1\C,2.1614554642,-1.0294910534,0.062956976\H,
 1.9312133792,-2.0350824918,-0.3090879662\H,2.2547342318,-1.0924452733,
 1.1552279665\H,3.1406192609,-0.7394119129,-0.3365746091\C,1.0739739835
 ,-0.0209237653,-0.3370813042\H,1.0222158616,-0.002521773,-1.4371852408
 \C,-0.3034292085,-0.4754085795,0.1855228436\H,-0.2879283042,-0.4685923
 812,1.286772588\H,-0.4581819798,-1.5247331326,-0.1068152831\C,-1.50056
 59558,0.3481759355,-0.3093336471\H,-1.48719477,0.3803210707,-1.4084682
 774\H,-1.4064928492,1.3886468626,0.0274568276\C,-2.8451201616,-0.21255
 13106,0.1669490961\H,-2.9011593464,-0.2305850105,1.2624704426\H,-3.683
 4948953,0.391336622,-0.1989228333\H,-2.9945246584,-1.2400382773,-0.187
 3510152\C,1.4492915328,1.3906983205,0.1398765014\H,0.7311448714,2.1454
 632416,-0.1979214325\H,1.4886721568,1.4337192241,1.2366458044\H,2.4364
 593871,1.6823796844,-0.2381774371\\Version=EM64L-G09RevA.01\State=1-A\
 HF=-237.0847399\RMSD=6.706e-09\RMSF=8.516e-07\Dipole=-0.0064104,0.0119
 419,-0.0312209\Quadrupole=-0.3302954,-0.0446739,0.3749692,-0.0327082,-
 0.028436,0.1313753\PG=C01 [X(C6H14)]\\@


 ALMOST ALL THE CHEMICAL PROCESSES WHICH OCCUR IN NATURE,
 WHETHER IN ANIMAL OR VEGETABLE ORGANISMS,
 OR IN THE NON-LIVING SURFACE OF THE EARTH ... 
 TAKE PLACE BETWEEN SUBSTANCES IN SOLUTION

                                    -- W. OSTWALD, 1890
 Job cpu time:  0 days  0 hours 15 minutes 22.6 seconds.
 File lengths (MBytes):  RWF=     15 Int=      0 D2E=      0 Chk=      2 Scr=      1
 Normal termination of Gaussian 09 at Fri Sep 18 13:30:13 2015.
