 Entering Gaussian System, Link 0=g09
 Input=C6H14_3_r001_C17_2_opt_B3L.gjf
 Output=C6H14_3_r001_C17_2_opt_B3L.log
 Initial command:
 /HOME/tsinghua_xqyou_1/softwares/gaussian/g09D01/g09/l1.exe "/WORK/tsinghua_xqyou_1/scratch/Gau-25820.inp" -scrdir="/WORK/tsinghua_xqyou_1/scratch/"
 Entering Link 1 = /HOME/tsinghua_xqyou_1/softwares/gaussian/g09D01/g09/l1.exe PID=     25821.
  
 Copyright (c) 1988,1990,1992,1993,1995,1998,2003,2009,2013,
            Gaussian, Inc.  All Rights Reserved.
  
 This is part of the Gaussian(R) 09 program.  It is based on
 the Gaussian(R) 03 system (copyright 2003, Gaussian, Inc.),
 the Gaussian(R) 98 system (copyright 1998, Gaussian, Inc.),
 the Gaussian(R) 94 system (copyright 1995, Gaussian, Inc.),
 the Gaussian 92(TM) system (copyright 1992, Gaussian, Inc.),
 the Gaussian 90(TM) system (copyright 1990, Gaussian, Inc.),
 the Gaussian 88(TM) system (copyright 1988, Gaussian, Inc.),
 the Gaussian 86(TM) system (copyright 1986, Carnegie Mellon
 University), and the Gaussian 82(TM) system (copyright 1983,
 Carnegie Mellon University). Gaussian is a federally registered
 trademark of Gaussian, Inc.
  
 This software contains proprietary and confidential information,
 including trade secrets, belonging to Gaussian, Inc.
  
 This software is provided under written license and may be
 used, copied, transmitted, or stored only in accord with that
 written license.
  
 The following legend is applicable only to US Government
 contracts under FAR:
  
                    RESTRICTED RIGHTS LEGEND
  
 Use, reproduction and disclosure by the US Government is
 subject to restrictions as set forth in subparagraphs (a)
 and (c) of the Commercial Computer Software - Restricted
 Rights clause in FAR 52.227-19.
  
 Gaussian, Inc.
 340 Quinnipiac St., Bldg. 40, Wallingford CT 06492
  
  
 ---------------------------------------------------------------
 Warning -- This program may not be used in any manner that
 competes with the business of Gaussian, Inc. or will provide
 assistance to any competitor of Gaussian, Inc.  The licensee
 of this program is prohibited from giving any competitor of
 Gaussian, Inc. access to this program.  By using this program,
 the user acknowledges that Gaussian, Inc. is engaged in the
 business of creating and licensing software in the field of
 computational chemistry and represents and warrants to the
 licensee that it is not a competitor of Gaussian, Inc. and that
 it will not use this program in any manner prohibited above.
 ---------------------------------------------------------------
  

 Cite this work as:
 Gaussian 09, Revision D.01,
 M. J. Frisch, G. W. Trucks, H. B. Schlegel, G. E. Scuseria, 
 M. A. Robb, J. R. Cheeseman, G. Scalmani, V. Barone, B. Mennucci, 
 G. A. Petersson, H. Nakatsuji, M. Caricato, X. Li, H. P. Hratchian, 
 A. F. Izmaylov, J. Bloino, G. Zheng, J. L. Sonnenberg, M. Hada, 
 M. Ehara, K. Toyota, R. Fukuda, J. Hasegawa, M. Ishida, T. Nakajima, 
 Y. Honda, O. Kitao, H. Nakai, T. Vreven, J. A. Montgomery, Jr., 
 J. E. Peralta, F. Ogliaro, M. Bearpark, J. J. Heyd, E. Brothers, 
 K. N. Kudin, V. N. Staroverov, T. Keith, R. Kobayashi, J. Normand, 
 K. Raghavachari, A. Rendell, J. C. Burant, S. S. Iyengar, J. Tomasi, 
 M. Cossi, N. Rega, J. M. Millam, M. Klene, J. E. Knox, J. B. Cross, 
 V. Bakken, C. Adamo, J. Jaramillo, R. Gomperts, R. E. Stratmann, 
 O. Yazyev, A. J. Austin, R. Cammi, C. Pomelli, J. W. Ochterski, 
 R. L. Martin, K. Morokuma, V. G. Zakrzewski, G. A. Voth, 
 P. Salvador, J. J. Dannenberg, S. Dapprich, A. D. Daniels, 
 O. Farkas, J. B. Foresman, J. V. Ortiz, J. Cioslowski, 
 and D. J. Fox, Gaussian, Inc., Wallingford CT, 2013.
 
 ******************************************
 Gaussian 09:  ES64L-G09RevD.01 24-Apr-2013
                11-Apr-2016 
 ******************************************
 %mem=15GB
 %nprocshared=6
 Will use up to    6 processors via shared memory.
 ------------------------------------------------
 #p B3LYP/6-31G(d) opt=(tight) int=ultrafine freq
 ------------------------------------------------
 1/7=10,14=-1,18=20,19=15,26=4,38=1/1,3;
 2/9=110,12=2,17=6,18=5,40=1/2;
 3/5=1,6=6,7=1,11=2,16=1,25=1,30=1,71=1,74=-5,75=-5/1,2,3;
 4//1;
 5/5=2,38=5/2;
 6/7=2,8=2,9=2,10=2,28=1/1;
 7//1,2,3,16;
 1/7=10,14=-1,18=20,19=15,26=4/3(2);
 2/9=110/2;
 99//99;
 2/9=110/2;
 3/5=1,6=6,7=1,11=2,16=1,25=1,30=1,71=1,74=-5,75=-5/1,2,3;
 4/5=5,16=3,69=1/1;
 5/5=2,38=5/2;
 7//1,2,3,16;
 1/7=10,14=-1,18=20,19=15,26=4/3(-5);
 2/9=110/2;
 6/7=2,8=2,9=2,10=2,19=2,28=1/1;
 99/9=1/99;
 Leave Link    1 at Mon Apr 11 11:01:16 2016, MaxMem=  2013265920 cpu:         0.4
 (Enter /HOME/tsinghua_xqyou_1/softwares/gaussian/g09D01/g09/l101.exe)
 ---------------------------------------------
 using B3LYP/6-31G(d) to do opt and freq calc.
 ---------------------------------------------
 Symbolic Z-matrix:
 Charge =  0 Multiplicity = 2
 C                    -1.7581   -0.68212   1.56605 
 H                    -2.52397  -0.80753   0.79017 
 H                    -1.89393   0.3106    2.00879 
 H                    -1.95916  -1.41977   2.35147 
 C                    -0.35044  -0.87036   0.98819 
 H                     0.39468  -0.72495   1.78478 
 H                    -0.24235  -1.91386   0.66057 
 C                     0.        0.05117  -0.19883 
 H                    -0.77767  -0.08976  -0.96769 
 C                     1.34693  -0.37508  -0.81941 
 H                     1.31759  -1.45868  -1.00066 
 H                     2.14682  -0.21367  -0.08115 
 C                     1.71294   0.3307   -2.13043 
 H                     1.86338   1.40695  -1.99257 
 H                     2.64086  -0.07752  -2.54729 
 H                     0.92564   0.199    -2.88346 
 C                    0.         1.53336   0.20729 
 H                    -0.59063   2.1434   -0.48417 
 H                     0.90615   1.8025    0.76004 
 
 NAtoms=     19 NQM=       19 NQMF=       0 NMMI=      0 NMMIF=      0
                NMic=       0 NMicF=      0.
                    Isotopes and Nuclear Properties:
 (Nuclear quadrupole moments (NQMom) in fm**2, nuclear magnetic moments (NMagM)
  in nuclear magnetons)

  Atom         1           2           3           4           5           6           7           8           9          10
 IAtWgt=          12           1           1           1          12           1           1          12           1          12
 AtmWgt=  12.0000000   1.0078250   1.0078250   1.0078250  12.0000000   1.0078250   1.0078250  12.0000000   1.0078250  12.0000000
 NucSpn=           0           1           1           1           0           1           1           0           1           0
 AtZEff=   0.0000000   0.0000000   0.0000000   0.0000000   0.0000000   0.0000000   0.0000000   0.0000000   0.0000000   0.0000000
 NQMom=    0.0000000   0.0000000   0.0000000   0.0000000   0.0000000   0.0000000   0.0000000   0.0000000   0.0000000   0.0000000
 NMagM=    0.0000000   2.7928460   2.7928460   2.7928460   0.0000000   2.7928460   2.7928460   0.0000000   2.7928460   0.0000000
 AtZNuc=   6.0000000   1.0000000   1.0000000   1.0000000   6.0000000   1.0000000   1.0000000   6.0000000   1.0000000   6.0000000

  Atom        11          12          13          14          15          16          17          18          19
 IAtWgt=           1           1          12           1           1           1          12           1           1
 AtmWgt=   1.0078250   1.0078250  12.0000000   1.0078250   1.0078250   1.0078250  12.0000000   1.0078250   1.0078250
 NucSpn=           1           1           0           1           1           1           0           1           1
 AtZEff=   0.0000000   0.0000000   0.0000000   0.0000000   0.0000000   0.0000000   0.0000000   0.0000000   0.0000000
 NQMom=    0.0000000   0.0000000   0.0000000   0.0000000   0.0000000   0.0000000   0.0000000   0.0000000   0.0000000
 NMagM=    2.7928460   2.7928460   0.0000000   2.7928460   2.7928460   2.7928460   0.0000000   2.7928460   2.7928460
 AtZNuc=   1.0000000   1.0000000   6.0000000   1.0000000   1.0000000   1.0000000   6.0000000   1.0000000   1.0000000
 Leave Link  101 at Mon Apr 11 11:01:16 2016, MaxMem=  2013265920 cpu:         2.2
 (Enter /HOME/tsinghua_xqyou_1/softwares/gaussian/g09D01/g09/l103.exe)

 GradGradGradGradGradGradGradGradGradGradGradGradGradGradGradGradGradGrad
 Berny optimization.
 Initialization pass.
                           ----------------------------
                           !    Initial Parameters    !
                           ! (Angstroms and Degrees)  !
 --------------------------                            --------------------------
 ! Name  Definition              Value          Derivative Info.                !
 --------------------------------------------------------------------------------
 ! R1    R(1,2)                  1.0974         estimate D2E/DX2                !
 ! R2    R(1,3)                  1.0954         estimate D2E/DX2                !
 ! R3    R(1,4)                  1.0961         estimate D2E/DX2                !
 ! R4    R(1,5)                  1.5332         estimate D2E/DX2                !
 ! R5    R(5,6)                  1.1004         estimate D2E/DX2                !
 ! R6    R(5,7)                  1.099          estimate D2E/DX2                !
 ! R7    R(5,8)                  1.5431         estimate D2E/DX2                !
 ! R8    R(8,9)                  1.1026         estimate D2E/DX2                !
 ! R9    R(8,10)                 1.5431         estimate D2E/DX2                !
 ! R10   R(8,17)                 1.5368         estimate D2E/DX2                !
 ! R11   R(10,11)                1.099          estimate D2E/DX2                !
 ! R12   R(10,12)                1.1004         estimate D2E/DX2                !
 ! R13   R(10,13)                1.5332         estimate D2E/DX2                !
 ! R14   R(13,14)                1.0954         estimate D2E/DX2                !
 ! R15   R(13,15)                1.0961         estimate D2E/DX2                !
 ! R16   R(13,16)                1.0974         estimate D2E/DX2                !
 ! R17   R(17,18)                1.095          estimate D2E/DX2                !
 ! R18   R(17,19)                1.095          estimate D2E/DX2                !
 ! A1    A(2,1,3)              107.6254         estimate D2E/DX2                !
 ! A2    A(2,1,4)              107.559          estimate D2E/DX2                !
 ! A3    A(2,1,5)              111.1149         estimate D2E/DX2                !
 ! A4    A(3,1,4)              107.3082         estimate D2E/DX2                !
 ! A5    A(3,1,5)              112.1749         estimate D2E/DX2                !
 ! A6    A(4,1,5)              110.8451         estimate D2E/DX2                !
 ! A7    A(1,5,6)              109.4277         estimate D2E/DX2                !
 ! A8    A(1,5,7)              108.6152         estimate D2E/DX2                !
 ! A9    A(1,5,8)              115.1572         estimate D2E/DX2                !
 ! A10   A(6,5,7)              105.9422         estimate D2E/DX2                !
 ! A11   A(6,5,8)              108.915          estimate D2E/DX2                !
 ! A12   A(7,5,8)              108.3832         estimate D2E/DX2                !
 ! A13   A(5,8,9)              107.4517         estimate D2E/DX2                !
 ! A14   A(5,8,10)             110.0384         estimate D2E/DX2                !
 ! A15   A(5,8,17)             111.882          estimate D2E/DX2                !
 ! A16   A(9,8,10)             107.4518         estimate D2E/DX2                !
 ! A17   A(9,8,17)             107.9103         estimate D2E/DX2                !
 ! A18   A(10,8,17)            111.882          estimate D2E/DX2                !
 ! A19   A(8,10,11)            108.3833         estimate D2E/DX2                !
 ! A20   A(8,10,12)            108.915          estimate D2E/DX2                !
 ! A21   A(8,10,13)            115.1571         estimate D2E/DX2                !
 ! A22   A(11,10,12)           105.9423         estimate D2E/DX2                !
 ! A23   A(11,10,13)           108.6152         estimate D2E/DX2                !
 ! A24   A(12,10,13)           109.4277         estimate D2E/DX2                !
 ! A25   A(10,13,14)           112.1749         estimate D2E/DX2                !
 ! A26   A(10,13,15)           110.8451         estimate D2E/DX2                !
 ! A27   A(10,13,16)           111.1149         estimate D2E/DX2                !
 ! A28   A(14,13,15)           107.3082         estimate D2E/DX2                !
 ! A29   A(14,13,16)           107.6254         estimate D2E/DX2                !
 ! A30   A(15,13,16)           107.559          estimate D2E/DX2                !
 ! A31   A(8,17,18)            111.7423         estimate D2E/DX2                !
 ! A32   A(8,17,19)            111.7423         estimate D2E/DX2                !
 ! A33   A(18,17,19)           128.9142         estimate D2E/DX2                !
 ! D1    D(2,1,5,6)            179.2077         estimate D2E/DX2                !
 ! D2    D(2,1,5,7)            -65.5701         estimate D2E/DX2                !
 ! D3    D(2,1,5,8)             56.1554         estimate D2E/DX2                !
 ! D4    D(3,1,5,6)             58.6833         estimate D2E/DX2                !
 ! D5    D(3,1,5,7)            173.9055         estimate D2E/DX2                !
 ! D6    D(3,1,5,8)            -64.369          estimate D2E/DX2                !
 ! D7    D(4,1,5,6)            -61.2484         estimate D2E/DX2                !
 ! D8    D(4,1,5,7)             53.9738         estimate D2E/DX2                !
 ! D9    D(4,1,5,8)            175.6993         estimate D2E/DX2                !
 ! D10   D(1,5,8,9)            -54.8991         estimate D2E/DX2                !
 ! D11   D(1,5,8,10)          -171.5975         estimate D2E/DX2                !
 ! D12   D(1,5,8,17)            63.3728         estimate D2E/DX2                !
 ! D13   D(6,5,8,9)           -178.2239         estimate D2E/DX2                !
 ! D14   D(6,5,8,10)            65.0777         estimate D2E/DX2                !
 ! D15   D(6,5,8,17)           -59.952          estimate D2E/DX2                !
 ! D16   D(7,5,8,9)             66.9516         estimate D2E/DX2                !
 ! D17   D(7,5,8,10)           -49.7467         estimate D2E/DX2                !
 ! D18   D(7,5,8,17)          -174.7765         estimate D2E/DX2                !
 ! D19   D(5,8,10,11)           49.746          estimate D2E/DX2                !
 ! D20   D(5,8,10,12)          -65.0785         estimate D2E/DX2                !
 ! D21   D(5,8,10,13)          171.5967         estimate D2E/DX2                !
 ! D22   D(9,8,10,11)          -66.9523         estimate D2E/DX2                !
 ! D23   D(9,8,10,12)          178.2232         estimate D2E/DX2                !
 ! D24   D(9,8,10,13)           54.8984         estimate D2E/DX2                !
 ! D25   D(17,8,10,11)         174.7757         estimate D2E/DX2                !
 ! D26   D(17,8,10,12)          59.9512         estimate D2E/DX2                !
 ! D27   D(17,8,10,13)         -63.3736         estimate D2E/DX2                !
 ! D28   D(5,8,17,18)         -130.3354         estimate D2E/DX2                !
 ! D29   D(5,8,17,19)           77.1527         estimate D2E/DX2                !
 ! D30   D(9,8,17,18)          -12.3368         estimate D2E/DX2                !
 ! D31   D(9,8,17,19)         -164.8487         estimate D2E/DX2                !
 ! D32   D(10,8,17,18)         105.6619         estimate D2E/DX2                !
 ! D33   D(10,8,17,19)         -46.85           estimate D2E/DX2                !
 ! D34   D(8,10,13,14)          64.3686         estimate D2E/DX2                !
 ! D35   D(8,10,13,15)        -175.6996         estimate D2E/DX2                !
 ! D36   D(8,10,13,16)         -56.1557         estimate D2E/DX2                !
 ! D37   D(11,10,13,14)       -173.9059         estimate D2E/DX2                !
 ! D38   D(11,10,13,15)        -53.9741         estimate D2E/DX2                !
 ! D39   D(11,10,13,16)         65.5698         estimate D2E/DX2                !
 ! D40   D(12,10,13,14)        -58.6837         estimate D2E/DX2                !
 ! D41   D(12,10,13,15)         61.2481         estimate D2E/DX2                !
 ! D42   D(12,10,13,16)       -179.208          estimate D2E/DX2                !
 --------------------------------------------------------------------------------
 Trust Radius=3.00D-01 FncErr=1.00D-07 GrdErr=1.00D-06
 Number of steps in this run=    103 maximum allowed number of steps=    114.
 GradGradGradGradGradGradGradGradGradGradGradGradGradGradGradGradGradGrad

 Leave Link  103 at Mon Apr 11 11:01:16 2016, MaxMem=  2013265920 cpu:         0.1
 (Enter /HOME/tsinghua_xqyou_1/softwares/gaussian/g09D01/g09/l202.exe)
                          Input orientation:                          
 ---------------------------------------------------------------------
 Center     Atomic      Atomic             Coordinates (Angstroms)
 Number     Number       Type             X           Y           Z
 ---------------------------------------------------------------------
      1          6           0       -1.758098   -0.682116    1.566045
      2          1           0       -2.523965   -0.807534    0.790175
      3          1           0       -1.893931    0.310599    2.008790
      4          1           0       -1.959162   -1.419768    2.351472
      5          6           0       -0.350441   -0.870364    0.988190
      6          1           0        0.394682   -0.724945    1.784775
      7          1           0       -0.242352   -1.913858    0.660567
      8          6           0        0.000001    0.051166   -0.198829
      9          1           0       -0.777671   -0.089756   -0.967690
     10          6           0        1.346933   -0.375083   -0.819412
     11          1           0        1.317589   -1.458684   -1.000661
     12          1           0        2.146816   -0.213674   -0.081147
     13          6           0        1.712944    0.330698   -2.130428
     14          1           0        1.863381    1.406950   -1.992570
     15          1           0        2.640864   -0.077522   -2.547293
     16          1           0        0.925635    0.199005   -2.883462
     17          6           0       -0.000004    1.533363    0.207287
     18          1           0       -0.590625    2.143402   -0.484166
     19          1           0        0.906150    1.802499    0.760043
 ---------------------------------------------------------------------
                    Distance matrix (angstroms):
                    1          2          3          4          5
     1  C    0.000000
     2  H    1.097386   0.000000
     3  H    1.095425   1.769798   0.000000
     4  H    1.096108   1.769600   1.765178   0.000000
     5  C    1.533249   2.183430   2.195144   2.179075   0.000000
     6  H    2.164287   3.084566   2.521959   2.518830   1.100410
     7  H    2.152805   2.538998   3.081173   2.459822   1.099046
     8  C    2.596805   2.843572   2.920251   3.536383   1.543062
     9  H    2.780636   2.579697   3.204021   3.765858   2.148800
    10  C    3.927581   4.214456   4.355696   4.698525   2.528598
    11  H    4.080550   4.288197   4.743523   4.687794   2.661574
    12  H    4.263923   4.788326   4.579337   4.922536   2.794820
    13  C    5.170865   5.270379   5.490271   6.052762   3.927581
    14  H    5.490269   5.647691   5.597344   6.439944   4.355697
    15  H    6.052764   6.192501   6.439944   6.852719   4.698525
    16  H    5.270380   5.138917   5.647701   6.192497   4.214452
    17  C    3.137748   3.491409   2.885745   4.142078   2.551572
    18  H    3.681020   3.750969   3.357470   4.754989   3.362782
    19  H    3.731108   4.310321   3.409632   4.596266   2.962308
                    6          7          8          9         10
     6  H    0.000000
     7  H    1.755896   0.000000
     8  C    2.166289   2.158383   0.000000
     9  H    3.058421   2.503025   1.102624   0.000000
    10  C    2.794813   2.661577   1.543061   2.148800   0.000000
    11  H    3.024696   2.323850   2.158384   2.503031   1.099046
    12  H    2.610180   3.024714   2.166288   3.058421   1.100410
    13  C    4.263921   4.080548   2.596804   2.780631   1.533250
    14  H    4.579344   4.743523   2.920247   3.204008   2.195144
    15  H    4.922530   4.687795   3.536382   3.765856   2.179075
    16  H    4.788322   4.288184   2.843573   2.579693   2.183430
    17  C    2.782841   3.485331   1.536827   2.149384   2.551572
    18  H    3.787656   4.230020   2.192649   2.292549   3.195198
    19  H    2.774824   3.891049   2.192649   3.066096   2.725955
                   11         12         13         14         15
    11  H    0.000000
    12  H    1.755897   0.000000
    13  C    2.152804   2.164287   0.000000
    14  H    3.081173   2.521962   1.095424   0.000000
    15  H    2.459823   2.518828   1.096108   1.765178   0.000000
    16  H    2.538995   3.084567   1.097387   1.769799   1.769600
    17  C    3.485331   2.782834   3.137755   2.885751   4.142082
    18  H    4.108902   3.634806   3.361921   2.973179   4.430747
    19  H    3.728897   2.512330   3.342445   2.941025   4.181169
                   16         17         18         19
    16  H    0.000000
    17  C    3.491425   0.000000
    18  H    3.440400   1.095029   0.000000
    19  H    3.980791   1.095029   1.976008   0.000000
 Stoichiometry    C6H13(2)
 Framework group  C1[X(C6H13)]
 Deg. of freedom    51
 Full point group                 C1      NOp   1
 Largest Abelian subgroup         C1      NOp   1
 Largest concise Abelian subgroup C1      NOp   1
                         Standard orientation:                         
 ---------------------------------------------------------------------
 Center     Atomic      Atomic             Coordinates (Angstroms)
 Number     Number       Type             X           Y           Z
 ---------------------------------------------------------------------
      1          6           0        2.596635   -0.105272    0.285030
      2          1           0        2.582423   -0.108599    1.382319
      3          1           0        2.801465    0.920279   -0.040923
      4          1           0        3.441850   -0.724636   -0.036613
      5          6           0        1.278689   -0.641681   -0.286053
      6          1           0        1.317518   -0.612875   -1.385401
      7          1           0        1.184914   -1.702643   -0.015002
      8          6           0        0.009420    0.096012    0.189136
      9          1           0        0.011281    0.080718    1.291652
     10          6           0       -1.249831   -0.661156   -0.282057
     11          1           0       -1.138864   -1.720544   -0.011340
     12          1           0       -1.292582   -0.632966   -1.381274
     13          6           0       -2.574070   -0.145108    0.293217
     14          1           0       -2.795706    0.877162   -0.032044
     15          1           0       -3.410657   -0.777422   -0.025774
     16          1           0       -2.556335   -0.148207    1.390456
     17          6           0       -0.002607    1.564735   -0.263131
     18          1           0       -0.223843    2.243139    0.567477
     19          1           0       -0.270877    1.661421   -1.320379
 ---------------------------------------------------------------------
 Rotational constants (GHZ):      6.8196443      1.8409752      1.6031714
 Leave Link  202 at Mon Apr 11 11:01:16 2016, MaxMem=  2013265920 cpu:         0.1
 (Enter /HOME/tsinghua_xqyou_1/softwares/gaussian/g09D01/g09/l301.exe)
 Standard basis: 6-31G(d) (6D, 7F)
 Ernie: Thresh=  0.10000D-02 Tol=  0.10000D-05 Strict=F.
 There are   116 symmetry adapted cartesian basis functions of A   symmetry.
 There are   116 symmetry adapted basis functions of A   symmetry.
   116 basis functions,   220 primitive gaussians,   116 cartesian basis functions
    25 alpha electrons       24 beta electrons
       nuclear repulsion energy       244.4504593064 Hartrees.
 IExCor=  402 DFT=T Ex+Corr=B3LYP ExCW=0 ScaHFX=  0.200000
 ScaDFX=  0.800000  0.720000  1.000000  0.810000 ScalE2=  1.000000  1.000000
 IRadAn=      5 IRanWt=     -1 IRanGd=            0 ICorTp=0 IEmpDi=  4
 NAtoms=   19 NActive=   19 NUniq=   19 SFac= 1.00D+00 NAtFMM=   60 NAOKFM=F Big=F
 Integral buffers will be    131072 words long.
 Raffenetti 2 integral format.
 Two-electron integral symmetry is turned on.
 Leave Link  301 at Mon Apr 11 11:01:16 2016, MaxMem=  2013265920 cpu:         0.4
 (Enter /HOME/tsinghua_xqyou_1/softwares/gaussian/g09D01/g09/l302.exe)
 NPDir=0 NMtPBC=     1 NCelOv=     1 NCel=       1 NClECP=     1 NCelD=      1
         NCelK=      1 NCelE2=     1 NClLst=     1 CellRange=     0.0.
 One-electron integrals computed using PRISM.
 NBasis=   116 RedAO= T EigKep=  3.69D-03  NBF=   116
 NBsUse=   116 1.00D-06 EigRej= -1.00D+00 NBFU=   116
 Precomputing XC quadrature grid using
 IXCGrd= 4 IRadAn=           5 IRanWt=          -1 IRanGd=           0 AccXCQ= 0.00D+00.
 Generated NRdTot=       0 NPtTot=           0 NUsed=           0 NTot=          32
 NSgBfM=   116   116   116   116   116 MxSgAt=    19 MxSgA2=    19.
 Leave Link  302 at Mon Apr 11 11:01:17 2016, MaxMem=  2013265920 cpu:         1.7
 (Enter /HOME/tsinghua_xqyou_1/softwares/gaussian/g09D01/g09/l303.exe)
 DipDrv:  MaxL=1.
 Leave Link  303 at Mon Apr 11 11:01:17 2016, MaxMem=  2013265920 cpu:         0.2
 (Enter /HOME/tsinghua_xqyou_1/softwares/gaussian/g09D01/g09/l401.exe)
 ExpMin= 1.61D-01 ExpMax= 3.05D+03 ExpMxC= 4.57D+02 IAcc=3 IRadAn=         5 AccDes= 0.00D+00
 Harris functional with IExCor=  402 and IRadAn=       5 diagonalized for initial guess.
 HarFok:  IExCor=  402 AccDes= 0.00D+00 IRadAn=         5 IDoV= 1 UseB2=F ITyADJ=14
 ICtDFT=  3500011 ScaDFX=  1.000000  1.000000  1.000000  1.000000
 FoFCou: FMM=F IPFlag=           0 FMFlag=      100000 FMFlg1=           0
         NFxFlg=           0 DoJE=T BraDBF=F KetDBF=T FulRan=T
         wScrn=  0.000000 ICntrl=     500 IOpCl=  0 I1Cent=   200000004 NGrid=           0
         NMat0=    1 NMatS0=      1 NMatT0=    0 NMatD0=    1 NMtDS0=    0 NMtDT0=    0
 Petite list used in FoFCou.
 Harris En= -236.446932750461    
 JPrj=0 DoOrth=F DoCkMO=F.
 Initial guess <Sx>= 0.0000 <Sy>= 0.0000 <Sz>= 0.5000 <S**2>= 0.7500 S= 0.5000
 Leave Link  401 at Mon Apr 11 11:01:18 2016, MaxMem=  2013265920 cpu:         5.9
 (Enter /HOME/tsinghua_xqyou_1/softwares/gaussian/g09D01/g09/l502.exe)
 UHF open shell SCF:
 Using DIIS extrapolation, IDIIS=  1040.
 Integral symmetry usage will be decided dynamically.
 Keep R1 and R2 ints in memory in canonical form, NReq=47059932.
 IVT=       60514 IEndB=       60514 NGot=  2013265920 MDV=  1967148825
 LenX=  1967148825 LenY=  1967134928
 Requested convergence on RMS density matrix=1.00D-08 within 128 cycles.
 Requested convergence on MAX density matrix=1.00D-06.
 Requested convergence on             energy=1.00D-06.
 No special actions if energy rises.
 FoFCou: FMM=F IPFlag=           0 FMFlag=           0 FMFlg1=           0
         NFxFlg=           0 DoJE=F BraDBF=F KetDBF=F FulRan=T
         wScrn=  0.000000 ICntrl=     600 IOpCl=  0 I1Cent=           0 NGrid=           0
         NMat0=    1 NMatS0=   6786 NMatT0=    0 NMatD0=    1 NMtDS0=    0 NMtDT0=    0
 Symmetry not used in FoFCou.
 Integral accuracy reduced to 1.0D-05 until final iterations.

 Cycle   1  Pass 0  IDiag  1:
 E= -236.155251376940    
 DIIS: error= 4.40D-02 at cycle   1 NSaved=   1.
 NSaved= 1 IEnMin= 1 EnMin= -236.155251376940     IErMin= 1 ErrMin= 4.40D-02
 ErrMax= 4.40D-02  0.00D+00 EMaxC= 1.00D-01 BMatC= 8.75D-01 BMatP= 8.75D-01
 IDIUse=3 WtCom= 5.60D-01 WtEn= 4.40D-01
 Coeff-Com:  0.100D+01
 Coeff-En:   0.100D+01
 Coeff:      0.100D+01
 Gap=     0.250 Goal=   None    Shift=    0.000
 Gap=     0.272 Goal=   None    Shift=    0.000
 GapD=    0.250 DampG=1.000 DampE=0.500 DampFc=0.5000 IDamp=-1.
 Damping current iteration by 5.00D-01
 RMSDP=9.51D-03 MaxDP=1.36D-01              OVMax= 1.76D-01

 Cycle   2  Pass 0  IDiag  1:
 E= -236.267374667835     Delta-E=       -0.112123290895 Rises=F Damp=T
 DIIS: error= 8.05D-03 at cycle   2 NSaved=   2.
 NSaved= 2 IEnMin= 2 EnMin= -236.267374667835     IErMin= 2 ErrMin= 8.05D-03
 ErrMax= 8.05D-03  0.00D+00 EMaxC= 1.00D-01 BMatC= 3.72D-02 BMatP= 8.75D-01
 IDIUse=3 WtCom= 9.19D-01 WtEn= 8.05D-02
 Coeff-Com:  0.669D-01 0.933D+00
 Coeff-En:   0.107D+00 0.893D+00
 Coeff:      0.701D-01 0.930D+00
 Gap=     0.298 Goal=   None    Shift=    0.000
 Gap=     0.273 Goal=   None    Shift=    0.000
 RMSDP=1.48D-03 MaxDP=2.18D-02 DE=-1.12D-01 OVMax= 9.70D-02

 Cycle   3  Pass 0  IDiag  1:
 E= -236.403400260202     Delta-E=       -0.136025592367 Rises=F Damp=F
 DIIS: error= 2.22D-03 at cycle   3 NSaved=   3.
 NSaved= 3 IEnMin= 3 EnMin= -236.403400260202     IErMin= 3 ErrMin= 2.22D-03
 ErrMax= 2.22D-03  0.00D+00 EMaxC= 1.00D-01 BMatC= 4.12D-03 BMatP= 3.72D-02
 IDIUse=3 WtCom= 9.78D-01 WtEn= 2.22D-02
 Coeff-Com: -0.542D-02 0.182D+00 0.823D+00
 Coeff-En:   0.000D+00 0.000D+00 0.100D+01
 Coeff:     -0.530D-02 0.178D+00 0.827D+00
 Gap=     0.296 Goal=   None    Shift=    0.000
 Gap=     0.256 Goal=   None    Shift=    0.000
 RMSDP=4.82D-04 MaxDP=1.21D-02 DE=-1.36D-01 OVMax= 1.23D-02

 Cycle   4  Pass 0  IDiag  1:
 E= -236.404017245671     Delta-E=       -0.000616985469 Rises=F Damp=F
 DIIS: error= 1.58D-03 at cycle   4 NSaved=   4.
 NSaved= 4 IEnMin= 4 EnMin= -236.404017245671     IErMin= 4 ErrMin= 1.58D-03
 ErrMax= 1.58D-03  0.00D+00 EMaxC= 1.00D-01 BMatC= 1.88D-03 BMatP= 4.12D-03
 IDIUse=3 WtCom= 9.84D-01 WtEn= 1.58D-02
 Coeff-Com: -0.563D-02 0.334D-01 0.415D+00 0.558D+00
 Coeff-En:   0.000D+00 0.000D+00 0.274D+00 0.726D+00
 Coeff:     -0.554D-02 0.329D-01 0.413D+00 0.560D+00
 Gap=     0.293 Goal=   None    Shift=    0.000
 Gap=     0.261 Goal=   None    Shift=    0.000
 RMSDP=1.98D-04 MaxDP=4.80D-03 DE=-6.17D-04 OVMax= 6.32D-03

 Cycle   5  Pass 0  IDiag  1:
 E= -236.404470822181     Delta-E=       -0.000453576511 Rises=F Damp=F
 DIIS: error= 3.18D-04 at cycle   5 NSaved=   5.
 NSaved= 5 IEnMin= 5 EnMin= -236.404470822181     IErMin= 5 ErrMin= 3.18D-04
 ErrMax= 3.18D-04  0.00D+00 EMaxC= 1.00D-01 BMatC= 8.24D-05 BMatP= 1.88D-03
 IDIUse=3 WtCom= 9.97D-01 WtEn= 3.18D-03
 Coeff-Com: -0.139D-02-0.333D-02 0.886D-01 0.219D+00 0.697D+00
 Coeff-En:   0.000D+00 0.000D+00 0.000D+00 0.000D+00 0.100D+01
 Coeff:     -0.138D-02-0.332D-02 0.883D-01 0.219D+00 0.698D+00
 Gap=     0.294 Goal=   None    Shift=    0.000
 Gap=     0.261 Goal=   None    Shift=    0.000
 RMSDP=4.68D-05 MaxDP=9.86D-04 DE=-4.54D-04 OVMax= 1.12D-03

 Cycle   6  Pass 0  IDiag  1:
 E= -236.404492652640     Delta-E=       -0.000021830459 Rises=F Damp=F
 DIIS: error= 7.30D-05 at cycle   6 NSaved=   6.
 NSaved= 6 IEnMin= 6 EnMin= -236.404492652640     IErMin= 6 ErrMin= 7.30D-05
 ErrMax= 7.30D-05  0.00D+00 EMaxC= 1.00D-01 BMatC= 3.02D-06 BMatP= 8.24D-05
 IDIUse=1 WtCom= 1.00D+00 WtEn= 0.00D+00
 Coeff-Com:  0.160D-03-0.235D-02-0.192D-01-0.165D-01 0.650D-01 0.973D+00
 Coeff:      0.160D-03-0.235D-02-0.192D-01-0.165D-01 0.650D-01 0.973D+00
 Gap=     0.294 Goal=   None    Shift=    0.000
 Gap=     0.261 Goal=   None    Shift=    0.000
 RMSDP=1.58D-05 MaxDP=6.30D-04 DE=-2.18D-05 OVMax= 5.62D-04

 Cycle   7  Pass 0  IDiag  1:
 E= -236.404494002264     Delta-E=       -0.000001349624 Rises=F Damp=F
 DIIS: error= 4.84D-05 at cycle   7 NSaved=   7.
 NSaved= 7 IEnMin= 7 EnMin= -236.404494002264     IErMin= 7 ErrMin= 4.84D-05
 ErrMax= 4.84D-05  0.00D+00 EMaxC= 1.00D-01 BMatC= 1.10D-06 BMatP= 3.02D-06
 IDIUse=1 WtCom= 1.00D+00 WtEn= 0.00D+00
 Coeff-Com:  0.260D-03-0.406D-03-0.222D-01-0.419D-01-0.872D-01 0.413D+00
 Coeff-Com:  0.739D+00
 Coeff:      0.260D-03-0.406D-03-0.222D-01-0.419D-01-0.872D-01 0.413D+00
 Coeff:      0.739D+00
 Gap=     0.294 Goal=   None    Shift=    0.000
 Gap=     0.261 Goal=   None    Shift=    0.000
 RMSDP=6.48D-06 MaxDP=2.44D-04 DE=-1.35D-06 OVMax= 2.39D-04

 Initial convergence to 1.0D-05 achieved.  Increase integral accuracy.
 Cycle   8  Pass 1  IDiag  1:
 E= -236.404476963005     Delta-E=        0.000017039259 Rises=F Damp=F
 DIIS: error= 1.34D-05 at cycle   1 NSaved=   1.
 NSaved= 1 IEnMin= 1 EnMin= -236.404476963005     IErMin= 1 ErrMin= 1.34D-05
 ErrMax= 1.34D-05  0.00D+00 EMaxC= 1.00D-01 BMatC= 9.84D-08 BMatP= 9.84D-08
 IDIUse=1 WtCom= 1.00D+00 WtEn= 0.00D+00
 Coeff-Com:  0.100D+01
 Coeff:      0.100D+01
 Gap=     0.294 Goal=   None    Shift=    0.000
 Gap=     0.261 Goal=   None    Shift=    0.000
 RMSDP=6.48D-06 MaxDP=2.44D-04 DE= 1.70D-05 OVMax= 7.82D-05

 Cycle   9  Pass 1  IDiag  1:
 E= -236.404476971600     Delta-E=       -0.000000008594 Rises=F Damp=F
 DIIS: error= 1.14D-05 at cycle   2 NSaved=   2.
 NSaved= 2 IEnMin= 2 EnMin= -236.404476971600     IErMin= 2 ErrMin= 1.14D-05
 ErrMax= 1.14D-05  0.00D+00 EMaxC= 1.00D-01 BMatC= 9.67D-08 BMatP= 9.84D-08
 IDIUse=1 WtCom= 1.00D+00 WtEn= 0.00D+00
 Coeff-Com:  0.498D+00 0.502D+00
 Coeff:      0.498D+00 0.502D+00
 Gap=     0.294 Goal=   None    Shift=    0.000
 Gap=     0.261 Goal=   None    Shift=    0.000
 RMSDP=1.55D-06 MaxDP=3.98D-05 DE=-8.59D-09 OVMax= 4.14D-05

 Cycle  10  Pass 1  IDiag  1:
 E= -236.404476997220     Delta-E=       -0.000000025620 Rises=F Damp=F
 DIIS: error= 2.31D-06 at cycle   3 NSaved=   3.
 NSaved= 3 IEnMin= 3 EnMin= -236.404476997220     IErMin= 3 ErrMin= 2.31D-06
 ErrMax= 2.31D-06  0.00D+00 EMaxC= 1.00D-01 BMatC= 2.21D-09 BMatP= 9.67D-08
 IDIUse=1 WtCom= 1.00D+00 WtEn= 0.00D+00
 Coeff-Com: -0.401D-01 0.448D-01 0.995D+00
 Coeff:     -0.401D-01 0.448D-01 0.995D+00
 Gap=     0.294 Goal=   None    Shift=    0.000
 Gap=     0.261 Goal=   None    Shift=    0.000
 RMSDP=3.87D-07 MaxDP=1.18D-05 DE=-2.56D-08 OVMax= 1.09D-05

 Cycle  11  Pass 1  IDiag  1:
 E= -236.404476998227     Delta-E=       -0.000000001008 Rises=F Damp=F
 DIIS: error= 9.74D-07 at cycle   4 NSaved=   4.
 NSaved= 4 IEnMin= 4 EnMin= -236.404476998227     IErMin= 4 ErrMin= 9.74D-07
 ErrMax= 9.74D-07  0.00D+00 EMaxC= 1.00D-01 BMatC= 6.03D-10 BMatP= 2.21D-09
 IDIUse=1 WtCom= 1.00D+00 WtEn= 0.00D+00
 Coeff-Com: -0.105D+00-0.753D-01 0.358D+00 0.823D+00
 Coeff:     -0.105D+00-0.753D-01 0.358D+00 0.823D+00
 Gap=     0.294 Goal=   None    Shift=    0.000
 Gap=     0.261 Goal=   None    Shift=    0.000
 RMSDP=1.89D-07 MaxDP=4.78D-06 DE=-1.01D-09 OVMax= 6.17D-06

 Cycle  12  Pass 1  IDiag  1:
 E= -236.404476998461     Delta-E=       -0.000000000234 Rises=F Damp=F
 DIIS: error= 3.42D-07 at cycle   5 NSaved=   5.
 NSaved= 5 IEnMin= 5 EnMin= -236.404476998461     IErMin= 5 ErrMin= 3.42D-07
 ErrMax= 3.42D-07  0.00D+00 EMaxC= 1.00D-01 BMatC= 9.15D-11 BMatP= 6.03D-10
 IDIUse=1 WtCom= 1.00D+00 WtEn= 0.00D+00
 Coeff-Com: -0.437D-01-0.386D-01 0.661D-01 0.365D+00 0.652D+00
 Coeff:     -0.437D-01-0.386D-01 0.661D-01 0.365D+00 0.652D+00
 Gap=     0.294 Goal=   None    Shift=    0.000
 Gap=     0.261 Goal=   None    Shift=    0.000
 RMSDP=5.21D-08 MaxDP=1.71D-06 DE=-2.34D-10 OVMax= 1.99D-06

 Cycle  13  Pass 1  IDiag  1:
 E= -236.404476998484     Delta-E=       -0.000000000023 Rises=F Damp=F
 DIIS: error= 9.34D-08 at cycle   6 NSaved=   6.
 NSaved= 6 IEnMin= 6 EnMin= -236.404476998484     IErMin= 6 ErrMin= 9.34D-08
 ErrMax= 9.34D-08  0.00D+00 EMaxC= 1.00D-01 BMatC= 6.76D-12 BMatP= 9.15D-11
 IDIUse=1 WtCom= 1.00D+00 WtEn= 0.00D+00
 Coeff-Com:  0.124D-02-0.167D-02-0.318D-01-0.479D-02 0.216D+00 0.821D+00
 Coeff:      0.124D-02-0.167D-02-0.318D-01-0.479D-02 0.216D+00 0.821D+00
 Gap=     0.294 Goal=   None    Shift=    0.000
 Gap=     0.261 Goal=   None    Shift=    0.000
 RMSDP=1.70D-08 MaxDP=4.96D-07 DE=-2.32D-11 OVMax= 4.78D-07

 Cycle  14  Pass 1  IDiag  1:
 E= -236.404476998486     Delta-E=       -0.000000000002 Rises=F Damp=F
 DIIS: error= 2.10D-08 at cycle   7 NSaved=   7.
 NSaved= 7 IEnMin= 7 EnMin= -236.404476998486     IErMin= 7 ErrMin= 2.10D-08
 ErrMax= 2.10D-08  0.00D+00 EMaxC= 1.00D-01 BMatC= 3.74D-13 BMatP= 6.76D-12
 IDIUse=1 WtCom= 1.00D+00 WtEn= 0.00D+00
 Coeff-Com:  0.208D-02 0.904D-03-0.129D-01-0.157D-01 0.444D-01 0.272D+00
 Coeff-Com:  0.710D+00
 Coeff:      0.208D-02 0.904D-03-0.129D-01-0.157D-01 0.444D-01 0.272D+00
 Coeff:      0.710D+00
 Gap=     0.294 Goal=   None    Shift=    0.000
 Gap=     0.261 Goal=   None    Shift=    0.000
 RMSDP=4.07D-09 MaxDP=9.99D-08 DE=-2.39D-12 OVMax= 9.94D-08

 SCF Done:  E(UB3LYP) =  -236.404476998     A.U. after   14 cycles
            NFock= 14  Conv=0.41D-08     -V/T= 2.0105
 <Sx>= 0.0000 <Sy>= 0.0000 <Sz>= 0.5000 <S**2>= 0.7536 S= 0.5018
 <L.S>= 0.000000000000E+00
 KE= 2.339442985623D+02 PE=-1.034512824508D+03 EE= 3.197135896413D+02
 Annihilation of the first spin contaminant:
 S**2 before annihilation     0.7536,   after     0.7500
 Leave Link  502 at Mon Apr 11 11:01:57 2016, MaxMem=  2013265920 cpu:       192.9
 (Enter /HOME/tsinghua_xqyou_1/softwares/gaussian/g09D01/g09/l601.exe)
 Copying SCF densities to generalized density rwf, IOpCl= 1 IROHF=0.

 **********************************************************************

            Population analysis using the SCF density.

 **********************************************************************

 Orbital symmetries:
 Alpha Orbitals:
       Occupied  (A) (A) (A) (A) (A) (A) (A) (A) (A) (A) (A) (A)
                 (A) (A) (A) (A) (A) (A) (A) (A) (A) (A) (A) (A)
                 (A)
       Virtual   (A) (A) (A) (A) (A) (A) (A) (A) (A) (A) (A) (A)
                 (A) (A) (A) (A) (A) (A) (A) (A) (A) (A) (A) (A)
                 (A) (A) (A) (A) (A) (A) (A) (A) (A) (A) (A) (A)
                 (A) (A) (A) (A) (A) (A) (A) (A) (A) (A) (A) (A)
                 (A) (A) (A) (A) (A) (A) (A) (A) (A) (A) (A) (A)
                 (A) (A) (A) (A) (A) (A) (A) (A) (A) (A) (A) (A)
                 (A) (A) (A) (A) (A) (A) (A) (A) (A) (A) (A) (A)
                 (A) (A) (A) (A) (A) (A) (A)
 Beta  Orbitals:
       Occupied  (A) (A) (A) (A) (A) (A) (A) (A) (A) (A) (A) (A)
                 (A) (A) (A) (A) (A) (A) (A) (A) (A) (A) (A) (A)
       Virtual   (A) (A) (A) (A) (A) (A) (A) (A) (A) (A) (A) (A)
                 (A) (A) (A) (A) (A) (A) (A) (A) (A) (A) (A) (A)
                 (A) (A) (A) (A) (A) (A) (A) (A) (A) (A) (A) (A)
                 (A) (A) (A) (A) (A) (A) (A) (A) (A) (A) (A) (A)
                 (A) (A) (A) (A) (A) (A) (A) (A) (A) (A) (A) (A)
                 (A) (A) (A) (A) (A) (A) (A) (A) (A) (A) (A) (A)
                 (A) (A) (A) (A) (A) (A) (A) (A) (A) (A) (A) (A)
                 (A) (A) (A) (A) (A) (A) (A) (A)
 The electronic state is 2-A.
 Alpha  occ. eigenvalues --  -10.19010 -10.18368 -10.17927 -10.17633 -10.17107
 Alpha  occ. eigenvalues --  -10.16759  -0.80870  -0.74448  -0.69997  -0.64135
 Alpha  occ. eigenvalues --   -0.59449  -0.54696  -0.46702  -0.43738  -0.42697
 Alpha  occ. eigenvalues --   -0.42667  -0.39150  -0.38786  -0.36639  -0.34791
 Alpha  occ. eigenvalues --   -0.33234  -0.32006  -0.31639  -0.31248  -0.20649
 Alpha virt. eigenvalues --    0.08788   0.11985   0.12270   0.13051   0.14320
 Alpha virt. eigenvalues --    0.15901   0.17201   0.17535   0.18162   0.18619
 Alpha virt. eigenvalues --    0.19847   0.20380   0.21645   0.22814   0.26042
 Alpha virt. eigenvalues --    0.26131   0.27782   0.29090   0.48926   0.51032
 Alpha virt. eigenvalues --    0.51826   0.53390   0.54310   0.55152   0.59181
 Alpha virt. eigenvalues --    0.61637   0.63536   0.64257   0.65714   0.69156
 Alpha virt. eigenvalues --    0.74142   0.77065   0.79738   0.80566   0.83447
 Alpha virt. eigenvalues --    0.85945   0.86796   0.89756   0.90352   0.91292
 Alpha virt. eigenvalues --    0.92131   0.93207   0.93596   0.95339   0.96633
 Alpha virt. eigenvalues --    0.97775   0.99886   1.00773   1.02457   1.08561
 Alpha virt. eigenvalues --    1.18119   1.33723   1.38825   1.44340   1.48752
 Alpha virt. eigenvalues --    1.53920   1.57730   1.67659   1.72913   1.75894
 Alpha virt. eigenvalues --    1.80520   1.85077   1.88918   1.90963   1.96021
 Alpha virt. eigenvalues --    1.97831   1.99187   2.01348   2.03056   2.06277
 Alpha virt. eigenvalues --    2.13051   2.18156   2.19353   2.26344   2.29669
 Alpha virt. eigenvalues --    2.31248   2.34466   2.34810   2.42522   2.48832
 Alpha virt. eigenvalues --    2.53928   2.59218   2.68254   2.76714   2.79439
 Alpha virt. eigenvalues --    4.09690   4.20883   4.21315   4.39008   4.41902
 Alpha virt. eigenvalues --    4.59542
  Beta  occ. eigenvalues --  -10.18438 -10.17835 -10.17608 -10.17552 -10.17102
  Beta  occ. eigenvalues --  -10.16750  -0.80350  -0.74345  -0.68845  -0.62530
  Beta  occ. eigenvalues --   -0.59316  -0.54055  -0.46241  -0.43247  -0.42621
  Beta  occ. eigenvalues --   -0.42177  -0.39092  -0.38544  -0.36417  -0.34710
  Beta  occ. eigenvalues --   -0.33125  -0.31559  -0.31352  -0.30715
  Beta virt. eigenvalues --   -0.04611   0.09048   0.12123   0.12669   0.13649
  Beta virt. eigenvalues --    0.14384   0.16341   0.17305   0.17568   0.18367
  Beta virt. eigenvalues --    0.18885   0.19909   0.20657   0.21924   0.23011
  Beta virt. eigenvalues --    0.26472   0.26984   0.27908   0.29305   0.49039
  Beta virt. eigenvalues --    0.51747   0.52682   0.54355   0.54805   0.56260
  Beta virt. eigenvalues --    0.59452   0.62088   0.64066   0.65478   0.67476
  Beta virt. eigenvalues --    0.69303   0.74703   0.77799   0.80083   0.80838
  Beta virt. eigenvalues --    0.83777   0.86327   0.87253   0.89781   0.90482
  Beta virt. eigenvalues --    0.91316   0.92833   0.93674   0.93746   0.95517
  Beta virt. eigenvalues --    0.97073   0.97850   1.00044   1.01336   1.03129
  Beta virt. eigenvalues --    1.08864   1.19608   1.34034   1.39439   1.45367
  Beta virt. eigenvalues --    1.49457   1.54316   1.57937   1.68048   1.73929
  Beta virt. eigenvalues --    1.77933   1.82052   1.86517   1.89642   1.91926
  Beta virt. eigenvalues --    1.96706   1.98052   1.99547   2.01815   2.03684
  Beta virt. eigenvalues --    2.07881   2.15475   2.19507   2.21812   2.26769
  Beta virt. eigenvalues --    2.29974   2.31296   2.34594   2.35286   2.42661
  Beta virt. eigenvalues --    2.49820   2.54228   2.59483   2.68696   2.77252
  Beta virt. eigenvalues --    2.79658   4.10773   4.21003   4.23373   4.39428
  Beta virt. eigenvalues --    4.42017   4.59635
          Condensed to atoms (all electrons):
               1          2          3          4          5          6
     1  C    5.074405   0.376118   0.375247   0.370324   0.370872  -0.038828
     2  H    0.376118   0.583405  -0.031611  -0.031586  -0.036318   0.005354
     3  H    0.375247  -0.031611   0.565738  -0.031124  -0.032340  -0.004506
     4  H    0.370324  -0.031586  -0.031124   0.582566  -0.028023  -0.002202
     5  C    0.370872  -0.036318  -0.032340  -0.028023   4.993052   0.369603
     6  H   -0.038828   0.005354  -0.004506  -0.002202   0.369603   0.618900
     7  H   -0.040335  -0.003697   0.005196  -0.003401   0.368732  -0.038983
     8  C   -0.038757  -0.005113  -0.005269   0.004007   0.386045  -0.039630
     9  H   -0.004729   0.005705  -0.000154   0.000001  -0.046919   0.006529
    10  C    0.004010   0.000061   0.000100  -0.000112  -0.044389  -0.004076
    11  H    0.000055   0.000001  -0.000004  -0.000011  -0.004660  -0.000388
    12  H   -0.000031   0.000007   0.000003   0.000004  -0.004012   0.004812
    13  C   -0.000134  -0.000001   0.000001   0.000001   0.004067  -0.000021
    14  H    0.000001   0.000000  -0.000001   0.000000   0.000084   0.000002
    15  H    0.000001   0.000000   0.000000   0.000000  -0.000113   0.000004
    16  H   -0.000001  -0.000001   0.000000   0.000000   0.000068   0.000007
    17  C   -0.004558  -0.000055   0.009536   0.000167  -0.054990  -0.006247
    18  H    0.000117  -0.000009  -0.000403   0.000004   0.004167  -0.000002
    19  H   -0.000093   0.000038  -0.000061  -0.000005  -0.002392   0.003660
               7          8          9         10         11         12
     1  C   -0.040335  -0.038757  -0.004729   0.004010   0.000055  -0.000031
     2  H   -0.003697  -0.005113   0.005705   0.000061   0.000001   0.000007
     3  H    0.005196  -0.005269  -0.000154   0.000100  -0.000004   0.000003
     4  H   -0.003401   0.004007   0.000001  -0.000112  -0.000011   0.000004
     5  C    0.368732   0.386045  -0.046919  -0.044389  -0.004660  -0.004012
     6  H   -0.038983  -0.039630   0.006529  -0.004076  -0.000388   0.004812
     7  H    0.620750  -0.038447  -0.003465  -0.004660   0.006701  -0.000361
     8  C   -0.038447   4.890591   0.371999   0.385599  -0.037883  -0.038167
     9  H   -0.003465   0.371999   0.648940  -0.048036  -0.003471   0.006521
    10  C   -0.004660   0.385599  -0.048036   5.007984   0.368788   0.368078
    11  H    0.006701  -0.037883  -0.003471   0.368788   0.614523  -0.038186
    12  H   -0.000361  -0.038167   0.006521   0.368078  -0.038186   0.617274
    13  C    0.000046  -0.039475  -0.004844   0.368120  -0.039957  -0.039413
    14  H   -0.000003  -0.005421  -0.000199  -0.032650   0.005184  -0.004622
    15  H   -0.000011   0.004000  -0.000003  -0.027533  -0.003496  -0.002247
    16  H    0.000001  -0.004727   0.005638  -0.036370  -0.003723   0.005334
    17  C    0.005966   0.372586  -0.046120  -0.051508   0.006093  -0.008505
    18  H   -0.000212  -0.034528  -0.007862   0.002314  -0.000207   0.000018
    19  H   -0.000160  -0.043788   0.005681  -0.005462  -0.000050   0.006527
              13         14         15         16         17         18
     1  C   -0.000134   0.000001   0.000001  -0.000001  -0.004558   0.000117
     2  H   -0.000001   0.000000   0.000000  -0.000001  -0.000055  -0.000009
     3  H    0.000001  -0.000001   0.000000   0.000000   0.009536  -0.000403
     4  H    0.000001   0.000000   0.000000   0.000000   0.000167   0.000004
     5  C    0.004067   0.000084  -0.000113   0.000068  -0.054990   0.004167
     6  H   -0.000021   0.000002   0.000004   0.000007  -0.006247  -0.000002
     7  H    0.000046  -0.000003  -0.000011   0.000001   0.005966  -0.000212
     8  C   -0.039475  -0.005421   0.004000  -0.004727   0.372586  -0.034528
     9  H   -0.004844  -0.000199  -0.000003   0.005638  -0.046120  -0.007862
    10  C    0.368120  -0.032650  -0.027533  -0.036370  -0.051508   0.002314
    11  H   -0.039957   0.005184  -0.003496  -0.003723   0.006093  -0.000207
    12  H   -0.039413  -0.004622  -0.002247   0.005334  -0.008505   0.000018
    13  C    5.076945   0.375464   0.371210   0.376693  -0.004034   0.000481
    14  H    0.375464   0.571791  -0.031233  -0.032045   0.007661  -0.000207
    15  H    0.371210  -0.031233   0.578771  -0.031303   0.000142   0.000009
    16  H    0.376693  -0.032045  -0.031303   0.580674  -0.000402   0.000156
    17  C   -0.004034   0.007661   0.000142  -0.000402   5.347096   0.362159
    18  H    0.000481  -0.000207   0.000009   0.000156   0.362159   0.557397
    19  H   -0.000585   0.000412  -0.000010   0.000108   0.361572  -0.027423
              19
     1  C   -0.000093
     2  H    0.000038
     3  H   -0.000061
     4  H   -0.000005
     5  C   -0.002392
     6  H    0.003660
     7  H   -0.000160
     8  C   -0.043788
     9  H    0.005681
    10  C   -0.005462
    11  H   -0.000050
    12  H    0.006527
    13  C   -0.000585
    14  H    0.000412
    15  H   -0.000010
    16  H    0.000108
    17  C    0.361572
    18  H   -0.027423
    19  H    0.563875
          Atomic-Atomic Spin Densities.
               1          2          3          4          5          6
     1  C    0.013155  -0.000822  -0.003503  -0.000567  -0.002632   0.000177
     2  H   -0.000822   0.000629   0.000675   0.000149  -0.000874   0.000010
     3  H   -0.003503   0.000675  -0.000663   0.000179  -0.001447   0.000214
     4  H   -0.000567   0.000149   0.000179  -0.000457   0.000057   0.000043
     5  C   -0.002632  -0.000874  -0.001447   0.000057   0.062190  -0.001940
     6  H    0.000177   0.000010   0.000214   0.000043  -0.001940  -0.001642
     7  H    0.001246   0.000267   0.000226   0.000211  -0.007504   0.000739
     8  C    0.000399  -0.000066  -0.000800  -0.000125   0.010148   0.000516
     9  H    0.000095   0.000047   0.000055   0.000004  -0.001654   0.000002
    10  C    0.000340   0.000041   0.000090   0.000010  -0.014311   0.000466
    11  H   -0.000087  -0.000008  -0.000008  -0.000002   0.003160  -0.000112
    12  H    0.000000   0.000000   0.000000   0.000000  -0.000053  -0.000016
    13  C   -0.000006  -0.000001  -0.000001   0.000000   0.000310  -0.000007
    14  H   -0.000001   0.000000   0.000000   0.000000   0.000077  -0.000003
    15  H    0.000000   0.000000   0.000000   0.000000   0.000007   0.000000
    16  H   -0.000001   0.000000   0.000000   0.000000   0.000027   0.000000
    17  C   -0.002888   0.000523   0.006387   0.000150  -0.018987   0.000820
    18  H    0.000006  -0.000017  -0.000123  -0.000001   0.000496   0.000002
    19  H    0.000022  -0.000004  -0.000094  -0.000002   0.001319  -0.000201
               7          8          9         10         11         12
     1  C    0.001246   0.000399   0.000095   0.000340  -0.000087   0.000000
     2  H    0.000267  -0.000066   0.000047   0.000041  -0.000008   0.000000
     3  H    0.000226  -0.000800   0.000055   0.000090  -0.000008   0.000000
     4  H    0.000211  -0.000125   0.000004   0.000010  -0.000002   0.000000
     5  C   -0.007504   0.010148  -0.001654  -0.014311   0.003160  -0.000053
     6  H    0.000739   0.000516   0.000002   0.000466  -0.000112  -0.000016
     7  H    0.006340  -0.000243   0.000259   0.002529  -0.001685   0.000009
     8  C   -0.000243  -0.053154   0.002695   0.013006  -0.001408   0.000871
     9  H    0.000259   0.002695   0.001527   0.001018  -0.000210  -0.000006
    10  C    0.002529   0.013006   0.001018   0.068745  -0.009765  -0.000158
    11  H   -0.001685  -0.001408  -0.000210  -0.009765   0.012914   0.000052
    12  H    0.000009   0.000871  -0.000006  -0.000158   0.000052  -0.002108
    13  C   -0.000065   0.000109  -0.000073  -0.002738   0.001438   0.000215
    14  H   -0.000005  -0.000647  -0.000043  -0.001516   0.000300   0.000033
    15  H   -0.000001  -0.000131  -0.000006   0.000175   0.000207   0.000001
    16  H   -0.000005  -0.000044  -0.000034  -0.000708   0.000252  -0.000018
    17  C    0.000847  -0.038123  -0.002158  -0.022700   0.001521  -0.000341
    18  H   -0.000016  -0.000212   0.000540  -0.000973   0.000039   0.000016
    19  H   -0.000043  -0.000167  -0.000182  -0.000455   0.000052  -0.000086
              13         14         15         16         17         18
     1  C   -0.000006  -0.000001   0.000000  -0.000001  -0.002888   0.000006
     2  H   -0.000001   0.000000   0.000000   0.000000   0.000523  -0.000017
     3  H   -0.000001   0.000000   0.000000   0.000000   0.006387  -0.000123
     4  H    0.000000   0.000000   0.000000   0.000000   0.000150  -0.000001
     5  C    0.000310   0.000077   0.000007   0.000027  -0.018987   0.000496
     6  H   -0.000007  -0.000003   0.000000   0.000000   0.000820   0.000002
     7  H   -0.000065  -0.000005  -0.000001  -0.000005   0.000847  -0.000016
     8  C    0.000109  -0.000647  -0.000131  -0.000044  -0.038123  -0.000212
     9  H   -0.000073  -0.000043  -0.000006  -0.000034  -0.002158   0.000540
    10  C   -0.002738  -0.001516   0.000175  -0.000708  -0.022700  -0.000973
    11  H    0.001438   0.000300   0.000207   0.000252   0.001521   0.000039
    12  H    0.000215   0.000033   0.000001  -0.000018  -0.000341   0.000016
    13  C    0.009533  -0.003059  -0.000023  -0.000414  -0.001989  -0.000081
    14  H   -0.003059   0.000307   0.000026   0.000496   0.005041   0.000230
    15  H   -0.000023   0.000026  -0.000988   0.000085   0.000110   0.000003
    16  H   -0.000414   0.000496   0.000085   0.000328   0.000398   0.000024
    17  C   -0.001989   0.005041   0.000110   0.000398   1.165923  -0.008437
    18  H   -0.000081   0.000230   0.000003   0.000024  -0.008437  -0.040675
    19  H   -0.000089   0.000182   0.000006   0.000005  -0.007803   0.002553
              19
     1  C    0.000022
     2  H   -0.000004
     3  H   -0.000094
     4  H   -0.000002
     5  C    0.001319
     6  H   -0.000201
     7  H   -0.000043
     8  C   -0.000167
     9  H   -0.000182
    10  C   -0.000455
    11  H    0.000052
    12  H   -0.000086
    13  C   -0.000089
    14  H    0.000182
    15  H    0.000006
    16  H    0.000005
    17  C   -0.007803
    18  H    0.002553
    19  H   -0.040563
 Mulliken charges and spin densities:
               1          2
     1  C   -0.443685   0.004935
     2  H    0.137702   0.000549
     3  H    0.149650   0.001184
     4  H    0.139391  -0.000350
     5  C   -0.242536   0.028390
     6  H    0.126012  -0.000933
     7  H    0.126344   0.003108
     8  C   -0.083621  -0.067376
     9  H    0.114786   0.001877
    10  C   -0.250256   0.033097
    11  H    0.130692   0.006651
    12  H    0.126967  -0.001592
    13  C   -0.444566   0.003059
    14  H    0.145780   0.001417
    15  H    0.141813  -0.000531
    16  H    0.139895   0.000391
    17  C   -0.296558   1.078295
    18  H    0.144032  -0.046625
    19  H    0.138158  -0.045547
 Sum of Mulliken charges =   0.00000   1.00000
 Mulliken charges and spin densities with hydrogens summed into heavy atoms:
               1          2
     1  C   -0.016942   0.006318
     5  C    0.009820   0.030565
     8  C    0.031165  -0.065499
    10  C    0.007403   0.038156
    13  C   -0.017077   0.004337
    17  C   -0.014368   0.986123
 Electronic spatial extent (au):  <R**2>=            838.6064
 Charge=              0.0000 electrons
 Dipole moment (field-independent basis, Debye):
    X=             -0.3189    Y=             -0.2181    Z=              0.0556  Tot=              0.3903
 Quadrupole moment (field-independent basis, Debye-Ang):
   XX=            -41.9268   YY=            -41.2245   ZZ=            -39.8340
   XY=             -0.5321   XZ=              0.1273   YZ=              0.1958
 Traceless Quadrupole moment (field-independent basis, Debye-Ang):
   XX=             -0.9317   YY=             -0.2294   ZZ=              1.1611
   XY=             -0.5321   XZ=              0.1273   YZ=              0.1958
 Octapole moment (field-independent basis, Debye-Ang**2):
  XXX=             -0.3428  YYY=             -2.3073  ZZZ=             -0.0490  XYY=             -1.4099
  XXY=             -2.2087  XXZ=             -1.2929  XZZ=             -0.4829  YZZ=              1.0510
  YYZ=              1.5839  XYZ=              0.1873
 Hexadecapole moment (field-independent basis, Debye-Ang**3):
 XXXX=           -837.2230 YYYY=           -229.8411 ZZZZ=           -102.7379 XXXY=              0.1847
 XXXZ=             -0.1488 YYYX=             -2.6648 YYYZ=              3.3731 ZZZX=              0.4604
 ZZZY=             -0.7380 XXYY=           -175.2777 XXZZ=           -157.3235 YYZZ=            -55.1212
 XXYZ=              0.5478 YYXZ=              0.2152 ZZXY=             -0.7937
 N-N= 2.444504593064D+02 E-N=-1.034512829742D+03  KE= 2.339442985623D+02
                          Isotropic Fermi Contact Couplings
        Atom                 a.u.       MegaHertz       Gauss      10(-4) cm-1
     1  C(13)              0.00177       1.98502       0.70830       0.66213
     2  H(1)               0.00008       0.34685       0.12376       0.11570
     3  H(1)               0.00033       1.49047       0.53184       0.49717
     4  H(1)              -0.00014      -0.62039      -0.22137      -0.20694
     5  C(13)              0.03368      37.86227      13.51020      12.62949
     6  H(1)              -0.00052      -2.31820      -0.82719      -0.77327
     7  H(1)               0.00077       3.42189       1.22102       1.14142
     8  C(13)             -0.02095     -23.55406      -8.40467      -7.85679
     9  H(1)               0.00055       2.46228       0.87860       0.82133
    10  C(13)              0.03754      42.19856      15.05749      14.07592
    11  H(1)               0.00220       9.85455       3.51635       3.28712
    12  H(1)              -0.00049      -2.17501      -0.77610      -0.72551
    13  C(13)              0.00110       1.24097       0.44281       0.41394
    14  H(1)               0.00013       0.59350       0.21178       0.19797
    15  H(1)              -0.00016      -0.70763      -0.25250      -0.23604
    16  H(1)               0.00007       0.31163       0.11120       0.10395
    17  C(13)              0.17004     191.15807      68.20995      63.76347
    18  H(1)              -0.01244     -55.59199     -19.83660     -18.54349
    19  H(1)              -0.01196     -53.44370     -19.07004     -17.82690
 --------------------------------------------------------
       Center         ----  Spin Dipole Couplings  ----
                      3XX-RR        3YY-RR        3ZZ-RR
 --------------------------------------------------------
     1   Atom        0.001744      0.005966     -0.007710
     2   Atom        0.001139     -0.000791     -0.000348
     3   Atom        0.012480     -0.003638     -0.008843
     4   Atom        0.002550      0.000364     -0.002914
     5   Atom        0.008736      0.013935     -0.022671
     6   Atom       -0.004589      0.004834     -0.000245
     7   Atom       -0.002706      0.007691     -0.004985
     8   Atom        0.002196      0.012731     -0.014927
     9   Atom       -0.007448      0.004046      0.003402
    10   Atom        0.011596      0.012673     -0.024270
    11   Atom       -0.002546      0.007550     -0.005004
    12   Atom       -0.003720      0.002873      0.000847
    13   Atom        0.002704      0.003611     -0.006314
    14   Atom        0.010658     -0.003351     -0.007308
    15   Atom        0.002544      0.000117     -0.002660
    16   Atom        0.001505     -0.000954     -0.000551
    17   Atom        0.996518     -0.480038     -0.516479
    18   Atom       -0.004873     -0.011090      0.015963
    19   Atom       -0.003562     -0.064018      0.067580
 --------------------------------------------------------
                        XY            XZ            YZ
 --------------------------------------------------------
     1   Atom       -0.005144      0.001738     -0.004728
     2   Atom       -0.003558      0.004000     -0.002791
     3   Atom       -0.006510      0.002399     -0.001647
     4   Atom       -0.003327      0.000223     -0.000153
     5   Atom       -0.034114     -0.010978      0.009607
     6   Atom       -0.005829     -0.004394      0.006853
     7   Atom       -0.002439     -0.000221     -0.001606
     8   Atom        0.008873     -0.004686     -0.007525
     9   Atom        0.001221     -0.000083     -0.014096
    10   Atom        0.039149      0.012589      0.011714
    11   Atom        0.002246      0.000536     -0.001755
    12   Atom        0.005960      0.004680      0.006123
    13   Atom        0.004396     -0.001301     -0.003698
    14   Atom        0.004646     -0.001599     -0.000991
    15   Atom        0.002787     -0.000230     -0.000115
    16   Atom        0.003120     -0.003738     -0.002164
    17   Atom        0.237846     -0.105918     -0.018927
    18   Atom       -0.004116     -0.020456      0.066356
    19   Atom        0.006735      0.021869     -0.012066
 --------------------------------------------------------


 ---------------------------------------------------------------------------------
              Anisotropic Spin Dipole Couplings in Principal Axis System
 ---------------------------------------------------------------------------------

       Atom             a.u.   MegaHertz   Gauss  10(-4) cm-1        Axes

              Baa    -0.0092    -1.233    -0.440    -0.411 -0.0138  0.2936  0.9558
     1 C(13)  Bbb    -0.0015    -0.206    -0.074    -0.069  0.8557  0.4981 -0.1406
              Bcc     0.0107     1.439     0.513     0.480 -0.5174  0.8159 -0.2581
 
              Baa    -0.0037    -1.980    -0.707    -0.661  0.7260  0.2874 -0.6248
     2 H(1)   Bbb    -0.0034    -1.789    -0.638    -0.597  0.1537  0.8177  0.5547
              Bcc     0.0071     3.769     1.345     1.257  0.6703 -0.4988  0.5495
 
              Baa    -0.0093    -4.982    -1.778    -1.662 -0.0349  0.2404  0.9700
     3 H(1)   Bbb    -0.0058    -3.081    -1.099    -1.028  0.3529  0.9111 -0.2131
              Bcc     0.0151     8.062     2.877     2.689  0.9350 -0.3349  0.1166
 
              Baa    -0.0029    -1.560    -0.557    -0.520 -0.0322  0.0141  0.9994
     4 H(1)   Bbb    -0.0020    -1.091    -0.389    -0.364  0.5862  0.8101  0.0075
              Bcc     0.0050     2.651     0.946     0.884  0.8095 -0.5861  0.0343
 
              Baa    -0.0263    -3.527    -1.258    -1.176  0.4177  0.1398  0.8978
     5 C(13)  Bbb    -0.0222    -2.982    -1.064    -0.995  0.6147  0.6842 -0.3925
              Bcc     0.0485     6.509     2.323     2.171 -0.6691  0.7158  0.1998
 
              Baa    -0.0077    -4.105    -1.465    -1.369  0.9173  0.2633  0.2989
     6 H(1)   Bbb    -0.0050    -2.663    -0.950    -0.888 -0.0851 -0.6035  0.7928
              Bcc     0.0127     6.768     2.415     2.257 -0.3891  0.7526  0.5312
 
              Baa    -0.0053    -2.833    -1.011    -0.945  0.2334  0.1622  0.9588
     7 H(1)   Bbb    -0.0031    -1.652    -0.590    -0.551  0.9492  0.1758 -0.2608
              Bcc     0.0084     4.486     1.601     1.496 -0.2109  0.9710 -0.1129
 
              Baa    -0.0172    -2.305    -0.823    -0.769  0.1420  0.2017  0.9691
     8 C(13)  Bbb    -0.0028    -0.382    -0.136    -0.127  0.8641 -0.5028 -0.0220
              Bcc     0.0200     2.688     0.959     0.896  0.4828  0.8405 -0.2457
 
              Baa    -0.0106    -5.644    -2.014    -1.883 -0.2480  0.6829  0.6871
     9 H(1)   Bbb    -0.0073    -3.884    -1.386    -1.295  0.9681  0.1477  0.2025
              Bcc     0.0179     9.528     3.400     3.178  0.0368  0.7154 -0.6978
 
              Baa    -0.0284    -3.808    -1.359    -1.270 -0.4646  0.1967  0.8634
    10 C(13)  Bbb    -0.0266    -3.574    -1.275    -1.192 -0.5579  0.6921 -0.4580
              Bcc     0.0550     7.382     2.634     2.462  0.6876  0.6945  0.2118
 
              Baa    -0.0055    -2.941    -1.049    -0.981 -0.3038  0.1780  0.9359
    11 H(1)   Bbb    -0.0027    -1.446    -0.516    -0.482  0.9321 -0.1475  0.3307
              Bcc     0.0082     4.387     1.565     1.463  0.1969  0.9729 -0.1211
 
              Baa    -0.0074    -3.972    -1.417    -1.325  0.8955 -0.3869 -0.2199
    12 H(1)   Bbb    -0.0043    -2.308    -0.824    -0.770 -0.0708 -0.6116  0.7880
              Bcc     0.0118     6.280     2.241     2.095  0.4393  0.6901  0.5751
 
              Baa    -0.0075    -1.012    -0.361    -0.338 -0.0174  0.3208  0.9470
    13 C(13)  Bbb    -0.0009    -0.125    -0.045    -0.042  0.7830 -0.5847  0.2124
              Bcc     0.0085     1.137     0.406     0.379  0.6218  0.7451 -0.2410
 
              Baa    -0.0076    -4.034    -1.439    -1.346  0.0379  0.1892  0.9812
    14 H(1)   Bbb    -0.0047    -2.490    -0.889    -0.831 -0.3021  0.9382 -0.1692
              Bcc     0.0122     6.524     2.328     2.176  0.9525  0.2900 -0.0927
 
              Baa    -0.0027    -1.425    -0.508    -0.475  0.0472 -0.0060  0.9989
    15 H(1)   Bbb    -0.0017    -0.912    -0.325    -0.304 -0.5467  0.8367  0.0308
              Bcc     0.0044     2.337     0.834     0.779  0.8360  0.5476 -0.0362
 
              Baa    -0.0034    -1.838    -0.656    -0.613  0.6794 -0.2524  0.6890
    16 H(1)   Bbb    -0.0029    -1.540    -0.549    -0.514 -0.1842  0.8502  0.4932
              Bcc     0.0063     3.378     1.205     1.127  0.7103  0.4620 -0.5311
 
              Baa    -0.5246   -70.398   -25.120   -23.482  0.0186  0.3050  0.9522
    17 C(13)  Bbb    -0.5167   -69.336   -24.741   -23.128 -0.1685  0.9397 -0.2977
              Bcc     1.0413   139.734    49.861    46.610  0.9855  0.1549 -0.0689
 
              Baa    -0.0669   -35.685   -12.733   -11.903 -0.1616  0.7504 -0.6409
    18 H(1)   Bbb    -0.0076    -4.055    -1.447    -1.353  0.9601  0.2698  0.0737
              Bcc     0.0745    39.740    14.180    13.256 -0.2283  0.6034  0.7640
 
              Baa    -0.0664   -35.419   -12.639   -11.815 -0.1444  0.9831  0.1121
    19 H(1)   Bbb    -0.0081    -4.310    -1.538    -1.438  0.9538  0.1685 -0.2488
              Bcc     0.0745    39.729    14.176    13.252  0.2635 -0.0710  0.9620
 

 ---------------------------------------------------------------------------------

 No NMR shielding tensors so no spin-rotation constants.
 Leave Link  601 at Mon Apr 11 11:02:21 2016, MaxMem=  2013265920 cpu:        52.2
 (Enter /HOME/tsinghua_xqyou_1/softwares/gaussian/g09D01/g09/l701.exe)
 Compute integral first derivatives.
 ... and contract with generalized density number  0.
 Leave Link  701 at Mon Apr 11 11:02:34 2016, MaxMem=  2013265920 cpu:        33.2
 (Enter /HOME/tsinghua_xqyou_1/softwares/gaussian/g09D01/g09/l702.exe)
 L702 exits ... SP integral derivatives will be done elsewhere.
 Leave Link  702 at Mon Apr 11 11:02:35 2016, MaxMem=  2013265920 cpu:         0.1
 (Enter /HOME/tsinghua_xqyou_1/softwares/gaussian/g09D01/g09/l703.exe)
 Compute integral first derivatives, UseDBF=F ICtDFT=           0.
 Integral derivatives from FoFJK, PRISM(SPDF).
 Calling FoFJK, ICntrl=      2127 FMM=F ISym2X=0 I1Cent= 0 IOpClX= 1 NMat=1 NMatS=1 NMatT=0.
 FoFJK:  IHMeth= 1 ICntrl=    2127 DoSepK=F KAlg= 0 I1Cent=   0 FoldK=F
 IRaf=         0 NMat=   1 IRICut=       1 DoRegI=T DoRafI=F ISym2E= 0.
 FoFCou: FMM=F IPFlag=           0 FMFlag=      100000 FMFlg1=         800
         NFxFlg=           0 DoJE=F BraDBF=F KetDBF=F FulRan=T
         wScrn=  0.000000 ICntrl=    2127 IOpCl=  1 I1Cent=           0 NGrid=           0
         NMat0=    1 NMatS0=      1 NMatT0=    0 NMatD0=    1 NMtDS0=    0 NMtDT0=    0
 Symmetry not used in FoFCou.
 Leave Link  703 at Mon Apr 11 11:02:44 2016, MaxMem=  2013265920 cpu:        33.3
 (Enter /HOME/tsinghua_xqyou_1/softwares/gaussian/g09D01/g09/l716.exe)
 Dipole        =-1.25467471D-01-8.58083831D-02 2.18576393D-02
 ***** Axes restored to original set *****
 -------------------------------------------------------------------
 Center     Atomic                   Forces (Hartrees/Bohr)
 Number     Number              X              Y              Z
 -------------------------------------------------------------------
      1        6          -0.000087987    0.000573359   -0.000030604
      2        1           0.000024194   -0.000039251   -0.000008546
      3        1           0.000922607    0.000940006   -0.001121556
      4        1           0.000142286   -0.000424746   -0.000160307
      5        6           0.000162581   -0.002448121    0.002892786
      6        1          -0.000127546    0.000052397   -0.000056694
      7        1           0.000352704   -0.000313903   -0.000129262
      8        6          -0.006656889    0.010154317    0.004726713
      9        1           0.000282838   -0.000461259    0.000955540
     10        6           0.003204436   -0.000282437   -0.001059625
     11        1          -0.000281204   -0.000292547    0.000305201
     12        1          -0.000044255   -0.000050941    0.000051096
     13        6          -0.000123498    0.000354534   -0.000039512
     14        1          -0.000855987    0.000461082    0.000770309
     15        1          -0.000049922   -0.000264160    0.000023778
     16        1           0.000020697   -0.000019332    0.000065306
     17        6           0.002460112   -0.034162482   -0.018284978
     18        1           0.010134187    0.011806739    0.013377034
     19        1          -0.009479355    0.014416747   -0.002276678
 -------------------------------------------------------------------
 Cartesian Forces:  Max     0.034162482 RMS     0.006534756
 Leave Link  716 at Mon Apr 11 11:02:51 2016, MaxMem=  2013265920 cpu:         8.9
 (Enter /HOME/tsinghua_xqyou_1/softwares/gaussian/g09D01/g09/l103.exe)

 GradGradGradGradGradGradGradGradGradGradGradGradGradGradGradGradGradGrad
 Berny optimization.
 FormGI is forming the generalized inverse of G from B-inverse, IUseBI=4.
 Internal  Forces:  Max     0.024329138 RMS     0.003925290
 Search for a local minimum.
 Step number   1 out of a maximum of  103
 All quantities printed in internal units (Hartrees-Bohrs-Radians)
 RMS Force = .39253D-02 SwitMx=.10000D-02 MixMth= 1
 Mixed Optimization -- RFO/linear search
 Second derivative matrix not updated -- first step.
 ITU=  0
     Eigenvalues ---    0.00230   0.00230   0.00279   0.00326   0.00326
     Eigenvalues ---    0.01348   0.03219   0.03219   0.03678   0.04711
     Eigenvalues ---    0.04711   0.04872   0.05357   0.05357   0.05469
     Eigenvalues ---    0.05496   0.05496   0.08726   0.08726   0.12495
     Eigenvalues ---    0.12495   0.16000   0.16000   0.16000   0.16000
     Eigenvalues ---    0.16000   0.16000   0.16000   0.16000   0.16723
     Eigenvalues ---    0.18330   0.21941   0.21941   0.28249   0.28249
     Eigenvalues ---    0.28802   0.29125   0.29125   0.33394   0.33637
     Eigenvalues ---    0.33637   0.33788   0.33788   0.33973   0.33973
     Eigenvalues ---    0.34116   0.34116   0.34193   0.34193   0.34238
     Eigenvalues ---    0.34238
 RFO step:  Lambda=-1.01765831D-02 EMin= 2.30000000D-03
 Linear search not attempted -- first point.
 Iteration  1 RMS(Cart)=  0.04595158 RMS(Int)=  0.00630678
 Iteration  2 RMS(Cart)=  0.00583550 RMS(Int)=  0.00388690
 Iteration  3 RMS(Cart)=  0.00003417 RMS(Int)=  0.00388675
 Iteration  4 RMS(Cart)=  0.00000019 RMS(Int)=  0.00388675
 ITry= 1 IFail=0 DXMaxC= 2.21D-01 DCOld= 1.00D+10 DXMaxT= 3.00D-01 DXLimC= 3.00D+00 Rises=F
 Variable       Old X    -DE/DX   Delta X   Delta X   Delta X     New X
                                 (Linear)    (Quad)   (Total)
    R1        2.07376  -0.00001   0.00000  -0.00002  -0.00002   2.07374
    R2        2.07005   0.00028   0.00000   0.00081   0.00081   2.07086
    R3        2.07134   0.00014   0.00000   0.00041   0.00041   2.07176
    R4        2.89742  -0.00129   0.00000  -0.00427  -0.00427   2.89315
    R5        2.07947  -0.00012   0.00000  -0.00035  -0.00035   2.07913
    R6        2.07690   0.00037   0.00000   0.00107   0.00107   2.07796
    R7        2.91596   0.00174   0.00000   0.00595   0.00595   2.92192
    R8        2.08366  -0.00081   0.00000  -0.00234  -0.00234   2.08131
    R9        2.91596   0.00161   0.00000   0.00551   0.00551   2.92147
   R10        2.90418  -0.00956   0.00000  -0.03204  -0.03204   2.87214
   R11        2.07690   0.00025   0.00000   0.00071   0.00071   2.07760
   R12        2.07947  -0.00001   0.00000  -0.00002  -0.00002   2.07946
   R13        2.89742  -0.00070   0.00000  -0.00231  -0.00231   2.89511
   R14        2.07005   0.00043   0.00000   0.00123   0.00123   2.07128
   R15        2.07134   0.00005   0.00000   0.00013   0.00013   2.07148
   R16        2.07376  -0.00006   0.00000  -0.00016  -0.00016   2.07360
   R17        2.06931  -0.00734   0.00000  -0.02081  -0.02081   2.04850
   R18        2.06930  -0.00545   0.00000  -0.01546  -0.01546   2.05385
    A1        1.87842   0.00048   0.00000  -0.00041  -0.00044   1.87797
    A2        1.87726   0.00003   0.00000   0.00140   0.00139   1.87865
    A3        1.93932   0.00021   0.00000   0.00014   0.00012   1.93944
    A4        1.87288   0.00125   0.00000   0.00941   0.00943   1.88231
    A5        1.95782  -0.00190   0.00000  -0.01181  -0.01182   1.94600
    A6        1.93461   0.00004   0.00000   0.00199   0.00200   1.93661
    A7        1.90987   0.00091   0.00000  -0.00066  -0.00076   1.90911
    A8        1.89569   0.00148   0.00000   0.01068   0.01073   1.90643
    A9        2.00987  -0.00375   0.00000  -0.01759  -0.01761   1.99226
   A10        1.84904  -0.00059   0.00000   0.00173   0.00172   1.85076
   A11        1.90093   0.00098   0.00000  -0.00060  -0.00070   1.90023
   A12        1.89164   0.00119   0.00000   0.00805   0.00811   1.89976
   A13        1.87539  -0.00027   0.00000   0.00316   0.00315   1.87854
   A14        1.92053   0.00121   0.00000   0.00342   0.00335   1.92388
   A15        1.95271  -0.00025   0.00000  -0.00445  -0.00447   1.94824
   A16        1.87539   0.00016   0.00000   0.00445   0.00446   1.87984
   A17        1.88339   0.00070   0.00000   0.00633   0.00635   1.88974
   A18        1.95271  -0.00150   0.00000  -0.01184  -0.01185   1.94086
   A19        1.89165   0.00065   0.00000   0.00362   0.00366   1.89530
   A20        1.90093   0.00075   0.00000  -0.00042  -0.00046   1.90047
   A21        2.00987  -0.00282   0.00000  -0.01323  -0.01324   1.99663
   A22        1.84904  -0.00044   0.00000   0.00143   0.00142   1.85046
   A23        1.89569   0.00131   0.00000   0.00949   0.00950   1.90519
   A24        1.90987   0.00071   0.00000   0.00031   0.00026   1.91013
   A25        1.95782  -0.00123   0.00000  -0.00770  -0.00770   1.95012
   A26        1.93461   0.00008   0.00000   0.00180   0.00180   1.93641
   A27        1.93932   0.00009   0.00000  -0.00035  -0.00036   1.93896
   A28        1.87288   0.00082   0.00000   0.00640   0.00640   1.87928
   A29        1.87842   0.00029   0.00000  -0.00072  -0.00074   1.87768
   A30        1.87726   0.00003   0.00000   0.00105   0.00105   1.87831
   A31        1.95027   0.01899   0.00000   0.15049   0.12916   2.07944
   A32        1.95027   0.01383   0.00000   0.12015   0.09880   2.04907
   A33        2.24998  -0.02433   0.00000  -0.09638  -0.11831   2.13167
    D1        3.12776  -0.00053   0.00000   0.00052   0.00054   3.12830
    D2       -1.14441   0.00007   0.00000   0.00808   0.00811  -1.13631
    D3        0.98010   0.00018   0.00000   0.01461   0.01459   0.99469
    D4        1.02422   0.00002   0.00000   0.00908   0.00908   1.03329
    D5        3.03522   0.00062   0.00000   0.01664   0.01664   3.05187
    D6       -1.12345   0.00072   0.00000   0.02317   0.02313  -1.10032
    D7       -1.06899  -0.00033   0.00000   0.00368   0.00369  -1.06529
    D8        0.94202   0.00028   0.00000   0.01124   0.01126   0.95328
    D9        3.06653   0.00038   0.00000   0.01777   0.01774   3.08428
   D10       -0.95817  -0.00038   0.00000  -0.01489  -0.01487  -0.97304
   D11       -2.99494  -0.00107   0.00000  -0.02382  -0.02380  -3.01875
   D12        1.10606   0.00016   0.00000  -0.00774  -0.00771   1.09835
   D13       -3.11059   0.00034   0.00000  -0.00091  -0.00092  -3.11151
   D14        1.13582  -0.00035   0.00000  -0.00983  -0.00986   1.12597
   D15       -1.04636   0.00088   0.00000   0.00625   0.00624  -1.04012
   D16        1.16853  -0.00011   0.00000  -0.00691  -0.00692   1.16161
   D17       -0.86824  -0.00080   0.00000  -0.01584  -0.01585  -0.88410
   D18       -3.05042   0.00043   0.00000   0.00024   0.00024  -3.05019
   D19        0.86823   0.00042   0.00000   0.01603   0.01603   0.88426
   D20       -1.13583   0.00020   0.00000   0.01264   0.01265  -1.12318
   D21        2.99493   0.00070   0.00000   0.02206   0.02206   3.01698
   D22       -1.16854   0.00001   0.00000   0.00791   0.00790  -1.16064
   D23        3.11058  -0.00022   0.00000   0.00452   0.00452   3.11510
   D24        0.95816   0.00028   0.00000   0.01394   0.01393   0.97208
   D25        3.05041  -0.00009   0.00000   0.00419   0.00419   3.05460
   D26        1.04635  -0.00032   0.00000   0.00080   0.00081   1.04716
   D27       -1.10608   0.00018   0.00000   0.01022   0.01022  -1.09586
   D28       -2.27478   0.00261   0.00000   0.08442   0.08593  -2.18885
   D29        1.34657  -0.00338   0.00000  -0.16856  -0.17002   1.17655
   D30       -0.21532   0.00257   0.00000   0.08968   0.09117  -0.12415
   D31       -2.87715  -0.00342   0.00000  -0.16330  -0.16478  -3.04193
   D32        1.84415   0.00234   0.00000   0.09223   0.09368   1.93783
   D33       -0.81769  -0.00365   0.00000  -0.16075  -0.16227  -0.97995
   D34        1.12344  -0.00049   0.00000  -0.01684  -0.01682   1.10662
   D35       -3.06654  -0.00022   0.00000  -0.01265  -0.01263  -3.07917
   D36       -0.98010  -0.00007   0.00000  -0.01037  -0.01036  -0.99046
   D37       -3.03523  -0.00057   0.00000  -0.01400  -0.01401  -3.04924
   D38       -0.94203  -0.00030   0.00000  -0.00981  -0.00983  -0.95185
   D39        1.14441  -0.00016   0.00000  -0.00753  -0.00755   1.13686
   D40       -1.02422   0.00001   0.00000  -0.00693  -0.00693  -1.03115
   D41        1.06898   0.00028   0.00000  -0.00274  -0.00274   1.06624
   D42       -3.12777   0.00043   0.00000  -0.00046  -0.00046  -3.12823
         Item               Value     Threshold  Converged?
 Maximum Force            0.024329     0.000015     NO 
 RMS     Force            0.003925     0.000010     NO 
 Maximum Displacement     0.220830     0.000060     NO 
 RMS     Displacement     0.046661     0.000040     NO 
 Predicted change in Energy=-6.229530D-03
 Lowest energy point so far.  Saving SCF results.
 GradGradGradGradGradGradGradGradGradGradGradGradGradGradGradGradGradGrad

 Leave Link  103 at Mon Apr 11 11:02:52 2016, MaxMem=  2013265920 cpu:         2.9
 (Enter /HOME/tsinghua_xqyou_1/softwares/gaussian/g09D01/g09/l202.exe)
                          Input orientation:                          
 ---------------------------------------------------------------------
 Center     Atomic      Atomic             Coordinates (Angstroms)
 Number     Number       Type             X           Y           Z
 ---------------------------------------------------------------------
      1          6           0       -1.744302   -0.656988    1.555743
      2          1           0       -2.513316   -0.793661    0.784915
      3          1           0       -1.854532    0.356491    1.957738
      4          1           0       -1.956398   -1.364678    2.365756
      5          6           0       -0.342710   -0.884069    0.983121
      6          1           0        0.405050   -0.726828    1.774719
      7          1           0       -0.243073   -1.935050    0.675462
      8          6           0        0.003847    0.023544   -0.219754
      9          1           0       -0.773154   -0.126622   -0.985760
     10          6           0        1.358145   -0.397948   -0.834781
     11          1           0        1.337922   -1.481869   -1.017621
     12          1           0        2.153794   -0.229752   -0.093474
     13          6           0        1.713936    0.325192   -2.137696
     14          1           0        1.837278    1.403249   -1.982912
     15          1           0        2.650722   -0.060220   -2.556621
     16          1           0        0.930303    0.186295   -2.893138
     17          6           0        0.010738    1.492432    0.170536
     18          1           0       -0.604795    2.189545   -0.386465
     19          1           0        0.789292    1.825316    0.851917
 ---------------------------------------------------------------------
                    Distance matrix (angstroms):
                    1          2          3          4          5
     1  C    0.000000
     2  H    1.097377   0.000000
     3  H    1.095851   1.769847   0.000000
     4  H    1.096326   1.770671   1.771801   0.000000
     5  C    1.530988   2.181511   2.185057   2.178682   0.000000
     6  H    2.161607   3.082375   2.512525   2.516469   1.100226
     7  H    2.159173   2.543374   3.080940   2.473440   1.099610
     8  C    2.582932   2.830776   2.881995   3.529105   1.546212
     9  H    2.771941   2.570681   3.172847   3.763710   2.153022
    10  C    3.925161   4.215237   4.323035   4.707888   2.536532
    11  H    4.099114   4.307528   4.735408   4.723719   2.680458
    12  H    4.254127   4.782413   4.540685   4.922352   2.796376
    13  C    5.154181   5.259577   5.432082   6.050463   3.928308
    14  H    5.440071   5.604904   5.500353   6.400337   4.333766
    15  H    6.048464   6.194441   6.391431   6.867093   4.708412
    16  H    5.259009   5.132923   5.596004   6.196332   4.218012
[...]
 0.01563902,-0.01741604,-0.00041793,0.00150422,-0.00312600,0.05964303,-
 0.02648727,-0.14786561,0.12440563,0.00206388,0.00423641,-0.00602975,-0
 .00475703,-0.01788828,0.02531128,0.02803192,0.15652837,0.03268360,0.12
 413026,-0.20709468,0.00411678,0.01429036,-0.01751052,-0.00241863,-0.00
 655592,0.00984495,-0.03782616,-0.13714877,0.22264006,-0.17765798,0.017
 55601,0.03668693,-0.02303546,0.00427341,0.00968737,-0.00322711,0.00119
 025,0.00107305,-0.00457078,0.00126435,0.00062965,0.51241954,0.01849193
 ,-0.08602257,-0.00758894,-0.00619509,0.00059363,0.00316373,0.03184154,
 -0.00359322,-0.01189280,-0.02088932,0.00373141,0.00678663,-0.00353247,
 0.55123404,0.03740779,-0.00689003,-0.09511017,-0.02226546,0.00451217,0
 .00977079,0.01025624,-0.00142946,-0.00445653,0.02496487,-0.00616482,-0
 .00908477,0.04800226,0.05358165,0.50511021,-0.02299592,-0.00550283,-0.
 02207860,-0.00535453,0.00134629,0.00321127,0.00132607,0.00041645,-0.00
 014207,0.00110335,-0.00054808,0.00015361,-0.16344120,-0.02748932,-0.12
 140881,0.18134096,0.00413109,0.00079279,0.00402536,0.00132038,0.000847
 53,-0.00002912,-0.00016474,0.00033306,0.00074555,-0.00045852,0.0000341
 3,-0.00013049,-0.02752385,-0.05815670,-0.03037745,0.03082365,0.0590182
 0,0.01034939,0.00245670,0.01009450,0.00332308,-0.00050199,-0.00007538,
 -0.00079311,0.00020714,0.00047848,-0.00077900,0.00011758,0.00081916,-0
 .12199212,-0.03013395,-0.17638705,0.13159861,0.03038654,0.19479143,-0.
 00419688,0.03139400,0.01045610,0.00133727,-0.00011473,-0.00083694,-0.0
 0598221,0.00096212,0.00266324,0.00129216,-0.00055555,-0.00025806,-0.05
 155956,0.02036087,0.00411456,0.00212429,-0.02212834,-0.00611341,0.0570
 5685,0.00048545,-0.00360215,-0.00130545,0.00035594,0.00026213,0.000337
 34,0.00068166,0.00133148,-0.00005255,0.00033905,0.00060443,-0.00037823
 ,0.01997681,-0.27867994,-0.06942359,-0.00024696,-0.00474691,-0.0017727
 6,-0.02259114,0.30437789,0.00138784,-0.01201812,-0.00406218,-0.0000073
 1,0.00067987,0.00062086,0.00288026,0.00007715,0.00003965,-0.00041804,-
 0.00006705,-0.00006936,0.00362431,-0.06997025,-0.07039103,0.00234421,-
 0.02326620,-0.00697359,-0.01021570,0.07480714,0.07675551,-0.00698268,-
 0.01969832,0.02526441,0.00079469,-0.00059624,0.00047503,0.00148839,0.0
 0014503,-0.00067729,-0.00586973,0.00085974,0.00261365,-0.07861257,-0.0
 1458002,0.00633591,0.00384284,0.01361430,-0.01817072,-0.00081565,-0.00
 036953,0.00081745,0.46965783,-0.00278002,0.00418072,-0.00273996,0.0004
 3891,0.00003479,0.00006285,0.00025756,0.00005410,-0.00081812,0.0023609
 7,0.00051687,-0.00123213,-0.00963940,-0.10369353,0.03335132,0.00129210
 ,0.00185786,-0.00337638,-0.00554434,-0.01992661,0.02662554,0.02240432,
 0.47352228,0.00649433,0.00653381,-0.01169434,-0.00202533,-0.00051862,0
 .00149364,-0.00086691,0.00021252,0.00031719,0.00050523,-0.00057795,0.0
 0032578,0.00762391,0.04363686,-0.13157424,0.00454262,0.01575979,-0.022
 05898,-0.00194213,-0.00550433,0.00536163,0.09400224,0.02029764,0.50018
 553,0.00112950,0.00018962,0.00073350,0.00033203,-0.00007214,-0.0003761
 1,-0.00003610,0.00005184,0.00006961,0.00021173,0.00009507,-0.00004361,
 0.00412877,0.00106857,0.00485643,0.00041947,-0.00056910,0.00186871,0.0
 0009854,0.00050294,-0.00041080,-0.16834470,-0.02677319,-0.12072579,0.1
 8782570,0.00072940,0.00046979,-0.00082404,-0.00035582,0.00013516,-0.00
 022866,-0.00016909,0.00004278,0.00002485,0.00019863,-0.00009627,-0.000
 18860,0.01353711,0.00201701,0.01511536,-0.00070338,-0.00186460,0.00360
 917,0.00039852,0.00062033,-0.00063067,-0.02554320,-0.05526392,-0.02227
 407,0.02590792,0.06365501,-0.00159516,-0.00083246,0.00090996,0.0013375
 9,0.00019023,0.00013137,0.00009631,-0.00004717,-0.00008465,0.00020355,
 0.00009023,0.00055151,-0.01809754,-0.00283327,-0.02077617,0.00132663,0
 .00368246,-0.00356963,0.00019854,0.00019592,0.00097588,-0.12012049,-0.
 02324829,-0.16521579,0.12940537,0.02614519,0.18355381,0.00007440,-0.00
 013308,-0.00013329,0.00017526,-0.00001853,0.00024767,-0.00028307,0.000
 10529,0.00032422,0.00025273,0.00049770,-0.00002425,-0.01084052,-0.0012
 0552,0.00865534,0.00088536,0.00065533,-0.00192620,0.00012318,0.0013413
 5,-0.00077718,-0.13164834,0.00730870,0.01650489,-0.02595529,0.00770053
 ,0.01030635,0.48355954,-0.00040468,-0.00348432,0.00364116,0.00012885,0
 .00006127,-0.00016495,0.00016024,0.00007827,-0.00001791,-0.00142313,0.
 00012594,0.00088996,-0.01673046,0.00639783,0.00775110,0.00008483,0.000
 08085,-0.00039701,-0.00138653,-0.00003860,0.00101688,0.02707906,-0.075
 59033,-0.01239562,-0.00339519,0.00178185,0.00151252,0.02821825,0.55799
 884,-0.00036506,0.00269729,-0.00390519,0.00023554,0.00019551,0.0002173
 3,0.00003004,-0.00015772,-0.00009547,0.00150391,-0.00022263,-0.0003054
 5,0.02906280,-0.00358109,-0.01568102,0.00026399,-0.00072217,0.00068868
 ,-0.00001103,-0.00182168,0.00100266,0.02161201,-0.00253369,-0.08305715
 ,-0.01936605,0.00613486,0.00741532,0.06501522,0.01848934,0.50715292,-0
 .00000016,-0.00000297,-0.00024936,-0.00003203,0.00002166,-0.00000800,0
 .00013963,-0.00008740,-0.00012373,0.00006159,-0.00007344,-0.00003976,0
 .00092100,0.00128104,-0.00082987,0.00001623,-0.00018520,0.00006652,-0.
 00008369,-0.00080721,0.00041629,-0.00242946,0.02943071,0.00924420,0.00
 120189,-0.00044078,-0.00073677,-0.04973654,-0.01250327,-0.00545292,0.0
 5400308,0.00017802,0.00063354,0.00006376,0.00002106,-0.00004536,-0.000
 00024,-0.00028735,0.00005500,0.00021160,0.00007240,0.00002614,-0.00003
 937,-0.00124064,-0.00004354,0.00112461,0.00007429,0.00006039,0.0000691
 3,0.00004264,0.00126451,-0.00034228,-0.00060766,-0.01041910,-0.0027809
 5,0.00030845,0.00037219,0.00040261,-0.01299544,-0.29044846,-0.04672819
 ,0.01426291,0.31782571,-0.00000728,0.00029686,0.00004633,-0.00004790,-
 0.00000494,0.00000032,-0.00018320,0.00006891,0.00009654,0.00001254,0.0
 0002451,-0.00002121,-0.00014086,-0.00162165,0.00011895,0.00003523,-0.0
 0001398,-0.00005781,0.00062967,0.00073260,-0.00030811,0.00008981,-0.01
 187883,-0.00405793,-0.00000553,0.00062866,0.00039894,-0.00511163,-0.04
 685406,-0.05836202,-0.00038322,0.04883850,0.06442780,0.00015821,0.0000
 6825,0.00045161,0.00037031,0.00003168,-0.00003308,0.00001038,0.0000088
 0,-0.00004823,-0.00002279,-0.00002184,0.00012657,0.00083875,0.00033736
 ,-0.00198467,0.00026520,-0.00019614,0.00128911,-0.00005520,-0.00005208
 ,0.00013538,-0.02453919,-0.00340544,-0.01848946,-0.00474991,0.00198942
 ,0.00297311,-0.18075078,-0.02710796,-0.12410322,-0.00095014,-0.0006527
 3,-0.00072896,0.19971714,0.00003955,-0.00006920,0.00012831,0.00000368,
 -0.00004961,0.00000009,0.00003677,-0.00000629,-0.00001006,-0.00005716,
 -0.00000598,-0.00001749,-0.00053028,-0.00007716,-0.00001644,-0.0002061
 7,0.00027579,0.00012803,-0.00008049,0.00005230,-0.00017165,0.00812249,
 0.00047169,0.00628512,0.00220697,0.00012086,-0.00038478,-0.02736378,-0
 .05710570,-0.02582925,-0.02438426,-0.00419587,-0.02213134,0.02923373,0
 .05732449,0.00013822,-0.00002213,0.00023800,-0.00000545,-0.00000849,-0
 .00015613,-0.00000209,0.00000610,0.00000565,-0.00009224,-0.00000035,-0
 .00001474,0.00017657,-0.00015355,0.00109627,-0.00008799,-0.00017808,0.
 00011744,-0.00004312,0.00009200,-0.00000953,0.00983519,0.00183275,0.00
 809991,0.00283466,-0.00064808,-0.00034384,-0.12326110,-0.02554055,-0.1
 6240684,-0.00414017,-0.00128197,-0.00422027,0.13283502,0.02616160,0.17
 982578,0.00037446,-0.00119962,0.00168691,0.00006225,-0.00002737,-0.000
 13276,0.00005672,0.00003780,-0.00004688,-0.00066199,0.00000324,0.00030
 195,-0.00529963,0.00273972,0.00121167,0.00024082,0.00011832,0.00046857
 ,-0.00004205,-0.00000851,-0.00026271,-0.00739531,-0.01403806,0.0258858
 3,0.00114190,-0.00070275,0.00050787,-0.08543899,-0.01232937,0.01916972
 ,-0.00065927,-0.00133470,0.00242291,0.00665315,0.01267052,-0.02071764,
 0.57161713,0.00021109,0.00116948,-0.00058235,0.00002464,-0.00001952,0.
 00002429,-0.00017289,-0.00004466,0.00006762,0.00038521,-0.00000436,-0.
 00019966,0.00225847,-0.00152750,-0.00075153,0.00000628,-0.00005040,0.0
 0015063,0.00010741,0.00065643,0.00001069,-0.00026003,0.00654397,-0.008
 29534,-0.00014358,0.00001467,0.00010177,-0.01134980,-0.11153134,0.0471
 8886,-0.00775004,-0.01565870,0.03075325,0.00122977,0.00218326,-0.00397
 425,-0.01294654,0.55495154,-0.00021178,0.00051580,0.00009842,0.0000437
 6,-0.00002118,-0.00002445,-0.00004491,0.00002632,0.00001093,0.00008468
 ,-0.00001979,-0.00001488,0.00095408,-0.00128086,-0.00043591,0.00013932
 ,0.00003658,0.00014448,-0.00005075,0.00033494,0.00010517,0.00669919,0.
 00414810,-0.01321652,-0.00179153,-0.00005317,0.00136497,0.01962382,0.0
 4889393,-0.16239444,-0.00136755,-0.00244743,0.00445385,0.00652097,0.01
 266404,-0.02085160,0.01629866,0.04019485,0.50310311,-0.00001102,0.0000
 4513,-0.00003923,0.00000084,-0.00000230,0.00000619,-0.00004168,0.00001
 372,0.00005135,0.00001574,0.00002107,-0.00001399,0.00003039,-0.0000563
 5,0.00020813,-0.00000034,0.00000150,-0.00002295,-0.00000027,0.00017255
 ,-0.00003604,0.00005499,-0.00053532,-0.00063740,-0.00000545,-0.0000153
 6,0.00003975,-0.00112273,-0.00759164,-0.00175963,0.00059489,-0.0005995
 2,0.00152948,0.00017612,0.00069688,0.00008707,-0.05275441,-0.02335806,
 -0.00475490,0.05120325,0.00004067,0.00002560,0.00001746,-0.00000670,-0
 .00000262,-0.00000165,-0.00005092,0.00003917,0.00004460,-0.00002163,0.
 00000558,0.00001970,-0.00010037,-0.00007332,0.00012066,0.00001443,-0.0
 0001106,0.00001496,0.00004515,0.00021625,-0.00006384,0.00005240,-0.000
 08443,-0.00031239,-0.00002257,0.00002464,0.00004428,-0.00142919,-0.015
 58957,-0.00215807,-0.00067159,-0.00011629,0.00341690,0.00039939,0.0006
 5484,0.00010281,-0.02381061,-0.30213981,-0.04361776,0.02618986,0.32956
 689,0.00000989,-0.00017207,0.00002020,0.00000546,-0.00000339,-0.000006
 38,0.00008334,-0.00001378,-0.00005446,-0.00002995,-0.00000677,0.000012
 55,-0.00013082,0.00022051,-0.00011631,-0.00001626,0.00001405,0.0000010
 1,-0.00005428,-0.00030318,0.00003961,-0.00038648,-0.00028818,0.0012761
 4,0.00008704,-0.00009103,-0.00004913,0.00241804,0.03095727,0.00602001,
 0.00188242,0.00317194,-0.00511871,-0.00051163,-0.00063982,0.00136405,-
 0.00496368,-0.04439241,-0.05656097,0.00396221,0.04597422,0.06028034,0.
 00006592,-0.00018766,0.00017631,-0.00000913,0.00001249,-0.00002292,0.0
 0000459,0.00002081,-0.00001320,-0.00009782,-0.00000170,0.00004603,-0.0
 0029611,0.00062797,0.00008473,-0.00000172,-0.00005446,0.00011698,-0.00
 001392,-0.00003965,-0.00002023,0.00092504,-0.00136462,0.00133225,0.000
 56311,0.00001399,-0.00010872,-0.00541474,0.00209897,0.00118623,0.00004
 217,-0.00046464,-0.00014279,0.00069738,-0.00011942,0.00028877,-0.24585
 934,0.07743726,0.08380460,0.00410215,-0.00093925,-0.00218608,0.2649951
 8,0.00002747,-0.00023152,0.00021711,0.00000033,-0.00000091,-0.00001425
 ,0.00000905,0.00001766,0.00000796,-0.00011080,0.00000776,0.00005102,-0
 .00077046,0.00044145,0.00049077,0.00002169,0.00000203,0.00003093,-0.00
 000164,-0.00000220,-0.00006981,-0.00040363,-0.00142653,0.00300899,0.00
 028146,-0.00012194,-0.00010526,-0.01640976,0.00583230,0.00631507,-0.00
 018879,0.00064871,-0.00075591,0.00038131,0.00043840,-0.00071392,0.0778
 0176,-0.07990601,-0.03394607,0.02942858,-0.00981403,-0.01136270,-0.085
 18404,0.08295860,-0.00009962,0.00051310,-0.00053053,0.00001077,0.00000
 125,0.00004156,-0.00002768,-0.00003132,0.00002042,0.00025664,-0.000000
 91,-0.00012751,0.00173347,-0.00092550,-0.00005502,-0.00007263,-0.00006
 883,-0.00004673,0.00000285,0.00007099,0.00005225,-0.00090205,0.0036727
 8,-0.00449742,0.00015608,0.00014633,0.00027307,0.02545810,-0.01125607,
 -0.01054522,-0.00039580,0.00007127,0.00124008,-0.00053796,-0.00079338,
 0.00072343,0.08331361,-0.03368564,-0.08462236,0.00458614,-0.00193563,-
 0.00285616,-0.09341126,0.03464725,0.09092893,-0.00003681,0.00005140,-0
 .00010897,-0.00000745,0.00000291,0.00000889,-0.00000620,-0.00000325,0.
 00000945,0.00004102,0.00000660,-0.00003043,0.00027897,-0.00013886,0.00
 020958,-0.00015186,-0.00003702,0.00001408,-0.00000744,0.00001363,-0.00
 001299,0.00128950,0.00024660,0.00059856,0.00027444,-0.00013041,-0.0004
 1091,0.00608353,0.00191188,0.00605562,0.00026997,0.00055405,-0.0005311
 9,0.00064803,-0.00060487,0.00209481,-0.18161745,-0.02584384,-0.1266468
 9,-0.00192647,-0.00029374,-0.00051320,-0.01983083,-0.00519473,-0.01998
 394,0.19463520,-0.00003198,-0.00000739,-0.00007443,-0.00002121,0.00001
 278,0.00001169,-0.00000710,-0.00000042,-0.00000133,0.00000969,-0.00000
 436,0.00000658,0.00014910,-0.00002391,-0.00003966,-0.00003591,-0.00003
 241,-0.00009606,0.00002561,-0.00004979,0.00002203,0.00029769,0.0003219
 7,-0.00063801,-0.00026869,0.00014597,-0.00018877,0.01314897,0.00245354
 ,0.01236630,0.00060602,0.00054995,-0.00060886,-0.00106114,-0.00093795,
 0.00347971,-0.02608214,-0.05565519,-0.02601171,-0.02468451,-0.00303660
 ,-0.02259944,0.00840471,0.00115480,0.00904286,0.02944730,0.05519789,0.
 00003455,0.00000578,0.00005474,0.00008284,0.00001224,-0.00001423,0.000
 00733,-0.00000538,-0.00000332,0.00000671,0.00000554,-0.00000192,0.0002
 6400,0.00020099,0.00017742,0.00003956,-0.00009109,0.00035506,-0.000059
 01,-0.00001906,-0.00001553,-0.00209666,-0.00044269,0.00076425,0.001391
 26,0.00000214,0.00017795,-0.02083379,-0.00449826,-0.02107394,0.0002424
 7,0.00007974,0.00127826,0.00204807,0.00354314,-0.00428250,-0.12633576,
 -0.02581400,-0.17038790,-0.00344266,-0.00093008,-0.00383365,0.00894352
 ,0.00265729,0.00981907,0.13943840,0.02536912,0.18690101,-0.00059735,-0
 .00098490,0.00126112,0.00009783,0.00006627,-0.00019688,0.00025527,-0.0
 0081383,-0.00049494,0.00019101,-0.00061400,-0.00008362,-0.00028545,-0.
 00199249,-0.00021077,0.00028182,0.00108552,0.00038403,0.00068722,0.000
 48527,0.00025080,-0.05653174,0.00173366,-0.02212197,0.00040283,-0.0223
 3861,-0.00585789,0.00024498,0.02421563,0.00659930,-0.00365812,0.002824
 11,0.00263238,0.00130514,0.00036159,0.00022198,-0.00057990,-0.00013703
 ,0.00066488,0.00026596,0.00076375,-0.00013791,0.00007970,0.00060119,-0
 .00005645,0.00010548,0.00015374,0.00029659,0.22159733,-0.00020940,0.00
 083258,-0.00069720,-0.00017012,-0.00011557,0.00000435,-0.00009954,-0.0
 0021918,0.00009125,0.00072140,-0.00007381,-0.00043140,-0.00045517,-0.0
 3064607,0.00391920,-0.00005353,0.00159309,-0.00192012,-0.00089960,-0.0
 0158560,0.00192119,-0.00333924,-0.20823335,-0.03798097,0.00075479,-0.0
 0783322,-0.00284749,0.01420199,-0.01972733,-0.01006617,0.00058552,-0.0
 0028660,-0.00074924,-0.00199313,0.00082579,0.00064235,-0.00099694,0.00
 135728,0.00033311,-0.00005276,-0.00010932,-0.00028787,-0.00029105,-0.0
 0030450,0.00074564,0.00007475,0.00002979,-0.00003536,-0.05412999,0.546
 87699,0.00020377,0.00107364,-0.00060375,0.00013109,-0.00007791,0.00002
 809,0.00029335,0.00029598,0.00019615,0.00005666,0.00037557,0.00001048,
 -0.00032873,0.02266099,0.00807147,0.00001751,0.00096165,0.00076957,0.0
 0128108,0.00434406,-0.00365831,-0.02361366,-0.03594572,-0.08688882,0.0
 0036867,-0.02606122,-0.00734186,0.00391009,-0.01227455,-0.00463108,0.0
 0162584,-0.00025700,0.00007878,-0.00061707,0.00146659,0.00076374,0.000
 61895,-0.00101502,-0.00063212,0.00000192,-0.00051449,0.00013815,-0.000
 07268,-0.00044048,0.00022954,-0.00016749,-0.00012847,-0.00005836,0.246
 00193,-0.00488238,0.47022293,-0.00000983,-0.00006991,-0.00002075,-0.00
 000471,-0.00003415,-0.00000319,-0.00008860,-0.00000683,0.00016793,-0.0
 0000844,0.00006250,-0.00001513,-0.00021205,-0.00115924,0.00122019,0.00
 003814,-0.00011929,0.00010392,0.00008352,-0.00027555,0.00002088,0.0036
 5240,-0.00232864,-0.00216853,0.00044185,0.00018170,0.00112364,-0.00092
 744,-0.00049004,0.00065482,0.00028871,-0.00000779,0.00014058,0.0002722
 1,0.00001985,0.00006995,0.00015111,0.00028319,0.00003140,-0.00047704,-
 0.00006591,0.00032266,0.00003010,-0.00022813,-0.00002546,-0.00002420,-
 0.00000436,0.00000755,-0.06639616,0.08461314,-0.08920327,0.06539100,0.
 00035403,-0.00011341,-0.00004511,-0.00010052,-0.00003962,-0.00002794,-
 0.00016106,0.00015083,0.00016553,-0.00016448,0.00006813,0.00005370,0.0
 0090082,-0.00380283,-0.00303378,0.00014305,0.00013903,0.00007265,-0.00
 039535,-0.00102229,0.00116534,0.00898945,-0.00998203,0.01775495,-0.000
 36104,0.00140686,-0.00007206,-0.00102808,-0.00165570,0.00037944,0.0005
 1964,-0.00023116,-0.00036388,0.00006280,0.00003484,-0.00000155,0.00000
 968,-0.00022530,0.00016950,0.00026350,0.00036960,-0.00012896,-0.000015
 09,0.00022382,-0.00013943,-0.00002707,-0.00006572,-0.00014481,0.086577
 91,-0.20103393,0.11930078,-0.09092425,0.20685102,-0.00004622,0.0001797
 1,0.00019097,0.00005092,0.00007556,0.00002131,-0.00014483,-0.00005091,
 -0.00014724,-0.00000993,-0.00006186,0.00001424,0.00041874,-0.00056727,
 -0.00126061,0.00025151,-0.00023134,0.00036653,0.00013201,-0.00023397,0
 .00047105,0.00329542,-0.00810520,0.00908334,0.00025306,0.00066356,0.00
 060014,0.00027049,-0.00034821,-0.00050030,0.00007347,-0.00018418,-0.00
 011713,0.00007064,-0.00011579,0.00000948,0.00040349,0.00036573,-0.0001
 0706,0.00028344,-0.00030834,-0.00032034,-0.00005597,-0.00001809,-0.000
 02878,-0.00002716,-0.00002085,-0.00004135,-0.09264978,0.12052585,-0.14
 677513,0.09505213,-0.12833526,0.14744422,0.00011598,-0.00031025,-0.000
 16923,0.00006373,0.00012774,0.00003368,-0.00042276,0.00003567,0.000208
 73,-0.00004618,0.00015285,0.00008181,0.00042101,0.00048966,-0.00082811
 ,0.00006101,-0.00031345,0.00021450,-0.00004615,0.00003598,0.00028358,0
 .00146370,0.00093550,0.00224345,0.00091967,-0.00025783,-0.00059122,0.0
 0071947,-0.00053546,-0.00033128,0.00001023,-0.00014747,-0.00021005,-0.
 00004401,-0.00004559,-0.00023243,0.00001080,0.00001849,0.00000296,-0.0
 0010492,-0.00009317,0.00015922,0.00001825,-0.00006087,-0.00000480,-0.0
 0001742,-0.00004579,-0.00003497,-0.09746586,-0.03826112,-0.14050796,-0
 .00220059,-0.00464394,-0.00762143,0.09654405,0.00001000,-0.00016625,0.
 00022271,0.00020615,0.00008297,-0.00002366,-0.00021720,0.00004395,0.00
 005436,-0.00008551,0.00005350,0.00009384,-0.00058324,0.00192491,-0.001
 84008,0.00056313,-0.00017266,0.00095479,0.00036137,0.00026832,0.000274
 05,-0.01616660,-0.00288442,-0.02221142,0.00023787,-0.00562718,-0.00180
 567,-0.00124494,0.00036066,0.00005400,0.00038745,0.00000893,0.00022248
 ,0.00074796,0.00006549,0.00020559,0.00009554,-0.00011384,0.00008081,0.
 00006303,0.00007448,-0.00004841,0.00004537,0.00008210,-0.00007478,-0.0
 0003533,-0.00005295,0.00010476,-0.03785780,-0.08134701,-0.06888203,0.0
 1055371,0.00892786,0.01677082,0.04291904,0.07847117,0.00001294,-0.0001
 5145,0.00012674,0.00004795,0.00006005,-0.00001431,-0.00002189,0.000080
 05,-0.00004428,-0.00001567,-0.00002969,0.00002632,0.00075293,0.0002977
 7,0.00098371,-0.00011772,-0.00050324,0.00054283,0.00010636,-0.00010019
 ,0.00006337,-0.00507296,0.00061821,-0.00464620,0.00069502,-0.00147058,
 0.00102814,-0.00066680,0.00059502,0.00046119,0.00017594,0.00002843,0.0
 0012334,0.00060381,-0.00026693,0.00004169,0.00016929,-0.00014749,-0.00
 003272,-0.00004887,0.00008665,-0.00023596,0.00005443,0.00000010,-0.000
 01864,0.00000379,0.00010929,0.00018494,-0.13650279,-0.06828473,-0.2299
 1948,-0.00747931,-0.00676912,-0.00890337,0.14730353,0.07584785,0.24023
 270\\-0.00000009,-0.00000022,-0.00000014,-0.00000006,-0.00000002,-0.00
 000019,0.,-0.00000027,0.00000005,-0.00000010,-0.00000037,-0.00000028,-
 0.00000005,-0.00000018,-0.00000018,-0.00000007,-0.00000038,-0.00000012
 ,-0.00000013,-0.00000012,-0.00000037,0.00000002,0.00000001,0.00000002,
 0.,0.00000022,-0.00000004,0.,0.00000008,-0.00000007,-0.00000007,0.0000
 0013,-0.00000026,-0.00000003,-0.00000011,0.,0.00000004,0.00000030,0.00
 000011,0.00000011,0.00000027,0.00000029,0.00000004,0.00000034,0.000000
 03,0.00000006,0.00000051,0.00000005,0.00000009,-0.00000005,0.00000026,
 0.00000012,0.00000011,0.00000045,0.00000010,-0.00000024,0.00000038\\\@


 THE THINKER DIES, BUT HIS THOUGHTS ARE BEYOND THE 
 REACH OF DESTRUCTION.  MEN ARE MORTAL; BUT IDEAS 
 ARE IMMORTAL.
                              -- WALTER LIPPMANN
 Job cpu time:       0 days  0 hours 21 minutes 40.7 seconds.
 File lengths (MBytes):  RWF=     64 Int=      0 D2E=      0 Chk=      3 Scr=      1
 Normal termination of Gaussian 09 at Mon Apr 11 11:14:21 2016.
