 Entering Gaussian System, Link 0=/home/hetanjin/apps/g09D01/g09/g09
 Input=C6H14_5_r003_C6_2_opt_B3L.gjf
 Output=C6H14_5_r003_C6_2_opt_B3L.log
 Initial command:
 /home/hetanjin/apps/g09D01/g09/l1.exe "/state/partition1/Gau-3897.inp" -scrdir="/state/partition1/"
 Entering Link 1 = /home/hetanjin/apps/g09D01/g09/l1.exe PID=      3901.
  
 Copyright (c) 1988,1990,1992,1993,1995,1998,2003,2009,2013,
            Gaussian, Inc.  All Rights Reserved.
  
 This is part of the Gaussian(R) 09 program.  It is based on
 the Gaussian(R) 03 system (copyright 2003, Gaussian, Inc.),
 the Gaussian(R) 98 system (copyright 1998, Gaussian, Inc.),
 the Gaussian(R) 94 system (copyright 1995, Gaussian, Inc.),
 the Gaussian 92(TM) system (copyright 1992, Gaussian, Inc.),
 the Gaussian 90(TM) system (copyright 1990, Gaussian, Inc.),
 the Gaussian 88(TM) system (copyright 1988, Gaussian, Inc.),
 the Gaussian 86(TM) system (copyright 1986, Carnegie Mellon
 University), and the Gaussian 82(TM) system (copyright 1983,
 Carnegie Mellon University). Gaussian is a federally registered
 trademark of Gaussian, Inc.
  
 This software contains proprietary and confidential information,
 including trade secrets, belonging to Gaussian, Inc.
  
 This software is provided under written license and may be
 used, copied, transmitted, or stored only in accord with that
 written license.
  
 The following legend is applicable only to US Government
 contracts under FAR:
  
                    RESTRICTED RIGHTS LEGEND
  
 Use, reproduction and disclosure by the US Government is
 subject to restrictions as set forth in subparagraphs (a)
 and (c) of the Commercial Computer Software - Restricted
 Rights clause in FAR 52.227-19.
  
 Gaussian, Inc.
 340 Quinnipiac St., Bldg. 40, Wallingford CT 06492
  
  
 ---------------------------------------------------------------
 Warning -- This program may not be used in any manner that
 competes with the business of Gaussian, Inc. or will provide
 assistance to any competitor of Gaussian, Inc.  The licensee
 of this program is prohibited from giving any competitor of
 Gaussian, Inc. access to this program.  By using this program,
 the user acknowledges that Gaussian, Inc. is engaged in the
 business of creating and licensing software in the field of
 computational chemistry and represents and warrants to the
 licensee that it is not a competitor of Gaussian, Inc. and that
 it will not use this program in any manner prohibited above.
 ---------------------------------------------------------------
  

 Cite this work as:
 Gaussian 09, Revision D.01,
 M. J. Frisch, G. W. Trucks, H. B. Schlegel, G. E. Scuseria, 
 M. A. Robb, J. R. Cheeseman, G. Scalmani, V. Barone, B. Mennucci, 
 G. A. Petersson, H. Nakatsuji, M. Caricato, X. Li, H. P. Hratchian, 
 A. F. Izmaylov, J. Bloino, G. Zheng, J. L. Sonnenberg, M. Hada, 
 M. Ehara, K. Toyota, R. Fukuda, J. Hasegawa, M. Ishida, T. Nakajima, 
 Y. Honda, O. Kitao, H. Nakai, T. Vreven, J. A. Montgomery, Jr., 
 J. E. Peralta, F. Ogliaro, M. Bearpark, J. J. Heyd, E. Brothers, 
 K. N. Kudin, V. N. Staroverov, T. Keith, R. Kobayashi, J. Normand, 
 K. Raghavachari, A. Rendell, J. C. Burant, S. S. Iyengar, J. Tomasi, 
 M. Cossi, N. Rega, J. M. Millam, M. Klene, J. E. Knox, J. B. Cross, 
 V. Bakken, C. Adamo, J. Jaramillo, R. Gomperts, R. E. Stratmann, 
 O. Yazyev, A. J. Austin, R. Cammi, C. Pomelli, J. W. Ochterski, 
 R. L. Martin, K. Morokuma, V. G. Zakrzewski, G. A. Voth, 
 P. Salvador, J. J. Dannenberg, S. Dapprich, A. D. Daniels, 
 O. Farkas, J. B. Foresman, J. V. Ortiz, J. Cioslowski, 
 and D. J. Fox, Gaussian, Inc., Wallingford CT, 2013.
 
 ******************************************
 Gaussian 09:  ES64L-G09RevD.01 24-Apr-2013
                 7-Nov-2015 
 ******************************************
 %mem=6GB
 %nprocshared=4
 Will use up to    4 processors via shared memory.
 ----------------------------------------------
 #p B3LYP/6-31G(d) opt=tight int=ultrafine freq
 ----------------------------------------------
 1/7=10,14=-1,18=20,19=15,26=4,38=1/1,3;
 2/9=110,12=2,17=6,18=5,40=1/2;
 3/5=1,6=6,7=1,11=2,16=1,25=1,30=1,71=1,74=-5,75=-5/1,2,3;
 4//1;
 5/5=2,38=5/2;
 6/7=2,8=2,9=2,10=2,28=1/1;
 7//1,2,3,16;
 1/7=10,14=-1,18=20,19=15,26=4/3(2);
 2/9=110/2;
 99//99;
 2/9=110/2;
 3/5=1,6=6,7=1,11=2,16=1,25=1,30=1,71=1,74=-5,75=-5/1,2,3;
 4/5=5,16=3,69=1/1;
 5/5=2,38=5/2;
 7//1,2,3,16;
 1/7=10,14=-1,18=20,19=15,26=4/3(-5);
 2/9=110/2;
 6/7=2,8=2,9=2,10=2,19=2,28=1/1;
 99/9=1/99;
 Leave Link    1 at Sat Nov  7 02:12:02 2015, MaxMem=   805306368 cpu:         0.1
 (Enter /home/hetanjin/apps/g09D01/g09/l101.exe)
 ---------------------------------------------
 using B3LYP/6-31G(d) to do opt and freq calc.
 ---------------------------------------------
 Symbolic Z-matrix:
 Charge =  0 Multiplicity = 2
 C                     1.61803   0.98966  -0.00005 
 H                     1.59367   1.63643   0.88596 
 H                     1.59367   1.63635  -0.88611 
 H                     2.57832   0.45929  -0.00002 
 C                     0.43635  -0.0005    0. 
 C                    -0.87859   0.82391  -0.00003 
 H                    -0.86571   1.48649  -0.87756 
 C                    -2.19348   0.03388  0. 
 H                    -2.28903  -0.60502   0.88496 
 H                    -3.04849   0.71981  -0.00001 
 H                    -2.28904  -0.60506  -0.88493 
 C                     0.5289   -0.88501  -1.25865 
 H                    -0.26244  -1.64248  -1.28525 
 H                     0.44851  -0.28292  -2.17262 
 H                     1.4897   -1.41334  -1.29204 
 C                     0.52891  -0.8849    1.25873 
 H                     1.4897   -1.41324   1.29215 
 H                     0.44854  -0.28273   2.17265 
 H                    -0.26244  -1.64236   1.2854 
 
 NAtoms=     19 NQM=       19 NQMF=       0 NMMI=      0 NMMIF=      0
                NMic=       0 NMicF=      0.
                    Isotopes and Nuclear Properties:
 (Nuclear quadrupole moments (NQMom) in fm**2, nuclear magnetic moments (NMagM)
  in nuclear magnetons)

  Atom         1           2           3           4           5           6           7           8           9          10
 IAtWgt=          12           1           1           1          12          12           1          12           1           1
 AtmWgt=  12.0000000   1.0078250   1.0078250   1.0078250  12.0000000  12.0000000   1.0078250  12.0000000   1.0078250   1.0078250
 NucSpn=           0           1           1           1           0           0           1           0           1           1
 AtZEff=   0.0000000   0.0000000   0.0000000   0.0000000   0.0000000   0.0000000   0.0000000   0.0000000   0.0000000   0.0000000
 NQMom=    0.0000000   0.0000000   0.0000000   0.0000000   0.0000000   0.0000000   0.0000000   0.0000000   0.0000000   0.0000000
 NMagM=    0.0000000   2.7928460   2.7928460   2.7928460   0.0000000   0.0000000   2.7928460   0.0000000   2.7928460   2.7928460
 AtZNuc=   6.0000000   1.0000000   1.0000000   1.0000000   6.0000000   6.0000000   1.0000000   6.0000000   1.0000000   1.0000000

  Atom        11          12          13          14          15          16          17          18          19
 IAtWgt=           1          12           1           1           1          12           1           1           1
 AtmWgt=   1.0078250  12.0000000   1.0078250   1.0078250   1.0078250  12.0000000   1.0078250   1.0078250   1.0078250
 NucSpn=           1           0           1           1           1           0           1           1           1
 AtZEff=   0.0000000   0.0000000   0.0000000   0.0000000   0.0000000   0.0000000   0.0000000   0.0000000   0.0000000
 NQMom=    0.0000000   0.0000000   0.0000000   0.0000000   0.0000000   0.0000000   0.0000000   0.0000000   0.0000000
 NMagM=    2.7928460   0.0000000   2.7928460   2.7928460   2.7928460   0.0000000   2.7928460   2.7928460   2.7928460
 AtZNuc=   1.0000000   6.0000000   1.0000000   1.0000000   1.0000000   6.0000000   1.0000000   1.0000000   1.0000000
 Leave Link  101 at Sat Nov  7 02:12:02 2015, MaxMem=   805306368 cpu:         0.8
 (Enter /home/hetanjin/apps/g09D01/g09/l103.exe)

 GradGradGradGradGradGradGradGradGradGradGradGradGradGradGradGradGradGrad
 Berny optimization.
 Initialization pass.
                           ----------------------------
                           !    Initial Parameters    !
                           ! (Angstroms and Degrees)  !
 --------------------------                            --------------------------
 ! Name  Definition              Value          Derivative Info.                !
 --------------------------------------------------------------------------------
 ! R1    R(1,2)                  1.0972         estimate D2E/DX2                !
 ! R2    R(1,3)                  1.0972         estimate D2E/DX2                !
 ! R3    R(1,4)                  1.097          estimate D2E/DX2                !
 ! R4    R(1,5)                  1.5417         estimate D2E/DX2                !
 ! R5    R(5,6)                  1.552          estimate D2E/DX2                !
 ! R6    R(5,12)                 1.5411         estimate D2E/DX2                !
 ! R7    R(5,16)                 1.5411         estimate D2E/DX2                !
 ! R8    R(6,7)                  1.0996         estimate D2E/DX2                !
 ! R9    R(6,8)                  1.534          estimate D2E/DX2                !
 ! R10   R(8,9)                  1.0957         estimate D2E/DX2                !
 ! R11   R(8,10)                 1.0961         estimate D2E/DX2                !
 ! R12   R(8,11)                 1.0957         estimate D2E/DX2                !
 ! R13   R(12,13)                1.0958         estimate D2E/DX2                !
 ! R14   R(12,14)                1.0974         estimate D2E/DX2                !
 ! R15   R(12,15)                1.097          estimate D2E/DX2                !
 ! R16   R(16,17)                1.097          estimate D2E/DX2                !
 ! R17   R(16,18)                1.0974         estimate D2E/DX2                !
 ! R18   R(16,19)                1.0958         estimate D2E/DX2                !
 ! A1    A(2,1,3)              107.7092         estimate D2E/DX2                !
 ! A2    A(2,1,4)              107.7219         estimate D2E/DX2                !
 ! A3    A(2,1,5)              111.195          estimate D2E/DX2                !
 ! A4    A(3,1,4)              107.722          estimate D2E/DX2                !
 ! A5    A(3,1,5)              111.195          estimate D2E/DX2                !
 ! A6    A(4,1,5)              111.1274         estimate D2E/DX2                !
 ! A7    A(1,5,6)              107.9534         estimate D2E/DX2                !
 ! A8    A(1,5,12)             108.8179         estimate D2E/DX2                !
 ! A9    A(1,5,16)             108.8179         estimate D2E/DX2                !
 ! A10   A(6,5,12)             110.8381         estimate D2E/DX2                !
 ! A11   A(6,5,16)             110.8381         estimate D2E/DX2                !
 ! A12   A(12,5,16)            109.5162         estimate D2E/DX2                !
 ! A13   A(5,6,7)              108.0687         estimate D2E/DX2                !
 ! A14   A(5,6,8)              116.915          estimate D2E/DX2                !
 ! A15   A(7,6,8)              108.6851         estimate D2E/DX2                !
 ! A16   A(6,8,9)              112.0296         estimate D2E/DX2                !
 ! A17   A(6,8,10)             110.2629         estimate D2E/DX2                !
 ! A18   A(6,8,11)             112.0296         estimate D2E/DX2                !
 ! A19   A(9,8,10)             107.27           estimate D2E/DX2                !
 ! A20   A(9,8,11)             107.7399         estimate D2E/DX2                !
 ! A21   A(10,8,11)            107.27           estimate D2E/DX2                !
 ! A22   A(5,12,13)            111.913          estimate D2E/DX2                !
 ! A23   A(5,12,14)            111.1551         estimate D2E/DX2                !
 ! A24   A(5,12,15)            110.724          estimate D2E/DX2                !
 ! A25   A(13,12,14)           107.8276         estimate D2E/DX2                !
 ! A26   A(13,12,15)           107.389          estimate D2E/DX2                !
 ! A27   A(14,12,15)           107.6407         estimate D2E/DX2                !
 ! A28   A(5,16,17)            110.7241         estimate D2E/DX2                !
 ! A29   A(5,16,18)            111.155          estimate D2E/DX2                !
 ! A30   A(5,16,19)            111.913          estimate D2E/DX2                !
 ! A31   A(17,16,18)           107.6408         estimate D2E/DX2                !
 ! A32   A(17,16,19)           107.3889         estimate D2E/DX2                !
 ! A33   A(18,16,19)           107.8276         estimate D2E/DX2                !
 ! D1    D(2,1,5,6)             60.0094         estimate D2E/DX2                !
 ! D2    D(2,1,5,12)          -179.6279         estimate D2E/DX2                !
 ! D3    D(2,1,5,16)           -60.3531         estimate D2E/DX2                !
 ! D4    D(3,1,5,6)            -60.01           estimate D2E/DX2                !
 ! D5    D(3,1,5,12)            60.3526         estimate D2E/DX2                !
 ! D6    D(3,1,5,16)           179.6274         estimate D2E/DX2                !
 ! D7    D(4,1,5,6)            179.9997         estimate D2E/DX2                !
 ! D8    D(4,1,5,12)           -59.6377         estimate D2E/DX2                !
 ! D9    D(4,1,5,16)            59.6371         estimate D2E/DX2                !
 ! D10   D(1,5,6,7)             57.0744         estimate D2E/DX2                !
 ! D11   D(1,5,6,8)            179.9996         estimate D2E/DX2                !
 ! D12   D(12,5,6,7)           -62.0124         estimate D2E/DX2                !
 ! D13   D(12,5,6,8)            60.9128         estimate D2E/DX2                !
 ! D14   D(16,5,6,7)           176.1612         estimate D2E/DX2                !
 ! D15   D(16,5,6,8)           -60.9136         estimate D2E/DX2                !
 ! D16   D(1,5,12,13)          177.2395         estimate D2E/DX2                !
 ! D17   D(1,5,12,14)          -62.1296         estimate D2E/DX2                !
 ! D18   D(1,5,12,15)           57.4635         estimate D2E/DX2                !
 ! D19   D(6,5,12,13)          -64.1959         estimate D2E/DX2                !
 ! D20   D(6,5,12,14)           56.435          estimate D2E/DX2                !
 ! D21   D(6,5,12,15)          176.0282         estimate D2E/DX2                !
 ! D22   D(16,5,12,13)          58.4016         estimate D2E/DX2                !
 ! D23   D(16,5,12,14)         179.0325         estimate D2E/DX2                !
 ! D24   D(16,5,12,15)         -61.3744         estimate D2E/DX2                !
 ! D25   D(1,5,16,17)          -57.4641         estimate D2E/DX2                !
 ! D26   D(1,5,16,18)           62.129          estimate D2E/DX2                !
 ! D27   D(1,5,16,19)         -177.2401         estimate D2E/DX2                !
 ! D28   D(6,5,16,17)         -176.0287         estimate D2E/DX2                !
 ! D29   D(6,5,16,18)          -56.4356         estimate D2E/DX2                !
 ! D30   D(6,5,16,19)           64.1953         estimate D2E/DX2                !
 ! D31   D(12,5,16,17)          61.3738         estimate D2E/DX2                !
 ! D32   D(12,5,16,18)        -179.0331         estimate D2E/DX2                !
 ! D33   D(12,5,16,19)         -58.4022         estimate D2E/DX2                !
 ! D34   D(5,6,8,9)             60.6085         estimate D2E/DX2                !
 ! D35   D(5,6,8,10)           179.9992         estimate D2E/DX2                !
 ! D36   D(5,6,8,11)           -60.6101         estimate D2E/DX2                !
 ! D37   D(7,6,8,9)           -176.7844         estimate D2E/DX2                !
 ! D38   D(7,6,8,10)           -57.3938         estimate D2E/DX2                !
 ! D39   D(7,6,8,11)            61.9969         estimate D2E/DX2                !
 --------------------------------------------------------------------------------
 Trust Radius=3.00D-01 FncErr=1.00D-07 GrdErr=1.00D-06
 Number of steps in this run=    100 maximum allowed number of steps=    114.
 GradGradGradGradGradGradGradGradGradGradGradGradGradGradGradGradGradGrad

 Leave Link  103 at Sat Nov  7 02:12:02 2015, MaxMem=   805306368 cpu:         0.0
 (Enter /home/hetanjin/apps/g09D01/g09/l202.exe)
                          Input orientation:                          
 ---------------------------------------------------------------------
 Center     Atomic      Atomic             Coordinates (Angstroms)
 Number     Number       Type             X           Y           Z
 ---------------------------------------------------------------------
      1          6           0        1.618032    0.989661   -0.000046
      2          1           0        1.593672    1.636429    0.885962
      3          1           0        1.593672    1.636347   -0.886113
      4          1           0        2.578316    0.459293   -0.000021
      5          6           0        0.436353   -0.000500    0.000000
      6          6           0       -0.878586    0.823914   -0.000030
      7          1           0       -0.865713    1.486486   -0.877558
      8          6           0       -2.193477    0.033880   -0.000001
      9          1           0       -2.289029   -0.605019    0.884964
     10          1           0       -3.048488    0.719808   -0.000012
     11          1           0       -2.289041   -0.605062   -0.884933
     12          6           0        0.528897   -0.885012   -1.258652
     13          1           0       -0.262439   -1.642476   -1.285245
     14          1           0        0.448512   -0.282917   -2.172624
     15          1           0        1.489696   -1.413344   -1.292039
     16          6           0        0.528906   -0.884904    1.258727
     17          1           0        1.489700   -1.413241    1.292148
     18          1           0        0.448537   -0.282728    2.172647
     19          1           0       -0.262436   -1.642360    1.285396
 ---------------------------------------------------------------------
                    Distance matrix (angstroms):
                    1          2          3          4          5
     1  C    0.000000
     2  H    1.097229   0.000000
     3  H    1.097229   1.772075   0.000000
     4  H    1.097012   1.772044   1.772044   0.000000
     5  C    1.541682   2.191769   2.191769   2.190757   0.000000
     6  C    2.502114   2.749040   2.749045   3.476078   1.552006
     7  H    2.680644   3.030026   2.463961   3.699531   2.162547
     8  C    3.929519   4.206613   4.206613   4.790719   2.630055
     9  H    4.311771   4.483242   4.820353   5.060337   2.928534
    10  H    4.674316   4.814021   4.814028   5.632832   3.558505
    11  H    4.311773   4.820354   4.483233   5.060344   2.928545
    12  C    2.506931   3.477180   2.762206   2.755254   1.541146
    13  H    3.480812   4.348621   3.788817   3.760202   2.199148
    14  H    2.776207   3.788170   2.578774   3.131636   2.190936
    15  H    2.731327   3.749082   3.078344   2.522137   2.185183
    16  C    2.506930   2.762209   3.477179   2.755248   1.541146
    17  H    2.731332   3.078357   3.749082   2.522136   2.185183
    18  H    2.776200   2.578770   3.788165   3.131619   2.190935
    19  H    3.480812   3.788818   4.348621   3.760201   2.199148
                    6          7          8          9         10
     6  C    0.000000
     7  H    1.099647   0.000000
     8  C    1.533979   2.154792   0.000000
     9  H    2.194177   3.083295   1.095667   0.000000
    10  H    2.172398   2.474346   1.096148   1.764972   0.000000
    11  H    2.194176   2.529919   1.095666   1.769897   1.764972
    12  C    2.546677   2.777440   3.136859   3.551646   4.117925
    13  H    2.848595   3.212562   2.861980   3.145344   3.872245
    14  H    2.776046   2.556398   3.435223   4.116640   4.237300
    15  H    3.504764   3.758824   4.162882   4.435256   5.178299
    16  C    2.546677   3.483126   3.136866   2.856360   4.117921
    17  H    3.504763   4.320186   4.162884   3.885591   5.178294
    18  H    2.776047   3.763127   3.435241   3.042411   4.237300
    19  H    2.848591   3.851232   2.861983   2.311601   3.872234
                   11         12         13         14         15
    11  H    0.000000
    12  C    2.856364   0.000000
    13  H    2.311621   1.095752   0.000000
    14  H    3.042388   1.097417   1.772369   0.000000
    15  H    3.885603   1.096989   1.767067   1.771259   0.000000
    16  C    3.551678   2.517379   2.769826   3.484684   2.776468
    17  H    4.435281   2.776463   3.124979   3.790297   2.584187
    18  H    4.116677   3.484683   3.783044   4.345271   3.790297
    19  H    3.145384   2.769831   2.570641   3.783046   3.124994
                   16         17         18         19
    16  C    0.000000
    17  H    1.096988   0.000000
    18  H    1.097417   1.771259   0.000000
    19  H    1.095752   1.767066   1.772370   0.000000
 Stoichiometry    C6H13(2)
 Framework group  C1[X(C6H13)]
 Deg. of freedom    51
 Full point group                 C1      NOp   1
 Largest Abelian subgroup         C1      NOp   1
 Largest concise Abelian subgroup C1      NOp   1
                         Standard orientation:                         
 ---------------------------------------------------------------------
 Center     Atomic      Atomic             Coordinates (Angstroms)
 Number     Number       Type             X           Y           Z
 ---------------------------------------------------------------------
      1          6           0        1.624841   -0.548697   -0.812837
      2          1           0        1.628910   -0.170784   -1.842923
      3          1           0        1.603597   -1.644727   -0.859510
      4          1           0        2.571816   -0.252689   -0.344805
      5          6           0        0.419501   -0.000977   -0.022937
      6          6           0       -0.874820   -0.460798   -0.745448
      7          1           0       -0.858336   -1.558482   -0.809017
      8          6           0       -2.208441   -0.024401   -0.125687
      9          1           0       -2.306887    1.066192   -0.088258
     10          1           0       -3.046393   -0.406574   -0.720095
     11          1           0       -2.332179   -0.405961    0.893913
     12          6           0        0.472473   -0.556768    1.413524
     13          1           0       -0.337389   -0.159731    2.035743
     14          1           0        0.393741   -1.651349    1.417830
     15          1           0        1.419534   -0.289681    1.898419
     16          6           0        0.508440    1.537094    0.016512
     17          1           0        1.456451    1.859754    0.464338
     18          1           0        0.455833    1.962885   -0.993567
     19          1           0       -0.300667    1.978430    0.609168
 ---------------------------------------------------------------------
 Rotational constants (GHZ):      4.3729905      2.5101738      2.4762195
 Leave Link  202 at Sat Nov  7 02:12:02 2015, MaxMem=   805306368 cpu:         0.0
 (Enter /home/hetanjin/apps/g09D01/g09/l301.exe)
 Standard basis: 6-31G(d) (6D, 7F)
 Ernie: Thresh=  0.10000D-02 Tol=  0.10000D-05 Strict=F.
 There are   116 symmetry adapted cartesian basis functions of A   symmetry.
 There are   116 symmetry adapted basis functions of A   symmetry.
   116 basis functions,   220 primitive gaussians,   116 cartesian basis functions
    25 alpha electrons       24 beta electrons
       nuclear repulsion energy       253.4607925922 Hartrees.
 IExCor=  402 DFT=T Ex+Corr=B3LYP ExCW=0 ScaHFX=  0.200000
 ScaDFX=  0.800000  0.720000  1.000000  0.810000 ScalE2=  1.000000  1.000000
 IRadAn=      5 IRanWt=     -1 IRanGd=            0 ICorTp=0 IEmpDi=  4
 NAtoms=   19 NActive=   19 NUniq=   19 SFac= 1.00D+00 NAtFMM=   60 NAOKFM=F Big=F
 Integral buffers will be    131072 words long.
 Raffenetti 2 integral format.
 Two-electron integral symmetry is turned on.
 Leave Link  301 at Sat Nov  7 02:12:02 2015, MaxMem=   805306368 cpu:         0.2
 (Enter /home/hetanjin/apps/g09D01/g09/l302.exe)
 NPDir=0 NMtPBC=     1 NCelOv=     1 NCel=       1 NClECP=     1 NCelD=      1
         NCelK=      1 NCelE2=     1 NClLst=     1 CellRange=     0.0.
 One-electron integrals computed using PRISM.
 NBasis=   116 RedAO= T EigKep=  3.93D-03  NBF=   116
 NBsUse=   116 1.00D-06 EigRej= -1.00D+00 NBFU=   116
 Precomputing XC quadrature grid using
 IXCGrd= 4 IRadAn=           5 IRanWt=          -1 IRanGd=           0 AccXCQ= 0.00D+00.
 Generated NRdTot=       0 NPtTot=           0 NUsed=           0 NTot=          32
 NSgBfM=   116   116   116   116   116 MxSgAt=    19 MxSgA2=    19.
 Leave Link  302 at Sat Nov  7 02:12:03 2015, MaxMem=   805306368 cpu:         1.6
 (Enter /home/hetanjin/apps/g09D01/g09/l303.exe)
 DipDrv:  MaxL=1.
 Leave Link  303 at Sat Nov  7 02:12:03 2015, MaxMem=   805306368 cpu:         0.1
 (Enter /home/hetanjin/apps/g09D01/g09/l401.exe)
 ExpMin= 1.61D-01 ExpMax= 3.05D+03 ExpMxC= 4.57D+02 IAcc=3 IRadAn=         5 AccDes= 0.00D+00
 Harris functional with IExCor=  402 and IRadAn=       5 diagonalized for initial guess.
 HarFok:  IExCor=  402 AccDes= 0.00D+00 IRadAn=         5 IDoV= 1 UseB2=F ITyADJ=14
 ICtDFT=  3500011 ScaDFX=  1.000000  1.000000  1.000000  1.000000
 FoFCou: FMM=F IPFlag=           0 FMFlag=      100000 FMFlg1=           0
         NFxFlg=           0 DoJE=T BraDBF=F KetDBF=T FulRan=T
         wScrn=  0.000000 ICntrl=     500 IOpCl=  0 I1Cent=   200000004 NGrid=           0
         NMat0=    1 NMatS0=      1 NMatT0=    0 NMatD0=    1 NMtDS0=    0 NMtDT0=    0
 Petite list used in FoFCou.
 Harris En= -236.453210899634    
 JPrj=0 DoOrth=F DoCkMO=F.
 Initial guess <Sx>= 0.0000 <Sy>= 0.0000 <Sz>= 0.5000 <S**2>= 0.7500 S= 0.5000
 Leave Link  401 at Sat Nov  7 02:12:05 2015, MaxMem=   805306368 cpu:         7.4
 (Enter /home/hetanjin/apps/g09D01/g09/l502.exe)
 UHF open shell SCF:
 Using DIIS extrapolation, IDIIS=  1040.
 Integral symmetry usage will be decided dynamically.
 Keep R1 and R2 ints in memory in canonical form, NReq=47059932.
 IVT=       60514 IEndB=       60514 NGot=   805306368 MDV=   759189273
 LenX=   759189273 LenY=   759175376
 Requested convergence on RMS density matrix=1.00D-08 within 128 cycles.
 Requested convergence on MAX density matrix=1.00D-06.
 Requested convergence on             energy=1.00D-06.
 No special actions if energy rises.
 FoFCou: FMM=F IPFlag=           0 FMFlag=           0 FMFlg1=           0
         NFxFlg=           0 DoJE=F BraDBF=F KetDBF=F FulRan=T
         wScrn=  0.000000 ICntrl=     600 IOpCl=  0 I1Cent=           0 NGrid=           0
         NMat0=    1 NMatS0=   6786 NMatT0=    0 NMatD0=    1 NMtDS0=    0 NMtDT0=    0
 Symmetry not used in FoFCou.
 Integral accuracy reduced to 1.0D-05 until final iterations.

 Cycle   1  Pass 0  IDiag  1:
 E= -236.141650016184    
 DIIS: error= 5.20D-02 at cycle   1 NSaved=   1.
 NSaved= 1 IEnMin= 1 EnMin= -236.141650016184     IErMin= 1 ErrMin= 5.20D-02
 ErrMax= 5.20D-02  0.00D+00 EMaxC= 1.00D-01 BMatC= 9.60D-01 BMatP= 9.60D-01
 IDIUse=3 WtCom= 4.80D-01 WtEn= 5.20D-01
 Coeff-Com:  0.100D+01
 Coeff-En:   0.100D+01
 Coeff:      0.100D+01
 Gap=     0.257 Goal=   None    Shift=    0.000
 Gap=     0.236 Goal=   None    Shift=    0.000
 GapD=    0.236 DampG=1.000 DampE=0.500 DampFc=0.5000 IDamp=-1.
 Damping current iteration by 5.00D-01
 RMSDP=9.69D-03 MaxDP=1.38D-01              OVMax= 1.77D-01

 Cycle   2  Pass 0  IDiag  1:
 E= -236.260002203062     Delta-E=       -0.118352186878 Rises=F Damp=T
 DIIS: error= 7.57D-03 at cycle   2 NSaved=   2.
 NSaved= 2 IEnMin= 2 EnMin= -236.260002203062     IErMin= 2 ErrMin= 7.57D-03
 ErrMax= 7.57D-03  0.00D+00 EMaxC= 1.00D-01 BMatC= 3.88D-02 BMatP= 9.60D-01
 IDIUse=3 WtCom= 9.24D-01 WtEn= 7.57D-02
 Coeff-Com:  0.741D-01 0.926D+00
 Coeff-En:   0.124D+00 0.876D+00
 Coeff:      0.779D-01 0.922D+00
 Gap=     0.292 Goal=   None    Shift=    0.000
 Gap=     0.263 Goal=   None    Shift=    0.000
 RMSDP=1.68D-03 MaxDP=2.48D-02 DE=-1.18D-01 OVMax= 1.09D-01

 Cycle   3  Pass 0  IDiag  1:
 E= -236.405807082360     Delta-E=       -0.145804879298 Rises=F Damp=F
 DIIS: error= 3.24D-03 at cycle   3 NSaved=   3.
 NSaved= 3 IEnMin= 3 EnMin= -236.405807082360     IErMin= 3 ErrMin= 3.24D-03
 ErrMax= 3.24D-03  0.00D+00 EMaxC= 1.00D-01 BMatC= 5.81D-03 BMatP= 3.88D-02
 IDIUse=3 WtCom= 9.68D-01 WtEn= 3.24D-02
 Coeff-Com:  0.209D-02 0.212D+00 0.786D+00
 Coeff-En:   0.000D+00 0.000D+00 0.100D+01
 Coeff:      0.202D-02 0.205D+00 0.793D+00
 Gap=     0.291 Goal=   None    Shift=    0.000
 Gap=     0.247 Goal=   None    Shift=    0.000
 RMSDP=6.15D-04 MaxDP=1.57D-02 DE=-1.46D-01 OVMax= 1.50D-02

 Cycle   4  Pass 0  IDiag  1:
 E= -236.406507796921     Delta-E=       -0.000700714562 Rises=F Damp=F
 DIIS: error= 2.21D-03 at cycle   4 NSaved=   4.
 NSaved= 4 IEnMin= 4 EnMin= -236.406507796921     IErMin= 4 ErrMin= 2.21D-03
 ErrMax= 2.21D-03  0.00D+00 EMaxC= 1.00D-01 BMatC= 3.25D-03 BMatP= 5.81D-03
 IDIUse=3 WtCom= 9.78D-01 WtEn= 2.21D-02
 Coeff-Com: -0.455D-02 0.272D-01 0.432D+00 0.545D+00
 Coeff-En:   0.000D+00 0.000D+00 0.346D+00 0.654D+00
 Coeff:     -0.445D-02 0.266D-01 0.430D+00 0.548D+00
 Gap=     0.290 Goal=   None    Shift=    0.000
 Gap=     0.252 Goal=   None    Shift=    0.000
 RMSDP=2.51D-04 MaxDP=6.87D-03 DE=-7.01D-04 OVMax= 7.61D-03

 Cycle   5  Pass 0  IDiag  1:
 E= -236.407288158328     Delta-E=       -0.000780361407 Rises=F Damp=F
 DIIS: error= 2.15D-04 at cycle   5 NSaved=   5.
 NSaved= 5 IEnMin= 5 EnMin= -236.407288158328     IErMin= 5 ErrMin= 2.15D-04
 ErrMax= 2.15D-04  0.00D+00 EMaxC= 1.00D-01 BMatC= 4.57D-05 BMatP= 3.25D-03
 IDIUse=3 WtCom= 9.98D-01 WtEn= 2.15D-03
 Coeff-Com: -0.978D-03-0.446D-02 0.791D-01 0.160D+00 0.766D+00
 Coeff-En:   0.000D+00 0.000D+00 0.000D+00 0.000D+00 0.100D+01
 Coeff:     -0.976D-03-0.445D-02 0.790D-01 0.159D+00 0.767D+00
 Gap=     0.290 Goal=   None    Shift=    0.000
 Gap=     0.252 Goal=   None    Shift=    0.000
 RMSDP=3.64D-05 MaxDP=8.38D-04 DE=-7.80D-04 OVMax= 1.02D-03

 Cycle   6  Pass 0  IDiag  1:
 E= -236.407300849844     Delta-E=       -0.000012691516 Rises=F Damp=F
 DIIS: error= 5.68D-05 at cycle   6 NSaved=   6.
 NSaved= 6 IEnMin= 6 EnMin= -236.407300849844     IErMin= 6 ErrMin= 5.68D-05
 ErrMax= 5.68D-05  0.00D+00 EMaxC= 1.00D-01 BMatC= 2.38D-06 BMatP= 4.57D-05
 IDIUse=1 WtCom= 1.00D+00 WtEn= 0.00D+00
 Coeff-Com:  0.986D-04-0.191D-02-0.169D-01-0.150D-01 0.701D-01 0.964D+00
 Coeff:      0.986D-04-0.191D-02-0.169D-01-0.150D-01 0.701D-01 0.964D+00
 Gap=     0.290 Goal=   None    Shift=    0.000
 Gap=     0.252 Goal=   None    Shift=    0.000
 RMSDP=1.51D-05 MaxDP=3.61D-04 DE=-1.27D-05 OVMax= 3.91D-04

 Cycle   7  Pass 0  IDiag  1:
 E= -236.407301860700     Delta-E=       -0.000001010856 Rises=F Damp=F
 DIIS: error= 3.72D-05 at cycle   7 NSaved=   7.
 NSaved= 7 IEnMin= 7 EnMin= -236.407301860700     IErMin= 7 ErrMin= 3.72D-05
 ErrMax= 3.72D-05  0.00D+00 EMaxC= 1.00D-01 BMatC= 1.05D-06 BMatP= 2.38D-06
 IDIUse=1 WtCom= 1.00D+00 WtEn= 0.00D+00
 Coeff-Com:  0.170D-03-0.769D-04-0.206D-01-0.329D-01-0.960D-01 0.450D+00
 Coeff-Com:  0.699D+00
 Coeff:      0.170D-03-0.769D-04-0.206D-01-0.329D-01-0.960D-01 0.450D+00
 Coeff:      0.699D+00
 Gap=     0.290 Goal=   None    Shift=    0.000
 Gap=     0.253 Goal=   None    Shift=    0.000
 RMSDP=6.07D-06 MaxDP=1.57D-04 DE=-1.01D-06 OVMax= 1.75D-04

 Initial convergence to 1.0D-05 achieved.  Increase integral accuracy.
 Cycle   8  Pass 1  IDiag  1:
 E= -236.407291323324     Delta-E=        0.000010537376 Rises=F Damp=F
 DIIS: error= 9.45D-06 at cycle   1 NSaved=   1.
 NSaved= 1 IEnMin= 1 EnMin= -236.407291323324     IErMin= 1 ErrMin= 9.45D-06
 ErrMax= 9.45D-06  0.00D+00 EMaxC= 1.00D-01 BMatC= 9.59D-08 BMatP= 9.59D-08
 IDIUse=1 WtCom= 1.00D+00 WtEn= 0.00D+00
 Coeff-Com:  0.100D+01
 Coeff:      0.100D+01
 Gap=     0.290 Goal=   None    Shift=    0.000
 Gap=     0.253 Goal=   None    Shift=    0.000
 RMSDP=6.07D-06 MaxDP=1.57D-04 DE= 1.05D-05 OVMax= 6.53D-05

 Cycle   9  Pass 1  IDiag  1:
 E= -236.407291333793     Delta-E=       -0.000000010469 Rises=F Damp=F
 DIIS: error= 9.94D-06 at cycle   2 NSaved=   2.
 NSaved= 2 IEnMin= 2 EnMin= -236.407291333793     IErMin= 1 ErrMin= 9.45D-06
 ErrMax= 9.94D-06  0.00D+00 EMaxC= 1.00D-01 BMatC= 9.34D-08 BMatP= 9.59D-08
 IDIUse=1 WtCom= 1.00D+00 WtEn= 0.00D+00
 Coeff-Com:  0.496D+00 0.504D+00
 Coeff:      0.496D+00 0.504D+00
 Gap=     0.290 Goal=   None    Shift=    0.000
 Gap=     0.253 Goal=   None    Shift=    0.000
 RMSDP=1.23D-06 MaxDP=2.63D-05 DE=-1.05D-08 OVMax= 3.12D-05

 Cycle  10  Pass 1  IDiag  1:
 E= -236.407291356832     Delta-E=       -0.000000023038 Rises=F Damp=F
 DIIS: error= 2.07D-06 at cycle   3 NSaved=   3.
 NSaved= 3 IEnMin= 3 EnMin= -236.407291356832     IErMin= 3 ErrMin= 2.07D-06
 ErrMax= 2.07D-06  0.00D+00 EMaxC= 1.00D-01 BMatC= 2.99D-09 BMatP= 9.34D-08
 IDIUse=1 WtCom= 1.00D+00 WtEn= 0.00D+00
 Coeff-Com: -0.509D-01 0.683D-01 0.983D+00
 Coeff:     -0.509D-01 0.683D-01 0.983D+00
 Gap=     0.290 Goal=   None    Shift=    0.000
 Gap=     0.253 Goal=   None    Shift=    0.000
 RMSDP=4.59D-07 MaxDP=1.13D-05 DE=-2.30D-08 OVMax= 1.35D-05

 Cycle  11  Pass 1  IDiag  1:
 E= -236.407291358182     Delta-E=       -0.000000001350 Rises=F Damp=F
 DIIS: error= 1.06D-06 at cycle   4 NSaved=   4.
 NSaved= 4 IEnMin= 4 EnMin= -236.407291358182     IErMin= 4 ErrMin= 1.06D-06
 ErrMax= 1.06D-06  0.00D+00 EMaxC= 1.00D-01 BMatC= 5.69D-10 BMatP= 2.99D-09
 IDIUse=1 WtCom= 1.00D+00 WtEn= 0.00D+00
 Coeff-Com: -0.930D-01-0.604D-01 0.295D+00 0.859D+00
 Coeff:     -0.930D-01-0.604D-01 0.295D+00 0.859D+00
 Gap=     0.290 Goal=   None    Shift=    0.000
 Gap=     0.253 Goal=   None    Shift=    0.000
 RMSDP=2.12D-07 MaxDP=6.12D-06 DE=-1.35D-09 OVMax= 6.53D-06

 Cycle  12  Pass 1  IDiag  1:
 E= -236.407291358442     Delta-E=       -0.000000000260 Rises=F Damp=F
 DIIS: error= 3.04D-07 at cycle   5 NSaved=   5.
 NSaved= 5 IEnMin= 5 EnMin= -236.407291358442     IErMin= 5 ErrMin= 3.04D-07
 ErrMax= 3.04D-07  0.00D+00 EMaxC= 1.00D-01 BMatC= 5.06D-11 BMatP= 5.69D-10
 IDIUse=1 WtCom= 1.00D+00 WtEn= 0.00D+00
 Coeff-Com: -0.172D-01-0.219D-01-0.320D-01 0.208D+00 0.863D+00
 Coeff:     -0.172D-01-0.219D-01-0.320D-01 0.208D+00 0.863D+00
 Gap=     0.290 Goal=   None    Shift=    0.000
 Gap=     0.253 Goal=   None    Shift=    0.000
 RMSDP=5.68D-08 MaxDP=1.65D-06 DE=-2.60D-10 OVMax= 2.43D-06

 Cycle  13  Pass 1  IDiag  1:
 E= -236.407291358456     Delta-E=       -0.000000000013 Rises=F Damp=F
 DIIS: error= 1.70D-07 at cycle   6 NSaved=   6.
 NSaved= 6 IEnMin= 6 EnMin= -236.407291358456     IErMin= 6 ErrMin= 1.70D-07
 ErrMax= 1.70D-07  0.00D+00 EMaxC= 1.00D-01 BMatC= 1.86D-11 BMatP= 5.06D-11
 IDIUse=1 WtCom= 1.00D+00 WtEn= 0.00D+00
 Coeff-Com:  0.401D-02-0.300D-02-0.577D-01-0.995D-02 0.458D+00 0.609D+00
 Coeff:      0.401D-02-0.300D-02-0.577D-01-0.995D-02 0.458D+00 0.609D+00
 Gap=     0.290 Goal=   None    Shift=    0.000
 Gap=     0.253 Goal=   None    Shift=    0.000
 RMSDP=2.22D-08 MaxDP=5.38D-07 DE=-1.34D-11 OVMax= 7.71D-07

 Cycle  14  Pass 1  IDiag  1:
 E= -236.407291358462     Delta-E=       -0.000000000006 Rises=F Damp=F
 DIIS: error= 1.85D-08 at cycle   7 NSaved=   7.
 NSaved= 7 IEnMin= 7 EnMin= -236.407291358462     IErMin= 7 ErrMin= 1.85D-08
 ErrMax= 1.85D-08  0.00D+00 EMaxC= 1.00D-01 BMatC= 2.69D-13 BMatP= 1.86D-11
 IDIUse=1 WtCom= 1.00D+00 WtEn= 0.00D+00
 Coeff-Com:  0.162D-02 0.129D-03-0.125D-01-0.110D-01 0.773D-01 0.149D+00
 Coeff-Com:  0.795D+00
 Coeff:      0.162D-02 0.129D-03-0.125D-01-0.110D-01 0.773D-01 0.149D+00
 Coeff:      0.795D+00
 Gap=     0.290 Goal=   None    Shift=    0.000
 Gap=     0.253 Goal=   None    Shift=    0.000
 RMSDP=4.05D-09 MaxDP=7.09D-08 DE=-6.37D-12 OVMax= 8.40D-08

 SCF Done:  E(UB3LYP) =  -236.407291358     A.U. after   14 cycles
            NFock= 14  Conv=0.40D-08     -V/T= 2.0105
 <Sx>= 0.0000 <Sy>= 0.0000 <Sz>= 0.5000 <S**2>= 0.7529 S= 0.5014
 <L.S>= 0.000000000000E+00
 KE= 2.339592224219D+02 PE=-1.052499268795D+03 EE= 3.286719624225D+02
 Annihilation of the first spin contaminant:
 S**2 before annihilation     0.7529,   after     0.7500
 Leave Link  502 at Sat Nov  7 02:12:44 2015, MaxMem=   805306368 cpu:       153.2
 (Enter /home/hetanjin/apps/g09D01/g09/l601.exe)
 Copying SCF densities to generalized density rwf, IOpCl= 1 IROHF=0.

 **********************************************************************

            Population analysis using the SCF density.

 **********************************************************************

 Orbital symmetries:
 Alpha Orbitals:
       Occupied  (A) (A) (A) (A) (A) (A) (A) (A) (A) (A) (A) (A)
                 (A) (A) (A) (A) (A) (A) (A) (A) (A) (A) (A) (A)
                 (A)
       Virtual   (A) (A) (A) (A) (A) (A) (A) (A) (A) (A) (A) (A)
                 (A) (A) (A) (A) (A) (A) (A) (A) (A) (A) (A) (A)
                 (A) (A) (A) (A) (A) (A) (A) (A) (A) (A) (A) (A)
                 (A) (A) (A) (A) (A) (A) (A) (A) (A) (A) (A) (A)
                 (A) (A) (A) (A) (A) (A) (A) (A) (A) (A) (A) (A)
                 (A) (A) (A) (A) (A) (A) (A) (A) (A) (A) (A) (A)
                 (A) (A) (A) (A) (A) (A) (A) (A) (A) (A) (A) (A)
                 (A) (A) (A) (A) (A) (A) (A)
 Beta  Orbitals:
       Occupied  (A) (A) (A) (A) (A) (A) (A) (A) (A) (A) (A) (A)
                 (A) (A) (A) (A) (A) (A) (A) (A) (A) (A) (A) (A)
       Virtual   (A) (A) (A) (A) (A) (A) (A) (A) (A) (A) (A) (A)
                 (A) (A) (A) (A) (A) (A) (A) (A) (A) (A) (A) (A)
                 (A) (A) (A) (A) (A) (A) (A) (A) (A) (A) (A) (A)
                 (A) (A) (A) (A) (A) (A) (A) (A) (A) (A) (A) (A)
                 (A) (A) (A) (A) (A) (A) (A) (A) (A) (A) (A) (A)
                 (A) (A) (A) (A) (A) (A) (A) (A) (A) (A) (A) (A)
                 (A) (A) (A) (A) (A) (A) (A) (A) (A) (A) (A) (A)
                 (A) (A) (A) (A) (A) (A) (A) (A)
 The electronic state is 2-A.
 Alpha  occ. eigenvalues --  -10.19537 -10.19349 -10.17574 -10.17386 -10.16770
 Alpha  occ. eigenvalues --  -10.16726  -0.81757  -0.73113  -0.68098  -0.67752
 Alpha  occ. eigenvalues --   -0.61299  -0.51702  -0.45467  -0.43608  -0.43313
 Alpha  occ. eigenvalues --   -0.41826  -0.39522  -0.38109  -0.37388  -0.35940
 Alpha  occ. eigenvalues --   -0.35293  -0.32914  -0.31225  -0.30892  -0.21013
 Alpha virt. eigenvalues --    0.08016   0.12280   0.13476   0.13830   0.14187
 Alpha virt. eigenvalues --    0.15764   0.16336   0.17909   0.19273   0.19609
 Alpha virt. eigenvalues --    0.20475   0.21212   0.22448   0.24174   0.25011
 Alpha virt. eigenvalues --    0.25475   0.26312   0.27584   0.49409   0.50785
 Alpha virt. eigenvalues --    0.51195   0.52250   0.54011   0.57035   0.59275
 Alpha virt. eigenvalues --    0.60585   0.62507   0.69113   0.69801   0.71653
 Alpha virt. eigenvalues --    0.73364   0.75495   0.81460   0.82626   0.86315
 Alpha virt. eigenvalues --    0.88780   0.89467   0.90828   0.91018   0.91234
 Alpha virt. eigenvalues --    0.92324   0.92901   0.93885   0.94424   0.96071
 Alpha virt. eigenvalues --    0.97252   0.98426   0.99660   1.01177   1.02850
 Alpha virt. eigenvalues --    1.26894   1.29923   1.39310   1.41693   1.48752
 Alpha virt. eigenvalues --    1.56897   1.62142   1.66004   1.70307   1.72966
 Alpha virt. eigenvalues --    1.80152   1.84214   1.87304   1.88210   1.92527
 Alpha virt. eigenvalues --    1.97216   2.08164   2.09963   2.10215   2.11675
 Alpha virt. eigenvalues --    2.12596   2.16975   2.24476   2.25211   2.25824
 Alpha virt. eigenvalues --    2.27090   2.27565   2.35187   2.36013   2.48772
 Alpha virt. eigenvalues --    2.56510   2.68610   2.71434   2.73784   2.76002
 Alpha virt. eigenvalues --    4.10509   4.23636   4.30140   4.31459   4.39396
 Alpha virt. eigenvalues --    4.66561
  Beta  occ. eigenvalues --  -10.19561 -10.17926 -10.17604 -10.17293 -10.16755
  Beta  occ. eigenvalues --  -10.16707  -0.81128  -0.72161  -0.67927  -0.67663
  Beta  occ. eigenvalues --   -0.59992  -0.50973  -0.45190  -0.43126  -0.42884
  Beta  occ. eigenvalues --   -0.41070  -0.39240  -0.37846  -0.37277  -0.35885
  Beta  occ. eigenvalues --   -0.34861  -0.32456  -0.31028  -0.30271
  Beta virt. eigenvalues --   -0.05019   0.08166   0.12440   0.13677   0.14012
  Beta virt. eigenvalues --    0.14447   0.15814   0.16424   0.18381   0.19390
  Beta virt. eigenvalues --    0.19864   0.20691   0.21601   0.22731   0.24394
  Beta virt. eigenvalues --    0.25231   0.26203   0.27065   0.28630   0.49552
  Beta virt. eigenvalues --    0.50932   0.51381   0.52572   0.55629   0.59262
  Beta virt. eigenvalues --    0.60310   0.62031   0.63067   0.69722   0.70833
  Beta virt. eigenvalues --    0.72114   0.73647   0.75695   0.82046   0.83363
  Beta virt. eigenvalues --    0.86452   0.89086   0.89616   0.90966   0.91097
  Beta virt. eigenvalues --    0.91556   0.92855   0.93404   0.94014   0.94543
  Beta virt. eigenvalues --    0.96551   0.97444   0.99122   0.99891   1.01423
  Beta virt. eigenvalues --    1.03142   1.28069   1.30573   1.40071   1.42627
  Beta virt. eigenvalues --    1.48934   1.57409   1.63238   1.66847   1.70977
  Beta virt. eigenvalues --    1.73103   1.81233   1.85932   1.88020   1.88518
  Beta virt. eigenvalues --    1.93422   1.98412   2.08746   2.10189   2.11261
  Beta virt. eigenvalues --    2.12578   2.13411   2.20609   2.25023   2.25514
  Beta virt. eigenvalues --    2.25960   2.27171   2.27986   2.35842   2.37232
  Beta virt. eigenvalues --    2.49386   2.57206   2.69821   2.71644   2.74391
  Beta virt. eigenvalues --    2.76954   4.11620   4.24051   4.30289   4.31501
  Beta virt. eigenvalues --    4.41358   4.66825
          Condensed to atoms (all electrons):
               1          2          3          4          5          6
     1  C    5.150153   0.367614   0.365955   0.361428   0.385437  -0.056525
     2  H    0.367614   0.575532  -0.030055  -0.030730  -0.029477  -0.000967
     3  H    0.365955  -0.030055   0.585442  -0.031386  -0.029504  -0.005687
     4  H    0.361428  -0.030730  -0.031386   0.591847  -0.028679   0.005284
     5  C    0.385437  -0.029477  -0.029504  -0.028679   4.744319   0.391777
     6  C   -0.056525  -0.000967  -0.005687   0.005284   0.391777   5.268100
     7  H   -0.006378  -0.000157   0.005357  -0.000067  -0.047768   0.346241
     8  C    0.004570   0.000013   0.000014  -0.000177  -0.044379   0.358719
     9  H    0.000054  -0.000005   0.000003   0.000000  -0.006669  -0.033852
    10  H   -0.000124  -0.000004  -0.000003   0.000002   0.004059  -0.027575
    11  H    0.000044   0.000004  -0.000007   0.000005  -0.003958  -0.033398
    12  C   -0.062139   0.005872  -0.004795  -0.004492   0.378128  -0.057671
    13  H    0.005695  -0.000191  -0.000053  -0.000044  -0.028971  -0.005912
    14  H   -0.004588  -0.000067   0.003993  -0.000150  -0.029959  -0.004014
    15  H   -0.005622  -0.000044  -0.000147   0.004239  -0.027632   0.005437
    16  C   -0.061258  -0.004637   0.005814  -0.005337   0.381283  -0.057142
    17  H   -0.006019  -0.000148  -0.000032   0.004698  -0.029217   0.005227
    18  H   -0.004395   0.004123  -0.000056  -0.000116  -0.030123  -0.000869
    19  H    0.005598  -0.000043  -0.000197  -0.000061  -0.028745  -0.005748
               7          8          9         10         11         12
     1  C   -0.006378   0.004570   0.000054  -0.000124   0.000044  -0.062139
     2  H   -0.000157   0.000013  -0.000005  -0.000004   0.000004   0.005872
     3  H    0.005357   0.000014   0.000003  -0.000003  -0.000007  -0.004795
     4  H   -0.000067  -0.000177   0.000000   0.000002   0.000005  -0.004492
     5  C   -0.047768  -0.044379  -0.006669   0.004059  -0.003958   0.378128
     6  C    0.346241   0.358719  -0.033852  -0.027575  -0.033398  -0.057671
     7  H    0.639749  -0.054426   0.005375  -0.004021  -0.001857  -0.003901
     8  C   -0.054426   5.122835   0.372612   0.369918   0.363754  -0.003322
     9  H    0.005375   0.372612   0.567599  -0.030427  -0.033516  -0.000217
    10  H   -0.004021   0.369918  -0.030427   0.570587  -0.032101   0.000076
    11  H   -0.001857   0.363754  -0.033516  -0.032101   0.578618   0.002448
    12  C   -0.003901  -0.003322  -0.000217   0.000076   0.002448   5.163648
    13  H   -0.000112   0.001681   0.000169  -0.000067   0.003125   0.367406
    14  H    0.004992  -0.000236   0.000060  -0.000030   0.000224   0.364895
    15  H   -0.000185   0.000031  -0.000024   0.000001  -0.000106   0.364844
    16  C    0.006274  -0.007127   0.003389   0.000091  -0.000307  -0.063597
    17  H   -0.000206   0.000092  -0.000152   0.000000  -0.000009  -0.004225
    18  H    0.000008  -0.000156   0.000334  -0.000032   0.000062   0.005746
    19  H   -0.000023   0.001676   0.002966  -0.000056   0.000116  -0.004752
              13         14         15         16         17         18
     1  C    0.005695  -0.004588  -0.005622  -0.061258  -0.006019  -0.004395
     2  H   -0.000191  -0.000067  -0.000044  -0.004637  -0.000148   0.004123
     3  H   -0.000053   0.003993  -0.000147   0.005814  -0.000032  -0.000056
     4  H   -0.000044  -0.000150   0.004239  -0.005337   0.004698  -0.000116
     5  C   -0.028971  -0.029959  -0.027632   0.381283  -0.029217  -0.030123
     6  C   -0.005912  -0.004014   0.005437  -0.057142   0.005227  -0.000869
     7  H   -0.000112   0.004992  -0.000185   0.006274  -0.000206   0.000008
     8  C    0.001681  -0.000236   0.000031  -0.007127   0.000092  -0.000156
     9  H    0.000169   0.000060  -0.000024   0.003389  -0.000152   0.000334
    10  H   -0.000067  -0.000030   0.000001   0.000091   0.000000  -0.000032
    11  H    0.003125   0.000224  -0.000106  -0.000307  -0.000009   0.000062
    12  C    0.367406   0.364895   0.364844  -0.063597  -0.004225   0.005746
    13  H    0.577916  -0.031183  -0.031299  -0.004802  -0.000154  -0.000030
    14  H   -0.031183   0.581750  -0.030275   0.005856  -0.000074  -0.000192
    15  H   -0.031299  -0.030275   0.578032  -0.004356   0.003676  -0.000078
    16  C   -0.004802   0.005856  -0.004356   5.150050   0.364824   0.368174
    17  H   -0.000154  -0.000074   0.003676   0.364824   0.588788  -0.030821
    18  H   -0.000030  -0.000192  -0.000078   0.368174  -0.030821   0.576339
    19  H    0.003956  -0.000035  -0.000181   0.367210  -0.031526  -0.030725
              19
     1  C    0.005598
     2  H   -0.000043
     3  H   -0.000197
     4  H   -0.000061
     5  C   -0.028745
     6  C   -0.005748
     7  H   -0.000023
     8  C    0.001676
     9  H    0.002966
    10  H   -0.000056
    11  H    0.000116
    12  C   -0.004752
    13  H    0.003956
    14  H   -0.000035
    15  H   -0.000181
    16  C    0.367210
    17  H   -0.031526
    18  H   -0.030725
    19  H    0.581383
          Atomic-Atomic Spin Densities.
               1          2          3          4          5          6
     1  C    0.013605  -0.003731   0.000023  -0.001321   0.006461  -0.009847
     2  H   -0.003731   0.001106  -0.000072   0.000995  -0.000891   0.004207
     3  H    0.000023  -0.000072  -0.000656   0.000035   0.000612  -0.000173
     4  H   -0.001321   0.000995   0.000035  -0.000279   0.000054   0.000271
     5  C    0.006461  -0.000891   0.000612   0.000054  -0.034402  -0.023077
     6  C   -0.009847   0.004207  -0.000173   0.000271  -0.023077   1.131577
     7  H    0.001134  -0.000331   0.000093  -0.000071   0.005254  -0.013643
     8  C    0.000149  -0.000051   0.000009  -0.000002   0.001989  -0.027091
     9  H    0.000031  -0.000010   0.000000  -0.000001   0.000824  -0.005147
    10  H    0.000005  -0.000003   0.000001   0.000000   0.000057  -0.005077
    11  H   -0.000058   0.000012  -0.000005   0.000004  -0.001306  -0.022928
    12  C   -0.004524   0.000618  -0.000397   0.001389   0.000668  -0.024263
    13  H   -0.000023   0.000001   0.000000   0.000000   0.001044  -0.000357
    14  H    0.000075  -0.000011  -0.000007  -0.000015   0.000332   0.000594
    15  H    0.000708  -0.000083   0.000076  -0.000743  -0.000440   0.001710
    16  C    0.003794  -0.000996   0.000020  -0.000449   0.004775  -0.009502
    17  H   -0.000237   0.000103   0.000003  -0.000081   0.000395   0.000175
    18  H   -0.000914   0.000346  -0.000008   0.000132  -0.000207   0.003748
    19  H    0.000004  -0.000005   0.000000   0.000002   0.000450  -0.000074
               7          8          9         10         11         12
     1  C    0.001134   0.000149   0.000031   0.000005  -0.000058  -0.004524
     2  H   -0.000331  -0.000051  -0.000010  -0.000003   0.000012   0.000618
     3  H    0.000093   0.000009   0.000000   0.000001  -0.000005  -0.000397
     4  H   -0.000071  -0.000002  -0.000001   0.000000   0.000004   0.001389
     5  C    0.005254   0.001989   0.000824   0.000057  -0.001306   0.000668
     6  C   -0.013643  -0.027091  -0.005147  -0.005077  -0.022928  -0.024263
     7  H   -0.024729   0.006190   0.000162   0.001075  -0.003164  -0.002999
     8  C    0.006190  -0.048365   0.006717   0.006689   0.000734  -0.001300
     9  H    0.000162   0.006717   0.010854   0.001758  -0.008198  -0.000480
    10  H    0.001075   0.006689   0.001758   0.007504  -0.006168  -0.000083
    11  H   -0.003164   0.000734  -0.008198  -0.006168   0.093205   0.003561
    12  C   -0.002999  -0.001300  -0.000480  -0.000083   0.003561   0.078252
    13  H   -0.000021   0.000020  -0.000004   0.000000   0.000059  -0.000110
    14  H    0.000051   0.000028   0.000004   0.000003  -0.000164  -0.000855
    15  H    0.000144   0.000019   0.000022   0.000002  -0.000245  -0.009805
    16  C    0.000252   0.000965   0.000407   0.000029  -0.000367  -0.005817
    17  H   -0.000001  -0.000029  -0.000009   0.000000   0.000015   0.000811
    18  H   -0.000084  -0.000183  -0.000264  -0.000012   0.000078   0.000538
    19  H   -0.000001   0.000102   0.000011   0.000003  -0.000058  -0.000194
              13         14         15         16         17         18
     1  C   -0.000023   0.000075   0.000708   0.003794  -0.000237  -0.000914
     2  H    0.000001  -0.000011  -0.000083  -0.000996   0.000103   0.000346
     3  H    0.000000  -0.000007   0.000076   0.000020   0.000003  -0.000008
     4  H    0.000000  -0.000015  -0.000743  -0.000449  -0.000081   0.000132
     5  C    0.001044   0.000332  -0.000440   0.004775   0.000395  -0.000207
     6  C   -0.000357   0.000594   0.001710  -0.009502   0.000175   0.003748
     7  H   -0.000021   0.000051   0.000144   0.000252  -0.000001  -0.000084
     8  C    0.000020   0.000028   0.000019   0.000965  -0.000029  -0.000183
     9  H   -0.000004   0.000004   0.000022   0.000407  -0.000009  -0.000264
    10  H    0.000000   0.000003   0.000002   0.000029   0.000000  -0.000012
    11  H    0.000059  -0.000164  -0.000245  -0.000367   0.000015   0.000078
    12  C   -0.000110  -0.000855  -0.009805  -0.005817   0.000811   0.000538
    13  H   -0.002743   0.000240  -0.000185  -0.000033  -0.000003   0.000003
    14  H    0.000240  -0.001872   0.000423   0.000028   0.000000  -0.000003
    15  H   -0.000185   0.000423   0.018397   0.000949  -0.000489  -0.000077
    16  C   -0.000033   0.000028   0.000949   0.015681  -0.000726  -0.004238
    17  H   -0.000003   0.000000  -0.000489  -0.000726  -0.001579   0.000778
    18  H    0.000003  -0.000003  -0.000077  -0.004238   0.000778   0.001557
    19  H   -0.000021   0.000000   0.000048  -0.000088   0.000165  -0.000017
              19
     1  C    0.000004
     2  H   -0.000005
     3  H    0.000000
     4  H    0.000002
     5  C    0.000450
     6  C   -0.000074
     7  H   -0.000001
     8  C    0.000102
     9  H    0.000011
    10  H    0.000003
    11  H   -0.000058
    12  C   -0.000194
    13  H   -0.000021
    14  H    0.000000
    15  H    0.000048
    16  C   -0.000088
    17  H    0.000165
    18  H   -0.000017
    19  H   -0.000708
 Mulliken charges and spin densities:
               1          2
     1  C   -0.439499   0.005333
     2  H    0.143367   0.001206
     3  H    0.135346  -0.000445
     4  H    0.133736  -0.000082
     5  C    0.080079  -0.037409
     6  C   -0.091425   1.001105
     7  H    0.111107  -0.030688
     8  C   -0.486090  -0.053410
     9  H    0.152302   0.006676
    10  H    0.149706   0.005781
    11  H    0.156861   0.055006
    12  C   -0.443950   0.035010
    13  H    0.142871  -0.002132
    14  H    0.139034  -0.001147
    15  H    0.143687   0.010431
    16  C   -0.444403   0.004684
    17  H    0.135277  -0.000707
    18  H    0.142807   0.001171
    19  H    0.139188  -0.000382
 Sum of Mulliken charges =   0.00000   1.00000
 Mulliken charges and spin densities with hydrogens summed into heavy atoms:
               1          2
     1  C   -0.027051   0.006011
     5  C    0.080079  -0.037409
     6  C    0.019682   0.970417
     8  C   -0.027221   0.014053
    12  C   -0.018358   0.042161
    16  C   -0.027131   0.004767
 Electronic spatial extent (au):  <R**2>=            690.4599
 Charge=              0.0000 electrons
 Dipole moment (field-independent basis, Debye):
    X=             -0.0719    Y=             -0.1020    Z=              0.5716  Tot=              0.5851
 Quadrupole moment (field-independent basis, Debye-Ang):
   XX=            -40.4203   YY=            -40.6185   ZZ=            -41.7182
   XY=              0.2277   XZ=             -0.2907   YZ=             -0.1167
 Traceless Quadrupole moment (field-independent basis, Debye-Ang):
   XX=              0.4987   YY=              0.3005   ZZ=             -0.7992
   XY=              0.2277   XZ=             -0.2907   YZ=             -0.1167
 Octapole moment (field-independent basis, Debye-Ang**2):
  XXX=             -0.7779  YYY=             -2.1019  ZZZ=              1.6095  XYY=             -0.8829
  XXY=              0.4363  XXZ=              1.6238  XZZ=              0.4914  YZZ=              1.2489
  YYZ=             -0.0763  XYZ=             -0.1641
 Hexadecapole moment (field-independent basis, Debye-Ang**3):
 XXXX=           -491.3305 YYYY=           -237.9201 ZZZZ=           -228.8708 XXXY=              5.0879
 XXXZ=              6.3513 YYYX=             -2.5199 YYYZ=             -0.4044 ZZZX=             -4.0626
 ZZZY=             -1.5743 XXYY=           -122.0553 XXZZ=           -118.7995 YYZZ=            -77.8108
 XXYZ=              1.0144 YYXZ=             -0.2319 ZZXY=              1.2087
 N-N= 2.534607925922D+02 E-N=-1.052499273129D+03  KE= 2.339592224219D+02
                          Isotropic Fermi Contact Couplings
        Atom                 a.u.       MegaHertz       Gauss      10(-4) cm-1
     1  C(13)              0.00847       9.52581       3.39905       3.17747
     2  H(1)              -0.00015      -0.66592      -0.23762      -0.22213
     3  H(1)              -0.00021      -0.95039      -0.33912      -0.31702
     4  H(1)              -0.00007      -0.31551      -0.11258      -0.10524
     5  C(13)             -0.00696      -7.82575      -2.79242      -2.61039
     6  C(13)              0.29346     329.90429     117.71805     110.04423
     7  H(1)              -0.00437     -19.52923      -6.96851      -6.51425
     8  C(13)             -0.00816      -9.17857      -3.27514      -3.06164
     9  H(1)               0.00424      18.95022       6.76191       6.32111
    10  H(1)               0.00405      18.12361       6.46695       6.04539
    11  H(1)               0.02500     111.74003      39.87162      37.27246
    12  C(13)              0.03417      38.41339      13.70685      12.81333
    13  H(1)              -0.00069      -3.07224      -1.09625      -1.02479
    14  H(1)              -0.00015      -0.68717      -0.24520      -0.22922
    15  H(1)               0.00416      18.57383       6.62760       6.19556
    16  C(13)              0.00636       7.15186       2.55196       2.38560
    17  H(1)              -0.00025      -1.11139      -0.39657      -0.37072
    18  H(1)              -0.00018      -0.82526      -0.29447      -0.27528
    19  H(1)              -0.00018      -0.80837      -0.28845      -0.26964
 --------------------------------------------------------
       Center         ----  Spin Dipole Couplings  ----
                      3XX-RR        3YY-RR        3ZZ-RR
 --------------------------------------------------------
     1   Atom        0.018788     -0.008577     -0.010211
     2   Atom        0.011990     -0.008059     -0.003931
     3   Atom        0.007088     -0.001854     -0.005233
     4   Atom        0.006254     -0.003546     -0.002708
     5   Atom        0.005719     -0.019051      0.013332
     6   Atom       -0.482415     -0.289363      0.771779
     7   Atom       -0.058713      0.071559     -0.012846
     8   Atom        0.010877     -0.019504      0.008627
     9   Atom        0.001172      0.003113     -0.004285
    10   Atom        0.019626     -0.010874     -0.008753
    11   Atom        0.001649     -0.007878      0.006229
    12   Atom       -0.026119     -0.027616      0.053735
    13   Atom       -0.002128     -0.007236      0.009364
    14   Atom       -0.004330      0.001893      0.002437
    15   Atom        0.003555     -0.004971      0.001416
    16   Atom       -0.004391      0.007453     -0.003063
    17   Atom        0.000812      0.000813     -0.001626
    18   Atom       -0.002330      0.008418     -0.006087
    19   Atom       -0.004474      0.005060     -0.000586
 --------------------------------------------------------
                        XY            XZ            YZ
 --------------------------------------------------------
     1   Atom       -0.007012      0.002435     -0.000850
     2   Atom        0.001213     -0.005764     -0.000582
     3   Atom       -0.007239      0.000419     -0.000195
     4   Atom        0.000482      0.001423     -0.000028
     5   Atom        0.006462      0.028840      0.004084
     6   Atom        0.016056     -0.038929     -0.484213
     7   Atom       -0.001633     -0.001500      0.000107
     8   Atom       -0.005892     -0.029022      0.002874
     9   Atom       -0.012577     -0.007495      0.007100
    10   Atom        0.000888     -0.003026     -0.000682
    11   Atom       -0.001923     -0.009522     -0.001992
    12   Atom       -0.002119      0.015344     -0.012620
    13   Atom       -0.000885      0.000638      0.002304
    14   Atom       -0.002146      0.005451     -0.007583
    15   Atom        0.002103      0.005243      0.000196
    16   Atom        0.009164      0.005326      0.010622
    17   Atom        0.004087      0.002436      0.002117
    18   Atom        0.008674      0.000846      0.000059
    19   Atom        0.002117      0.001387      0.006461
 --------------------------------------------------------


 ---------------------------------------------------------------------------------
              Anisotropic Spin Dipole Couplings in Principal Axis System
 ---------------------------------------------------------------------------------

       Atom             a.u.   MegaHertz   Gauss  10(-4) cm-1        Axes

              Baa    -0.0106    -1.424    -0.508    -0.475  0.0754  0.5942  0.8008
     1 C(13)  Bbb    -0.0101    -1.353    -0.483    -0.451  0.2369  0.7694 -0.5932
              Bcc     0.0207     2.777     0.991     0.926  0.9686 -0.2345  0.0828
 
              Baa    -0.0082    -4.350    -1.552    -1.451 -0.0340  0.9953  0.0907
     2 H(1)   Bbb    -0.0058    -3.087    -1.101    -1.030  0.3122 -0.0757  0.9470
              Bcc     0.0139     7.437     2.654     2.481  0.9494  0.0605 -0.3082
 
              Baa    -0.0059    -3.144    -1.122    -1.049  0.4877  0.8715 -0.0521
     3 H(1)   Bbb    -0.0052    -2.798    -0.998    -0.933  0.0008  0.0592  0.9982
              Bcc     0.0111     5.943     2.120     1.982  0.8730 -0.4869  0.0282
 
              Baa    -0.0036    -1.912    -0.682    -0.638 -0.0691  0.9872  0.1436
     4 H(1)   Bbb    -0.0029    -1.554    -0.555    -0.518 -0.1438 -0.1523  0.9778
              Bcc     0.0065     3.466     1.237     1.156  0.9872  0.0469  0.1525
 
              Baa    -0.0219    -2.942    -1.050    -0.981 -0.5649  0.7340  0.3770
     5 C(13)  Bbb    -0.0176    -2.363    -0.843    -0.788  0.4986  0.6677 -0.5529
              Bcc     0.0395     5.305     1.893     1.770  0.6575  0.1243  0.7431
 
              Baa    -0.4838   -64.917   -23.164   -21.654  0.9906 -0.1349 -0.0213
     6 C(13)  Bbb    -0.4770   -64.006   -22.839   -21.350  0.1334  0.9226  0.3619
              Bcc     0.9607   128.923    46.003    43.004 -0.0292 -0.3614  0.9320
 
              Baa    -0.0588   -31.363   -11.191   -10.462  0.9994  0.0125  0.0326
     7 H(1)   Bbb    -0.0128    -6.828    -2.436    -2.278 -0.0326 -0.0019  0.9995
              Bcc     0.0716    38.192    13.628    12.739 -0.0126  0.9999  0.0015
 
              Baa    -0.0218    -2.922    -1.043    -0.975  0.4925  0.7746  0.3969
     8 C(13)  Bbb    -0.0177    -2.372    -0.847    -0.791 -0.4902  0.6236 -0.6089
              Bcc     0.0395     5.295     1.889     1.766  0.7192 -0.1053 -0.6868
 
              Baa    -0.0107    -5.697    -2.033    -1.900  0.7767  0.5595  0.2892
     9 H(1)   Bbb    -0.0086    -4.582    -1.635    -1.528  0.0318 -0.4933  0.8693
              Bcc     0.0193    10.279     3.668     3.429 -0.6290  0.6660  0.4010
 
              Baa    -0.0111    -5.909    -2.108    -1.971  0.0000  0.9594  0.2820
    10 H(1)   Bbb    -0.0089    -4.749    -1.695    -1.584  0.1099 -0.2803  0.9536
              Bcc     0.0200    10.658     3.803     3.555  0.9939  0.0310 -0.1054
 
              Baa    -0.0098    -5.226    -1.865    -1.743  0.4407  0.8206  0.3639
    11 H(1)   Bbb    -0.0039    -2.105    -0.751    -0.702  0.6521 -0.5712  0.4985
              Bcc     0.0137     7.331     2.616     2.445 -0.6169 -0.0176  0.7868
 
              Baa    -0.0296    -3.971    -1.417    -1.325 -0.2959  0.9349  0.1961
    12 C(13)  Bbb    -0.0289    -3.877    -1.383    -1.293  0.9381  0.3231 -0.1249
              Bcc     0.0585     7.848     2.800     2.618  0.1801 -0.1470  0.9726
 
              Baa    -0.0077    -4.117    -1.469    -1.373  0.1702  0.9757 -0.1380
    13 H(1)   Bbb    -0.0020    -1.059    -0.378    -0.353  0.9845 -0.1745 -0.0199
              Bcc     0.0097     5.176     1.847     1.726  0.0435  0.1324  0.9902
 
              Baa    -0.0080    -4.248    -1.516    -1.417  0.7308 -0.3091 -0.6086
    14 H(1)   Bbb    -0.0037    -1.954    -0.697    -0.652  0.5995  0.7170  0.3557
              Bcc     0.0116     6.202     2.213     2.069  0.3264 -0.6247  0.7093
 
              Baa    -0.0057    -3.036    -1.083    -1.013 -0.3337  0.9164  0.2210
    15 H(1)   Bbb    -0.0024    -1.272    -0.454    -0.424 -0.5343 -0.3770  0.7565
              Bcc     0.0081     4.308     1.537     1.437  0.7766  0.1344  0.6155
 
              Baa    -0.0098    -1.314    -0.469    -0.438  0.3993 -0.6252  0.6706
    16 C(13)  Bbb    -0.0091    -1.218    -0.435    -0.406  0.8178 -0.0878 -0.5688
              Bcc     0.0189     2.533     0.904     0.845  0.4145  0.7755  0.4762
 
              Baa    -0.0034    -1.802    -0.643    -0.601  0.7481 -0.5240 -0.4073
    17 H(1)   Bbb    -0.0028    -1.518    -0.542    -0.506  0.0648 -0.5531  0.8306
              Bcc     0.0062     3.320     1.185     1.107  0.6605  0.6477  0.3798
 
              Baa    -0.0075    -4.010    -1.431    -1.338  0.7860 -0.4262 -0.4478
    18 H(1)   Bbb    -0.0057    -3.064    -1.093    -1.022  0.3808 -0.2370  0.8938
              Bcc     0.0133     7.074     2.524     2.360  0.4871  0.8730  0.0240
 
              Baa    -0.0049    -2.628    -0.938    -0.876  0.9844 -0.1375 -0.1100
    19 H(1)   Bbb    -0.0048    -2.568    -0.916    -0.857  0.0165 -0.5500  0.8350
              Bcc     0.0097     5.196     1.854     1.733  0.1753  0.8238  0.5391
 

 ---------------------------------------------------------------------------------

 No NMR shielding tensors so no spin-rotation constants.
 Leave Link  601 at Sat Nov  7 02:12:44 2015, MaxMem=   805306368 cpu:         0.9
 (Enter /home/hetanjin/apps/g09D01/g09/l701.exe)
 Compute integral first derivatives.
 ... and contract with generalized density number  0.
 Leave Link  701 at Sat Nov  7 02:12:45 2015, MaxMem=   805306368 cpu:         0.6
 (Enter /home/hetanjin/apps/g09D01/g09/l702.exe)
 L702 exits ... SP integral derivatives will be done elsewhere.
 Leave Link  702 at Sat Nov  7 02:12:45 2015, MaxMem=   805306368 cpu:         0.1
 (Enter /home/hetanjin/apps/g09D01/g09/l703.exe)
 Compute integral first derivatives, UseDBF=F ICtDFT=           0.
 Integral derivatives from FoFJK, PRISM(SPDF).
 Calling FoFJK, ICntrl=      2127 FMM=F ISym2X=0 I1Cent= 0 IOpClX= 1 NMat=1 NMatS=1 NMatT=0.
 FoFJK:  IHMeth= 1 ICntrl=    2127 DoSepK=F KAlg= 0 I1Cent=   0 FoldK=F
 IRaf=         0 NMat=   1 IRICut=       1 DoRegI=T DoRafI=F ISym2E= 0.
 FoFCou: FMM=F IPFlag=           0 FMFlag=      100000 FMFlg1=         800
         NFxFlg=           0 DoJE=F BraDBF=F KetDBF=F FulRan=T
         wScrn=  0.000000 ICntrl=    2127 IOpCl=  1 I1Cent=           0 NGrid=           0
         NMat0=    1 NMatS0=      1 NMatT0=    0 NMatD0=    1 NMtDS0=    0 NMtDT0=    0
 Symmetry not used in FoFCou.
 Leave Link  703 at Sat Nov  7 02:12:54 2015, MaxMem=   805306368 cpu:        35.3
 (Enter /home/hetanjin/apps/g09D01/g09/l716.exe)
 Dipole        =-2.82916836D-02-4.01483210D-02 2.24889762D-01
 ***** Axes restored to original set *****
 -------------------------------------------------------------------
 Center     Atomic                   Forces (Hartrees/Bohr)
 Number     Number              X              Y              Z
 -------------------------------------------------------------------
      1        6           0.001444068    0.001027376    0.000560835
      2        1          -0.000395214   -0.000398658   -0.000577915
      3        1          -0.000107195   -0.000012477    0.000009205
      4        1           0.000128712   -0.000201289   -0.000232516
      5        6          -0.003773629    0.011797571    0.015666619
      6        6          -0.001488383   -0.035550333   -0.036046951
      7        1           0.000090707    0.011634752    0.009589711
      8        6           0.006010783    0.014871896    0.017061101
      9        1          -0.000654799   -0.001220552   -0.000403559
     10        1          -0.000759494   -0.000443250   -0.000662372
     11        1           0.001567252   -0.000850764   -0.002904578
     12        6          -0.003367500    0.000124482   -0.003435512
     13        1           0.000008392    0.000092844    0.000156164
     14        1           0.000177447   -0.000275167   -0.000101181
     15        1           0.000574613    0.000620835    0.000922394
     16        6           0.000679517   -0.000804824    0.001354338
     17        1           0.000032557   -0.000231433   -0.000140169
     18        1          -0.000095657   -0.000140684   -0.000767421
     19        1          -0.000072176   -0.000040326   -0.000048194
 -------------------------------------------------------------------
 Cartesian Forces:  Max     0.036046951 RMS     0.008151708
 Leave Link  716 at Sat Nov  7 02:12:54 2015, MaxMem=   805306368 cpu:         0.1
 (Enter /home/hetanjin/apps/g09D01/g09/l103.exe)

 GradGradGradGradGradGradGradGradGradGradGradGradGradGradGradGradGradGrad
 Berny optimization.
 FormGI is forming the generalized inverse of G from B-inverse, IUseBI=4.
 Internal  Forces:  Max     0.013951972 RMS     0.003111678
 Search for a local minimum.
 Step number   1 out of a maximum of  100
 All quantities printed in internal units (Hartrees-Bohrs-Radians)
 RMS Force = .31117D-02 SwitMx=.10000D-02 MixMth= 1
 Mixed Optimization -- RFO/linear search
 Second derivative matrix not updated -- first step.
 ITU=  0
     Eigenvalues ---    0.00230   0.00230   0.00230   0.00230   0.00316
     Eigenvalues ---    0.02042   0.04771   0.05029   0.05319   0.05319
     Eigenvalues ---    0.05397   0.05404   0.05418   0.05447   0.05447
     Eigenvalues ---    0.06759   0.07013   0.11509   0.14856   0.15083
     Eigenvalues ---    0.16000   0.16000   0.16000   0.16000   0.16000
     Eigenvalues ---    0.16000   0.16000   0.16000   0.16000   0.16000
     Eigenvalues ---    0.16000   0.16000   0.23406   0.27481   0.28370
     Eigenvalues ---    0.28418   0.28418   0.29059   0.33721   0.33969
     Eigenvalues ---    0.33969   0.33990   0.33990   0.34015   0.34017
     Eigenvalues ---    0.34017   0.34112   0.34156   0.34156   0.34166
     Eigenvalues ---    0.34166
 RFO step:  Lambda=-1.34560128D-02 EMin= 2.30000000D-03
 Linear search not attempted -- first point.
 Iteration  1 RMS(Cart)=  0.07526746 RMS(Int)=  0.00611249
 Iteration  2 RMS(Cart)=  0.00787968 RMS(Int)=  0.00417644
 Iteration  3 RMS(Cart)=  0.00001937 RMS(Int)=  0.00417640
 Iteration  4 RMS(Cart)=  0.00000013 RMS(Int)=  0.00417640
 ITry= 1 IFail=0 DXMaxC= 2.63D-01 DCOld= 1.00D+10 DXMaxT= 3.00D-01 DXLimC= 3.00D+00 Rises=F
 Variable       Old X    -DE/DX   Delta X   Delta X   Delta X     New X
                                 (Linear)    (Quad)   (Total)
    R1        2.07346  -0.00069   0.00000  -0.00196  -0.00196   2.07150
    R2        2.07346  -0.00001   0.00000  -0.00003  -0.00003   2.07343
    R3        2.07305   0.00021   0.00000   0.00059   0.00059   2.07365
    R4        2.91336   0.00109   0.00000   0.00366   0.00366   2.91701
    R5        2.93287  -0.01018   0.00000  -0.03530  -0.03530   2.89756
    R6        2.91234   0.00153   0.00000   0.00514   0.00514   2.91748
    R7        2.91234   0.00106   0.00000   0.00355   0.00355   2.91589
    R8        2.07803  -0.00064   0.00000  -0.00183  -0.00183   2.07620
    R9        2.89880  -0.01165   0.00000  -0.03831  -0.03831   2.86049
   R10        2.07051   0.00044   0.00000   0.00125   0.00125   2.07176
   R11        2.07142   0.00032   0.00000   0.00089   0.00089   2.07231
   R12        2.07051   0.00270   0.00000   0.00762   0.00762   2.07812
   R13        2.07067  -0.00007   0.00000  -0.00021  -0.00021   2.07046
   R14        2.07382  -0.00008   0.00000  -0.00023  -0.00023   2.07359
   R15        2.07301   0.00018   0.00000   0.00050   0.00050   2.07351
   R16        2.07301   0.00014   0.00000   0.00038   0.00038   2.07339
   R17        2.07382  -0.00071   0.00000  -0.00201  -0.00201   2.07181
   R18        2.07067   0.00008   0.00000   0.00022   0.00022   2.07089
    A1        1.87988   0.00014   0.00000  -0.00007  -0.00007   1.87981
    A2        1.88010   0.00036   0.00000   0.00303   0.00303   1.88313
    A3        1.94072  -0.00042   0.00000  -0.00238  -0.00238   1.93834
    A4        1.88010   0.00005   0.00000   0.00025   0.00025   1.88035
    A5        1.94072  -0.00009   0.00000  -0.00101  -0.00101   1.93971
    A6        1.93954  -0.00002   0.00000   0.00037   0.00037   1.93991
    A7        1.88414   0.00064   0.00000   0.00494   0.00486   1.88901
    A8        1.89923   0.00058   0.00000   0.00129   0.00128   1.90052
    A9        1.89923  -0.00071   0.00000   0.00263   0.00258   1.90181
   A10        1.93449  -0.00218   0.00000  -0.02093  -0.02091   1.91358
   A11        1.93449   0.00116   0.00000   0.00994   0.00990   1.94439
   A12        1.91142   0.00052   0.00000   0.00241   0.00243   1.91385
   A13        1.88615   0.00039   0.00000   0.11277   0.08923   1.97538
   A14        2.04055   0.01395   0.00000   0.10202   0.08185   2.12240
   A15        1.89691   0.00059   0.00000   0.11503   0.09168   1.98859
   A16        1.95529   0.00220   0.00000   0.01475   0.01465   1.96994
   A17        1.92445   0.00165   0.00000   0.01152   0.01139   1.93584
   A18        1.95528  -0.00397   0.00000  -0.02700  -0.02697   1.92832
   A19        1.87221  -0.00043   0.00000   0.00534   0.00511   1.87732
   A20        1.88042   0.00026   0.00000  -0.00213  -0.00209   1.87833
   A21        1.87221   0.00033   0.00000  -0.00213  -0.00211   1.87010
   A22        1.95325   0.00004   0.00000   0.00101   0.00100   1.95425
   A23        1.94002   0.00078   0.00000   0.00514   0.00513   1.94515
   A24        1.93250  -0.00188   0.00000  -0.01225  -0.01225   1.92025
   A25        1.88195  -0.00008   0.00000   0.00212   0.00210   1.88405
   A26        1.87429   0.00082   0.00000   0.00351   0.00349   1.87779
   A27        1.87869   0.00038   0.00000   0.00075   0.00076   1.87945
   A28        1.93250   0.00007   0.00000   0.00067   0.00067   1.93317
   A29        1.94002  -0.00042   0.00000  -0.00237  -0.00237   1.93765
   A30        1.95325  -0.00004   0.00000  -0.00055  -0.00055   1.95270
   A31        1.87869   0.00028   0.00000   0.00226   0.00226   1.88095
   A32        1.87429  -0.00003   0.00000  -0.00029  -0.00029   1.87400
   A33        1.88195   0.00017   0.00000   0.00046   0.00045   1.88240
    D1        1.04736   0.00099   0.00000   0.01163   0.01164   1.05900
    D2       -3.13510  -0.00092   0.00000  -0.00991  -0.00992   3.13817
    D3       -1.05336  -0.00037   0.00000  -0.00472  -0.00472  -1.05808
    D4       -1.04737   0.00115   0.00000   0.01400   0.01400  -1.03337
    D5        1.05335  -0.00076   0.00000  -0.00754  -0.00756   1.04580
    D6        3.13509  -0.00021   0.00000  -0.00236  -0.00236   3.13273
    D7        3.14159   0.00116   0.00000   0.01411   0.01412  -3.12748
    D8       -1.04087  -0.00075   0.00000  -0.00743  -0.00744  -1.04831
    D9        1.04086  -0.00020   0.00000  -0.00224  -0.00224   1.03863
   D10        0.99614  -0.00550   0.00000  -0.15424  -0.15647   0.83967
   D11        3.14159   0.00562   0.00000   0.16413   0.16632  -2.97528
   D12       -1.08232  -0.00533   0.00000  -0.14666  -0.14890  -1.23122
   D13        1.06313   0.00579   0.00000   0.17170   0.17389   1.23702
   D14        3.07459  -0.00530   0.00000  -0.14220  -0.14437   2.93022
   D15       -1.06314   0.00582   0.00000   0.17616   0.17841  -0.88473
   D16        3.09341  -0.00027   0.00000  -0.00132  -0.00134   3.09207
   D17       -1.08437   0.00020   0.00000   0.00566   0.00565  -1.07872
   D18        1.00293  -0.00006   0.00000   0.00188   0.00186   1.00479
   D19       -1.12043  -0.00043   0.00000  -0.00693  -0.00693  -1.12736
   D20        0.98498   0.00004   0.00000   0.00005   0.00006   0.98504
   D21        3.07227  -0.00022   0.00000  -0.00372  -0.00373   3.06854
   D22        1.01930  -0.00006   0.00000  -0.00668  -0.00667   1.01263
   D23        3.12471   0.00041   0.00000   0.00030   0.00032   3.12503
   D24       -1.07118   0.00016   0.00000  -0.00347  -0.00346  -1.07465
   D25       -1.00294   0.00008   0.00000   0.00084   0.00085  -1.00209
   D26        1.08436   0.00020   0.00000   0.00257   0.00258   1.08693
   D27       -3.09342   0.00010   0.00000   0.00113   0.00114  -3.09229
   D28       -3.07228  -0.00095   0.00000  -0.01275  -0.01276  -3.08504
   D29       -0.98499  -0.00084   0.00000  -0.01102  -0.01103  -0.99602
   D30        1.12042  -0.00093   0.00000  -0.01246  -0.01247   1.10795
   D31        1.07117   0.00066   0.00000   0.00537   0.00538   1.07655
   D32       -3.12472   0.00078   0.00000   0.00710   0.00710  -3.11761
   D33       -1.01931   0.00068   0.00000   0.00566   0.00566  -1.01365
   D34        1.05782  -0.00662   0.00000  -0.17585  -0.17833   0.87948
   D35        3.14158  -0.00462   0.00000  -0.15175  -0.15403   2.98754
   D36       -1.05785  -0.00569   0.00000  -0.16428  -0.16665  -1.22449
   D37       -3.08547   0.00452   0.00000   0.14312   0.14539  -2.94008
   D38       -1.00171   0.00652   0.00000   0.16722   0.16969  -0.83202
   D39        1.08205   0.00545   0.00000   0.15469   0.15708   1.23913
         Item               Value     Threshold  Converged?
 Maximum Force            0.013952     0.000015     NO 
 RMS     Force            0.003112     0.000010     NO 
 Maximum Displacement     0.262911     0.000060     NO 
 RMS     Displacement     0.072863     0.000040     NO 
 Predicted change in Energy=-1.014324D-02
 Lowest energy point so far.  Saving SCF results.
 GradGradGradGradGradGradGradGradGradGradGradGradGradGradGradGradGradGrad

 Leave Link  103 at Sat Nov  7 02:12:54 2015, MaxMem=   805306368 cpu:         0.5
 (Enter /home/hetanjin/apps/g09D01/g09/l202.exe)
                          Input orientation:                          
 ---------------------------------------------------------------------
 Center     Atomic      Atomic             Coordinates (Angstroms)
 Number     Number       Type             X           Y           Z
 ---------------------------------------------------------------------
      1          6           0        1.600206    0.995485    0.000310
      2          1           0        1.523600    1.649408    0.876752
      3          1           0        1.593109    1.632554   -0.892978
      4          1           0        2.572594    0.488659    0.041723
      5          6           0        0.441754   -0.024109   -0.033935
      6          6           0       -0.878323    0.752072   -0.111546
      7          1           0       -0.873699    1.537478   -0.879798
      8          6           0       -2.215340    0.061685    0.052952
      9          1           0       -2.261511   -0.569814    0.947944
     10          1           0       -3.028309    0.794350    0.122634
     11          1           0       -2.428168   -0.577102   -0.816523
     12          6           0        0.595320   -0.913291   -1.286646
     13          1           0       -0.175607   -1.690328   -1.334783
     14          1           0        0.536660   -0.321195   -2.208625
     15          1           0        1.571203   -1.414745   -1.274074
     16          6           0        0.506524   -0.899555    1.235050
     17          1           0        1.477317   -1.405370    1.309489
     18          1           0        0.375289   -0.292640    2.138612
     19          1           0       -0.267534   -1.675288    1.236011
 ---------------------------------------------------------------------
                    Distance matrix (angstroms):
                    1          2          3          4          5
     1  C    0.000000
     2  H    1.096191   0.000000
     3  H    1.097211   1.771175   0.000000
     4  H    1.097327   1.773415   1.772442   0.000000
     5  C    1.543618   2.190982   2.192739   2.192974   0.000000
     6  C    2.492964   2.747941   2.737492   3.464348   1.533324
     7  H    2.681148   2.974061   2.468675   3.718354   2.210080
     8  C    3.928504   4.144778   4.226901   4.806947   2.659898
     9  H    4.273293   4.388289   4.805988   5.030922   2.927375
    10  H    4.634498   4.692515   4.805367   5.609822   3.568715
    11  H    4.400914   4.841591   4.589019   5.184597   3.025673
    12  C    2.511868   3.479860   2.762587   2.763990   1.543863
    13  H    3.485625   4.351096   3.790131   3.767673   2.202187
    14  H    2.782835   3.791686   2.581500   3.140852   2.196939
    15  H    2.726556   3.743976   3.071114   2.521319   2.178869
    16  C    2.512349   2.767677   3.481486   2.760401   1.543024
    17  H    2.737362   3.085624   3.754097   2.528677   2.187478
    18  H    2.780652   2.585046   3.792097   3.136164   2.190088
    19  H    3.485461   3.793526   4.351598   3.765013   2.200510
                    6          7          8          9         10
     6  C    0.000000
     7  H    1.098679   0.000000
     8  C    1.513706   2.201814   0.000000
     9  H    2.187033   3.115661   1.096327   0.000000
    10  H    2.163115   2.489870   1.096619   1.769198   0.000000
    11  H    2.160027   2.625229   1.099696   1.772335   1.767220
    12  C    2.515138   2.886141   3.262654   3.643193   4.246504
    13  H    2.820539   3.333628   3.025867   3.288981   4.054084
    14  H    2.748058   2.685062   3.582573   4.225577   4.403205
    15  H    3.470842   3.853390   4.275366   4.510097   5.290218
[...]
 .00556313,-0.05060288,0.02494598,-0.01219075,0.00265924,-0.02486187,0.
 01210331,-0.00055492,0.01307790,-0.00647300,0.04896128,-0.12624994,-0.
 04403339,-0.00510548,0.00246820,0.00319508,-0.00002099,-0.00052413,0.0
 0106874,0.00013969,-0.02178650,-0.02035405,-0.00137901,0.48629237,-0.0
 4955038,-0.11842650,-0.00213878,-0.01375077,-0.01254738,0.00018458,-0.
 01381194,-0.01381354,-0.00177832,0.01217168,0.00960660,0.00138599,0.00
 147633,0.46826781,-0.00801820,-0.00149617,-0.07676714,-0.02083132,-0.0
 1732978,-0.00180537,0.02061859,0.01816374,0.00064659,-0.00173842,-0.00
 168800,-0.00138628,0.00871061,-0.03359911,0.44134531,-0.03556671,0.007
 16594,-0.00126260,0.00142341,0.00138450,0.00047266,0.00119934,0.001741
 17,-0.00063450,-0.00326816,-0.00238479,-0.00066176,-0.16659280,0.04614
 808,-0.00305115,0.49867992,-0.01649387,0.01068481,-0.00156699,-0.00045
 871,0.00043058,0.00000353,-0.00143128,0.00012670,0.00029419,-0.0047330
 3,-0.00286497,-0.00012296,0.04936544,-0.10558319,0.02142296,0.00059185
 ,0.47873020,-0.00029291,-0.00095147,0.00009594,-0.00006998,0.00055460,
 0.00064330,0.00112253,-0.00025424,0.00007545,0.00085787,0.00078751,0.0
 0049852,-0.00791059,0.02329011,-0.05690498,-0.03911288,-0.20951282,0.2
 2848595,0.00134347,0.00175707,-0.00119735,-0.00008677,-0.00022182,-0.0
 0015374,-0.00049884,-0.00035661,0.00059438,0.00030523,-0.00026314,0.00
 020031,0.00150049,0.01995761,-0.01486922,-0.05381977,0.00154762,0.0034
 2418,0.05912369,-0.00143024,0.00075060,-0.00033672,0.00018665,0.000030
 10,0.00001212,0.00063109,0.00071152,-0.00039515,0.00001923,0.00013660,
 -0.00031036,-0.00261422,-0.00932636,0.01132151,0.00121868,-0.23658622,
 0.14348904,-0.00065789,0.24840959,0.00078310,0.00061387,0.00024388,-0.
 00020911,-0.00009991,-0.00036986,-0.00031801,-0.00017999,0.00030383,0.
 00004776,-0.00042103,0.00001833,0.00178489,0.00056188,0.00147171,0.003
 91930,0.15186998,-0.10908496,-0.00428020,-0.15851773,0.10787572,-0.002
 31933,0.00291396,0.00002036,-0.00003039,-0.00013442,-0.00017800,0.0000
 8924,-0.00020516,0.00023769,-0.00049289,-0.00095966,-0.00001867,-0.019
 12023,-0.01032069,0.00151971,-0.19688760,-0.05107294,0.03475557,0.0004
 5568,0.00224796,-0.00138977,0.51180388,0.00244050,-0.00256900,0.000100
 03,-0.00001831,0.00003945,0.00017380,0.00022857,0.00021220,-0.00034323
 ,0.00099491,0.00110789,0.00005709,0.01225226,0.01225044,-0.00397325,-0
 .04277043,-0.10399063,0.03156052,-0.02069113,-0.00469427,0.00379139,-0
 .04715754,0.52510284,-0.00120780,0.00022703,-0.00001321,-0.00000290,0.
 00002486,0.00001722,-0.00016047,-0.00016220,0.00014621,-0.00070881,-0.
 00019359,0.00030256,-0.00073035,-0.00216863,0.00145481,0.02594353,0.02
 928962,-0.06393886,0.01584607,0.00849165,0.00223575,0.00810006,-0.0254
 5009,0.51197461,-0.00002846,0.00015406,-0.00018680,0.00002544,-0.00003
 167,0.00000682,0.00016364,0.00016877,-0.00011799,-0.00008325,0.0000449
 9,-0.00005468,0.00105536,-0.00053817,0.00047253,-0.00076362,-0.0137612
 8,0.02554376,-0.00369836,-0.00114647,0.00159079,-0.04881242,0.00022519
 ,0.01102791,0.05162905,0.00001571,0.00004145,0.00021004,-0.00001247,-0
 .00002465,-0.00002120,0.00003793,0.00002738,-0.00007608,-0.00005059,0.
 00002134,-0.00006716,0.00050122,-0.00023657,-0.00028504,-0.00503212,-0
 .00893489,0.01291081,-0.00277109,-0.00029379,0.00105273,0.00234351,-0.
 06968959,0.07879551,0.00496680,0.07776672,0.00013384,-0.00017638,0.000
 11452,-0.00002450,0.00001763,-0.00000041,-0.00006900,-0.00010284,0.000
 06326,0.00012958,0.00000827,0.00000836,-0.00056739,0.00096381,-0.00046
 568,0.00478482,0.00514442,-0.00159915,0.00074617,-0.00137291,-0.001108
 50,0.00582081,0.07696141,-0.27324595,-0.00843477,-0.08712029,0.2993885
 8,-0.00094146,0.00116785,-0.00000941,0.00001273,-0.00005356,-0.0000810
 1,-0.00002671,-0.00005932,0.00008909,-0.00045450,-0.00039461,-0.000028
 66,-0.00180420,-0.00413139,0.00186163,-0.02347555,0.02034804,-0.005370
 36,0.00151093,-0.00038353,-0.00002906,-0.19069300,0.13000300,-0.025103
 54,0.00133258,-0.00165450,-0.00067672,0.20898638,-0.00037089,0.0003836
 2,-0.00002577,0.00000900,-0.00000307,-0.00001563,0.00001227,0.00000249
 ,0.00001649,-0.00018719,-0.00012854,-0.00000410,-0.00204265,-0.0011717
 6,0.00070539,-0.01379099,0.01075442,-0.00263516,0.00025156,0.00104904,
 -0.00032299,0.13180125,-0.16658699,0.02468421,0.00591931,-0.00686970,0
 .00038797,-0.14050132,0.18006265,0.00029518,-0.00034594,0.00019798,-0.
 00000185,0.00002516,0.00000378,-0.00001638,-0.00001721,-0.00001491,0.0
 0013231,0.00010803,-0.00000755,0.00084974,0.00151914,0.00047025,0.0057
 7536,-0.00565841,0.00013420,-0.00003881,-0.00072491,-0.00000328,-0.025
 34472,0.02474486,-0.05426763,-0.02369563,0.02122748,-0.00248514,0.0273
 7555,-0.02727510,0.05294041,0.00000796,0.00002790,0.00007465,0.0001362
 1,0.00009170,0.00010626,0.00009675,0.00005610,-0.00006449,-0.00020350,
 0.00014764,0.00002567,0.00150470,0.00027640,0.00104723,-0.00957550,-0.
 02548796,-0.01265014,-0.00140558,-0.00043522,0.00006975,-0.05414412,-0
 .03725790,-0.03175919,0.00083785,0.00045156,-0.00088031,0.00534399,0.0
 1875541,0.01530965,0.05874490,-0.00019656,0.00025452,0.00000734,0.0000
 9169,0.00006062,0.00007440,0.00006721,0.00000654,-0.00003286,-0.000198
 71,-0.00000478,0.00001251,0.00080349,-0.00019297,0.00044983,-0.0111896
 5,-0.01229780,-0.00191728,-0.00127028,-0.00034338,-0.00009685,-0.02826
 224,-0.19100948,-0.11307068,0.00261811,0.00808655,0.00548565,-0.004012
 77,-0.01765760,-0.01379345,0.04226402,0.21226974,-0.00015018,0.0001665
 7,-0.00011078,0.00000260,0.00001309,0.00000941,0.00002277,0.00002949,0
 .00000430,-0.00004808,-0.00006914,-0.00000494,-0.00010696,-0.00048666,
 0.00059387,-0.00111434,0.00705751,0.00767694,0.00033505,-0.00036403,-0
 .00162124,-0.02389766,-0.10749663,-0.12510102,-0.00533024,-0.02622301,
 -0.02110472,0.00169069,0.00438374,0.00264125,0.02860315,0.12287588,0.1
 3720701,0.00237553,-0.01732898,-0.02073056,-0.00406428,-0.00447660,-0.
 00124244,0.00057328,0.00072525,-0.00018628,0.00071641,-0.00033081,-0.0
 0086943,-0.07243797,0.00862213,0.01638041,-0.01199902,0.02034010,0.020
 32557,-0.00014561,-0.00074413,-0.00093847,0.00088211,-0.00004917,-0.00
 069155,-0.00014733,0.00009457,0.00018985,-0.00018278,-0.00025183,-0.00
 029904,-0.00130446,-0.00052192,-0.00013335,0.56951489,-0.00209383,-0.0
 1951237,-0.02274061,-0.00281214,-0.00298868,-0.00037425,0.00092380,0.0
 0058673,-0.00059786,0.00154792,0.00118164,0.00048500,-0.00126296,-0.09
 754861,-0.03951940,0.01429965,-0.01424209,-0.01103098,-0.00029300,0.00
 053419,0.00052665,-0.00035515,0.00056289,0.00039259,0.00015380,-0.0001
 3134,-0.00019368,-0.00018274,-0.00019363,-0.00001837,-0.00037433,-0.00
 013261,-0.00009690,0.01823110,0.53220530,-0.00257070,-0.00736658,-0.00
 543538,0.00041941,0.00064839,0.00063603,0.00077827,0.00162375,0.000771
 64,0.00077494,0.00041719,-0.00004797,0.00034706,-0.02955557,-0.1240918
 5,0.01051425,-0.00566466,0.00118349,-0.00088804,0.00057458,-0.00022806
 ,-0.00003280,0.00056732,-0.00025733,-0.00024255,-0.00008294,0.00014126
 ,-0.00042586,-0.00013524,0.00015864,-0.00027787,-0.00035242,-0.0001496
 6,0.01810801,-0.06652371,0.48973772,0.00047624,0.00058100,0.00020389,0
 .00049166,-0.00002594,0.00012628,-0.00010647,0.00002669,0.00011652,0.0
 0047221,0.00011344,0.00024276,0.00348649,0.00413910,0.00029454,0.00044
 749,0.00048196,-0.00017918,0.00000578,0.00004427,0.00006118,0.00007512
 ,0.00016700,0.00025726,0.00002799,-0.00000310,-0.00003854,0.00008375,0
 .00002812,-0.00006382,-0.00008176,0.00013931,0.00016079,-0.18945028,-0
 .12987388,-0.01590155,0.20347030,0.00184439,-0.00183958,-0.00401014,-0
 .00126081,-0.00070697,-0.00036001,0.00028152,0.00040941,0.00004161,-0.
 00014505,0.00022596,0.00004487,-0.01267115,-0.01349837,-0.00062136,-0.
 00153703,0.00032594,0.00068429,0.00005672,-0.00000931,-0.00015768,-0.0
 0012875,-0.00045169,-0.00034910,0.00002178,0.00015775,0.00008637,0.000
 09964,0.00021169,0.00016560,0.00075770,0.00045659,0.00001928,-0.129472
 82,-0.16921029,-0.01367037,0.14287483,0.18257461,0.00161413,-0.0026724
 2,-0.00476281,-0.00125708,-0.00153703,0.00009365,0.00009059,-0.0002699
 5,0.00022023,0.00021002,0.00028723,-0.00006035,-0.01974105,-0.01736076
 ,-0.00239935,-0.00101253,0.00100871,0.00070705,0.00006534,0.00000655,-
 0.00002794,0.00002128,-0.00022576,-0.00019377,0.00004763,-0.00000712,-
 0.00005745,0.00005528,0.00014139,0.00006214,0.00034114,0.00002556,0.00
 010933,-0.01568585,-0.01344240,-0.05048817,0.01639870,0.01781577,0.052
 93872,0.00006446,0.00030222,-0.00077553,-0.00014635,-0.00001459,0.0001
 3058,0.00024108,-0.00021694,-0.00010521,-0.00000810,0.00010530,-0.0001
 1821,-0.00179845,-0.00294414,0.00396036,0.00011443,-0.00098653,0.00054
 609,0.00007489,0.00025122,0.00003800,-0.00024313,0.00010544,-0.0000269
 1,0.00004727,-0.00000681,-0.00005435,-0.00003398,0.00004811,0.00005152
 ,0.00006036,0.00002022,0.00012861,-0.04964073,-0.00145026,0.00156287,0
 .00035254,-0.01331769,0.02124990,0.04840879,0.00039102,0.00126385,-0.0
 0039090,0.00018874,0.00020377,0.00014412,-0.00000213,-0.00006476,0.000
 12550,-0.00009841,-0.00008686,0.00004749,-0.00007910,0.01060963,-0.015
 64295,-0.00044421,0.00110165,-0.00045039,-0.00004487,-0.00006919,0.000
 06048,-0.00003697,-0.00009390,-0.00007222,-0.00004228,-0.00004280,-0.0
 0000327,0.00000043,0.00005745,0.00003639,-0.00000647,-0.00003385,0.000
 09619,-0.00161559,-0.13296090,0.12300061,0.00132091,-0.01228897,0.0180
 9389,0.00111437,0.14242971,0.00048917,0.00175888,0.00073703,0.00014670
 ,-0.00016494,0.00045386,-0.00045943,-0.00107613,0.00040948,-0.00005571
 ,-0.00010497,-0.00006142,0.00031847,0.01490408,-0.02143846,-0.00138420
 ,0.00140139,0.00104011,0.00048271,-0.00072411,-0.00000469,0.00028084,-
 0.00020305,-0.00000376,-0.00017261,-0.00005109,0.00011897,0.00007361,-
 0.00000889,-0.00000239,-0.00008128,0.00001275,-0.00008156,0.00169871,0
 .12256114,-0.22678300,0.00049651,-0.00198465,0.00350129,-0.00267152,-0
 .13287802,0.24812567,0.00048389,-0.00078478,-0.00040770,0.00022563,-0.
 00004559,0.00014729,-0.00000723,-0.00004807,0.00005743,0.00065401,0.00
 018777,-0.00001388,-0.00477721,0.00169282,-0.00103954,0.00019252,0.001
 42183,0.00234722,-0.00009045,0.00005783,-0.00013135,0.00037976,0.00009
 567,-0.00020659,-0.00007689,0.00001613,0.00008560,-0.00004487,0.000031
 93,0.00004794,0.00026547,-0.00009952,-0.00016288,-0.24593269,0.1066555
 8,-0.01694111,-0.02013050,0.01190744,-0.00204422,0.00153465,-0.0012466
 3,-0.00028224,0.26667707,0.00121564,0.00043043,0.00081761,-0.00032153,
 0.00040190,0.00013800,-0.00000093,-0.00009579,-0.00006339,-0.00095226,
 -0.00015506,-0.00041084,0.01646924,-0.01028751,0.00095914,0.00047898,-
 0.00202336,-0.00394150,0.00000329,0.00020382,0.00037253,-0.00046526,-0
 .00032358,0.00013693,0.00011383,0.00011420,-0.00006761,0.00019291,0.00
 012035,0.00006061,0.00050350,0.00035982,0.00012743,0.10712072,-0.10727
 551,0.01048803,-0.02030325,0.01239200,-0.00177294,0.01635367,-0.008889
 99,0.00069861,-0.11932928,0.11400207,0.00064132,0.00093204,0.00089855,
 0.00007106,0.00043270,0.00003855,-0.00016291,-0.00001631,-0.00003451,-
 0.00062575,-0.00009557,0.00014134,0.02379920,-0.01374037,-0.00025399,0
 .00027873,-0.00282867,-0.00311283,0.00033070,-0.00018545,0.00020307,-0
 .00023761,-0.00013721,0.00031727,0.00007966,-0.00000298,-0.00007240,0.
 00016145,0.00008752,0.00004048,0.00032573,0.00027353,0.00002440,-0.016
 57648,0.01025944,-0.04946176,-0.00170548,0.00144286,-0.00101965,-0.024
 93857,0.01196574,-0.00114955,0.01844107,-0.00847274,0.05223494,-0.0013
 2148,-0.01676569,0.02082879,0.00075517,0.00099106,0.00016770,-0.003950
 69,-0.00416050,0.00062306,0.00030656,-0.00051971,0.00092927,-0.0796043
 2,0.00014869,-0.00500412,-0.00110777,0.02068587,-0.02294949,-0.0046980
 8,0.00290607,-0.00088657,-0.00019737,0.00067105,-0.00043945,-0.0006584
 9,0.00059650,-0.00034679,0.00024249,-0.00003809,-0.00018865,-0.0003530
 6,-0.00038045,-0.00026475,0.00135229,-0.00302301,0.00465218,-0.0000545
 3,0.00013788,-0.00108911,-0.00013174,0.00054010,0.00113877,-0.00004806
 ,-0.00040984,0.00087799,0.58134811,-0.00427674,-0.01945349,0.02121899,
 0.00078796,0.00052567,0.00068596,-0.00280150,-0.00292055,-0.00002364,0
 .00157332,0.00116823,-0.00037435,-0.00270123,-0.10529789,0.04591920,0.
 00687610,-0.01465358,0.01443017,0.00193512,-0.00020488,0.00073684,0.00
 058354,-0.00015501,-0.00133165,0.00052844,0.00039928,0.00101295,-0.000
 60257,-0.00059022,0.00045967,-0.00028953,0.00004124,-0.00057582,-0.000
 43686,0.01037057,-0.01411363,0.00001911,0.00044866,-0.00080989,0.00069
 290,-0.00200080,-0.00506351,-0.00009337,0.00045116,-0.00036281,0.00377
 905,0.54141028,0.00376644,0.00450421,-0.00057887,-0.00080061,-0.001362
 42,0.00069006,-0.00115765,-0.00174465,0.00097055,-0.00064725,-0.000535
 86,0.00008306,0.00044735,0.04314738,-0.13763111,-0.00670579,0.00565576
 ,-0.00402653,0.00083163,-0.00171950,0.00022821,0.00050654,-0.00057377,
 0.00062765,0.00027496,0.00020806,0.00014353,0.00054060,0.00015588,0.00
 002627,0.00008068,0.00024738,-0.00018171,0.00146434,0.01390134,-0.0345
 0416,-0.00000966,0.00125630,0.00160994,0.00065043,-0.00282621,-0.00390
 191,-0.00064193,0.00125036,0.00141369,-0.00512392,0.05876573,0.5003767
 7,0.00056028,-0.00080396,0.00054685,-0.00003929,-0.00000525,-0.0000551
 9,0.00029410,-0.00002645,-0.00010799,0.00059102,0.00020883,0.00004978,
 -0.00121525,-0.00007198,0.00058965,0.00073250,-0.00026795,-0.00021867,
 -0.00000625,0.00007590,-0.00022185,-0.00000077,0.00027015,0.00031697,0
 .00028813,-0.00003629,-0.00037392,-0.00000795,0.00013821,-0.00020961,0
 .00003879,-0.00002882,0.00007060,-0.00002476,-0.00013391,0.00044129,-0
 .00003752,0.00009365,-0.00000504,0.00030609,-0.00020317,-0.00009322,0.
 00048889,-0.00028713,-0.00047635,-0.25737574,0.10335074,-0.01803855,0.
 27889585,0.00161233,0.00033292,-0.00052825,0.00001497,-0.00013465,0.00
 000780,-0.00029225,0.00034301,-0.00018961,-0.00092623,-0.00009840,0.00
 032520,0.01756769,-0.00981064,0.00170123,-0.00134585,-0.00215496,0.003
 38608,0.00112730,-0.00044238,0.00036676,-0.00068148,0.00013312,0.00035
 495,-0.00005981,-0.00002934,-0.00046214,0.00009472,0.00013935,-0.00019
 362,0.00021252,0.00005145,0.00014144,-0.00028399,0.00034652,-0.0013245
 5,-0.00012602,0.00005645,0.00002239,-0.00024861,-0.00007581,-0.0001161
 1,-0.00027154,0.00063914,0.00028560,0.10305891,-0.09968443,0.00770394,
 -0.11392739,0.10635165,-0.00096394,-0.00077867,0.00080861,0.00019693,0
 .00000386,-0.00000803,-0.00002202,-0.00039483,-0.00000920,0.00064013,0
 .00010188,0.00016857,-0.02517613,0.01186213,-0.00326998,0.00152454,0.0
 0352368,-0.00376989,-0.00146621,0.00080732,-0.00014968,0.00054535,0.00
 006799,-0.00029732,-0.00021981,-0.00022646,0.00024091,-0.00004563,-0.0
 0003020,0.00013260,-0.00005929,-0.00009217,0.00008357,-0.00123648,0.00
 044402,0.00133744,0.00003373,-0.00004874,-0.00012374,0.00031015,-0.000
 11975,0.00037585,0.00063449,-0.00036744,-0.00051699,-0.01713906,0.0073
 8035,-0.05036155,0.01894293,-0.01180162,0.05312942,-0.00008873,0.00061
 052,0.00063957,0.00013006,-0.00040699,0.00003523,-0.00006394,-0.000064
 25,-0.00022364,-0.00001527,0.00005644,0.00010672,-0.00122867,-0.000902
 63,-0.00140630,0.00030134,-0.00029056,-0.00046941,0.00002867,-0.000094
 99,0.00001593,0.00005438,-0.00014199,-0.00042854,-0.00034871,-0.000143
 16,0.00006476,0.00003339,0.00002019,0.00020629,0.00011031,0.00009635,0
 .00010104,0.00000447,0.00006246,-0.00004196,0.00012923,0.00026833,0.00
 025250,0.00065220,0.00000609,-0.00001189,0.00031930,-0.00027142,-0.000
 30017,-0.05649254,0.02221142,0.03373298,-0.00347603,0.01621955,0.02543
 554,0.05551728,0.00026896,0.00126402,0.00042592,0.00000831,-0.00008988
 ,-0.00018329,0.00019522,0.00021442,-0.00015130,-0.00007603,-0.00009161
 ,-0.00003544,-0.00355580,0.01081199,0.01604173,-0.00018871,0.00095237,
 -0.00041962,-0.00024052,0.00007741,-0.00003711,0.00016212,0.00006134,-
 0.00026098,-0.00014381,-0.00009352,0.00018480,-0.00000936,0.00003589,0
 .00010747,0.00000605,-0.00000231,0.00015943,0.00008497,-0.00206916,0.0
 0276869,0.00024679,0.00004378,0.00018178,-0.00012953,0.00089471,0.0010
 6243,-0.00023704,-0.00009001,0.00009212,0.02208750,-0.12835234,-0.1185
 8434,0.00100630,-0.00810978,-0.01101065,-0.02468854,0.13705746,-0.0004
 4608,-0.00156251,0.00060304,0.00047186,0.00095407,0.00047899,-0.000243
 71,0.00019037,0.00036870,0.00001066,0.00010257,-0.00001425,0.00372706,
 -0.01529082,-0.02135864,0.00124066,-0.00071906,0.00108795,-0.00007537,
 0.00002961,0.00001445,-0.00023293,0.00016207,-0.00024177,-0.00048735,-
 0.00025625,0.00004413,-0.00007015,-0.00001828,0.00013631,0.00012312,-0
 .00000699,0.00015361,-0.00043543,0.00518145,-0.00422608,-0.00012688,0.
 00006290,0.00032737,0.00031310,-0.00106334,-0.00167660,0.00007033,0.00
 012330,0.00044434,0.03362626,-0.11779665,-0.22468536,-0.00000260,0.002
 04948,0.00322593,-0.03716312,0.12828588,0.24579233,0.00053824,0.000005
 53,0.00076883,-0.00007852,0.00001424,-0.00015644,0.00024865,-0.0002623
 9,-0.00012365,0.00051314,0.00016885,-0.00016986,0.00083205,0.00138926,
 0.00050301,-0.00003447,0.00020140,0.00030081,0.00010087,-0.00013221,0.
 00009369,-0.00079891,0.00063274,-0.00002569,-0.00078978,0.00068621,-0.
 00048914,0.00011875,0.00016761,-0.00018502,-0.00007931,0.00006051,0.00
 009314,-0.00008908,-0.00001908,-0.00027582,0.00034226,0.00018941,0.000
 48836,0.00014572,0.00025819,0.00008660,-0.00011330,-0.00011088,0.00001
 640,-0.17801073,-0.13113591,-0.00917059,-0.02001208,-0.02174481,-0.001
 93523,0.00443325,0.00520310,-0.00029943,0.19273326,0.00156692,-0.00167
 066,0.00414094,0.00029929,0.00040854,-0.00000325,-0.00126334,-0.000758
 95,0.00024111,-0.00016565,0.00021339,-0.00003565,-0.01338493,-0.013805
 19,-0.00252966,-0.00122116,0.00022501,0.00002035,0.00017406,0.00006690
 ,-0.00011983,-0.00027211,0.00009398,0.00066180,0.00080843,-0.00026848,
 -0.00075415,0.00007907,0.00038456,-0.00042740,0.00030090,0.00008771,0.
 00024214,0.00029386,0.00047735,-0.00129889,0.00014966,0.00070234,0.000
 51502,0.00032165,0.00004706,-0.00002380,0.00008883,0.00002591,0.000070
 56,-0.13030540,-0.18150189,-0.00944960,0.01064851,0.01214678,0.0006792
 7,-0.01254682,-0.01251477,-0.00042782,0.14442824,0.19564040,-0.0009930
 7,0.00262993,-0.00486195,-0.00013293,0.00025836,0.00017459,0.00126105,
 0.00154264,0.00020930,-0.00007507,-0.00024303,-0.00010068,0.02061388,0
 .01829990,0.00179030,0.00048591,-0.00059816,0.00080830,0.00011239,-0.0
 0008152,0.00000328,-0.00047604,0.00021653,0.00048456,-0.00010162,0.000
 01499,-0.00012412,-0.00000748,-0.00009123,-0.00016339,-0.00033445,-0.0
 0010213,-0.00014807,0.00085847,0.00078652,0.00170719,-0.00036706,-0.00
 041780,-0.00043648,-0.00025132,-0.00012337,0.00034107,0.00004007,-0.00
 007610,-0.00013495,-0.00941212,-0.01015793,-0.05029851,-0.00115510,-0.
 00172896,-0.00099652,-0.02054553,-0.01862751,-0.00047444,0.01048003,0.
 00849886,0.05222051\\0.00000022,-0.00000086,0.00000016,0.00000068,-0.0
 0000050,0.00000018,0.00000067,-0.00000049,0.00000012,0.00000019,-0.000
 00090,0.00000014,-0.00000053,0.00000082,-0.00000080,0.00000074,0.00000
 058,0.00000112,0.00000050,0.00000020,-0.00000010,0.00000054,0.00000143
 ,-0.00000069,-0.00000013,0.00000049,0.00000001,0.00000044,0.00000102,-
 0.00000011,-0.00000057,0.00000052,0.00000001,0.00000023,-0.00000067,-0
 .00000010,-0.00000062,0.00000019,-0.00000013,-0.00000004,-0.00000009,-
 0.00000008,-0.00000059,-0.00000039,0.00000001,-0.00000044,-0.00000085,
 0.00000075,-0.00000053,-0.00000048,-0.00000011,-0.00000014,-0.00000020
 ,-0.00000008,-0.00000063,0.00000017,-0.00000030\\\@


 THOSE WHO ASPIRE NOT TO GUESS AND DIVINE,
 BUT TO DISCOVER AND KNOW, WHO PROPOSE NOT TO DEVISE 
 MIMIC AND FABULOUS WORLDS OF THEIR OWN, BUT TO 
 EXAMINE AND DISSECT THE NATURE OF THIS VERY WORLD 
 ITSELF, MUST GO TO THE FACTS THEMSELVES FOR EVERYTHING.

                               -- FRANCIS BACON, 1620
 Job cpu time:       0 days  0 hours 30 minutes 22.6 seconds.
 File lengths (MBytes):  RWF=     64 Int=      0 D2E=      0 Chk=      3 Scr=      1
 Normal termination of Gaussian 09 at Sat Nov  7 02:31:17 2015.
