 Entering Gaussian System, Link 0=/home/hetanjin/apps/g09D01/g09/g09
 Input=C6H14_3_r012_C10_2_opt_B3L.gjf
 Output=C6H14_3_r012_C10_2_opt_B3L.log
 Initial command:
 /home/hetanjin/apps/g09D01/g09/l1.exe "/state/partition1/Gau-2871.inp" -scrdir="/state/partition1/"
 Entering Link 1 = /home/hetanjin/apps/g09D01/g09/l1.exe PID=      2872.
  
 Copyright (c) 1988,1990,1992,1993,1995,1998,2003,2009,2013,
            Gaussian, Inc.  All Rights Reserved.
  
 This is part of the Gaussian(R) 09 program.  It is based on
 the Gaussian(R) 03 system (copyright 2003, Gaussian, Inc.),
 the Gaussian(R) 98 system (copyright 1998, Gaussian, Inc.),
 the Gaussian(R) 94 system (copyright 1995, Gaussian, Inc.),
 the Gaussian 92(TM) system (copyright 1992, Gaussian, Inc.),
 the Gaussian 90(TM) system (copyright 1990, Gaussian, Inc.),
 the Gaussian 88(TM) system (copyright 1988, Gaussian, Inc.),
 the Gaussian 86(TM) system (copyright 1986, Carnegie Mellon
 University), and the Gaussian 82(TM) system (copyright 1983,
 Carnegie Mellon University). Gaussian is a federally registered
 trademark of Gaussian, Inc.
  
 This software contains proprietary and confidential information,
 including trade secrets, belonging to Gaussian, Inc.
  
 This software is provided under written license and may be
 used, copied, transmitted, or stored only in accord with that
 written license.
  
 The following legend is applicable only to US Government
 contracts under FAR:
  
                    RESTRICTED RIGHTS LEGEND
  
 Use, reproduction and disclosure by the US Government is
 subject to restrictions as set forth in subparagraphs (a)
 and (c) of the Commercial Computer Software - Restricted
 Rights clause in FAR 52.227-19.
  
 Gaussian, Inc.
 340 Quinnipiac St., Bldg. 40, Wallingford CT 06492
  
  
 ---------------------------------------------------------------
 Warning -- This program may not be used in any manner that
 competes with the business of Gaussian, Inc. or will provide
 assistance to any competitor of Gaussian, Inc.  The licensee
 of this program is prohibited from giving any competitor of
 Gaussian, Inc. access to this program.  By using this program,
 the user acknowledges that Gaussian, Inc. is engaged in the
 business of creating and licensing software in the field of
 computational chemistry and represents and warrants to the
 licensee that it is not a competitor of Gaussian, Inc. and that
 it will not use this program in any manner prohibited above.
 ---------------------------------------------------------------
  

 Cite this work as:
 Gaussian 09, Revision D.01,
 M. J. Frisch, G. W. Trucks, H. B. Schlegel, G. E. Scuseria, 
 M. A. Robb, J. R. Cheeseman, G. Scalmani, V. Barone, B. Mennucci, 
 G. A. Petersson, H. Nakatsuji, M. Caricato, X. Li, H. P. Hratchian, 
 A. F. Izmaylov, J. Bloino, G. Zheng, J. L. Sonnenberg, M. Hada, 
 M. Ehara, K. Toyota, R. Fukuda, J. Hasegawa, M. Ishida, T. Nakajima, 
 Y. Honda, O. Kitao, H. Nakai, T. Vreven, J. A. Montgomery, Jr., 
 J. E. Peralta, F. Ogliaro, M. Bearpark, J. J. Heyd, E. Brothers, 
 K. N. Kudin, V. N. Staroverov, T. Keith, R. Kobayashi, J. Normand, 
 K. Raghavachari, A. Rendell, J. C. Burant, S. S. Iyengar, J. Tomasi, 
 M. Cossi, N. Rega, J. M. Millam, M. Klene, J. E. Knox, J. B. Cross, 
 V. Bakken, C. Adamo, J. Jaramillo, R. Gomperts, R. E. Stratmann, 
 O. Yazyev, A. J. Austin, R. Cammi, C. Pomelli, J. W. Ochterski, 
 R. L. Martin, K. Morokuma, V. G. Zakrzewski, G. A. Voth, 
 P. Salvador, J. J. Dannenberg, S. Dapprich, A. D. Daniels, 
 O. Farkas, J. B. Foresman, J. V. Ortiz, J. Cioslowski, 
 and D. J. Fox, Gaussian, Inc., Wallingford CT, 2013.
 
 ******************************************
 Gaussian 09:  ES64L-G09RevD.01 24-Apr-2013
                 7-Nov-2015 
 ******************************************
 %mem=6GB
 %nprocshared=4
 Will use up to    4 processors via shared memory.
 ----------------------------------------------
 #p B3LYP/6-31G(d) opt=tight int=ultrafine freq
 ----------------------------------------------
 1/7=10,14=-1,18=20,19=15,26=4,38=1/1,3;
 2/9=110,12=2,17=6,18=5,40=1/2;
 3/5=1,6=6,7=1,11=2,16=1,25=1,30=1,71=1,74=-5,75=-5/1,2,3;
 4//1;
 5/5=2,38=5/2;
 6/7=2,8=2,9=2,10=2,28=1/1;
 7//1,2,3,16;
 1/7=10,14=-1,18=20,19=15,26=4/3(2);
 2/9=110/2;
 99//99;
 2/9=110/2;
 3/5=1,6=6,7=1,11=2,16=1,25=1,30=1,71=1,74=-5,75=-5/1,2,3;
 4/5=5,16=3,69=1/1;
 5/5=2,38=5/2;
 7//1,2,3,16;
 1/7=10,14=-1,18=20,19=15,26=4/3(-5);
 2/9=110/2;
 6/7=2,8=2,9=2,10=2,19=2,28=1/1;
 99/9=1/99;
 Leave Link    1 at Sat Nov  7 02:06:17 2015, MaxMem=   805306368 cpu:         0.2
 (Enter /home/hetanjin/apps/g09D01/g09/l101.exe)
 ---------------------------------------------
 using B3LYP/6-31G(d) to do opt and freq calc.
 ---------------------------------------------
 Symbolic Z-matrix:
 Charge =  0 Multiplicity = 2
 C                    -2.58543  -0.17306  -0.29185 
 H                    -2.56946  -0.21059  -1.38848 
 H                    -2.79867   0.86056   0.00159 
 H                    -3.42636  -0.7886    0.04788 
 C                    -1.2643   -0.68112   0.2975 
 H                    -1.30509  -0.61825   1.39536 
 H                    -1.16192  -1.74928   0.0599 
 C                     0.        0.05117  -0.19883 
 H                     0.        0.00139  -1.30033 
 C                     1.2643   -0.68112   0.29751 
 H                     1.16193  -1.74928   0.05992 
 C                     2.58543  -0.17306  -0.29185 
 H                     2.79867   0.86057   0.00157 
 H                     3.42636  -0.78859   0.04789 
 H                     2.56946  -0.21061  -1.38848 
 C                    0.         1.53336   0.20729 
 H                    -0.88093   2.05894  -0.1759 
 H                    -0.00001   1.63604   1.30101 
 H                     0.88093   2.05894  -0.17589 
 
 NAtoms=     19 NQM=       19 NQMF=       0 NMMI=      0 NMMIF=      0
                NMic=       0 NMicF=      0.
                    Isotopes and Nuclear Properties:
 (Nuclear quadrupole moments (NQMom) in fm**2, nuclear magnetic moments (NMagM)
  in nuclear magnetons)

  Atom         1           2           3           4           5           6           7           8           9          10
 IAtWgt=          12           1           1           1          12           1           1          12           1          12
 AtmWgt=  12.0000000   1.0078250   1.0078250   1.0078250  12.0000000   1.0078250   1.0078250  12.0000000   1.0078250  12.0000000
 NucSpn=           0           1           1           1           0           1           1           0           1           0
 AtZEff=   0.0000000   0.0000000   0.0000000   0.0000000   0.0000000   0.0000000   0.0000000   0.0000000   0.0000000   0.0000000
 NQMom=    0.0000000   0.0000000   0.0000000   0.0000000   0.0000000   0.0000000   0.0000000   0.0000000   0.0000000   0.0000000
 NMagM=    0.0000000   2.7928460   2.7928460   2.7928460   0.0000000   2.7928460   2.7928460   0.0000000   2.7928460   0.0000000
 AtZNuc=   6.0000000   1.0000000   1.0000000   1.0000000   6.0000000   1.0000000   1.0000000   6.0000000   1.0000000   6.0000000

  Atom        11          12          13          14          15          16          17          18          19
 IAtWgt=           1          12           1           1           1          12           1           1           1
 AtmWgt=   1.0078250  12.0000000   1.0078250   1.0078250   1.0078250  12.0000000   1.0078250   1.0078250   1.0078250
 NucSpn=           1           0           1           1           1           0           1           1           1
 AtZEff=   0.0000000   0.0000000   0.0000000   0.0000000   0.0000000   0.0000000   0.0000000   0.0000000   0.0000000
 NQMom=    0.0000000   0.0000000   0.0000000   0.0000000   0.0000000   0.0000000   0.0000000   0.0000000   0.0000000
 NMagM=    2.7928460   0.0000000   2.7928460   2.7928460   2.7928460   0.0000000   2.7928460   2.7928460   2.7928460
 AtZNuc=   1.0000000   6.0000000   1.0000000   1.0000000   1.0000000   6.0000000   1.0000000   1.0000000   1.0000000
 Leave Link  101 at Sat Nov  7 02:06:17 2015, MaxMem=   805306368 cpu:         0.6
 (Enter /home/hetanjin/apps/g09D01/g09/l103.exe)

 GradGradGradGradGradGradGradGradGradGradGradGradGradGradGradGradGradGrad
 Berny optimization.
 Initialization pass.
                           ----------------------------
                           !    Initial Parameters    !
                           ! (Angstroms and Degrees)  !
 --------------------------                            --------------------------
 ! Name  Definition              Value          Derivative Info.                !
 --------------------------------------------------------------------------------
 ! R1    R(1,2)                  1.0974         estimate D2E/DX2                !
 ! R2    R(1,3)                  1.0954         estimate D2E/DX2                !
 ! R3    R(1,4)                  1.0961         estimate D2E/DX2                !
 ! R4    R(1,5)                  1.5332         estimate D2E/DX2                !
 ! R5    R(5,6)                  1.1004         estimate D2E/DX2                !
 ! R6    R(5,7)                  1.099          estimate D2E/DX2                !
 ! R7    R(5,8)                  1.5431         estimate D2E/DX2                !
 ! R8    R(8,9)                  1.1026         estimate D2E/DX2                !
 ! R9    R(8,10)                 1.5431         estimate D2E/DX2                !
 ! R10   R(8,16)                 1.5368         estimate D2E/DX2                !
 ! R11   R(10,11)                1.099          estimate D2E/DX2                !
 ! R12   R(10,12)                1.5332         estimate D2E/DX2                !
 ! R13   R(12,13)                1.0954         estimate D2E/DX2                !
 ! R14   R(12,14)                1.0961         estimate D2E/DX2                !
 ! R15   R(12,15)                1.0974         estimate D2E/DX2                !
 ! R16   R(16,17)                1.095          estimate D2E/DX2                !
 ! R17   R(16,18)                1.0985         estimate D2E/DX2                !
 ! R18   R(16,19)                1.095          estimate D2E/DX2                !
 ! A1    A(2,1,3)              107.6254         estimate D2E/DX2                !
 ! A2    A(2,1,4)              107.559          estimate D2E/DX2                !
 ! A3    A(2,1,5)              111.115          estimate D2E/DX2                !
 ! A4    A(3,1,4)              107.3082         estimate D2E/DX2                !
 ! A5    A(3,1,5)              112.1749         estimate D2E/DX2                !
 ! A6    A(4,1,5)              110.8451         estimate D2E/DX2                !
 ! A7    A(1,5,6)              109.4277         estimate D2E/DX2                !
 ! A8    A(1,5,7)              108.6152         estimate D2E/DX2                !
 ! A9    A(1,5,8)              115.1572         estimate D2E/DX2                !
 ! A10   A(6,5,7)              105.9422         estimate D2E/DX2                !
 ! A11   A(6,5,8)              108.915          estimate D2E/DX2                !
 ! A12   A(7,5,8)              108.3832         estimate D2E/DX2                !
 ! A13   A(5,8,9)              107.4517         estimate D2E/DX2                !
 ! A14   A(5,8,10)             110.0384         estimate D2E/DX2                !
 ! A15   A(5,8,16)             111.882          estimate D2E/DX2                !
 ! A16   A(9,8,10)             107.4518         estimate D2E/DX2                !
 ! A17   A(9,8,16)             107.9103         estimate D2E/DX2                !
 ! A18   A(10,8,16)            111.882          estimate D2E/DX2                !
 ! A19   A(8,10,11)            108.3833         estimate D2E/DX2                !
 ! A20   A(8,10,12)            115.1571         estimate D2E/DX2                !
 ! A21   A(11,10,12)           108.6152         estimate D2E/DX2                !
 ! A22   A(10,12,13)           112.1749         estimate D2E/DX2                !
 ! A23   A(10,12,14)           110.8451         estimate D2E/DX2                !
 ! A24   A(10,12,15)           111.1149         estimate D2E/DX2                !
 ! A25   A(13,12,14)           107.3082         estimate D2E/DX2                !
 ! A26   A(13,12,15)           107.6254         estimate D2E/DX2                !
 ! A27   A(14,12,15)           107.559          estimate D2E/DX2                !
 ! A28   A(8,16,17)            111.7423         estimate D2E/DX2                !
 ! A29   A(8,16,18)            110.6857         estimate D2E/DX2                !
 ! A30   A(8,16,19)            111.7423         estimate D2E/DX2                !
 ! A31   A(17,16,18)           107.6699         estimate D2E/DX2                !
 ! A32   A(17,16,19)           107.12           estimate D2E/DX2                !
 ! A33   A(18,16,19)           107.67           estimate D2E/DX2                !
 ! D1    D(2,1,5,6)            179.2076         estimate D2E/DX2                !
 ! D2    D(2,1,5,7)            -65.5701         estimate D2E/DX2                !
 ! D3    D(2,1,5,8)             56.1554         estimate D2E/DX2                !
 ! D4    D(3,1,5,6)             58.6833         estimate D2E/DX2                !
 ! D5    D(3,1,5,7)            173.9055         estimate D2E/DX2                !
 ! D6    D(3,1,5,8)            -64.369          estimate D2E/DX2                !
 ! D7    D(4,1,5,6)            -61.2484         estimate D2E/DX2                !
 ! D8    D(4,1,5,7)             53.9738         estimate D2E/DX2                !
 ! D9    D(4,1,5,8)            175.6993         estimate D2E/DX2                !
 ! D10   D(1,5,8,9)            -54.8991         estimate D2E/DX2                !
 ! D11   D(1,5,8,10)          -171.5975         estimate D2E/DX2                !
 ! D12   D(1,5,8,16)            63.3728         estimate D2E/DX2                !
 ! D13   D(6,5,8,9)           -178.2239         estimate D2E/DX2                !
 ! D14   D(6,5,8,10)            65.0777         estimate D2E/DX2                !
 ! D15   D(6,5,8,16)           -59.952          estimate D2E/DX2                !
 ! D16   D(7,5,8,9)             66.9516         estimate D2E/DX2                !
 ! D17   D(7,5,8,10)           -49.7467         estimate D2E/DX2                !
 ! D18   D(7,5,8,16)          -174.7765         estimate D2E/DX2                !
 ! D19   D(5,8,10,11)           49.746          estimate D2E/DX2                !
 ! D20   D(5,8,10,12)          171.5967         estimate D2E/DX2                !
 ! D21   D(9,8,10,11)          -66.9523         estimate D2E/DX2                !
 ! D22   D(9,8,10,12)           54.8984         estimate D2E/DX2                !
 ! D23   D(16,8,10,11)         174.7757         estimate D2E/DX2                !
 ! D24   D(16,8,10,12)         -63.3736         estimate D2E/DX2                !
 ! D25   D(5,8,16,17)          -57.9911         estimate D2E/DX2                !
 ! D26   D(5,8,16,18)           62.0011         estimate D2E/DX2                !
 ! D27   D(5,8,16,19)         -178.0067         estimate D2E/DX2                !
 ! D28   D(9,8,16,17)           60.0075         estimate D2E/DX2                !
 ! D29   D(9,8,16,18)          179.9997         estimate D2E/DX2                !
 ! D30   D(9,8,16,19)          -60.0081         estimate D2E/DX2                !
 ! D31   D(10,8,16,17)         178.0062         estimate D2E/DX2                !
 ! D32   D(10,8,16,18)         -62.0016         estimate D2E/DX2                !
 ! D33   D(10,8,16,19)          57.9905         estimate D2E/DX2                !
 ! D34   D(8,10,12,13)          64.3686         estimate D2E/DX2                !
 ! D35   D(8,10,12,14)        -175.6996         estimate D2E/DX2                !
 ! D36   D(8,10,12,15)         -56.1557         estimate D2E/DX2                !
 ! D37   D(11,10,12,13)       -173.9059         estimate D2E/DX2                !
 ! D38   D(11,10,12,14)        -53.9741         estimate D2E/DX2                !
 ! D39   D(11,10,12,15)         65.5698         estimate D2E/DX2                !
 --------------------------------------------------------------------------------
 Trust Radius=3.00D-01 FncErr=1.00D-07 GrdErr=1.00D-06
 Number of steps in this run=    100 maximum allowed number of steps=    114.
 GradGradGradGradGradGradGradGradGradGradGradGradGradGradGradGradGradGrad

 Leave Link  103 at Sat Nov  7 02:06:17 2015, MaxMem=   805306368 cpu:         0.0
 (Enter /home/hetanjin/apps/g09D01/g09/l202.exe)
                          Input orientation:                          
 ---------------------------------------------------------------------
 Center     Atomic      Atomic             Coordinates (Angstroms)
 Number     Number       Type             X           Y           Z
 ---------------------------------------------------------------------
      1          6           0       -2.585432   -0.173063   -0.291849
      2          1           0       -2.569458   -0.210592   -1.388477
      3          1           0       -2.798673    0.860561    0.001587
      4          1           0       -3.426358   -0.788597    0.047878
      5          6           0       -1.264298   -0.681121    0.297502
      6          1           0       -1.305088   -0.618252    1.395357
      7          1           0       -1.161923   -1.749281    0.059899
      8          6           0        0.000001    0.051166   -0.198829
      9          1           0        0.000003    0.001388   -1.300329
     10          6           0        1.264300   -0.681115    0.297508
     11          1           0        1.161927   -1.749278    0.059916
     12          6           0        2.585433   -0.173062   -0.291851
     13          1           0        2.798671    0.860567    0.001568
     14          1           0        3.426361   -0.788588    0.047886
     15          1           0        2.569459   -0.210609   -1.388479
     16          6           0       -0.000004    1.533363    0.207287
     17          1           0       -0.880930    2.058937   -0.175897
     18          1           0       -0.000012    1.636037    1.301012
     19          1           0        0.880926    2.058939   -0.175885
 ---------------------------------------------------------------------
                    Distance matrix (angstroms):
                    1          2          3          4          5
     1  C    0.000000
     2  H    1.097386   0.000000
     3  H    1.095425   1.769798   0.000000
     4  H    1.096108   1.769600   1.765178   0.000000
     5  C    1.533249   2.183430   2.195144   2.179075   0.000000
     6  H    2.164287   3.084566   2.521959   2.518830   1.100410
     7  H    2.152805   2.538998   3.081173   2.459822   1.099046
     8  C    2.596805   2.843572   2.920251   3.536383   1.543062
     9  H    2.780636   2.579697   3.204021   3.765858   2.148800
    10  C    3.927581   4.214456   4.355696   4.698525   2.528598
    11  H    4.080550   4.288197   4.743523   4.687794   2.661574
    12  C    5.170865   5.270379   5.490271   6.052762   3.927581
    13  H    5.490269   5.647691   5.597344   6.439944   4.355697
    14  H    6.052763   6.192501   6.439944   6.852719   4.698525
    15  H    5.270380   5.138917   5.647701   6.192497   4.214452
    16  C    3.137748   3.491409   2.885745   4.142078   2.551572
    17  H    2.810800   3.077700   2.268335   3.825928   2.806955
    18  H    3.534748   4.152763   3.181567   4.380530   2.823946
    19  H    4.124429   4.304219   3.873894   5.168290   3.511981
                    6          7          8          9         10
     6  H    0.000000
     7  H    1.755896   0.000000
     8  C    2.166289   2.158383   0.000000
     9  H    3.058421   2.503025   1.102624   0.000000
    10  C    2.794813   2.661577   1.543061   2.148800   0.000000
    11  H    3.024696   2.323850   2.158384   2.503031   1.099046
    12  C    4.263921   4.080548   2.596804   2.780631   1.533250
    13  H    4.579344   4.743523   2.920247   3.204008   2.195144
    14  H    4.922530   4.687795   3.536382   3.765856   2.179075
    15  H    4.788322   4.288184   2.843573   2.579693   2.183430
    16  C    2.782841   3.485331   1.536827   2.149384   2.551572
    17  H    3.133064   3.825844   2.192649   2.504775   3.511981
    18  H    2.606519   3.788242   2.182049   3.072304   2.823951
    19  H    3.796684   4.327975   2.192649   2.504779   2.806951
                   11         12         13         14         15
    11  H    0.000000
    12  C    2.152804   0.000000
    13  H    3.081173   1.095424   0.000000
    14  H    2.459823   1.096108   1.765178   0.000000
    15  H    2.538995   1.097387   1.769799   1.769600   0.000000
    16  C    3.485331   3.137755   2.885751   4.142082   3.491425
    17  H    4.327976   4.124432   3.873893   5.168291   4.304228
    18  H    3.788242   3.534767   3.181593   4.380544   4.152788
    19  H    3.825844   2.810804   2.268332   3.825928   3.077723
                   16         17         18         19
    16  C    0.000000
    17  H    1.095029   0.000000
    18  H    1.098534   1.770910   0.000000
    19  H    1.095029   1.761856   1.770910   0.000000
 Stoichiometry    C6H13(2)
 Framework group  C1[X(C6H13)]
 Deg. of freedom    51
 Full point group                 C1      NOp   1
 Largest Abelian subgroup         C1      NOp   1
 Largest concise Abelian subgroup C1      NOp   1
                         Standard orientation:                         
 ---------------------------------------------------------------------
 Center     Atomic      Atomic             Coordinates (Angstroms)
 Number     Number       Type             X           Y           Z
 ---------------------------------------------------------------------
      1          6           0        2.556473   -0.177045    0.290491
      2          1           0        2.526841   -0.248700    1.385135
      3          1           0        2.766254    0.866560    0.031967
      4          1           0        3.405889   -0.776230   -0.057248
      5          6           0        1.246479   -0.675185   -0.331301
      6          1           0        1.300765   -0.578002   -1.426066
      7          1           0        1.148501   -1.750851   -0.128217
      8          6           0       -0.029062    0.033068    0.171106
      9          1           0       -0.042701   -0.050877    1.270446
     10          6           0       -1.281854   -0.691698   -0.363932
     11          1           0       -1.175105   -1.766030   -0.158217
     12          6           0       -2.613851   -0.210826    0.223777
     13          1           0       -2.830505    0.829998   -0.040233
     14          1           0       -3.446113   -0.820990   -0.145673
     15          1           0       -2.611539   -0.282290    1.318832
     16          6           0       -0.034174    1.527125   -0.188900
     17          1           0        0.838154    2.046295    0.221703
     18          1           0       -0.020994    1.663698   -1.278832
     19          1           0       -0.923518    2.034787    0.198959
 ---------------------------------------------------------------------
 Rotational constants (GHZ):      6.7219374      1.8580940      1.5877860
 Leave Link  202 at Sat Nov  7 02:06:17 2015, MaxMem=   805306368 cpu:         0.1
 (Enter /home/hetanjin/apps/g09D01/g09/l301.exe)
 Standard basis: 6-31G(d) (6D, 7F)
 Ernie: Thresh=  0.10000D-02 Tol=  0.10000D-05 Strict=F.
 There are   116 symmetry adapted cartesian basis functions of A   symmetry.
 There are   116 symmetry adapted basis functions of A   symmetry.
   116 basis functions,   220 primitive gaussians,   116 cartesian basis functions
    25 alpha electrons       24 beta electrons
       nuclear repulsion energy       244.1723791801 Hartrees.
 IExCor=  402 DFT=T Ex+Corr=B3LYP ExCW=0 ScaHFX=  0.200000
 ScaDFX=  0.800000  0.720000  1.000000  0.810000 ScalE2=  1.000000  1.000000
 IRadAn=      5 IRanWt=     -1 IRanGd=            0 ICorTp=0 IEmpDi=  4
 NAtoms=   19 NActive=   19 NUniq=   19 SFac= 1.00D+00 NAtFMM=   60 NAOKFM=F Big=F
 Integral buffers will be    131072 words long.
 Raffenetti 2 integral format.
 Two-electron integral symmetry is turned on.
 Leave Link  301 at Sat Nov  7 02:06:17 2015, MaxMem=   805306368 cpu:         0.2
 (Enter /home/hetanjin/apps/g09D01/g09/l302.exe)
 NPDir=0 NMtPBC=     1 NCelOv=     1 NCel=       1 NClECP=     1 NCelD=      1
         NCelK=      1 NCelE2=     1 NClLst=     1 CellRange=     0.0.
 One-electron integrals computed using PRISM.
 NBasis=   116 RedAO= T EigKep=  3.82D-03  NBF=   116
 NBsUse=   116 1.00D-06 EigRej= -1.00D+00 NBFU=   116
 Precomputing XC quadrature grid using
 IXCGrd= 4 IRadAn=           5 IRanWt=          -1 IRanGd=           0 AccXCQ= 0.00D+00.
 Generated NRdTot=       0 NPtTot=           0 NUsed=           0 NTot=          32
 NSgBfM=   116   116   116   116   116 MxSgAt=    19 MxSgA2=    19.
 Leave Link  302 at Sat Nov  7 02:06:18 2015, MaxMem=   805306368 cpu:         1.5
 (Enter /home/hetanjin/apps/g09D01/g09/l303.exe)
 DipDrv:  MaxL=1.
 Leave Link  303 at Sat Nov  7 02:06:18 2015, MaxMem=   805306368 cpu:         0.1
 (Enter /home/hetanjin/apps/g09D01/g09/l401.exe)
 ExpMin= 1.61D-01 ExpMax= 3.05D+03 ExpMxC= 4.57D+02 IAcc=3 IRadAn=         5 AccDes= 0.00D+00
 Harris functional with IExCor=  402 and IRadAn=       5 diagonalized for initial guess.
 HarFok:  IExCor=  402 AccDes= 0.00D+00 IRadAn=         5 IDoV= 1 UseB2=F ITyADJ=14
 ICtDFT=  3500011 ScaDFX=  1.000000  1.000000  1.000000  1.000000
 FoFCou: FMM=F IPFlag=           0 FMFlag=      100000 FMFlg1=           0
         NFxFlg=           0 DoJE=T BraDBF=F KetDBF=T FulRan=T
         wScrn=  0.000000 ICntrl=     500 IOpCl=  0 I1Cent=   200000004 NGrid=           0
         NMat0=    1 NMatS0=      1 NMatT0=    0 NMatD0=    1 NMtDS0=    0 NMtDT0=    0
 Petite list used in FoFCou.
 Harris En= -236.451635739381    
 JPrj=0 DoOrth=F DoCkMO=F.
 Initial guess <Sx>= 0.0000 <Sy>= 0.0000 <Sz>= 0.5000 <S**2>= 0.7500 S= 0.5000
 Leave Link  401 at Sat Nov  7 02:06:20 2015, MaxMem=   805306368 cpu:         8.2
 (Enter /home/hetanjin/apps/g09D01/g09/l502.exe)
 UHF open shell SCF:
 Using DIIS extrapolation, IDIIS=  1040.
 Integral symmetry usage will be decided dynamically.
 Keep R1 and R2 ints in memory in canonical form, NReq=47059932.
 IVT=       60514 IEndB=       60514 NGot=   805306368 MDV=   759189273
 LenX=   759189273 LenY=   759175376
 Requested convergence on RMS density matrix=1.00D-08 within 128 cycles.
 Requested convergence on MAX density matrix=1.00D-06.
 Requested convergence on             energy=1.00D-06.
 No special actions if energy rises.
 FoFCou: FMM=F IPFlag=           0 FMFlag=           0 FMFlg1=           0
         NFxFlg=           0 DoJE=F BraDBF=F KetDBF=F FulRan=T
         wScrn=  0.000000 ICntrl=     600 IOpCl=  0 I1Cent=           0 NGrid=           0
         NMat0=    1 NMatS0=   6786 NMatT0=    0 NMatD0=    1 NMtDS0=    0 NMtDT0=    0
 Symmetry not used in FoFCou.
 Integral accuracy reduced to 1.0D-05 until final iterations.

 Cycle   1  Pass 0  IDiag  1:
 E= -236.148955773772    
 DIIS: error= 4.44D-02 at cycle   1 NSaved=   1.
 NSaved= 1 IEnMin= 1 EnMin= -236.148955773772     IErMin= 1 ErrMin= 4.44D-02
 ErrMax= 4.44D-02  0.00D+00 EMaxC= 1.00D-01 BMatC= 9.17D-01 BMatP= 9.17D-01
 IDIUse=3 WtCom= 5.56D-01 WtEn= 4.44D-01
 Coeff-Com:  0.100D+01
 Coeff-En:   0.100D+01
 Coeff:      0.100D+01
 Gap=     0.265 Goal=   None    Shift=    0.000
 Gap=     0.239 Goal=   None    Shift=    0.000
 GapD=    0.239 DampG=1.000 DampE=0.500 DampFc=0.5000 IDamp=-1.
 Damping current iteration by 5.00D-01
 RMSDP=9.42D-03 MaxDP=1.45D-01              OVMax= 1.75D-01

 Cycle   2  Pass 0  IDiag  1:
 E= -236.264871003733     Delta-E=       -0.115915229962 Rises=F Damp=T
 DIIS: error= 8.03D-03 at cycle   2 NSaved=   2.
 NSaved= 2 IEnMin= 2 EnMin= -236.264871003733     IErMin= 2 ErrMin= 8.03D-03
 ErrMax= 8.03D-03  0.00D+00 EMaxC= 1.00D-01 BMatC= 3.79D-02 BMatP= 9.17D-01
 IDIUse=3 WtCom= 9.20D-01 WtEn= 8.03D-02
 Coeff-Com:  0.682D-01 0.932D+00
 Coeff-En:   0.109D+00 0.891D+00
 Coeff:      0.714D-01 0.929D+00
 Gap=     0.295 Goal=   None    Shift=    0.000
 Gap=     0.258 Goal=   None    Shift=    0.000
 RMSDP=1.49D-03 MaxDP=2.37D-02 DE=-1.16D-01 OVMax= 1.00D-01

 Cycle   3  Pass 0  IDiag  1:
 E= -236.405137928554     Delta-E=       -0.140266924821 Rises=F Damp=F
 DIIS: error= 2.78D-03 at cycle   3 NSaved=   3.
 NSaved= 3 IEnMin= 3 EnMin= -236.405137928554     IErMin= 3 ErrMin= 2.78D-03
 ErrMax= 2.78D-03  0.00D+00 EMaxC= 1.00D-01 BMatC= 3.96D-03 BMatP= 3.79D-02
 IDIUse=3 WtCom= 9.72D-01 WtEn= 2.78D-02
 Coeff-Com: -0.345D-02 0.179D+00 0.824D+00
 Coeff-En:   0.000D+00 0.000D+00 0.100D+01
 Coeff:     -0.335D-02 0.174D+00 0.829D+00
 Gap=     0.301 Goal=   None    Shift=    0.000
 Gap=     0.248 Goal=   None    Shift=    0.000
 RMSDP=4.97D-04 MaxDP=8.76D-03 DE=-1.40D-01 OVMax= 1.04D-02

 Cycle   4  Pass 0  IDiag  1:
 E= -236.405781847122     Delta-E=       -0.000643918567 Rises=F Damp=F
 DIIS: error= 1.13D-03 at cycle   4 NSaved=   4.
 NSaved= 4 IEnMin= 4 EnMin= -236.405781847122     IErMin= 4 ErrMin= 1.13D-03
 ErrMax= 1.13D-03  0.00D+00 EMaxC= 1.00D-01 BMatC= 1.58D-03 BMatP= 3.96D-03
 IDIUse=3 WtCom= 9.89D-01 WtEn= 1.13D-02
 Coeff-Com: -0.403D-02 0.284D-01 0.396D+00 0.580D+00
 Coeff-En:   0.000D+00 0.000D+00 0.236D+00 0.764D+00
 Coeff:     -0.399D-02 0.280D-01 0.394D+00 0.582D+00
 Gap=     0.298 Goal=   None    Shift=    0.000
 Gap=     0.252 Goal=   None    Shift=    0.000
 RMSDP=1.99D-04 MaxDP=3.82D-03 DE=-6.44D-04 OVMax= 5.27D-03

 Cycle   5  Pass 0  IDiag  1:
 E= -236.406163102368     Delta-E=       -0.000381255247 Rises=F Damp=F
 DIIS: error= 3.99D-04 at cycle   5 NSaved=   5.
 NSaved= 5 IEnMin= 5 EnMin= -236.406163102368     IErMin= 5 ErrMin= 3.99D-04
 ErrMax= 3.99D-04  0.00D+00 EMaxC= 1.00D-01 BMatC= 9.55D-05 BMatP= 1.58D-03
 IDIUse=3 WtCom= 9.96D-01 WtEn= 3.99D-03
 Coeff-Com: -0.108D-02-0.384D-02 0.979D-01 0.251D+00 0.656D+00
 Coeff-En:   0.000D+00 0.000D+00 0.000D+00 0.000D+00 0.100D+01
 Coeff:     -0.108D-02-0.382D-02 0.975D-01 0.250D+00 0.658D+00
 Gap=     0.299 Goal=   None    Shift=    0.000
 Gap=     0.251 Goal=   None    Shift=    0.000
 RMSDP=4.72D-05 MaxDP=9.38D-04 DE=-3.81D-04 OVMax= 1.23D-03

 Cycle   6  Pass 0  IDiag  1:
 E= -236.406187958669     Delta-E=       -0.000024856301 Rises=F Damp=F
 DIIS: error= 7.23D-05 at cycle   6 NSaved=   6.
 NSaved= 6 IEnMin= 6 EnMin= -236.406187958669     IErMin= 6 ErrMin= 7.23D-05
 ErrMax= 7.23D-05  0.00D+00 EMaxC= 1.00D-01 BMatC= 2.28D-06 BMatP= 9.55D-05
 IDIUse=1 WtCom= 1.00D+00 WtEn= 0.00D+00
 Coeff-Com:  0.165D-03-0.200D-02-0.194D-01-0.230D-01 0.357D-01 0.101D+01
 Coeff:      0.165D-03-0.200D-02-0.194D-01-0.230D-01 0.357D-01 0.101D+01
 Gap=     0.299 Goal=   None    Shift=    0.000
 Gap=     0.252 Goal=   None    Shift=    0.000
 RMSDP=1.56D-05 MaxDP=3.96D-04 DE=-2.49D-05 OVMax= 3.85D-04

 Cycle   7  Pass 0  IDiag  1:
 E= -236.406189107079     Delta-E=       -0.000001148410 Rises=F Damp=F
 DIIS: error= 3.22D-05 at cycle   7 NSaved=   7.
 NSaved= 7 IEnMin= 7 EnMin= -236.406189107079     IErMin= 7 ErrMin= 3.22D-05
 ErrMax= 3.22D-05  0.00D+00 EMaxC= 1.00D-01 BMatC= 6.63D-07 BMatP= 2.28D-06
 IDIUse=1 WtCom= 1.00D+00 WtEn= 0.00D+00
 Coeff-Com:  0.171D-03-0.203D-03-0.191D-01-0.402D-01-0.736D-01 0.370D+00
 Coeff-Com:  0.763D+00
 Coeff:      0.171D-03-0.203D-03-0.191D-01-0.402D-01-0.736D-01 0.370D+00
 Coeff:      0.763D+00
 Gap=     0.299 Goal=   None    Shift=    0.000
 Gap=     0.252 Goal=   None    Shift=    0.000
 RMSDP=6.17D-06 MaxDP=1.77D-04 DE=-1.15D-06 OVMax= 1.68D-04

 Initial convergence to 1.0D-05 achieved.  Increase integral accuracy.
 Cycle   8  Pass 1  IDiag  1:
 E= -236.406172541326     Delta-E=        0.000016565753 Rises=F Damp=F
 DIIS: error= 1.11D-05 at cycle   1 NSaved=   1.
 NSaved= 1 IEnMin= 1 EnMin= -236.406172541326     IErMin= 1 ErrMin= 1.11D-05
 ErrMax= 1.11D-05  0.00D+00 EMaxC= 1.00D-01 BMatC= 1.22D-07 BMatP= 1.22D-07
 IDIUse=1 WtCom= 1.00D+00 WtEn= 0.00D+00
 Coeff-Com:  0.100D+01
 Coeff:      0.100D+01
 Gap=     0.299 Goal=   None    Shift=    0.000
 Gap=     0.252 Goal=   None    Shift=    0.000
 RMSDP=6.17D-06 MaxDP=1.77D-04 DE= 1.66D-05 OVMax= 7.74D-05

 Cycle   9  Pass 1  IDiag  1:
 E= -236.406172541255     Delta-E=        0.000000000071 Rises=F Damp=F
 DIIS: error= 1.19D-05 at cycle   2 NSaved=   2.
 NSaved= 2 IEnMin= 1 EnMin= -236.406172541326     IErMin= 1 ErrMin= 1.11D-05
 ErrMax= 1.19D-05  0.00D+00 EMaxC= 1.00D-01 BMatC= 1.53D-07 BMatP= 1.22D-07
 IDIUse=1 WtCom= 1.00D+00 WtEn= 0.00D+00
 Coeff-Com:  0.530D+00 0.470D+00
 Coeff:      0.530D+00 0.470D+00
 Gap=     0.299 Goal=   None    Shift=    0.000
 Gap=     0.252 Goal=   None    Shift=    0.000
 RMSDP=1.76D-06 MaxDP=4.34D-05 DE= 7.09D-11 OVMax= 4.37D-05

 Cycle  10  Pass 1  IDiag  1:
 E= -236.406172580295     Delta-E=       -0.000000039040 Rises=F Damp=F
 DIIS: error= 1.33D-06 at cycle   3 NSaved=   3.
 NSaved= 3 IEnMin= 3 EnMin= -236.406172580295     IErMin= 3 ErrMin= 1.33D-06
 ErrMax= 1.33D-06  0.00D+00 EMaxC= 1.00D-01 BMatC= 1.88D-09 BMatP= 1.22D-07
 IDIUse=1 WtCom= 1.00D+00 WtEn= 0.00D+00
 Coeff-Com: -0.125D+00-0.430D-01 0.117D+01
 Coeff:     -0.125D+00-0.430D-01 0.117D+01
 Gap=     0.299 Goal=   None    Shift=    0.000
 Gap=     0.252 Goal=   None    Shift=    0.000
 RMSDP=4.44D-07 MaxDP=1.15D-05 DE=-3.90D-08 OVMax= 1.35D-05

 Cycle  11  Pass 1  IDiag  1:
 E= -236.406172581442     Delta-E=       -0.000000001147 Rises=F Damp=F
 DIIS: error= 8.20D-07 at cycle   4 NSaved=   4.
 NSaved= 4 IEnMin= 4 EnMin= -236.406172581442     IErMin= 4 ErrMin= 8.20D-07
 ErrMax= 8.20D-07  0.00D+00 EMaxC= 1.00D-01 BMatC= 4.71D-10 BMatP= 1.88D-09
 IDIUse=1 WtCom= 1.00D+00 WtEn= 0.00D+00
 Coeff-Com: -0.117D+00-0.825D-01 0.412D+00 0.788D+00
 Coeff:     -0.117D+00-0.825D-01 0.412D+00 0.788D+00
 Gap=     0.299 Goal=   None    Shift=    0.000
 Gap=     0.252 Goal=   None    Shift=    0.000
 RMSDP=1.71D-07 MaxDP=4.68D-06 DE=-1.15D-09 OVMax= 5.29D-06

 Cycle  12  Pass 1  IDiag  1:
 E= -236.406172581616     Delta-E=       -0.000000000174 Rises=F Damp=F
 DIIS: error= 4.02D-07 at cycle   5 NSaved=   5.
 NSaved= 5 IEnMin= 5 EnMin= -236.406172581616     IErMin= 5 ErrMin= 4.02D-07
 ErrMax= 4.02D-07  0.00D+00 EMaxC= 1.00D-01 BMatC= 7.05D-11 BMatP= 4.71D-10
 IDIUse=1 WtCom= 1.00D+00 WtEn= 0.00D+00
 Coeff-Com: -0.354D-01-0.306D-01 0.452D-01 0.337D+00 0.684D+00
 Coeff:     -0.354D-01-0.306D-01 0.452D-01 0.337D+00 0.684D+00
 Gap=     0.299 Goal=   None    Shift=    0.000
 Gap=     0.252 Goal=   None    Shift=    0.000
 RMSDP=4.47D-08 MaxDP=1.24D-06 DE=-1.74D-10 OVMax= 1.21D-06

 Cycle  13  Pass 1  IDiag  1:
 E= -236.406172581639     Delta-E=       -0.000000000022 Rises=F Damp=F
 DIIS: error= 8.07D-08 at cycle   6 NSaved=   6.
 NSaved= 6 IEnMin= 6 EnMin= -236.406172581639     IErMin= 6 ErrMin= 8.07D-08
 ErrMax= 8.07D-08  0.00D+00 EMaxC= 1.00D-01 BMatC= 4.97D-12 BMatP= 7.05D-11
 IDIUse=1 WtCom= 1.00D+00 WtEn= 0.00D+00
 Coeff-Com:  0.294D-02-0.673D-04-0.383D-01 0.192D-01 0.232D+00 0.784D+00
 Coeff:      0.294D-02-0.673D-04-0.383D-01 0.192D-01 0.232D+00 0.784D+00
 Gap=     0.299 Goal=   None    Shift=    0.000
 Gap=     0.252 Goal=   None    Shift=    0.000
 RMSDP=1.59D-08 MaxDP=2.96D-07 DE=-2.25D-11 OVMax= 3.76D-07

 Cycle  14  Pass 1  IDiag  1:
 E= -236.406172581641     Delta-E=       -0.000000000002 Rises=F Damp=F
 DIIS: error= 2.19D-08 at cycle   7 NSaved=   7.
 NSaved= 7 IEnMin= 7 EnMin= -236.406172581641     IErMin= 7 ErrMin= 2.19D-08
 ErrMax= 2.19D-08  0.00D+00 EMaxC= 1.00D-01 BMatC= 3.34D-13 BMatP= 4.97D-12
 IDIUse=1 WtCom= 1.00D+00 WtEn= 0.00D+00
 Coeff-Com:  0.268D-02 0.151D-02-0.146D-01-0.103D-01 0.393D-01 0.256D+00
 Coeff-Com:  0.725D+00
 Coeff:      0.268D-02 0.151D-02-0.146D-01-0.103D-01 0.393D-01 0.256D+00
 Coeff:      0.725D+00
 Gap=     0.299 Goal=   None    Shift=    0.000
 Gap=     0.252 Goal=   None    Shift=    0.000
 RMSDP=4.05D-09 MaxDP=9.42D-08 DE=-2.10D-12 OVMax= 8.83D-08

 SCF Done:  E(UB3LYP) =  -236.406172582     A.U. after   14 cycles
            NFock= 14  Conv=0.41D-08     -V/T= 2.0105
 <Sx>= 0.0000 <Sy>= 0.0000 <Sz>= 0.5000 <S**2>= 0.7529 S= 0.5014
 <L.S>= 0.000000000000E+00
 KE= 2.339494732625D+02 PE=-1.033932172247D+03 EE= 3.194041472224D+02
 Annihilation of the first spin contaminant:
 S**2 before annihilation     0.7529,   after     0.7500
 Leave Link  502 at Sat Nov  7 02:07:03 2015, MaxMem=   805306368 cpu:       163.1
 (Enter /home/hetanjin/apps/g09D01/g09/l601.exe)
 Copying SCF densities to generalized density rwf, IOpCl= 1 IROHF=0.

 **********************************************************************

            Population analysis using the SCF density.

 **********************************************************************

 Orbital symmetries:
 Alpha Orbitals:
       Occupied  (A) (A) (A) (A) (A) (A) (A) (A) (A) (A) (A) (A)
                 (A) (A) (A) (A) (A) (A) (A) (A) (A) (A) (A) (A)
                 (A)
       Virtual   (A) (A) (A) (A) (A) (A) (A) (A) (A) (A) (A) (A)
                 (A) (A) (A) (A) (A) (A) (A) (A) (A) (A) (A) (A)
                 (A) (A) (A) (A) (A) (A) (A) (A) (A) (A) (A) (A)
                 (A) (A) (A) (A) (A) (A) (A) (A) (A) (A) (A) (A)
                 (A) (A) (A) (A) (A) (A) (A) (A) (A) (A) (A) (A)
                 (A) (A) (A) (A) (A) (A) (A) (A) (A) (A) (A) (A)
                 (A) (A) (A) (A) (A) (A) (A) (A) (A) (A) (A) (A)
                 (A) (A) (A) (A) (A) (A) (A)
 Beta  Orbitals:
       Occupied  (A) (A) (A) (A) (A) (A) (A) (A) (A) (A) (A) (A)
                 (A) (A) (A) (A) (A) (A) (A) (A) (A) (A) (A) (A)
       Virtual   (A) (A) (A) (A) (A) (A) (A) (A) (A) (A) (A) (A)
                 (A) (A) (A) (A) (A) (A) (A) (A) (A) (A) (A) (A)
                 (A) (A) (A) (A) (A) (A) (A) (A) (A) (A) (A) (A)
                 (A) (A) (A) (A) (A) (A) (A) (A) (A) (A) (A) (A)
                 (A) (A) (A) (A) (A) (A) (A) (A) (A) (A) (A) (A)
                 (A) (A) (A) (A) (A) (A) (A) (A) (A) (A) (A) (A)
                 (A) (A) (A) (A) (A) (A) (A) (A) (A) (A) (A) (A)
                 (A) (A) (A) (A) (A) (A) (A) (A)
 The electronic state is 2-A.
 Alpha  occ. eigenvalues --  -10.19451 -10.18672 -10.17613 -10.17530 -10.17038
 Alpha  occ. eigenvalues --  -10.16859  -0.80790  -0.74440  -0.70549  -0.64917
 Alpha  occ. eigenvalues --   -0.58986  -0.54069  -0.45980  -0.45122  -0.41954
 Alpha  occ. eigenvalues --   -0.41133  -0.39500  -0.38709  -0.37082  -0.35742
 Alpha  occ. eigenvalues --   -0.34477  -0.32528  -0.31227  -0.30734  -0.21201
 Alpha virt. eigenvalues --    0.08709   0.11810   0.12565   0.13648   0.15171
 Alpha virt. eigenvalues --    0.15660   0.16676   0.17227   0.17652   0.18509
 Alpha virt. eigenvalues --    0.19162   0.22477   0.23005   0.23908   0.24994
 Alpha virt. eigenvalues --    0.25364   0.28064   0.29314   0.49515   0.51146
 Alpha virt. eigenvalues --    0.51384   0.52763   0.54212   0.58547   0.59098
 Alpha virt. eigenvalues --    0.59328   0.63579   0.64255   0.67041   0.69727
 Alpha virt. eigenvalues --    0.73094   0.78623   0.79849   0.82428   0.84692
 Alpha virt. eigenvalues --    0.86621   0.87893   0.89659   0.90060   0.91101
 Alpha virt. eigenvalues --    0.91627   0.93524   0.94609   0.95364   0.96506
 Alpha virt. eigenvalues --    0.97866   0.99491   1.01243   1.03494   1.05041
 Alpha virt. eigenvalues --    1.22299   1.29332   1.37038   1.40713   1.43805
 Alpha virt. eigenvalues --    1.57412   1.60292   1.65672   1.71522   1.74545
 Alpha virt. eigenvalues --    1.79110   1.83239   1.89631   1.93069   1.94841
 Alpha virt. eigenvalues --    1.97827   1.99050   2.00818   2.02089   2.09299
 Alpha virt. eigenvalues --    2.11512   2.17631   2.21441   2.28494   2.30399
 Alpha virt. eigenvalues --    2.31402   2.33492   2.35607   2.42611   2.48951
 Alpha virt. eigenvalues --    2.52295   2.59193   2.68280   2.77000   2.79230
 Alpha virt. eigenvalues --    4.09548   4.18662   4.26506   4.35358   4.41281
 Alpha virt. eigenvalues --    4.58656
  Beta  occ. eigenvalues --  -10.18700 -10.18034 -10.17645 -10.17519 -10.17039
  Beta  occ. eigenvalues --  -10.16835  -0.80168  -0.73693  -0.70315  -0.64610
  Beta  occ. eigenvalues --   -0.58221  -0.52847  -0.45527  -0.44926  -0.41582
  Beta  occ. eigenvalues --   -0.40158  -0.39366  -0.38450  -0.37022  -0.35590
  Beta  occ. eigenvalues --   -0.34048  -0.32214  -0.30903  -0.30357
  Beta virt. eigenvalues --   -0.05182   0.08927   0.11957   0.12778   0.13796
  Beta virt. eigenvalues --    0.15350   0.16001   0.16926   0.17406   0.17810
  Beta virt. eigenvalues --    0.18782   0.19363   0.23137   0.23284   0.24102
  Beta virt. eigenvalues --    0.25207   0.26147   0.28580   0.30100   0.49725
  Beta virt. eigenvalues --    0.51238   0.51651   0.53132   0.56486   0.59155
  Beta virt. eigenvalues --    0.59454   0.61511   0.64215   0.65010   0.67934
  Beta virt. eigenvalues --    0.70417   0.73315   0.79274   0.80838   0.82587
  Beta virt. eigenvalues --    0.84766   0.87127   0.88109   0.89780   0.90229
  Beta virt. eigenvalues --    0.91287   0.91785   0.94009   0.95346   0.95698
  Beta virt. eigenvalues --    0.96822   0.98111   0.99721   1.01838   1.03567
  Beta virt. eigenvalues --    1.05479   1.23565   1.29493   1.37535   1.41516
  Beta virt. eigenvalues --    1.44702   1.58343   1.60460   1.66157   1.71883
  Beta virt. eigenvalues --    1.74663   1.81341   1.84010   1.90094   1.93948
  Beta virt. eigenvalues --    1.95745   1.98359   1.99703   2.01961   2.03835
  Beta virt. eigenvalues --    2.10022   2.12111   2.19187   2.23526   2.28638
  Beta virt. eigenvalues --    2.30450   2.31879   2.34071   2.35834   2.43170
  Beta virt. eigenvalues --    2.49855   2.53250   2.59898   2.68996   2.77511
  Beta virt. eigenvalues --    2.80067   4.10542   4.19316   4.26571   4.36927
  Beta virt. eigenvalues --    4.41311   4.59107
          Condensed to atoms (all electrons):
               1          2          3          4          5          6
     1  C    5.083982   0.376061   0.377280   0.371502   0.361593  -0.039733
     2  H    0.376061   0.582674  -0.033126  -0.031306  -0.036132   0.005308
     3  H    0.377280  -0.033126   0.572671  -0.031231  -0.032449  -0.004657
     4  H    0.371502  -0.031306  -0.031231   0.577527  -0.026734  -0.002170
     5  C    0.361593  -0.036132  -0.032449  -0.026734   4.995916   0.371573
     6  H   -0.039733   0.005308  -0.004657  -0.002170   0.371573   0.608287
     7  H   -0.040032  -0.003762   0.005142  -0.003819   0.372500  -0.037658
     8  C   -0.038259  -0.004627  -0.005219   0.003952   0.389335  -0.038172
     9  H   -0.004376   0.005874  -0.000202  -0.000020  -0.049300   0.006597
    10  C    0.004005   0.000032   0.000023  -0.000104  -0.041216  -0.000783
    11  H    0.000061   0.000000   0.000003  -0.000006  -0.006126  -0.000168
    12  C   -0.000156  -0.000001   0.000002   0.000002   0.003894  -0.000002
    13  H    0.000001   0.000000   0.000000   0.000000   0.000022   0.000004
    14  H    0.000001   0.000000   0.000000   0.000000  -0.000113   0.000003
    15  H    0.000005  -0.000001   0.000000   0.000000   0.000035   0.000008
    16  C   -0.004560  -0.000515   0.002172   0.000109  -0.048705  -0.007655
    17  H    0.002597   0.000393   0.003121  -0.000093  -0.006017  -0.000051
    18  H   -0.000298   0.000077   0.000271  -0.000022  -0.005126   0.005678
    19  H    0.000061  -0.000027  -0.000117   0.000001   0.004851  -0.000025
               7          8          9         10         11         12
     1  C   -0.040032  -0.038259  -0.004376   0.004005   0.000061  -0.000156
     2  H   -0.003762  -0.004627   0.005874   0.000032   0.000000  -0.000001
     3  H    0.005142  -0.005219  -0.000202   0.000023   0.000003   0.000002
     4  H   -0.003819   0.003952  -0.000020  -0.000104  -0.000006   0.000002
     5  C    0.372500   0.389335  -0.049300  -0.041216  -0.006126   0.003894
     6  H   -0.037658  -0.038172   0.006597  -0.000783  -0.000168  -0.000002
     7  H    0.615762  -0.038433  -0.003429  -0.005883   0.007265   0.000104
     8  C   -0.038433   4.895915   0.365758   0.380665  -0.050947  -0.045828
     9  H   -0.003429   0.365758   0.649893  -0.047832  -0.000671  -0.003304
    10  C   -0.005883   0.380665  -0.047832   5.248326   0.351043   0.355958
    11  H    0.007265  -0.050947  -0.000671   0.351043   0.633631  -0.053570
    12  C    0.000104  -0.045828  -0.003304   0.355958  -0.053570   5.122747
    13  H    0.000003  -0.006038  -0.000056  -0.033079   0.005230   0.372370
    14  H   -0.000007   0.004042  -0.000047  -0.026703  -0.004457   0.369770
    15  H   -0.000005  -0.003602   0.005382  -0.035467  -0.001451   0.363233
    16  C    0.005693   0.370995  -0.049600  -0.051325   0.005633  -0.005433
    17  H   -0.000014  -0.028507  -0.002838   0.004724  -0.000197   0.000074
    18  H   -0.000004  -0.036598   0.006016  -0.001066   0.000047  -0.000236
    19  H   -0.000176  -0.029343  -0.003222  -0.005701   0.000023   0.002191
              13         14         15         16         17         18
     1  C    0.000001   0.000001   0.000005  -0.004560   0.002597  -0.000298
     2  H    0.000000   0.000000  -0.000001  -0.000515   0.000393   0.000077
     3  H    0.000000   0.000000   0.000000   0.002172   0.003121   0.000271
     4  H    0.000000   0.000000   0.000000   0.000109  -0.000093  -0.000022
     5  C    0.000022  -0.000113   0.000035  -0.048705  -0.006017  -0.005126
     6  H    0.000004   0.000003   0.000008  -0.007655  -0.000051   0.005678
     7  H    0.000003  -0.000007  -0.000005   0.005693  -0.000014  -0.000004
     8  C   -0.006038   0.004042  -0.003602   0.370995  -0.028507  -0.036598
     9  H   -0.000056  -0.000047   0.005382  -0.049600  -0.002838   0.006016
    10  C   -0.033079  -0.026703  -0.035467  -0.051325   0.004724  -0.001066
    11  H    0.005230  -0.004457  -0.001451   0.005633  -0.000197   0.000047
    12  C    0.372370   0.369770   0.363233  -0.005433   0.000074  -0.000236
    13  H    0.566254  -0.030375  -0.033431   0.002140  -0.000156   0.000332
    14  H   -0.030375   0.570793  -0.031921   0.000114   0.000001  -0.000024
    15  H   -0.033431  -0.031921   0.585222  -0.000403  -0.000008   0.000083
    16  C    0.002140   0.000114  -0.000403   5.121018   0.367675   0.373552
    17  H   -0.000156   0.000001  -0.000008   0.367675   0.579277  -0.031638
    18  H    0.000332  -0.000024   0.000083   0.373552  -0.031638   0.576458
    19  H    0.003345  -0.000091   0.000289   0.370892  -0.031136  -0.031304
              19
     1  C    0.000061
     2  H   -0.000027
     3  H   -0.000117
     4  H    0.000001
     5  C    0.004851
     6  H   -0.000025
     7  H   -0.000176
     8  C   -0.029343
     9  H   -0.003222
    10  C   -0.005701
    11  H    0.000023
    12  C    0.002191
    13  H    0.003345
    14  H   -0.000091
    15  H    0.000289
    16  C    0.370892
    17  H   -0.031136
    18  H   -0.031304
    19  H    0.576926
          Atomic-Atomic Spin Densities.
               1          2          3          4          5          6
     1  C   -0.001375   0.000045   0.000191   0.000302  -0.001590   0.001059
     2  H    0.000045  -0.000123   0.000017  -0.000020   0.000129  -0.000011
     3  H    0.000191   0.000017   0.000088   0.000014  -0.000317   0.000058
     4  H    0.000302  -0.000020   0.000014  -0.000184  -0.000255   0.000051
     5  C   -0.001590   0.000129  -0.000317  -0.000255   0.013885  -0.003887
     6  H    0.001059  -0.000011   0.000058   0.000051  -0.003887   0.001167
     7  H    0.000179   0.000009  -0.000011  -0.000045   0.000090  -0.000161
     8  C    0.000680  -0.000023   0.000049  -0.000008   0.003203  -0.000471
     9  H    0.001216   0.000054   0.000046   0.000025  -0.006198   0.000719
    10  C    0.000132   0.000001   0.000001  -0.000002  -0.007003   0.003621
    11  H   -0.000086  -0.000002   0.000000  -0.000002   0.000855  -0.000360
    12  C    0.000000   0.000000   0.000000   0.000000   0.000131  -0.000038
    13  H   -0.000001   0.000000   0.000000   0.000000   0.000029  -0.000008
    14  H    0.000000   0.000000   0.000000   0.000000   0.000002  -0.000001
    15  H    0.000005   0.000000   0.000000   0.000000  -0.000066   0.000014
    16  C   -0.000763  -0.000013  -0.000094  -0.000018   0.005808  -0.001295
    17  H    0.000007   0.000002   0.000059   0.000011  -0.000484   0.000125
    18  H    0.000179   0.000000   0.000018   0.000002  -0.001226   0.000423
    19  H    0.000004   0.000000  -0.000001   0.000000  -0.000001  -0.000003
               7          8          9         10         11         12
     1  C    0.000179   0.000680   0.001216   0.000132  -0.000086   0.000000
     2  H    0.000009  -0.000023   0.000054   0.000001  -0.000002   0.000000
     3  H   -0.000011   0.000049   0.000046   0.000001   0.000000   0.000000
     4  H   -0.000045  -0.000008   0.000025  -0.000002  -0.000002   0.000000
     5  C    0.000090   0.003203  -0.006198  -0.007003   0.000855   0.000131
     6  H   -0.000161  -0.000471   0.000719   0.003621  -0.000360  -0.000038
     7  H   -0.000772   0.000635  -0.000526  -0.000180   0.000218   0.000016
     8  C    0.000635  -0.034519   0.002341  -0.025250   0.006203   0.002834
     9  H   -0.000526   0.002341   0.080370  -0.023549  -0.003294  -0.001500
    10  C   -0.000180  -0.025250  -0.023549   1.128042  -0.014545  -0.025151
    11  H    0.000218   0.006203  -0.003294  -0.014545  -0.022858   0.006025
    12  C    0.000016   0.002834  -0.001500  -0.025151   0.006025  -0.049531
    13  H    0.000001   0.001132  -0.000745  -0.005878   0.000223   0.007381
    14  H    0.000001   0.000088  -0.000100  -0.003688   0.000929   0.005450
    15  H   -0.000013  -0.002292   0.006313  -0.023637  -0.003249   0.000038
    16  C    0.000059   0.003972  -0.010364  -0.009739   0.000375   0.000945
    17  H    0.000001   0.000624   0.001305   0.000183  -0.000005  -0.000033
    18  H   -0.000016  -0.000074   0.000880   0.004548  -0.000099  -0.000175
    19  H    0.000000   0.000546  -0.000215  -0.000090  -0.000003   0.000087
              13         14         15         16         17         18
     1  C   -0.000001   0.000000   0.000005  -0.000763   0.000007   0.000179
     2  H    0.000000   0.000000   0.000000  -0.000013   0.000002   0.000000
     3  H    0.000000   0.000000   0.000000  -0.000094   0.000059   0.000018
     4  H    0.000000   0.000000   0.000000  -0.000018   0.000011   0.000002
     5  C    0.000029   0.000002  -0.000066   0.005808  -0.000484  -0.001226
     6  H   -0.000008  -0.000001   0.000014  -0.001295   0.000125   0.000423
     7  H    0.000001   0.000001  -0.000013   0.000059   0.000001  -0.000016
     8  C    0.001132   0.000088  -0.002292   0.003972   0.000624  -0.000074
     9  H   -0.000745  -0.000100   0.006313  -0.010364   0.001305   0.000880
    10  C   -0.005878  -0.003688  -0.023637  -0.009739   0.000183   0.004548
    11  H    0.000223   0.000929  -0.003249   0.000375  -0.000005  -0.000099
    12  C    0.007381   0.005450   0.000038   0.000945  -0.000033  -0.000175
    13  H    0.013482   0.001460  -0.008954   0.000438  -0.000021  -0.000277
    14  H    0.001460   0.004570  -0.004840   0.000021  -0.000001  -0.000008
    15  H   -0.008954  -0.004840   0.092535  -0.000551   0.000031   0.000089
    16  C    0.000438   0.000021  -0.000551   0.026539  -0.002287  -0.006887
    17  H   -0.000021  -0.000001   0.000031  -0.002287  -0.001270   0.001245
    18  H   -0.000277  -0.000008   0.000089  -0.006887   0.001245   0.003778
    19  H   -0.000011   0.000003  -0.000040  -0.000089   0.000218  -0.000027
              19
     1  C    0.000004
     2  H    0.000000
     3  H   -0.000001
     4  H    0.000000
     5  C   -0.000001
     6  H   -0.000003
     7  H    0.000000
     8  C    0.000546
     9  H   -0.000215
    10  C   -0.000090
    11  H   -0.000003
    12  C    0.000087
    13  H   -0.000011
    14  H    0.000003
    15  H   -0.000040
    16  C   -0.000089
    17  H    0.000218
    18  H   -0.000027
    19  H   -0.000935
 Mulliken charges and spin densities:
               1          2
     1  C   -0.449735   0.000184
     2  H    0.139079   0.000065
     3  H    0.146316   0.000119
     4  H    0.142411  -0.000129
     5  C   -0.247801   0.003103
     6  H    0.133616   0.001001
     7  H    0.126754  -0.000514
     8  C   -0.085088  -0.040330
     9  H    0.125376   0.046779
    10  C   -0.095618   0.997815
    11  H    0.114657  -0.029675
    12  C   -0.481814  -0.053521
    13  H    0.153435   0.008251
    14  H    0.149013   0.003884
    15  H    0.152033   0.055384
    16  C   -0.451798   0.006056
    17  H    0.142795  -0.000290
    18  H    0.143802   0.002375
    19  H    0.142564  -0.000558
 Sum of Mulliken charges =   0.00000   1.00000
 Mulliken charges and spin densities with hydrogens summed into heavy atoms:
               1          2
     1  C   -0.021928   0.000240
     5  C    0.012569   0.003590
     8  C    0.040288   0.006449
    10  C    0.019039   0.968140
    12  C   -0.027332   0.013998
    16  C   -0.022636   0.007583
 Electronic spatial extent (au):  <R**2>=            840.8562
 Charge=              0.0000 electrons
 Dipole moment (field-independent basis, Debye):
    X=             -0.0223    Y=              0.0008    Z=              0.5593  Tot=              0.5597
 Quadrupole moment (field-independent basis, Debye-Ang):
   XX=            -40.6579   YY=            -40.6377   ZZ=            -41.1235
   XY=             -0.0722   XZ=             -0.9201   YZ=             -0.5081
 Traceless Quadrupole moment (field-independent basis, Debye-Ang):
   XX=              0.1485   YY=              0.1686   ZZ=             -0.3171
   XY=             -0.0722   XZ=             -0.9201   YZ=             -0.5081
 Octapole moment (field-independent basis, Debye-Ang**2):
  XXX=             -1.7415  YYY=             -0.9572  ZZZ=              1.8500  XYY=             -0.1197
  XXY=             -0.5041  XXZ=              0.1526  XZZ=              0.9927  YZZ=              0.6922
  YYZ=              0.6570  XYZ=              0.4824
 Hexadecapole moment (field-independent basis, Debye-Ang**3):
 XXXX=           -827.6189 YYYY=           -242.2626 ZZZZ=            -95.4217 XXXY=              0.0575
 XXXZ=             -3.1434 YYYX=             -0.0306 YYYZ=             -0.1889 ZZZX=             -3.0788
 ZZZY=             -2.6136 XXYY=           -173.0769 XXZZ=           -156.0076 YYZZ=            -58.2655
 XXYZ=              0.3600 YYXZ=             -0.3903 ZZXY=             -0.7562
 N-N= 2.441723791801D+02 E-N=-1.033932176968D+03  KE= 2.339494732625D+02
                          Isotropic Fermi Contact Couplings
        Atom                 a.u.       MegaHertz       Gauss      10(-4) cm-1
     1  C(13)             -0.00099      -1.11447      -0.39767      -0.37175
     2  H(1)               0.00024       1.07584       0.38388       0.35886
     3  H(1)               0.00005       0.24162       0.08622       0.08060
     4  H(1)              -0.00005      -0.22205      -0.07923      -0.07407
     5  C(13)              0.00531       5.97496       2.13201       1.99303
     6  H(1)              -0.00025      -1.10630      -0.39476      -0.36902
     7  H(1)              -0.00023      -1.03717      -0.37009      -0.34596
     8  C(13)             -0.00747      -8.40305      -2.99842      -2.80296
     9  H(1)               0.02028      90.66241      32.35060      30.24173
    10  C(13)              0.29229     328.59440     117.25065     109.60729
    11  H(1)              -0.00373     -16.66139      -5.94520      -5.55764
    12  C(13)             -0.00769      -8.64831      -3.08593      -2.88477
    13  H(1)               0.00526      23.50268       8.38634       7.83965
    14  H(1)               0.00277      12.39904       4.42428       4.13587
    15  H(1)               0.02417     108.03472      38.54947      36.03650
    16  C(13)              0.01168      13.13568       4.68714       4.38159
    17  H(1)              -0.00043      -1.93080      -0.68896      -0.64405
    18  H(1)              -0.00021      -0.96019      -0.34262      -0.32028
    19  H(1)              -0.00023      -1.03090      -0.36785      -0.34387
 --------------------------------------------------------
       Center         ----  Spin Dipole Couplings  ----
                      3XX-RR        3YY-RR        3ZZ-RR
 --------------------------------------------------------
     1   Atom        0.002999     -0.002604     -0.000395
     2   Atom        0.003056     -0.002160     -0.000897
     3   Atom        0.002709     -0.001240     -0.001470
     4   Atom        0.002578     -0.001404     -0.001174
     5   Atom        0.014468     -0.007006     -0.007462
     6   Atom        0.011315     -0.007100     -0.004215
     7   Atom        0.008119     -0.003137     -0.004982
     8   Atom        0.009089     -0.012073      0.002984
     9   Atom        0.000953     -0.007150      0.006197
    10   Atom       -0.479217     -0.454012      0.933230
    11   Atom       -0.057501      0.065609     -0.008108
    12   Atom        0.009919     -0.017009      0.007090
    13   Atom        0.003206      0.003763     -0.006969
    14   Atom        0.017989     -0.010653     -0.007337
    15   Atom        0.001389     -0.008559      0.007170
    16   Atom       -0.006483      0.016782     -0.010299
    17   Atom       -0.000087      0.002664     -0.002577
    18   Atom       -0.002786      0.007422     -0.004637
    19   Atom       -0.005054      0.008981     -0.003928
 --------------------------------------------------------
                        XY            XZ            YZ
 --------------------------------------------------------
     1   Atom       -0.000017      0.000863     -0.000052
     2   Atom        0.000237      0.001720      0.000157
     3   Atom        0.001632      0.000416      0.000180
     4   Atom       -0.000210      0.000312      0.000015
     5   Atom       -0.003398      0.003858     -0.001132
     6   Atom        0.000486     -0.004760      0.000360
     7   Atom       -0.006803      0.002512     -0.000982
     8   Atom        0.015534      0.026695      0.011381
     9   Atom        0.006184      0.007681      0.003999
    10   Atom       -0.006953      0.055629     -0.175422
    11   Atom       -0.012050      0.003203     -0.018969
    12   Atom       -0.010092     -0.026593      0.006783
    13   Atom       -0.014247     -0.004775      0.004819
    14   Atom        0.002428     -0.005554     -0.000561
    15   Atom       -0.003454     -0.008182      0.002349
    16   Atom        0.007899      0.001873      0.004350
    17   Atom        0.004684      0.001218      0.001356
    18   Atom        0.007832     -0.001407     -0.003847
    19   Atom        0.001351      0.000460      0.003990
 --------------------------------------------------------


 ---------------------------------------------------------------------------------
              Anisotropic Spin Dipole Couplings in Principal Axis System
 ---------------------------------------------------------------------------------

       Atom             a.u.   MegaHertz   Gauss  10(-4) cm-1        Axes

              Baa    -0.0026    -0.350    -0.125    -0.117 -0.0006  0.9997  0.0239
     1 C(13)  Bbb    -0.0006    -0.081    -0.029    -0.027 -0.2331 -0.0234  0.9722
              Bcc     0.0032     0.430     0.154     0.144  0.9725 -0.0050  0.2330
 
              Baa    -0.0022    -1.163    -0.415    -0.388 -0.0092  0.9940 -0.1091
     2 H(1)   Bbb    -0.0015    -0.818    -0.292    -0.273 -0.3537  0.0989  0.9301
              Bcc     0.0037     1.981     0.707     0.661  0.9353  0.0471  0.3506
 
              Baa    -0.0018    -0.976    -0.348    -0.326 -0.3297  0.9398 -0.0897
     3 H(1)   Bbb    -0.0015    -0.805    -0.287    -0.269 -0.1183  0.0531  0.9916
              Bcc     0.0033     1.781     0.636     0.594  0.9366  0.3376  0.0937
 
              Baa    -0.0014    -0.757    -0.270    -0.253  0.0628  0.9884 -0.1382
     4 H(1)   Bbb    -0.0012    -0.638    -0.227    -0.213 -0.0738  0.1427  0.9870
              Bcc     0.0026     1.395     0.498     0.465  0.9953 -0.0518  0.0819
 
              Baa    -0.0084    -1.133    -0.404    -0.378 -0.0682  0.5119  0.8563
     5 C(13)  Bbb    -0.0072    -0.971    -0.346    -0.324  0.2190  0.8451 -0.4877
              Bcc     0.0157     2.104     0.751     0.702  0.9733 -0.1543  0.1698
 
              Baa    -0.0072    -3.865    -1.379    -1.289 -0.0914  0.9618 -0.2581
     6 H(1)   Bbb    -0.0054    -2.893    -1.032    -0.965  0.2558  0.2732  0.9273
              Bcc     0.0127     6.757     2.411     2.254  0.9624  0.0187 -0.2710
 
              Baa    -0.0064    -3.400    -1.213    -1.134  0.4435  0.8777 -0.1816
     7 H(1)   Bbb    -0.0054    -2.871    -1.025    -0.958 -0.0633  0.2328  0.9705
              Bcc     0.0118     6.271     2.238     2.092  0.8940 -0.4190  0.1588
 
              Baa    -0.0219    -2.941    -1.050    -0.981  0.6953 -0.4991 -0.5172
     8 C(13)  Bbb    -0.0181    -2.422    -0.864    -0.808  0.1289  0.7945 -0.5934
              Bcc     0.0400     5.364     1.914     1.789  0.7071  0.3459  0.6167
 
              Baa    -0.0105    -5.598    -1.998    -1.867 -0.4812  0.8765  0.0115
     9 H(1)   Bbb    -0.0035    -1.848    -0.660    -0.617 -0.6492 -0.3651  0.6673
              Bcc     0.0140     7.447     2.657     2.484  0.5891  0.3137  0.7447
 
              Baa    -0.4814   -64.600   -23.051   -21.548  0.9992  0.0096 -0.0381
    10 C(13)  Bbb    -0.4759   -63.855   -22.785   -21.300 -0.0048  0.9923  0.1237
              Bcc     0.9573   128.455    45.836    42.848  0.0390 -0.1234  0.9916
 
              Baa    -0.0587   -31.324   -11.177   -10.449  0.9953  0.0921 -0.0285
    11 H(1)   Bbb    -0.0127    -6.777    -2.418    -2.261  0.0059  0.2363  0.9717
              Bcc     0.0714    38.101    13.595    12.709 -0.0963  0.9673 -0.2346
 
              Baa    -0.0210    -2.817    -1.005    -0.940  0.5153  0.8052  0.2935
    12 C(13)  Bbb    -0.0168    -2.250    -0.803    -0.751  0.4738 -0.5530  0.6853
              Bcc     0.0378     5.068     1.808     1.690  0.7141 -0.2141 -0.6665
 
              Baa    -0.0108    -5.744    -2.050    -1.916  0.7166  0.6973  0.0162
    13 H(1)   Bbb    -0.0087    -4.646    -1.658    -1.550  0.1621 -0.1891  0.9685
              Bcc     0.0195    10.391     3.708     3.466 -0.6784  0.6914  0.2485
 
              Baa    -0.0109    -5.795    -2.068    -1.933 -0.0766  0.9963  0.0379
    14 H(1)   Bbb    -0.0085    -4.535    -1.618    -1.513  0.2070 -0.0213  0.9781
              Bcc     0.0194    10.330     3.686     3.446  0.9753  0.0827 -0.2046
 
              Baa    -0.0096    -5.146    -1.836    -1.717  0.3114  0.9501  0.0188
    15 H(1)   Bbb    -0.0040    -2.137    -0.763    -0.713  0.7527 -0.2586  0.6055
              Bcc     0.0137     7.283     2.599     2.429 -0.5801  0.1744  0.7957
 
              Baa    -0.0111    -1.496    -0.534    -0.499 -0.2548 -0.0780  0.9638
    16 C(13)  Bbb    -0.0088    -1.180    -0.421    -0.394  0.9215 -0.3216  0.2176
              Bcc     0.0199     2.676     0.955     0.893  0.2930  0.9437  0.1539
 
              Baa    -0.0036    -1.937    -0.691    -0.646  0.8046 -0.5512 -0.2209
    17 H(1)   Bbb    -0.0029    -1.549    -0.553    -0.517  0.0652 -0.2877  0.9555
              Bcc     0.0065     3.485     1.244     1.163  0.5902  0.7832  0.1955
 
              Baa    -0.0072    -3.861    -1.378    -1.288  0.7961 -0.5106 -0.3249
    18 H(1)   Bbb    -0.0054    -2.873    -1.025    -0.958  0.3960  0.0335  0.9177
              Bcc     0.0126     6.733     2.403     2.246  0.4577  0.8592 -0.2288
 
              Baa    -0.0052    -2.785    -0.994    -0.929  0.9050  0.0331 -0.4241
    19 H(1)   Bbb    -0.0050    -2.683    -0.957    -0.895  0.4152 -0.2860  0.8636
              Bcc     0.0102     5.468     1.951     1.824  0.0927  0.9577  0.2726
 

 ---------------------------------------------------------------------------------

 No NMR shielding tensors so no spin-rotation constants.
 Leave Link  601 at Sat Nov  7 02:07:03 2015, MaxMem=   805306368 cpu:         1.1
 (Enter /home/hetanjin/apps/g09D01/g09/l701.exe)
 Compute integral first derivatives.
 ... and contract with generalized density number  0.
 Leave Link  701 at Sat Nov  7 02:07:03 2015, MaxMem=   805306368 cpu:         0.6
 (Enter /home/hetanjin/apps/g09D01/g09/l702.exe)
 L702 exits ... SP integral derivatives will be done elsewhere.
 Leave Link  702 at Sat Nov  7 02:07:03 2015, MaxMem=   805306368 cpu:         0.1
 (Enter /home/hetanjin/apps/g09D01/g09/l703.exe)
 Compute integral first derivatives, UseDBF=F ICtDFT=           0.
 Integral derivatives from FoFJK, PRISM(SPDF).
 Calling FoFJK, ICntrl=      2127 FMM=F ISym2X=0 I1Cent= 0 IOpClX= 1 NMat=1 NMatS=1 NMatT=0.
 FoFJK:  IHMeth= 1 ICntrl=    2127 DoSepK=F KAlg= 0 I1Cent=   0 FoldK=F
 IRaf=         0 NMat=   1 IRICut=       1 DoRegI=T DoRafI=F ISym2E= 0.
 FoFCou: FMM=F IPFlag=           0 FMFlag=      100000 FMFlg1=         800
         NFxFlg=           0 DoJE=F BraDBF=F KetDBF=F FulRan=T
         wScrn=  0.000000 ICntrl=    2127 IOpCl=  1 I1Cent=           0 NGrid=           0
         NMat0=    1 NMatS0=      1 NMatT0=    0 NMatD0=    1 NMtDS0=    0 NMtDT0=    0
 Symmetry not used in FoFCou.
 Leave Link  703 at Sat Nov  7 02:07:11 2015, MaxMem=   805306368 cpu:        27.8
 (Enter /home/hetanjin/apps/g09D01/g09/l716.exe)
 Dipole        =-8.77542868D-03 3.18126952D-04 2.20036603D-01
 ***** Axes restored to original set *****
 -------------------------------------------------------------------
 Center     Atomic                   Forces (Hartrees/Bohr)
 Number     Number              X              Y              Z
 -------------------------------------------------------------------
      1        6           0.000222837   -0.000055104   -0.000200969
      2        1          -0.000130030    0.000048961   -0.000195722
      3        1           0.000008313   -0.000014012   -0.000009006
      4        1           0.000086937   -0.000012280   -0.000024589
      5        6          -0.001584532   -0.000364056    0.000682236
      6        1           0.000398351   -0.000002446   -0.000730749
      7        1           0.000116024   -0.000000588    0.000005916
      8        6           0.004119928   -0.000605648    0.020774593
      9        1           0.002239716   -0.001211624   -0.002094248
     10        6          -0.000378605    0.003903714   -0.050321072
     11        1           0.000390600   -0.002783149    0.015327884
     12        6          -0.004009553   -0.000787928    0.022040539
     13        1           0.000698316    0.000802321   -0.001123153
     14        1           0.000427074   -0.000027196   -0.000815029
     15        1          -0.001925685   -0.000621005   -0.002550920
     16        6          -0.000821152    0.002145526    0.000404750
     17        1           0.000031313    0.000030740   -0.000313834
     18        1           0.000071017   -0.000385270   -0.000850405
     19        1           0.000039130   -0.000060954   -0.000006223
 -------------------------------------------------------------------
 Cartesian Forces:  Max     0.050321072 RMS     0.008140167
 Leave Link  716 at Sat Nov  7 02:07:12 2015, MaxMem=   805306368 cpu:         0.1
 (Enter /home/hetanjin/apps/g09D01/g09/l103.exe)

 GradGradGradGradGradGradGradGradGradGradGradGradGradGradGradGradGradGrad
 Berny optimization.
 FormGI is forming the generalized inverse of G from B-inverse, IUseBI=4.
 Internal  Forces:  Max     0.013748891 RMS     0.003059647
 Search for a local minimum.
 Step number   1 out of a maximum of  100
 All quantities printed in internal units (Hartrees-Bohrs-Radians)
 RMS Force = .30596D-02 SwitMx=.10000D-02 MixMth= 1
 Mixed Optimization -- RFO/linear search
 Second derivative matrix not updated -- first step.
 ITU=  0
     Eigenvalues ---    0.00230   0.00230   0.00279   0.00326   0.00326
     Eigenvalues ---    0.02192   0.03219   0.03659   0.04708   0.04711
     Eigenvalues ---    0.05346   0.05357   0.05439   0.05496   0.05687
     Eigenvalues ---    0.06829   0.06983   0.08726   0.11217   0.12495
     Eigenvalues ---    0.16000   0.16000   0.16000   0.16000   0.16000
     Eigenvalues ---    0.16000   0.16000   0.16000   0.16000   0.16976
     Eigenvalues ---    0.18127   0.21941   0.23436   0.28249   0.28249
     Eigenvalues ---    0.28802   0.29125   0.29125   0.33394   0.33637
     Eigenvalues ---    0.33788   0.33788   0.33845   0.33973   0.33973
     Eigenvalues ---    0.34116   0.34116   0.34193   0.34193   0.34238
     Eigenvalues ---    0.34238
 RFO step:  Lambda=-1.31397703D-02 EMin= 2.30000000D-03
 Linear search not attempted -- first point.
 Iteration  1 RMS(Cart)=  0.06381127 RMS(Int)=  0.00584596
 Iteration  2 RMS(Cart)=  0.00749864 RMS(Int)=  0.00407330
 Iteration  3 RMS(Cart)=  0.00001798 RMS(Int)=  0.00407327
 Iteration  4 RMS(Cart)=  0.00000015 RMS(Int)=  0.00407327
 ITry= 1 IFail=0 DXMaxC= 2.67D-01 DCOld= 1.00D+10 DXMaxT= 3.00D-01 DXLimC= 3.00D+00 Rises=F
 Variable       Old X    -DE/DX   Delta X   Delta X   Delta X     New X
                                 (Linear)    (Quad)   (Total)
    R1        2.07376   0.00019   0.00000   0.00054   0.00054   2.07430
    R2        2.07005  -0.00002   0.00000  -0.00005  -0.00005   2.07000
    R3        2.07134  -0.00007   0.00000  -0.00019  -0.00019   2.07115
    R4        2.89742  -0.00001   0.00000  -0.00003  -0.00003   2.89740
    R5        2.07947  -0.00074   0.00000  -0.00213  -0.00213   2.07734
    R6        2.07690   0.00001   0.00000   0.00003   0.00003   2.07693
    R7        2.91596   0.00076   0.00000   0.00257   0.00257   2.91854
    R8        2.08366   0.00215   0.00000   0.00619   0.00619   2.08984
    R9        2.91596  -0.00977   0.00000  -0.03306  -0.03306   2.88290
   R10        2.90418   0.00147   0.00000   0.00487   0.00487   2.90905
   R11        2.07690  -0.00064   0.00000  -0.00184  -0.00184   2.07506
   R12        2.89742  -0.01110   0.00000  -0.03647  -0.03647   2.86096
   R13        2.07005   0.00059   0.00000   0.00167   0.00167   2.07172
   R14        2.07134   0.00009   0.00000   0.00025   0.00025   2.07160
   R15        2.07376   0.00260   0.00000   0.00736   0.00736   2.08113
   R16        2.06931   0.00010   0.00000   0.00028   0.00028   2.06958
   R17        2.07593  -0.00088   0.00000  -0.00251  -0.00251   2.07342
   R18        2.06930   0.00000   0.00000   0.00001   0.00001   2.06932
    A1        1.87842  -0.00008   0.00000  -0.00029  -0.00029   1.87812
    A2        1.87726  -0.00006   0.00000  -0.00035  -0.00035   1.87691
    A3        1.93932   0.00022   0.00000   0.00138   0.00138   1.94071
    A4        1.87288   0.00005   0.00000   0.00008   0.00008   1.87296
    A5        1.95782  -0.00002   0.00000  -0.00014  -0.00014   1.95768
    A6        1.93461  -0.00011   0.00000  -0.00072  -0.00072   1.93389
    A7        1.90987   0.00040   0.00000   0.00361   0.00361   1.91348
    A8        1.89569   0.00003   0.00000  -0.00011  -0.00011   1.89558
    A9        2.00987  -0.00021   0.00000  -0.00098  -0.00098   2.00889
   A10        1.84904  -0.00003   0.00000   0.00011   0.00011   1.84915
   A11        1.90093  -0.00020   0.00000  -0.00158  -0.00158   1.89935
   A12        1.89164   0.00002   0.00000  -0.00101  -0.00101   1.89063
   A13        1.87539   0.00053   0.00000   0.00077   0.00079   1.87617
   A14        1.92053   0.00043   0.00000   0.00723   0.00707   1.92761
   A15        1.95271  -0.00080   0.00000   0.00441   0.00425   1.95696
   A16        1.87539  -0.00196   0.00000  -0.02705  -0.02700   1.84839
   A17        1.88339   0.00014   0.00000  -0.00099  -0.00092   1.88247
   A18        1.95271   0.00156   0.00000   0.01348   0.01339   1.96610
   A19        1.89165   0.00090   0.00000   0.11620   0.09333   1.98498
   A20        2.00987   0.01375   0.00000   0.10100   0.08151   2.09138
   A21        1.89569   0.00079   0.00000   0.11647   0.09363   1.98932
   A22        1.95782   0.00221   0.00000   0.01464   0.01454   1.97236
   A23        1.93461   0.00144   0.00000   0.01055   0.01043   1.94504
   A24        1.93932  -0.00376   0.00000  -0.02579  -0.02576   1.91356
   A25        1.87288  -0.00043   0.00000   0.00512   0.00490   1.87778
   A26        1.87842   0.00007   0.00000  -0.00365  -0.00360   1.87482
   A27        1.87726   0.00048   0.00000  -0.00081  -0.00080   1.87646
   A28        1.95027  -0.00003   0.00000   0.00001   0.00001   1.95028
   A29        1.93183  -0.00038   0.00000  -0.00205  -0.00205   1.92978
   A30        1.95027  -0.00004   0.00000  -0.00059  -0.00059   1.94969
   A31        1.87919   0.00031   0.00000   0.00241   0.00241   1.88161
   A32        1.86960   0.00001   0.00000  -0.00019  -0.00019   1.86941
   A33        1.87920   0.00017   0.00000   0.00059   0.00059   1.87978
    D1        3.12776  -0.00010   0.00000  -0.00094  -0.00094   3.12683
    D2       -1.14441   0.00010   0.00000   0.00108   0.00108  -1.14333
    D3        0.98010   0.00001   0.00000  -0.00099  -0.00099   0.97911
    D4        1.02422  -0.00013   0.00000  -0.00144  -0.00144   1.02278
    D5        3.03522   0.00007   0.00000   0.00058   0.00058   3.03581
    D6       -1.12345  -0.00003   0.00000  -0.00149  -0.00149  -1.12494
    D7       -1.06899  -0.00010   0.00000  -0.00094  -0.00094  -1.06993
    D8        0.94202   0.00010   0.00000   0.00107   0.00107   0.94309
    D9        3.06653   0.00001   0.00000  -0.00099  -0.00099   3.06554
   D10       -0.95817  -0.00046   0.00000  -0.00473  -0.00474  -0.96291
   D11       -2.99494   0.00135   0.00000   0.02319   0.02320  -2.97174
   D12        1.10606  -0.00042   0.00000  -0.00293  -0.00293   1.10313
   D13       -3.11059  -0.00067   0.00000  -0.00754  -0.00755  -3.11814
   D14        1.13582   0.00113   0.00000   0.02038   0.02039   1.15621
   D15       -1.04636  -0.00063   0.00000  -0.00574  -0.00574  -1.05210
   D16        1.16853  -0.00054   0.00000  -0.00631  -0.00632   1.16221
   D17       -0.86824   0.00126   0.00000   0.02162   0.02162  -0.84662
   D18       -3.05042  -0.00050   0.00000  -0.00450  -0.00451  -3.05493
   D19        0.86823  -0.00583   0.00000  -0.16813  -0.17054   0.69769
   D20        2.99493   0.00528   0.00000   0.14036   0.14270   3.13763
   D21       -1.16854  -0.00558   0.00000  -0.15760  -0.16001  -1.32855
   D22        0.95816   0.00553   0.00000   0.15089   0.15324   1.11140
   D23        3.05041  -0.00541   0.00000  -0.14721  -0.14953   2.90089
   D24       -1.10608   0.00569   0.00000   0.16129   0.16372  -0.94235
   D25       -1.01213   0.00018   0.00000   0.00271   0.00274  -1.00940
   D26        1.08212   0.00030   0.00000   0.00438   0.00441   1.08653
   D27       -3.10680   0.00023   0.00000   0.00335   0.00338  -3.10343
   D28        1.04733   0.00046   0.00000   0.00559   0.00559   1.05292
   D29        3.14159   0.00057   0.00000   0.00726   0.00726  -3.13434
   D30       -1.04734   0.00050   0.00000   0.00623   0.00623  -1.04111
   D31        3.10679  -0.00095   0.00000  -0.02031  -0.02034   3.08646
   D32       -1.08213  -0.00084   0.00000  -0.01864  -0.01867  -1.10080
   D33        1.01213  -0.00091   0.00000  -0.01968  -0.01970   0.99243
   D34        1.12344  -0.00660   0.00000  -0.16689  -0.16939   0.95406
   D35       -3.06654  -0.00466   0.00000  -0.14323  -0.14554   3.07111
   D36       -0.98010  -0.00558   0.00000  -0.15422  -0.15661  -1.13671
   D37       -3.03523   0.00461   0.00000   0.14213   0.14442  -2.89081
   D38       -0.94203   0.00655   0.00000   0.16579   0.16827  -0.77375
   D39        1.14441   0.00564   0.00000   0.15479   0.15720   1.30161
         Item               Value     Threshold  Converged?
 Maximum Force            0.013749     0.000015     NO 
 RMS     Force            0.003060     0.000010     NO 
 Maximum Displacement     0.267065     0.000060     NO 
 RMS     Displacement     0.061224     0.000040     NO 
 Predicted change in Energy=-9.804411D-03
 Lowest energy point so far.  Saving SCF results.
 GradGradGradGradGradGradGradGradGradGradGradGradGradGradGradGradGradGrad

 Leave Link  103 at Sat Nov  7 02:07:13 2015, MaxMem=   805306368 cpu:         3.6
 (Enter /home/hetanjin/apps/g09D01/g09/l202.exe)
                          Input orientation:                          
 ---------------------------------------------------------------------
 Center     Atomic      Atomic             Coordinates (Angstroms)
 Number     Number       Type             X           Y           Z
 ---------------------------------------------------------------------
      1          6           0       -2.605106   -0.165011   -0.257423
      2          1           0       -2.626604   -0.184041   -1.354722
      3          1           0       -2.804179    0.864280    0.060112
      4          1           0       -3.436575   -0.783191    0.099990
      5          6           0       -1.267654   -0.687764    0.279943
      6          1           0       -1.268180   -0.643399    1.378330
      7          1           0       -1.177414   -1.752003    0.020733
      8          6           0       -0.016768    0.048351   -0.247941
      9          1           0       -0.050890    0.011677   -1.352703
     10          6           0        1.250898   -0.698013    0.156183
     11          1           0        1.162617   -1.790166    0.084243
     12          6           0        2.604834   -0.161584   -0.257525
     13          1           0        2.766065    0.878203    0.050267
     14          1           0        3.419561   -0.761925    0.163852
     15          1           0        2.698475   -0.199080   -1.354179
     16          6           0        0.006487    1.528405    0.174748
     17          1           0       -0.884691    2.063048   -0.170753
     18          1           0        0.048059    1.616575    1.267615
     19          1           0        0.875968    2.053037   -0.234966
 ---------------------------------------------------------------------
                    Distance matrix (angstroms):
                    1          2          3          4          5
     1  C    0.000000
     2  H    1.097674   0.000000
     3  H    1.095399   1.769820   0.000000
     4  H    1.096008   1.769526   1.765128   0.000000
     5  C    1.533236   2.184630   2.195012   2.178465   0.000000
     6  H    2.166083   3.086406   2.523904   2.521038   1.099283
     7  H    2.152724   2.539789   3.081047   2.459408   1.099061
     8  C    2.597134   2.844330   2.920668   3.536609   1.544423
     9  H    2.784758   2.583140   3.209919   3.768952   2.152967
    10  C    3.914579   4.193093   4.346682   4.688584   2.521612
    11  H    4.117475   4.359868   4.773064   4.708165   2.675781
    12  C    5.209941   5.345305   5.514591   6.083818   3.944857
    13  H    5.480187   5.673027   5.570271   6.421484   4.333116
    14  H    6.068805   6.260681   6.433526   6.856467   4.689239
    15  H    5.415903   5.325101   5.780152   6.332033   4.317331
    16  C    3.142427   3.493553   2.890337   4.147739   2.558497
    17  H    2.816307   3.079846   2.274814   3.832296   2.813673
    18  H    3.541055   4.156042   3.187361   4.389179   2.831355
    19  H    4.127725   4.304228   3.878621   5.172467   3.517419
                    6          7          8          9         10
     6  H    0.000000
     7  H    1.755082   0.000000
     8  C    2.165481   2.158833   0.000000
     9  H    3.060958   2.503187   1.105897   0.000000
    10  C    2.800425   2.650649   1.525567   2.115432   0.000000
    11  H    2.983037   2.341203   2.209398   2.604621   1.098074
    12  C    4.231832   4.112451   2.630011   2.877899   1.513952
    13  H    4.511558   4.740241   2.919202   3.264112   2.188928
    14  H    4.843957   4.704563   3.554501   3.865544   2.169618
    15  H    4.837187   4.395961   2.942368   2.757432   2.150723
[...]
 7138,0.00620543,0.00444193,-0.00287432,0.20860368,-0.12158027,-0.15121
 798,0.04296032,0.00038491,-0.00096159,0.00011550,-0.02241490,-0.018367
 53,0.00913538,0.13142273,0.16161737,0.05164123,0.04298319,-0.06781222,
 0.02500582,0.02177190,-0.00767108,-0.01036330,-0.00788284,0.00311263,-
 0.05506831,-0.04834396,0.06876399,-0.16336736,0.03319002,-0.03583312,0
 .00035263,-0.00060030,-0.00041180,-0.00535239,0.00267170,-0.00207128,-
 0.02180005,0.01086593,-0.01000105,0.45612245,0.03507211,-0.09721485,0.
 01393858,0.00080364,-0.00093363,0.00068532,0.02814740,-0.00979577,0.01
 325595,-0.01896878,0.00808040,-0.00901494,-0.02489598,0.54989411,-0.03
 534634,0.01452729,-0.09632987,-0.03150759,0.01227674,-0.01193927,0.011
 79978,-0.00326482,0.00480897,0.00871621,-0.00415528,0.00293354,-0.0017
 8343,0.03183766,0.56972683,-0.00007156,0.00085752,-0.03170185,-0.00544
 224,0.00243275,-0.00230256,0.00138779,-0.00011173,0.00084242,0.0010407
 3,-0.00067189,0.00045892,-0.04855743,0.00003394,0.00970682,0.05709887,
 0.00020973,-0.00072018,0.01269739,0.00230825,0.00003827,0.00132794,-0.
 00078250,0.00037240,0.00024929,-0.00021781,0.00021332,-0.00054569,0.00
 011327,-0.05110696,0.00434388,0.00083072,0.05162017,-0.00009087,0.0002
 5704,-0.01137014,-0.00232260,0.00082081,0.00080879,0.00004803,0.000451
 17,0.00072650,-0.00041875,-0.00031865,0.00035972,0.00937596,0.00472009
 ,-0.29757393,-0.00990657,-0.00726902,0.32568593,-0.00672447,0.02932739
 ,0.00975890,0.00117523,-0.00066127,-0.00010972,-0.00524379,0.00199554,
 -0.00300025,0.00103082,-0.00040308,0.00071784,-0.05152324,0.03317817,0
 .01147395,-0.00058705,0.00115933,0.00046182,0.06324100,0.00234763,-0.0
 1020510,-0.00339237,-0.00026069,0.00013390,0.00039739,0.00187900,0.000
 79797,0.00119057,0.00031088,0.00089656,-0.00004916,0.03246942,-0.27346
 205,-0.07567090,-0.00024055,0.00140535,-0.00038625,-0.03525001,0.29784
 524,-0.00256728,0.01293736,0.00419718,0.00077734,0.00018472,0.00061137
 ,-0.00256764,0.00140972,0.00001905,0.00071035,-0.00040918,0.00031514,0
 .01084089,-0.07589070,-0.07788680,0.00445048,-0.03199644,-0.01057807,-
 0.01145005,0.08227869,0.07921545,-0.02709288,-0.01504634,0.00746231,0.
 00216241,-0.00054159,0.00109930,0.00111092,-0.00044076,0.00037048,-0.0
 0333829,0.00226654,-0.00145293,-0.13054333,-0.03821175,0.01962004,-0.0
 0304569,-0.00210659,0.00141866,0.00153803,0.00099063,-0.00037899,0.472
 99188,0.00638857,0.00923280,-0.00442004,0.00025150,0.00027138,0.000167
 73,0.00051110,-0.00025818,-0.00058791,0.00406665,-0.00078974,0.0012172
 9,-0.04102007,-0.10527919,0.01732973,-0.00140218,-0.00168628,0.0005469
 4,-0.02602526,-0.01721187,0.01069788,-0.00488451,0.41534847,-0.0087436
 2,-0.00885464,0.00425524,-0.00155123,-0.00065539,0.00029378,0.00050952
 ,0.00034602,0.00000836,-0.00377453,0.00120797,-0.00104231,0.02054019,0
 .01708291,-0.09126102,0.02761241,0.01967135,-0.01163443,-0.00948480,-0
 .00666031,0.00280092,0.00359231,-0.03385810,0.56799992,0.00158444,0.00
 024848,0.00148113,-0.00024191,0.00009491,-0.00086160,-0.00013442,0.000
 01921,-0.00001376,0.00031614,-0.00003876,-0.00030328,-0.00249980,-0.00
 190254,0.02737371,-0.00420786,-0.00314514,0.00194707,0.00084533,0.0003
 3461,-0.00074701,-0.05060965,-0.00195341,-0.00047298,0.05708028,0.0010
 0245,0.00029859,-0.00023316,-0.00018787,0.00025554,-0.00041084,-0.0000
 7267,0.00005710,-0.00007461,0.00020164,-0.00011946,-0.00007353,-0.0010
 7392,-0.00144838,0.01837541,-0.00299401,-0.00157739,0.00121317,0.00082
 414,0.00028197,-0.00003663,-0.00212354,-0.04519037,0.01393079,-0.00069
 446,0.05786047,-0.00080701,-0.00029233,0.00042290,0.00094823,-0.000188
 06,0.00064917,0.00002279,0.00000306,0.00006261,0.00000625,0.00000512,0
 .00046072,0.00088089,0.00103137,-0.01047086,0.00130206,0.00150369,0.00
 072525,-0.00003325,0.00049962,0.00049307,0.00150053,0.01275950,-0.2860
 4554,-0.00061629,-0.01487600,0.31498647,-0.00239843,-0.00261915,0.0013
 5853,-0.00008373,-0.00008085,-0.00004291,-0.00003533,0.00017065,0.0001
 2328,-0.00092520,0.00038939,-0.00040940,-0.03423304,0.00883967,-0.0062
 9592,0.00165324,0.00091634,-0.00102481,0.00088868,0.00161902,-0.000390
 01,-0.17146598,0.05293143,-0.02795657,-0.00153064,0.00278412,-0.001888
 77,0.49937884,-0.00237400,-0.00229824,0.00184944,0.00028031,-0.0000919
 4,-0.00013464,-0.00029413,0.00023975,0.00007084,-0.00115554,0.00046586
 ,-0.00035934,-0.01052456,0.00836587,-0.00593277,-0.00088217,0.00007097
 ,0.00053159,-0.00082859,0.00073998,-0.00021865,0.05184505,-0.08349620,
 0.03521129,0.00586753,-0.00399018,0.00461648,-0.05354249,0.24673032,0.
 00191891,0.00225147,-0.00132906,-0.00004140,-0.00002463,0.00039086,-0.
 00030519,-0.00001651,-0.00003195,0.00095951,-0.00019344,0.00063742,0.0
 0849735,-0.00694379,0.00426447,0.00126139,-0.00031812,0.00007441,0.000
 20538,0.00050585,0.00050841,-0.02869187,0.03625588,-0.09117620,-0.0277
 9241,0.01714097,-0.01101853,-0.04457290,-0.21257631,0.46847114,-0.0000
 3879,-0.00016668,0.00012601,0.00010653,-0.00005055,0.00021842,0.000116
 56,-0.00003195,0.00000023,-0.00006495,-0.00002191,0.00005426,0.0020301
 6,0.00082501,-0.00154289,-0.00030950,0.00006284,0.00074834,-0.00003999
 ,-0.00036791,-0.00006930,0.00172404,0.00963674,-0.02218435,-0.00390553
 ,0.00269739,-0.00188672,-0.05425072,0.00835279,0.00117531,0.05576913,0
 .00014479,-0.00012069,-0.00016414,-0.00014210,0.00002476,-0.00007236,0
 .00003568,-0.00003002,-0.00000170,0.00002995,-0.00000544,-0.00001584,-
 0.00086675,0.00050325,-0.00037130,0.00047601,0.00023362,-0.00048827,0.
 00007143,-0.00002979,-0.00011207,-0.00082235,-0.00228217,0.01493455,0.
 00188501,-0.00058736,-0.00052963,0.00734056,-0.08027555,0.12527379,-0.
 00865240,0.07989423,-0.00014363,-0.00036585,0.00035015,0.00022601,-0.0
 0001886,0.00006509,0.00012056,-0.00003962,0.00001698,-0.00012702,0.000
 01967,-0.00002567,0.00130560,0.00054285,0.00034472,-0.00064931,-0.0001
 4583,0.00050595,-0.00031949,-0.00037833,-0.00024537,0.00216026,0.00144
 154,-0.00500994,-0.00160630,0.00146310,-0.00026825,0.00280453,0.133169
 62,-0.26535206,-0.00324867,-0.14082874,0.27787118,-0.00034811,-0.00085
 637,0.00066354,0.00006439,-0.00000851,-0.00003180,0.00004367,-0.000000
 93,0.00001007,-0.00029598,0.00011476,-0.00014596,-0.00209918,0.0028440
 6,-0.00120336,-0.00012572,-0.00008752,0.00030027,0.00000156,-0.0002054
 9,-0.00011320,-0.02065923,-0.00564371,0.00901362,0.00141233,-0.0008562
 0,0.00122393,-0.19398081,-0.01529584,0.05987694,0.00282157,0.00222809,
 -0.00251209,0.50271215,0.00047590,0.00116102,-0.00051171,-0.00006230,-
 0.00001469,0.00003778,-0.00003727,-0.00005281,-0.00003780,0.00038106,-
 0.00015354,0.00016371,0.00129281,-0.00266923,0.00134387,0.00022123,-0.
 00002368,-0.00025300,-0.00010375,0.00020267,0.00015187,0.01482763,0.00
 898452,-0.00763788,-0.00034301,-0.00004078,0.00001093,-0.01361222,-0.0
 6524673,0.02935547,-0.01054940,0.00068813,0.00375876,-0.03966975,0.509
 49947,-0.00089019,-0.00046222,0.00062182,0.00011901,-0.00002932,-0.000
 01218,0.00006143,0.00002903,-0.00000920,-0.00037946,0.00003372,-0.0001
 1103,-0.00181973,0.00143300,-0.00135085,-0.00002265,0.00005421,0.00042
 735,-0.00000280,-0.00000459,-0.00009370,-0.00563309,-0.00325383,0.0060
 3640,-0.00166523,-0.00015029,0.00057593,0.05987594,0.02912364,-0.10725
 978,0.02504151,0.00643772,-0.00697365,0.02246845,-0.02131203,0.5372690
 4,-0.00008078,0.00001723,0.00005375,-0.00000377,0.00000142,-0.00000953
 ,-0.00006892,0.00006251,-0.00000013,-0.00007747,0.00000845,0.00000054,
 -0.00036134,0.00020458,-0.00004061,0.00005170,-0.00001339,0.00000226,0
 .00014813,0.00018244,0.00002431,0.00122766,0.00018781,0.00103589,-0.00
 018601,-0.00008168,-0.00006411,-0.01873173,-0.02347761,-0.00296832,-0.
 00042959,0.00022489,0.00031962,-0.08231897,-0.08616237,-0.03700758,0.0
 9390188,-0.00005553,-0.00009154,0.00009391,0.00000290,0.00000603,-0.00
 000869,-0.00002492,0.00005117,0.00000248,-0.00007924,0.00000530,-0.000
 01415,-0.00020785,0.00025719,-0.00017434,-0.00000064,-0.00001064,0.000
 02161,0.00007008,0.00009758,0.00000676,0.00021991,-0.00106426,0.000323
 90,-0.00004657,0.00007635,-0.00017128,-0.00915225,-0.00185301,0.005156
 68,-0.00060732,0.00007233,0.00021843,-0.07595595,-0.21448138,-0.070244
 41,0.09379032,0.23717131,0.00004946,-0.00004703,-0.00003404,0.00000491
 ,-0.00000494,0.00000567,0.00000798,-0.00000487,0.00001412,0.00001935,0
 .00000646,-0.00000247,0.00006520,-0.00000420,0.00012762,-0.00002946,-0
 .00000379,0.00001703,-0.00003521,-0.00001717,-0.00002471,-0.00056153,-
 0.00002146,-0.00011776,0.00019536,-0.00016212,0.00011293,0.00659238,0.
 01386253,0.00580351,-0.00015922,-0.00104759,-0.00080284,-0.02990225,-0
 .06330493,-0.07052546,0.03423354,0.07441547,0.07514405,-0.00024130,-0.
 00046390,0.00025638,0.00002688,0.00001704,-0.00002993,0.00002125,0.000
 03466,0.00000466,-0.00021423,0.00005278,-0.00007088,-0.00055763,0.0013
 2062,-0.00053713,-0.00007149,-0.00002685,0.00011238,0.00003472,-0.0001
 0823,-0.00004939,-0.00269151,-0.00171889,0.00446653,0.00033733,-0.0002
 4074,0.00011108,-0.02266950,0.01926899,-0.00777917,0.00134829,-0.00090
 003,-0.00013876,-0.15502457,0.12785828,-0.03070256,0.00952401,-0.00971
 080,0.00273170,0.17265075,-0.00003501,-0.00004856,0.00001013,0.0000007
 5,-0.00000529,0.00000201,-0.00001391,0.00000520,0.00000904,-0.00001417
 ,0.00001873,-0.00000553,-0.00029800,0.00012492,-0.00001133,0.00001001,
 0.00000138,0.00000224,0.00001914,0.00002049,-0.00001433,-0.00157981,-0
 .00026160,0.00025279,0.00002111,-0.00005784,-0.00001868,-0.00662160,0.
 00689962,-0.00219068,0.00046582,0.00057063,-0.00032705,0.12730462,-0.1
 8909967,0.03680196,0.01818950,-0.02270805,0.00587641,-0.13689474,0.205
 50894,0.00013469,0.00019298,-0.00014021,-0.00000779,0.00000698,0.00000
 810,-0.00000382,-0.00001265,-0.00000178,0.00008746,-0.00002645,0.00003
 256,0.00036209,-0.00037243,0.00064035,-0.00006700,-0.00006333,-0.00003
 482,-0.00003069,0.00001073,0.00000888,0.00103996,0.00121168,-0.0014459
 6,0.00019962,-0.00003300,0.00053074,0.00969511,-0.01134327,0.00422354,
 -0.00063344,-0.00068802,0.00042872,-0.02975524,0.03615540,-0.06055536,
 0.00729888,-0.00946378,0.00202780,0.03257560,-0.04060610,0.05791960,0.
 00006752,0.00005883,-0.00007761,-0.00006106,0.00001477,-0.00003551,-0.
 00001670,0.00000587,-0.00000825,0.00003231,-0.00000244,0.00000250,-0.0
 0006553,-0.00023071,0.00006187,0.00006621,0.00005846,-0.00025572,0.000
 04091,0.00002396,0.00003470,0.00190583,-0.00030139,0.00151689,-0.00017
 426,0.00018245,-0.00106043,0.00320761,-0.00569404,0.03024313,-0.004483
 73,-0.00053972,0.00238190,-0.05259638,0.00636565,-0.02830147,-0.001602
 67,0.00175978,-0.01354940,-0.00238411,-0.00053123,-0.02085889,0.056161
 10,-0.00000352,-0.00003000,-0.00001728,-0.00001040,0.00001493,-0.00000
 548,0.00000985,-0.00000527,-0.00000694,-0.00001296,-0.00000264,0.00000
 503,0.00008582,0.00003107,-0.00000337,0.00004928,-0.00002742,-0.000036
 46,-0.00003715,-0.00006388,0.00002583,0.00020950,-0.00023053,-0.000797
 50,-0.00011969,0.00026283,-0.00021313,-0.00163512,-0.00209051,0.008800
 41,-0.00159042,0.00084852,0.00103975,0.00685331,-0.04908025,0.02121142
 ,-0.00411794,0.00226055,-0.02933970,0.00139759,-0.00123617,0.02492775,
 -0.00125957,0.04948077,0.00004481,0.00003032,-0.00003363,0.00004174,-0
 .00000393,0.00003334,0.00001348,-0.00001257,0.00000607,0.00003767,-0.0
 0000574,0.00000529,0.00006579,-0.00007860,0.00052879,-0.00025003,-0.00
 008892,0.00012612,-0.00006034,-0.00001926,-0.00004508,-0.00142061,0.00
 057438,0.00035078,0.00100523,-0.00051055,0.00084237,0.00162185,0.00499
 308,-0.01422102,0.00225350,-0.00134845,-0.00068116,-0.03035303,0.02181
 127,-0.29798091,-0.00267580,0.00018888,-0.01182352,-0.00074619,0.00021
 521,-0.00374671,0.03025042,-0.02552827,0.32651433,0.00078215,-0.000771
 05,-0.00018757,-0.00011023,-0.00004323,-0.00033466,-0.00069756,-0.0004
 0238,0.00014266,0.00018959,0.00018484,-0.00007502,0.00191384,-0.027862
 58,-0.00923458,0.00097568,0.00076181,-0.00060433,-0.00498897,-0.004035
 51,0.00138554,-0.07474178,0.00792611,0.00581949,0.00089997,0.00044930,
 0.00037781,-0.00540749,0.02678511,0.00664571,-0.00054013,-0.00079699,-
 0.00053868,0.00035303,-0.00093468,-0.00094419,-0.00125783,-0.00019524,
 0.00016435,-0.00024202,-0.00019605,0.00001089,-0.00011429,0.00027751,0
 .00030812,0.57704306,-0.00074940,0.00111584,0.00029443,-0.00010445,-0.
 00004282,-0.00008267,0.00013236,-0.00082678,-0.00056503,0.00061866,-0.
 00049194,0.00008726,-0.00512812,-0.02259929,-0.00639938,0.00154914,0.0
 0119211,-0.00074726,-0.00169998,-0.00086155,0.00036841,-0.00682055,-0.
 14373152,-0.03330836,-0.00039320,-0.00279589,-0.00125317,0.01601756,-0
 .02181449,0.00010743,-0.00057845,0.00086247,0.00000759,-0.00030831,0.0
 0068918,0.00010127,-0.00044248,-0.00025883,-0.00027628,-0.00040619,-0.
 00014457,0.00014623,0.00007007,0.00001314,-0.00011261,0.00720240,0.459
 38154,0.00036434,-0.00016101,-0.00050451,0.00009444,0.00002961,0.00008
 944,-0.00024992,0.00013118,0.00049946,0.00012022,0.00026252,0.00020907
 ,-0.00065066,0.00797215,0.00368942,0.00019181,0.00155323,0.00066885,0.
 00218332,0.00205490,-0.00019240,-0.00103061,-0.02566375,-0.08860543,0.
 00166132,-0.03432570,-0.01368408,0.00189935,0.00709225,0.00459141,-0.0
 0072938,-0.00013274,-0.00054899,0.00003835,0.00005886,-0.00051389,-0.0
 0007401,-0.00020746,0.00018908,-0.00017301,0.00009992,0.00022786,-0.00
 025272,0.00001363,0.00018097,0.00000487,-0.04467598,0.55577010,-0.0009
 8111,-0.00055595,0.00007615,0.00003035,0.00008920,0.00003170,-0.000908
 30,-0.00151499,-0.00025670,0.00013097,-0.00027133,0.00001112,-0.000284
 15,0.00009742,0.00034976,0.00000077,-0.00004823,0.00003064,0.00010956,
 0.00018085,-0.00006798,0.00029335,-0.00068301,-0.00005616,0.00015202,0
 .00028938,0.00045234,0.00018940,0.00158124,0.00084901,-0.00004659,0.00
 006386,-0.00002739,0.00020906,-0.00014187,-0.00030165,0.00026143,-0.00
 013120,0.00000186,0.00002890,0.00008078,0.00002763,-0.00002821,0.00002
 736,0.00004355,-0.21858155,0.10017139,-0.07445446,0.23824114,0.0000880
 8,-0.00067422,-0.00030213,-0.00009206,-0.00003209,-0.00007879,-0.00149
 783,0.00009869,0.00030562,-0.00018187,0.00055903,0.00004338,0.00069601
 ,0.00094551,0.00050487,-0.00015645,-0.00011937,-0.00002411,-0.00002513
 ,0.00037927,-0.00015599,0.02525032,-0.01495505,0.01115630,-0.00042089,
 0.00157221,-0.00007456,-0.00062315,-0.00568007,-0.00265433,0.00033211,
 0.00012514,0.00032568,-0.00041473,0.00012610,0.00048996,0.00059901,0.0
 0029668,-0.00008497,0.00029050,0.00008356,-0.00006683,0.00009192,-0.00
 004067,-0.00012358,0.10025050,-0.10683432,0.04464819,-0.10995617,0.115
 71060,-0.00056221,0.00030767,0.00052552,-0.00001639,-0.00013984,-0.000
 20768,0.00021023,-0.00038606,0.00007308,0.00004267,-0.00019234,-0.0001
 6202,-0.00045043,0.00078563,0.00006056,-0.00007037,0.00001641,0.000045
 68,0.00019994,0.00010386,-0.00005910,0.01126800,-0.00694119,0.00364951
 ,0.00031497,0.00080411,0.00058352,-0.00068897,-0.00155571,0.00060046,0
 .00036980,-0.00037019,0.00011016,0.00011702,0.00021575,0.00015563,0.00
 005375,-0.00003844,-0.00011040,-0.00002783,-0.00001411,-0.00001484,0.0
 0000510,-0.00000575,-0.00001002,-0.07396351,0.04451089,-0.08281336,0.0
 8259482,-0.04709490,0.08455158,-0.00011706,-0.00001792,0.00005608,0.00
 005676,0.00010228,0.00014421,-0.00004126,0.00007702,-0.00013490,-0.000
 00937,-0.00004709,0.00004222,0.00035644,0.00000794,-0.00128032,0.00018
 038,-0.00009790,0.00014124,-0.00005272,0.00004813,0.00012207,-0.000992
 90,-0.00002707,0.00127642,0.00076275,0.00022496,-0.00000075,0.00010072
 ,-0.00063871,0.00084395,0.00014551,0.00016890,-0.00004015,-0.00022593,
 0.00009600,0.00001506,0.00001108,0.00006540,0.00010469,-0.00001474,0.0
 0005359,-0.00000009,0.00003941,-0.00007416,-0.00012178,-0.05081533,0.0
 0016685,0.01004443,0.00236909,-0.00064214,-0.02774261,0.04843369,-0.00
 011764,-0.00002341,0.00008181,0.00016828,-0.00005208,0.00008662,-0.000
 07029,0.00001806,0.00001315,-0.00006707,0.00005329,0.00000630,0.000885
 58,0.00207098,-0.00112799,-0.00029864,-0.00011658,0.00097521,0.0002855
 2,0.00028528,0.00037877,0.00151003,-0.00114427,-0.03239214,0.00034146,
 -0.00620572,-0.00263788,-0.00137607,0.00208153,-0.00049571,0.00015611,
 -0.00039463,0.00024593,0.00017082,-0.00002940,0.00000050,0.00001623,-0
 .00001699,0.00006656,0.00003640,0.00003108,0.00000163,-0.00012596,-0.0
 0005120,0.00011735,0.00003689,-0.04813911,0.00286716,-0.00221735,-0.00
 042821,0.01559468,-0.00016945,0.05235648,-0.00020905,-0.00023312,0.000
 10440,0.00013300,0.00009590,0.00013785,-0.00008262,0.00004229,-0.00021
 242,-0.00006791,-0.00004335,0.00000718,0.00048730,0.00096826,0.0004319
 7,-0.00065020,-0.00066641,0.00059915,-0.00003678,-0.00000141,0.0004167
 4,0.00055205,-0.00110505,-0.01203808,0.00029511,-0.00266029,0.00054441
 ,-0.00072995,0.00091702,0.00086616,0.00044100,-0.00051890,0.00018106,0
 .00019157,-0.00007530,0.00008552,0.00002223,0.00000503,-0.00012262,0.0
 0003124,-0.00003822,0.00000257,-0.00010484,0.00003029,0.00010486,0.010
 30994,0.00331875,-0.30851615,0.00099931,0.00031981,-0.01026580,-0.0115
 4278,-0.00076934,0.33583624,-0.00009332,0.00018705,0.00031380,0.000019
 60,-0.00004774,-0.00006798,0.00039548,-0.00026757,-0.00013702,0.000042
 59,-0.00023866,-0.00004430,0.00046895,0.00069780,-0.00032996,-0.000036
 82,0.00010518,0.00003696,0.00010626,0.00008179,0.00005517,0.00222710,0
 .00175958,-0.00115903,0.00009947,-0.00033071,-0.00046858,0.00029412,0.
 00072667,-0.00032531,0.00004774,0.00005118,0.00003301,0.00005712,0.000
 09805,0.00008921,-0.00000681,0.00025913,0.00006631,0.00013897,0.000039
 21,-0.00007497,0.00000604,-0.00004930,-0.00005836,-0.22466016,-0.10929
 731,0.06101232,-0.02118613,-0.01358803,0.00834603,-0.00018654,0.000835
 15,-0.00003862,0.24226636,0.00081391,-0.00021372,0.00003605,-0.0000696
 8,0.00003179,-0.00005961,-0.00022155,0.00037525,0.00012097,-0.00014394
 ,0.00020001,0.00002692,0.00234501,-0.00576395,-0.00342799,0.00029766,0
 .00024091,-0.00001683,-0.00189653,-0.00125200,0.00039398,-0.02454182,-
 0.01625593,0.01004645,0.00024536,0.00134829,-0.00017506,-0.00174586,0.
 00124302,0.00056558,0.00008817,-0.00009745,-0.00012860,-0.00021235,-0.
 00045894,-0.00025974,0.00081108,0.00019022,0.00009160,0.00019349,0.000
 29719,0.00002249,0.00005330,-0.00005329,-0.00009800,-0.10863676,-0.114
 71317,0.03838304,0.01293861,0.00886720,-0.00560046,0.00070337,-0.00029
 514,0.00041406,0.11897852,0.12630971,0.00006197,-0.00006474,0.00018626
 ,0.00002673,0.00003378,0.00000815,0.00004509,0.00001338,-0.00016021,0.
 00001812,-0.00005826,-0.00001047,0.00060026,-0.00194911,-0.00074465,-0
 .00017631,-0.00031985,0.00042067,-0.00043779,-0.00046185,0.00053902,-0
 .01091425,-0.00635122,0.00298176,-0.00039465,0.00061917,0.00049718,0.0
 0002925,0.00068290,-0.00004317,0.00002560,0.00004390,0.00003391,0.0001
 1315,0.00006899,0.00021432,-0.00020468,-0.00011058,0.00012199,-0.00003
 474,-0.00004368,-0.00011105,0.00000833,-0.00010022,-0.00015089,0.06071
 316,0.03847848,-0.07073686,-0.01030354,-0.00713363,0.00328752,0.028072
 99,0.01698738,-0.00816306,-0.06724870,-0.04033485,0.07182957\\0.000000
 24,0.,-0.00000040,0.00000033,-0.00000007,-0.00000055,-0.00000033,-0.00
 000018,-0.00000055,0.00000013,-0.00000037,-0.00000091,-0.00000037,-0.0
 0000091,-0.00000073,-0.00000017,-0.00000012,-0.00000053,0.00000030,-0.
 00000032,-0.00000035,-0.00000023,0.00000059,-0.00000026,-0.00000004,0.
 00000010,0.00000041,0.00000081,0.00000030,0.00000077,-0.00000083,-0.00
 000002,0.00000019,0.00000060,0.00000047,-0.00000007,-0.00000017,0.0000
 0030,0.00000083,0.00000015,0.00000035,0.00000057,0.00000049,0.00000039
 ,0.00000067,-0.00000003,-0.00000067,0.00000010,-0.00000030,-0.00000005
 ,0.00000012,-0.00000050,-0.00000009,0.00000021,-0.00000007,0.00000030,
 0.00000047\\\@


 THERE ONCE WAS A GIRL NAMED IRENE,
 WHO LIVED ON DISTILLED KEROSENE,
      BUT SHE STARTED ABSORBIN'
      A NEW HYDROCARBON,
 AND SINCE THEN HAS NEVER BENZENE.
 Job cpu time:       0 days  0 hours 27 minutes 49.8 seconds.
 File lengths (MBytes):  RWF=     64 Int=      0 D2E=      0 Chk=      3 Scr=      1
 Normal termination of Gaussian 09 at Sat Nov  7 02:32:53 2015.
