 Entering Gaussian System, Link 0=/home/hetanjin/apps/g09D01/g09/g09
 Input=C6H14_5_r009_C13_2_opt_B3L.gjf
 Output=C6H14_5_r009_C13_2_opt_B3L.log
 Initial command:
 /home/hetanjin/apps/g09D01/g09/l1.exe "/state/partition1/Gau-7986.inp" -scrdir="/state/partition1/"
 Entering Link 1 = /home/hetanjin/apps/g09D01/g09/l1.exe PID=      7988.
  
 Copyright (c) 1988,1990,1992,1993,1995,1998,2003,2009,2013,
            Gaussian, Inc.  All Rights Reserved.
  
 This is part of the Gaussian(R) 09 program.  It is based on
 the Gaussian(R) 03 system (copyright 2003, Gaussian, Inc.),
 the Gaussian(R) 98 system (copyright 1998, Gaussian, Inc.),
 the Gaussian(R) 94 system (copyright 1995, Gaussian, Inc.),
 the Gaussian 92(TM) system (copyright 1992, Gaussian, Inc.),
 the Gaussian 90(TM) system (copyright 1990, Gaussian, Inc.),
 the Gaussian 88(TM) system (copyright 1988, Gaussian, Inc.),
 the Gaussian 86(TM) system (copyright 1986, Carnegie Mellon
 University), and the Gaussian 82(TM) system (copyright 1983,
 Carnegie Mellon University). Gaussian is a federally registered
 trademark of Gaussian, Inc.
  
 This software contains proprietary and confidential information,
 including trade secrets, belonging to Gaussian, Inc.
  
 This software is provided under written license and may be
 used, copied, transmitted, or stored only in accord with that
 written license.
  
 The following legend is applicable only to US Government
 contracts under FAR:
  
                    RESTRICTED RIGHTS LEGEND
  
 Use, reproduction and disclosure by the US Government is
 subject to restrictions as set forth in subparagraphs (a)
 and (c) of the Commercial Computer Software - Restricted
 Rights clause in FAR 52.227-19.
  
 Gaussian, Inc.
 340 Quinnipiac St., Bldg. 40, Wallingford CT 06492
  
  
 ---------------------------------------------------------------
 Warning -- This program may not be used in any manner that
 competes with the business of Gaussian, Inc. or will provide
 assistance to any competitor of Gaussian, Inc.  The licensee
 of this program is prohibited from giving any competitor of
 Gaussian, Inc. access to this program.  By using this program,
 the user acknowledges that Gaussian, Inc. is engaged in the
 business of creating and licensing software in the field of
 computational chemistry and represents and warrants to the
 licensee that it is not a competitor of Gaussian, Inc. and that
 it will not use this program in any manner prohibited above.
 ---------------------------------------------------------------
  

 Cite this work as:
 Gaussian 09, Revision D.01,
 M. J. Frisch, G. W. Trucks, H. B. Schlegel, G. E. Scuseria, 
 M. A. Robb, J. R. Cheeseman, G. Scalmani, V. Barone, B. Mennucci, 
 G. A. Petersson, H. Nakatsuji, M. Caricato, X. Li, H. P. Hratchian, 
 A. F. Izmaylov, J. Bloino, G. Zheng, J. L. Sonnenberg, M. Hada, 
 M. Ehara, K. Toyota, R. Fukuda, J. Hasegawa, M. Ishida, T. Nakajima, 
 Y. Honda, O. Kitao, H. Nakai, T. Vreven, J. A. Montgomery, Jr., 
 J. E. Peralta, F. Ogliaro, M. Bearpark, J. J. Heyd, E. Brothers, 
 K. N. Kudin, V. N. Staroverov, T. Keith, R. Kobayashi, J. Normand, 
 K. Raghavachari, A. Rendell, J. C. Burant, S. S. Iyengar, J. Tomasi, 
 M. Cossi, N. Rega, J. M. Millam, M. Klene, J. E. Knox, J. B. Cross, 
 V. Bakken, C. Adamo, J. Jaramillo, R. Gomperts, R. E. Stratmann, 
 O. Yazyev, A. J. Austin, R. Cammi, C. Pomelli, J. W. Ochterski, 
 R. L. Martin, K. Morokuma, V. G. Zakrzewski, G. A. Voth, 
 P. Salvador, J. J. Dannenberg, S. Dapprich, A. D. Daniels, 
 O. Farkas, J. B. Foresman, J. V. Ortiz, J. Cioslowski, 
 and D. J. Fox, Gaussian, Inc., Wallingford CT, 2013.
 
 ******************************************
 Gaussian 09:  ES64L-G09RevD.01 24-Apr-2013
                 7-Nov-2015 
 ******************************************
 %mem=6GB
 %nprocshared=4
 Will use up to    4 processors via shared memory.
 ----------------------------------------------
 #p B3LYP/6-31G(d) opt=tight int=ultrafine freq
 ----------------------------------------------
 1/7=10,14=-1,18=20,19=15,26=4,38=1/1,3;
 2/9=110,12=2,17=6,18=5,40=1/2;
 3/5=1,6=6,7=1,11=2,16=1,25=1,30=1,71=1,74=-5,75=-5/1,2,3;
 4//1;
 5/5=2,38=5/2;
 6/7=2,8=2,9=2,10=2,28=1/1;
 7//1,2,3,16;
 1/7=10,14=-1,18=20,19=15,26=4/3(2);
 2/9=110/2;
 99//99;
 2/9=110/2;
 3/5=1,6=6,7=1,11=2,16=1,25=1,30=1,71=1,74=-5,75=-5/1,2,3;
 4/5=5,16=3,69=1/1;
 5/5=2,38=5/2;
 7//1,2,3,16;
 1/7=10,14=-1,18=20,19=15,26=4/3(-5);
 2/9=110/2;
 6/7=2,8=2,9=2,10=2,19=2,28=1/1;
 99/9=1/99;
 Leave Link    1 at Sat Nov  7 02:13:47 2015, MaxMem=   805306368 cpu:         0.2
 (Enter /home/hetanjin/apps/g09D01/g09/l101.exe)
 ---------------------------------------------
 using B3LYP/6-31G(d) to do opt and freq calc.
 ---------------------------------------------
 Symbolic Z-matrix:
 Charge =  0 Multiplicity = 2
 C                     1.61803   0.98966  -0.00005 
 H                     1.59367   1.63643   0.88596 
 H                     1.59367   1.63635  -0.88611 
 H                     2.57832   0.45929  -0.00002 
 C                     0.43635  -0.0005    0. 
 C                    -0.87859   0.82391  -0.00003 
 H                    -0.86571   1.48649  -0.87756 
 H                    -0.86571   1.48655   0.87745 
 C                    -2.19348   0.03388  0. 
 H                    -2.28903  -0.60502   0.88496 
 H                    -3.04849   0.71981  -0.00001 
 H                    -2.28904  -0.60506  -0.88493 
 C                     0.5289   -0.88501  -1.25865 
 H                    -0.26244  -1.64248  -1.28525 
 H                     1.4897   -1.41334  -1.29204 
 C                     0.52891  -0.8849    1.25873 
 H                     1.4897   -1.41324   1.29215 
 H                     0.44854  -0.28273   2.17265 
 H                    -0.26244  -1.64236   1.2854 
 
 NAtoms=     19 NQM=       19 NQMF=       0 NMMI=      0 NMMIF=      0
                NMic=       0 NMicF=      0.
                    Isotopes and Nuclear Properties:
 (Nuclear quadrupole moments (NQMom) in fm**2, nuclear magnetic moments (NMagM)
  in nuclear magnetons)

  Atom         1           2           3           4           5           6           7           8           9          10
 IAtWgt=          12           1           1           1          12          12           1           1          12           1
 AtmWgt=  12.0000000   1.0078250   1.0078250   1.0078250  12.0000000  12.0000000   1.0078250   1.0078250  12.0000000   1.0078250
 NucSpn=           0           1           1           1           0           0           1           1           0           1
 AtZEff=   0.0000000   0.0000000   0.0000000   0.0000000   0.0000000   0.0000000   0.0000000   0.0000000   0.0000000   0.0000000
 NQMom=    0.0000000   0.0000000   0.0000000   0.0000000   0.0000000   0.0000000   0.0000000   0.0000000   0.0000000   0.0000000
 NMagM=    0.0000000   2.7928460   2.7928460   2.7928460   0.0000000   0.0000000   2.7928460   2.7928460   0.0000000   2.7928460
 AtZNuc=   6.0000000   1.0000000   1.0000000   1.0000000   6.0000000   6.0000000   1.0000000   1.0000000   6.0000000   1.0000000

  Atom        11          12          13          14          15          16          17          18          19
 IAtWgt=           1           1          12           1           1          12           1           1           1
 AtmWgt=   1.0078250   1.0078250  12.0000000   1.0078250   1.0078250  12.0000000   1.0078250   1.0078250   1.0078250
 NucSpn=           1           1           0           1           1           0           1           1           1
 AtZEff=   0.0000000   0.0000000   0.0000000   0.0000000   0.0000000   0.0000000   0.0000000   0.0000000   0.0000000
 NQMom=    0.0000000   0.0000000   0.0000000   0.0000000   0.0000000   0.0000000   0.0000000   0.0000000   0.0000000
 NMagM=    2.7928460   2.7928460   0.0000000   2.7928460   2.7928460   0.0000000   2.7928460   2.7928460   2.7928460
 AtZNuc=   1.0000000   1.0000000   6.0000000   1.0000000   1.0000000   6.0000000   1.0000000   1.0000000   1.0000000
 Leave Link  101 at Sat Nov  7 02:13:47 2015, MaxMem=   805306368 cpu:         0.7
 (Enter /home/hetanjin/apps/g09D01/g09/l103.exe)

 GradGradGradGradGradGradGradGradGradGradGradGradGradGradGradGradGradGrad
 Berny optimization.
 Initialization pass.
                           ----------------------------
                           !    Initial Parameters    !
                           ! (Angstroms and Degrees)  !
 --------------------------                            --------------------------
 ! Name  Definition              Value          Derivative Info.                !
 --------------------------------------------------------------------------------
 ! R1    R(1,2)                  1.0972         estimate D2E/DX2                !
 ! R2    R(1,3)                  1.0972         estimate D2E/DX2                !
 ! R3    R(1,4)                  1.097          estimate D2E/DX2                !
 ! R4    R(1,5)                  1.5417         estimate D2E/DX2                !
 ! R5    R(5,6)                  1.552          estimate D2E/DX2                !
 ! R6    R(5,13)                 1.5411         estimate D2E/DX2                !
 ! R7    R(5,16)                 1.5411         estimate D2E/DX2                !
 ! R8    R(6,7)                  1.0996         estimate D2E/DX2                !
 ! R9    R(6,8)                  1.0996         estimate D2E/DX2                !
 ! R10   R(6,9)                  1.534          estimate D2E/DX2                !
 ! R11   R(9,10)                 1.0957         estimate D2E/DX2                !
 ! R12   R(9,11)                 1.0961         estimate D2E/DX2                !
 ! R13   R(9,12)                 1.0957         estimate D2E/DX2                !
 ! R14   R(13,14)                1.0958         estimate D2E/DX2                !
 ! R15   R(13,15)                1.097          estimate D2E/DX2                !
 ! R16   R(16,17)                1.097          estimate D2E/DX2                !
 ! R17   R(16,18)                1.0974         estimate D2E/DX2                !
 ! R18   R(16,19)                1.0958         estimate D2E/DX2                !
 ! A1    A(2,1,3)              107.7092         estimate D2E/DX2                !
 ! A2    A(2,1,4)              107.7219         estimate D2E/DX2                !
 ! A3    A(2,1,5)              111.195          estimate D2E/DX2                !
 ! A4    A(3,1,4)              107.722          estimate D2E/DX2                !
 ! A5    A(3,1,5)              111.195          estimate D2E/DX2                !
 ! A6    A(4,1,5)              111.1274         estimate D2E/DX2                !
 ! A7    A(1,5,6)              107.9534         estimate D2E/DX2                !
 ! A8    A(1,5,13)             108.8179         estimate D2E/DX2                !
 ! A9    A(1,5,16)             108.8179         estimate D2E/DX2                !
 ! A10   A(6,5,13)             110.8381         estimate D2E/DX2                !
 ! A11   A(6,5,16)             110.8381         estimate D2E/DX2                !
 ! A12   A(13,5,16)            109.5162         estimate D2E/DX2                !
 ! A13   A(5,6,7)              108.0687         estimate D2E/DX2                !
 ! A14   A(5,6,8)              108.0687         estimate D2E/DX2                !
 ! A15   A(5,6,9)              116.915          estimate D2E/DX2                !
 ! A16   A(7,6,8)              105.8765         estimate D2E/DX2                !
 ! A17   A(7,6,9)              108.6851         estimate D2E/DX2                !
 ! A18   A(8,6,9)              108.6852         estimate D2E/DX2                !
 ! A19   A(6,9,10)             112.0296         estimate D2E/DX2                !
 ! A20   A(6,9,11)             110.2629         estimate D2E/DX2                !
 ! A21   A(6,9,12)             112.0296         estimate D2E/DX2                !
 ! A22   A(10,9,11)            107.27           estimate D2E/DX2                !
 ! A23   A(10,9,12)            107.7399         estimate D2E/DX2                !
 ! A24   A(11,9,12)            107.27           estimate D2E/DX2                !
 ! A25   A(5,13,14)            111.913          estimate D2E/DX2                !
 ! A26   A(5,13,15)            110.724          estimate D2E/DX2                !
 ! A27   A(14,13,15)           107.389          estimate D2E/DX2                !
 ! A28   A(5,16,17)            110.7241         estimate D2E/DX2                !
 ! A29   A(5,16,18)            111.155          estimate D2E/DX2                !
 ! A30   A(5,16,19)            111.913          estimate D2E/DX2                !
 ! A31   A(17,16,18)           107.6408         estimate D2E/DX2                !
 ! A32   A(17,16,19)           107.3889         estimate D2E/DX2                !
 ! A33   A(18,16,19)           107.8276         estimate D2E/DX2                !
 ! D1    D(2,1,5,6)             60.0094         estimate D2E/DX2                !
 ! D2    D(2,1,5,13)          -179.6279         estimate D2E/DX2                !
 ! D3    D(2,1,5,16)           -60.3531         estimate D2E/DX2                !
 ! D4    D(3,1,5,6)            -60.01           estimate D2E/DX2                !
 ! D5    D(3,1,5,13)            60.3526         estimate D2E/DX2                !
 ! D6    D(3,1,5,16)           179.6274         estimate D2E/DX2                !
 ! D7    D(4,1,5,6)            179.9997         estimate D2E/DX2                !
 ! D8    D(4,1,5,13)           -59.6377         estimate D2E/DX2                !
 ! D9    D(4,1,5,16)            59.6371         estimate D2E/DX2                !
 ! D10   D(1,5,6,7)             57.0744         estimate D2E/DX2                !
 ! D11   D(1,5,6,8)            -57.0751         estimate D2E/DX2                !
 ! D12   D(1,5,6,9)            179.9996         estimate D2E/DX2                !
 ! D13   D(13,5,6,7)           -62.0124         estimate D2E/DX2                !
 ! D14   D(13,5,6,8)          -176.1619         estimate D2E/DX2                !
 ! D15   D(13,5,6,9)            60.9128         estimate D2E/DX2                !
 ! D16   D(16,5,6,7)           176.1612         estimate D2E/DX2                !
 ! D17   D(16,5,6,8)            62.0117         estimate D2E/DX2                !
 ! D18   D(16,5,6,9)           -60.9136         estimate D2E/DX2                !
 ! D19   D(1,5,13,14)          177.2395         estimate D2E/DX2                !
 ! D20   D(1,5,13,15)           57.4635         estimate D2E/DX2                !
 ! D21   D(6,5,13,14)          -64.1959         estimate D2E/DX2                !
 ! D22   D(6,5,13,15)          176.0282         estimate D2E/DX2                !
 ! D23   D(16,5,13,14)          58.4016         estimate D2E/DX2                !
 ! D24   D(16,5,13,15)         -61.3744         estimate D2E/DX2                !
 ! D25   D(1,5,16,17)          -57.4641         estimate D2E/DX2                !
 ! D26   D(1,5,16,18)           62.129          estimate D2E/DX2                !
 ! D27   D(1,5,16,19)         -177.2401         estimate D2E/DX2                !
 ! D28   D(6,5,16,17)         -176.0287         estimate D2E/DX2                !
 ! D29   D(6,5,16,18)          -56.4356         estimate D2E/DX2                !
 ! D30   D(6,5,16,19)           64.1953         estimate D2E/DX2                !
 ! D31   D(13,5,16,17)          61.3738         estimate D2E/DX2                !
 ! D32   D(13,5,16,18)        -179.0331         estimate D2E/DX2                !
 ! D33   D(13,5,16,19)         -58.4022         estimate D2E/DX2                !
 ! D34   D(5,6,9,10)            60.6085         estimate D2E/DX2                !
 ! D35   D(5,6,9,11)           179.9992         estimate D2E/DX2                !
 ! D36   D(5,6,9,12)           -60.6101         estimate D2E/DX2                !
 ! D37   D(7,6,9,10)          -176.7844         estimate D2E/DX2                !
 ! D38   D(7,6,9,11)           -57.3938         estimate D2E/DX2                !
 ! D39   D(7,6,9,12)            61.9969         estimate D2E/DX2                !
 ! D40   D(8,6,9,10)           -61.9986         estimate D2E/DX2                !
 ! D41   D(8,6,9,11)            57.3921         estimate D2E/DX2                !
 ! D42   D(8,6,9,12)           176.7828         estimate D2E/DX2                !
 --------------------------------------------------------------------------------
 Trust Radius=3.00D-01 FncErr=1.00D-07 GrdErr=1.00D-06
 Number of steps in this run=    103 maximum allowed number of steps=    114.
 GradGradGradGradGradGradGradGradGradGradGradGradGradGradGradGradGradGrad

 Leave Link  103 at Sat Nov  7 02:13:47 2015, MaxMem=   805306368 cpu:         0.0
 (Enter /home/hetanjin/apps/g09D01/g09/l202.exe)
                          Input orientation:                          
 ---------------------------------------------------------------------
 Center     Atomic      Atomic             Coordinates (Angstroms)
 Number     Number       Type             X           Y           Z
 ---------------------------------------------------------------------
      1          6           0        1.618032    0.989661   -0.000046
      2          1           0        1.593672    1.636429    0.885962
      3          1           0        1.593672    1.636347   -0.886113
      4          1           0        2.578316    0.459293   -0.000021
      5          6           0        0.436353   -0.000500    0.000000
      6          6           0       -0.878586    0.823914   -0.000030
      7          1           0       -0.865713    1.486486   -0.877558
      8          1           0       -0.865712    1.486551    0.877447
      9          6           0       -2.193477    0.033880   -0.000001
     10          1           0       -2.289029   -0.605019    0.884964
     11          1           0       -3.048488    0.719808   -0.000012
     12          1           0       -2.289041   -0.605062   -0.884933
     13          6           0        0.528897   -0.885012   -1.258652
     14          1           0       -0.262439   -1.642476   -1.285245
     15          1           0        1.489696   -1.413344   -1.292039
     16          6           0        0.528906   -0.884904    1.258727
     17          1           0        1.489700   -1.413241    1.292148
     18          1           0        0.448537   -0.282728    2.172647
     19          1           0       -0.262436   -1.642360    1.285396
 ---------------------------------------------------------------------
                    Distance matrix (angstroms):
                    1          2          3          4          5
     1  C    0.000000
     2  H    1.097229   0.000000
     3  H    1.097229   1.772075   0.000000
     4  H    1.097012   1.772044   1.772044   0.000000
     5  C    1.541682   2.191769   2.191769   2.190757   0.000000
     6  C    2.502114   2.749040   2.749045   3.476078   1.552006
     7  H    2.680644   3.030026   2.463961   3.699531   2.162547
     8  H    2.680649   2.463961   3.030042   3.699532   2.162546
     9  C    3.929519   4.206613   4.206613   4.790719   2.630055
    10  H    4.311771   4.483242   4.820353   5.060337   2.928534
    11  H    4.674316   4.814021   4.814028   5.632832   3.558505
    12  H    4.311773   4.820354   4.483233   5.060344   2.928545
    13  C    2.506931   3.477180   2.762206   2.755254   1.541146
    14  H    3.480812   4.348621   3.788817   3.760202   2.199148
    15  H    2.731327   3.749082   3.078344   2.522137   2.185183
    16  C    2.506930   2.762209   3.477179   2.755248   1.541146
    17  H    2.731332   3.078357   3.749082   2.522136   2.185183
    18  H    2.776200   2.578770   3.788165   3.131619   2.190935
    19  H    3.480812   3.788818   4.348621   3.760201   2.199148
                    6          7          8          9         10
     6  C    0.000000
     7  H    1.099647   0.000000
     8  H    1.099645   1.755005   0.000000
     9  C    1.533979   2.154792   2.154792   0.000000
    10  H    2.194177   3.083295   2.529931   1.095667   0.000000
    11  H    2.172398   2.474346   2.474336   1.096148   1.764972
    12  H    2.194176   2.529919   3.083293   1.095666   1.769897
    13  C    2.546677   2.777440   3.483126   3.136859   3.551646
    14  H    2.848595   3.212562   3.851232   2.861980   3.145344
    15  H    3.504764   3.758824   4.320186   4.162882   4.435256
    16  C    2.546677   3.483126   2.777433   3.136866   2.856360
    17  H    3.504763   4.320186   3.758821   4.162884   3.885591
    18  H    2.776047   3.763127   2.556392   3.435241   3.042411
    19  H    2.848591   3.851232   3.212545   2.861983   2.311601
                   11         12         13         14         15
    11  H    0.000000
    12  H    1.764972   0.000000
    13  C    4.117925   2.856364   0.000000
    14  H    3.872245   2.311621   1.095752   0.000000
    15  H    5.178299   3.885603   1.096989   1.767067   0.000000
    16  C    4.117921   3.551678   2.517379   2.769826   2.776468
    17  H    5.178294   4.435281   2.776463   3.124979   2.584187
    18  H    4.237300   4.116677   3.484683   3.783044   3.790297
    19  H    3.872234   3.145384   2.769831   2.570641   3.124994
                   16         17         18         19
    16  C    0.000000
    17  H    1.096988   0.000000
    18  H    1.097417   1.771259   0.000000
    19  H    1.095752   1.767066   1.772370   0.000000
 Stoichiometry    C6H13(2)
 Framework group  C1[X(C6H13)]
 Deg. of freedom    51
 Full point group                 C1      NOp   1
 Largest Abelian subgroup         C1      NOp   1
 Largest concise Abelian subgroup C1      NOp   1
                         Standard orientation:                         
 ---------------------------------------------------------------------
 Center     Atomic      Atomic             Coordinates (Angstroms)
 Number     Number       Type             X           Y           Z
 ---------------------------------------------------------------------
      1          6           0       -1.628417    0.981800   -0.045424
      2          1           0       -1.621106    1.517335   -1.003057
      3          1           0       -1.589992    1.730349    0.755893
      4          1           0       -2.587329    0.455110    0.035322
      5          6           0       -0.444644   -0.000974    0.052654
      6          6           0        0.868191    0.817691   -0.069720
      7          1           0        0.869202    1.580977    0.721871
      8          1           0        0.838387    1.369998   -1.020134
      9          6           0        2.184695    0.033616    0.001954
     10          1           0        2.266165   -0.707049   -0.801328
     11          1           0        3.037992    0.714717   -0.095644
     12          1           0        2.297253   -0.494257    0.955455
     13          6           0       -0.513037   -0.727728    1.409961
     14          1           0        0.280386   -1.476359    1.513414
     15          1           0       -1.471883   -1.248379    1.523635
     16          6           0       -0.557246   -1.030341   -1.088773
     17          1           0       -1.517259   -1.559031   -1.041411
     18          1           0       -0.494322   -0.542422   -2.069742
     19          1           0        0.235248   -1.785370   -1.038187
 ---------------------------------------------------------------------
 Rotational constants (GHZ):      4.4453748      2.5325884      2.4636023
 Leave Link  202 at Sat Nov  7 02:13:47 2015, MaxMem=   805306368 cpu:         0.0
 (Enter /home/hetanjin/apps/g09D01/g09/l301.exe)
 Standard basis: 6-31G(d) (6D, 7F)
 Ernie: Thresh=  0.10000D-02 Tol=  0.10000D-05 Strict=F.
 There are   116 symmetry adapted cartesian basis functions of A   symmetry.
 There are   116 symmetry adapted basis functions of A   symmetry.
   116 basis functions,   220 primitive gaussians,   116 cartesian basis functions
    25 alpha electrons       24 beta electrons
       nuclear repulsion energy       254.1179712280 Hartrees.
 IExCor=  402 DFT=T Ex+Corr=B3LYP ExCW=0 ScaHFX=  0.200000
 ScaDFX=  0.800000  0.720000  1.000000  0.810000 ScalE2=  1.000000  1.000000
 IRadAn=      5 IRanWt=     -1 IRanGd=            0 ICorTp=0 IEmpDi=  4
 NAtoms=   19 NActive=   19 NUniq=   19 SFac= 1.00D+00 NAtFMM=   60 NAOKFM=F Big=F
 Integral buffers will be    131072 words long.
 Raffenetti 2 integral format.
 Two-electron integral symmetry is turned on.
 Leave Link  301 at Sat Nov  7 02:13:47 2015, MaxMem=   805306368 cpu:         0.2
 (Enter /home/hetanjin/apps/g09D01/g09/l302.exe)
 NPDir=0 NMtPBC=     1 NCelOv=     1 NCel=       1 NClECP=     1 NCelD=      1
         NCelK=      1 NCelE2=     1 NClLst=     1 CellRange=     0.0.
 One-electron integrals computed using PRISM.
 NBasis=   116 RedAO= T EigKep=  3.85D-03  NBF=   116
 NBsUse=   116 1.00D-06 EigRej= -1.00D+00 NBFU=   116
 Precomputing XC quadrature grid using
 IXCGrd= 4 IRadAn=           5 IRanWt=          -1 IRanGd=           0 AccXCQ= 0.00D+00.
 Generated NRdTot=       0 NPtTot=           0 NUsed=           0 NTot=          32
 NSgBfM=   116   116   116   116   116 MxSgAt=    19 MxSgA2=    19.
 Leave Link  302 at Sat Nov  7 02:13:48 2015, MaxMem=   805306368 cpu:         1.4
 (Enter /home/hetanjin/apps/g09D01/g09/l303.exe)
 DipDrv:  MaxL=1.
 Leave Link  303 at Sat Nov  7 02:13:48 2015, MaxMem=   805306368 cpu:         0.1
 (Enter /home/hetanjin/apps/g09D01/g09/l401.exe)
 ExpMin= 1.61D-01 ExpMax= 3.05D+03 ExpMxC= 4.57D+02 IAcc=3 IRadAn=         5 AccDes= 0.00D+00
 Harris functional with IExCor=  402 and IRadAn=       5 diagonalized for initial guess.
 HarFok:  IExCor=  402 AccDes= 0.00D+00 IRadAn=         5 IDoV= 1 UseB2=F ITyADJ=14
 ICtDFT=  3500011 ScaDFX=  1.000000  1.000000  1.000000  1.000000
 FoFCou: FMM=F IPFlag=           0 FMFlag=      100000 FMFlg1=           0
         NFxFlg=           0 DoJE=T BraDBF=F KetDBF=T FulRan=T
         wScrn=  0.000000 ICntrl=     500 IOpCl=  0 I1Cent=   200000004 NGrid=           0
         NMat0=    1 NMatS0=      1 NMatT0=    0 NMatD0=    1 NMtDS0=    0 NMtDT0=    0
 Petite list used in FoFCou.
 Harris En= -236.439921749886    
 JPrj=0 DoOrth=F DoCkMO=F.
 Initial guess <Sx>= 0.0000 <Sy>= 0.0000 <Sz>= 0.5000 <S**2>= 0.7500 S= 0.5000
 Leave Link  401 at Sat Nov  7 02:13:50 2015, MaxMem=   805306368 cpu:         8.9
 (Enter /home/hetanjin/apps/g09D01/g09/l502.exe)
 UHF open shell SCF:
 Using DIIS extrapolation, IDIIS=  1040.
 Integral symmetry usage will be decided dynamically.
 Keep R1 and R2 ints in memory in canonical form, NReq=47059932.
 IVT=       60514 IEndB=       60514 NGot=   805306368 MDV=   759189273
 LenX=   759189273 LenY=   759175376
 Requested convergence on RMS density matrix=1.00D-08 within 128 cycles.
 Requested convergence on MAX density matrix=1.00D-06.
 Requested convergence on             energy=1.00D-06.
 No special actions if energy rises.
 FoFCou: FMM=F IPFlag=           0 FMFlag=           0 FMFlg1=           0
         NFxFlg=           0 DoJE=F BraDBF=F KetDBF=F FulRan=T
         wScrn=  0.000000 ICntrl=     600 IOpCl=  0 I1Cent=           0 NGrid=           0
         NMat0=    1 NMatS0=   6786 NMatT0=    0 NMatD0=    1 NMtDS0=    0 NMtDT0=    0
 Symmetry not used in FoFCou.
 Integral accuracy reduced to 1.0D-05 until final iterations.

 Cycle   1  Pass 0  IDiag  1:
 E= -236.145318624944    
 DIIS: error= 5.08D-02 at cycle   1 NSaved=   1.
 NSaved= 1 IEnMin= 1 EnMin= -236.145318624944     IErMin= 1 ErrMin= 5.08D-02
 ErrMax= 5.08D-02  0.00D+00 EMaxC= 1.00D-01 BMatC= 9.12D-01 BMatP= 9.12D-01
 IDIUse=3 WtCom= 4.92D-01 WtEn= 5.08D-01
 Coeff-Com:  0.100D+01
 Coeff-En:   0.100D+01
 Coeff:      0.100D+01
 Gap=     0.272 Goal=   None    Shift=    0.000
 Gap=     0.223 Goal=   None    Shift=    0.000
 GapD=    0.223 DampG=1.000 DampE=0.500 DampFc=0.5000 IDamp=-1.
 Damping current iteration by 5.00D-01
 RMSDP=9.68D-03 MaxDP=1.39D-01              OVMax= 1.72D-01

 Cycle   2  Pass 0  IDiag  1:
 E= -236.258298119441     Delta-E=       -0.112979494496 Rises=F Damp=T
 DIIS: error= 9.14D-03 at cycle   2 NSaved=   2.
 NSaved= 2 IEnMin= 2 EnMin= -236.258298119441     IErMin= 2 ErrMin= 9.14D-03
 ErrMax= 9.14D-03  0.00D+00 EMaxC= 1.00D-01 BMatC= 3.96D-02 BMatP= 9.12D-01
 IDIUse=3 WtCom= 9.09D-01 WtEn= 9.14D-02
 Coeff-Com:  0.744D-01 0.926D+00
 Coeff-En:   0.126D+00 0.874D+00
 Coeff:      0.791D-01 0.921D+00
 Gap=     0.309 Goal=   None    Shift=    0.000
 Gap=     0.259 Goal=   None    Shift=    0.000
 RMSDP=1.70D-03 MaxDP=2.43D-02 DE=-1.13D-01 OVMax= 1.03D-01

 Cycle   3  Pass 0  IDiag  1:
 E= -236.398555404105     Delta-E=       -0.140257284664 Rises=F Damp=F
 DIIS: error= 3.70D-03 at cycle   3 NSaved=   3.
 NSaved= 3 IEnMin= 3 EnMin= -236.398555404105     IErMin= 3 ErrMin= 3.70D-03
 ErrMax= 3.70D-03  0.00D+00 EMaxC= 1.00D-01 BMatC= 6.91D-03 BMatP= 3.96D-02
 IDIUse=3 WtCom= 9.63D-01 WtEn= 3.70D-02
 Coeff-Com:  0.118D-02 0.234D+00 0.765D+00
 Coeff-En:   0.000D+00 0.000D+00 0.100D+01
 Coeff:      0.113D-02 0.225D+00 0.774D+00
 Gap=     0.309 Goal=   None    Shift=    0.000
 Gap=     0.237 Goal=   None    Shift=    0.000
 RMSDP=6.41D-04 MaxDP=1.46D-02 DE=-1.40D-01 OVMax= 1.42D-02

 Cycle   4  Pass 0  IDiag  1:
 E= -236.399503380590     Delta-E=       -0.000947976485 Rises=F Damp=F
 DIIS: error= 2.16D-03 at cycle   4 NSaved=   4.
 NSaved= 4 IEnMin= 4 EnMin= -236.399503380590     IErMin= 4 ErrMin= 2.16D-03
 ErrMax= 2.16D-03  0.00D+00 EMaxC= 1.00D-01 BMatC= 3.33D-03 BMatP= 6.91D-03
 IDIUse=3 WtCom= 9.78D-01 WtEn= 2.16D-02
 Coeff-Com: -0.522D-02 0.334D-01 0.416D+00 0.556D+00
 Coeff-En:   0.000D+00 0.000D+00 0.314D+00 0.686D+00
 Coeff:     -0.511D-02 0.327D-01 0.414D+00 0.559D+00
 Gap=     0.307 Goal=   None    Shift=    0.000
 Gap=     0.244 Goal=   None    Shift=    0.000
 RMSDP=2.48D-04 MaxDP=6.50D-03 DE=-9.48D-04 OVMax= 6.84D-03

 Cycle   5  Pass 0  IDiag  1:
 E= -236.400303643983     Delta-E=       -0.000800263394 Rises=F Damp=F
 DIIS: error= 2.54D-04 at cycle   5 NSaved=   5.
 NSaved= 5 IEnMin= 5 EnMin= -236.400303643983     IErMin= 5 ErrMin= 2.54D-04
 ErrMax= 2.54D-04  0.00D+00 EMaxC= 1.00D-01 BMatC= 5.07D-05 BMatP= 3.33D-03
 IDIUse=3 WtCom= 9.97D-01 WtEn= 2.54D-03
 Coeff-Com: -0.109D-02-0.372D-02 0.779D-01 0.167D+00 0.760D+00
 Coeff-En:   0.000D+00 0.000D+00 0.000D+00 0.000D+00 0.100D+01
 Coeff:     -0.109D-02-0.371D-02 0.777D-01 0.167D+00 0.760D+00
 Gap=     0.307 Goal=   None    Shift=    0.000
 Gap=     0.244 Goal=   None    Shift=    0.000
 RMSDP=3.62D-05 MaxDP=8.19D-04 DE=-8.00D-04 OVMax= 9.22D-04

 Cycle   6  Pass 0  IDiag  1:
 E= -236.400317017047     Delta-E=       -0.000013373064 Rises=F Damp=F
 DIIS: error= 7.97D-05 at cycle   6 NSaved=   6.
 NSaved= 6 IEnMin= 6 EnMin= -236.400317017047     IErMin= 6 ErrMin= 7.97D-05
 ErrMax= 7.97D-05  0.00D+00 EMaxC= 1.00D-01 BMatC= 3.24D-06 BMatP= 5.07D-05
 IDIUse=1 WtCom= 1.00D+00 WtEn= 0.00D+00
 Coeff-Com: -0.322D-04-0.228D-02-0.359D-02 0.891D-02 0.156D+00 0.841D+00
 Coeff:     -0.322D-04-0.228D-02-0.359D-02 0.891D-02 0.156D+00 0.841D+00
 Gap=     0.308 Goal=   None    Shift=    0.000
 Gap=     0.244 Goal=   None    Shift=    0.000
 RMSDP=1.41D-05 MaxDP=4.06D-04 DE=-1.34D-05 OVMax= 4.14D-04

 Cycle   7  Pass 0  IDiag  1:
 E= -236.400318094090     Delta-E=       -0.000001077043 Rises=F Damp=F
 DIIS: error= 5.60D-05 at cycle   7 NSaved=   7.
 NSaved= 7 IEnMin= 7 EnMin= -236.400318094090     IErMin= 7 ErrMin= 5.60D-05
 ErrMax= 5.60D-05  0.00D+00 EMaxC= 1.00D-01 BMatC= 1.38D-06 BMatP= 3.24D-06
 IDIUse=1 WtCom= 1.00D+00 WtEn= 0.00D+00
 Coeff-Com:  0.214D-03-0.110D-03-0.207D-01-0.365D-01-0.115D+00 0.412D+00
 Coeff-Com:  0.760D+00
 Coeff:      0.214D-03-0.110D-03-0.207D-01-0.365D-01-0.115D+00 0.412D+00
 Coeff:      0.760D+00
 Gap=     0.308 Goal=   None    Shift=    0.000
 Gap=     0.244 Goal=   None    Shift=    0.000
 RMSDP=6.91D-06 MaxDP=2.35D-04 DE=-1.08D-06 OVMax= 2.30D-04

 Initial convergence to 1.0D-05 achieved.  Increase integral accuracy.
 Cycle   8  Pass 1  IDiag  1:
 E= -236.400313433488     Delta-E=        0.000004660603 Rises=F Damp=F
 DIIS: error= 7.61D-06 at cycle   1 NSaved=   1.
 NSaved= 1 IEnMin= 1 EnMin= -236.400313433488     IErMin= 1 ErrMin= 7.61D-06
 ErrMax= 7.61D-06  0.00D+00 EMaxC= 1.00D-01 BMatC= 7.10D-08 BMatP= 7.10D-08
 IDIUse=1 WtCom= 1.00D+00 WtEn= 0.00D+00
 Coeff-Com:  0.100D+01
 Coeff:      0.100D+01
 Gap=     0.308 Goal=   None    Shift=    0.000
 Gap=     0.244 Goal=   None    Shift=    0.000
 RMSDP=6.91D-06 MaxDP=2.35D-04 DE= 4.66D-06 OVMax= 6.33D-05

 Cycle   9  Pass 1  IDiag  1:
 E= -236.400313449786     Delta-E=       -0.000000016299 Rises=F Damp=F
 DIIS: error= 7.58D-06 at cycle   2 NSaved=   2.
 NSaved= 2 IEnMin= 2 EnMin= -236.400313449786     IErMin= 2 ErrMin= 7.58D-06
 ErrMax= 7.58D-06  0.00D+00 EMaxC= 1.00D-01 BMatC= 4.52D-08 BMatP= 7.10D-08
 IDIUse=1 WtCom= 1.00D+00 WtEn= 0.00D+00
 Coeff-Com:  0.427D+00 0.573D+00
 Coeff:      0.427D+00 0.573D+00
 Gap=     0.308 Goal=   None    Shift=    0.000
 Gap=     0.244 Goal=   None    Shift=    0.000
 RMSDP=1.13D-06 MaxDP=2.40D-05 DE=-1.63D-08 OVMax= 3.54D-05

 Cycle  10  Pass 1  IDiag  1:
 E= -236.400313460797     Delta-E=       -0.000000011011 Rises=F Damp=F
 DIIS: error= 2.56D-06 at cycle   3 NSaved=   3.
 NSaved= 3 IEnMin= 3 EnMin= -236.400313460797     IErMin= 3 ErrMin= 2.56D-06
 ErrMax= 2.56D-06  0.00D+00 EMaxC= 1.00D-01 BMatC= 5.19D-09 BMatP= 4.52D-08
 IDIUse=1 WtCom= 1.00D+00 WtEn= 0.00D+00
 Coeff-Com: -0.501D-01 0.204D+00 0.846D+00
 Coeff:     -0.501D-01 0.204D+00 0.846D+00
 Gap=     0.308 Goal=   None    Shift=    0.000
 Gap=     0.244 Goal=   None    Shift=    0.000
 RMSDP=4.21D-07 MaxDP=9.12D-06 DE=-1.10D-08 OVMax= 1.43D-05

 Cycle  11  Pass 1  IDiag  1:
 E= -236.400313462531     Delta-E=       -0.000000001734 Rises=F Damp=F
 DIIS: error= 7.59D-07 at cycle   4 NSaved=   4.
 NSaved= 4 IEnMin= 4 EnMin= -236.400313462531     IErMin= 4 ErrMin= 7.59D-07
 ErrMax= 7.59D-07  0.00D+00 EMaxC= 1.00D-01 BMatC= 3.96D-10 BMatP= 5.19D-09
 IDIUse=1 WtCom= 1.00D+00 WtEn= 0.00D+00
 Coeff-Com: -0.590D-01-0.160D-01 0.193D+00 0.882D+00
 Coeff:     -0.590D-01-0.160D-01 0.193D+00 0.882D+00
 Gap=     0.308 Goal=   None    Shift=    0.000
 Gap=     0.244 Goal=   None    Shift=    0.000
 RMSDP=1.70D-07 MaxDP=4.60D-06 DE=-1.73D-09 OVMax= 4.86D-06

 Cycle  12  Pass 1  IDiag  1:
 E= -236.400313462714     Delta-E=       -0.000000000183 Rises=F Damp=F
 DIIS: error= 2.96D-07 at cycle   5 NSaved=   5.
 NSaved= 5 IEnMin= 5 EnMin= -236.400313462714     IErMin= 5 ErrMin= 2.96D-07
 ErrMax= 2.96D-07  0.00D+00 EMaxC= 1.00D-01 BMatC= 3.97D-11 BMatP= 3.96D-10
 IDIUse=1 WtCom= 1.00D+00 WtEn= 0.00D+00
 Coeff-Com: -0.231D-02-0.312D-01-0.857D-01 0.130D+00 0.989D+00
 Coeff:     -0.231D-02-0.312D-01-0.857D-01 0.130D+00 0.989D+00
 Gap=     0.308 Goal=   None    Shift=    0.000
 Gap=     0.244 Goal=   None    Shift=    0.000
 RMSDP=6.30D-08 MaxDP=2.16D-06 DE=-1.83D-10 OVMax= 2.09D-06

 Cycle  13  Pass 1  IDiag  1:
 E= -236.400313462731     Delta-E=       -0.000000000017 Rises=F Damp=F
 DIIS: error= 1.17D-07 at cycle   6 NSaved=   6.
 NSaved= 6 IEnMin= 6 EnMin= -236.400313462731     IErMin= 6 ErrMin= 1.17D-07
 ErrMax= 1.17D-07  0.00D+00 EMaxC= 1.00D-01 BMatC= 1.27D-11 BMatP= 3.97D-11
 IDIUse=1 WtCom= 1.00D+00 WtEn= 0.00D+00
 Coeff-Com:  0.351D-02-0.148D-01-0.587D-01-0.281D-02 0.508D+00 0.565D+00
 Coeff:      0.351D-02-0.148D-01-0.587D-01-0.281D-02 0.508D+00 0.565D+00
 Gap=     0.308 Goal=   None    Shift=    0.000
 Gap=     0.244 Goal=   None    Shift=    0.000
 RMSDP=1.81D-08 MaxDP=5.85D-07 DE=-1.70D-11 OVMax= 5.13D-07

 Cycle  14  Pass 1  IDiag  1:
 E= -236.400313462738     Delta-E=       -0.000000000006 Rises=F Damp=F
 DIIS: error= 2.17D-08 at cycle   7 NSaved=   7.
 NSaved= 7 IEnMin= 7 EnMin= -236.400313462738     IErMin= 7 ErrMin= 2.17D-08
 ErrMax= 2.17D-08  0.00D+00 EMaxC= 1.00D-01 BMatC= 3.97D-13 BMatP= 1.27D-11
 IDIUse=1 WtCom= 1.00D+00 WtEn= 0.00D+00
 Coeff-Com:  0.131D-02-0.318D-02-0.146D-01-0.981D-02 0.114D+00 0.200D+00
 Coeff-Com:  0.712D+00
 Coeff:      0.131D-02-0.318D-02-0.146D-01-0.981D-02 0.114D+00 0.200D+00
 Coeff:      0.712D+00
 Gap=     0.308 Goal=   None    Shift=    0.000
 Gap=     0.244 Goal=   None    Shift=    0.000
 RMSDP=4.19D-09 MaxDP=8.24D-08 DE=-6.14D-12 OVMax= 8.36D-08

 SCF Done:  E(UB3LYP) =  -236.400313463     A.U. after   14 cycles
            NFock= 14  Conv=0.42D-08     -V/T= 2.0103
 <Sx>= 0.0000 <Sy>= 0.0000 <Sz>= 0.5000 <S**2>= 0.7527 S= 0.5013
 <L.S>= 0.000000000000E+00
 KE= 2.339796431276D+02 PE=-1.053782977907D+03 EE= 3.292850500890D+02
 Annihilation of the first spin contaminant:
 S**2 before annihilation     0.7527,   after     0.7500
 Leave Link  502 at Sat Nov  7 02:14:39 2015, MaxMem=   805306368 cpu:       177.5
 (Enter /home/hetanjin/apps/g09D01/g09/l601.exe)
 Copying SCF densities to generalized density rwf, IOpCl= 1 IROHF=0.

 **********************************************************************

            Population analysis using the SCF density.

 **********************************************************************

 Orbital symmetries:
 Alpha Orbitals:
       Occupied  (A) (A) (A) (A) (A) (A) (A) (A) (A) (A) (A) (A)
                 (A) (A) (A) (A) (A) (A) (A) (A) (A) (A) (A) (A)
                 (A)
       Virtual   (A) (A) (A) (A) (A) (A) (A) (A) (A) (A) (A) (A)
                 (A) (A) (A) (A) (A) (A) (A) (A) (A) (A) (A) (A)
                 (A) (A) (A) (A) (A) (A) (A) (A) (A) (A) (A) (A)
                 (A) (A) (A) (A) (A) (A) (A) (A) (A) (A) (A) (A)
                 (A) (A) (A) (A) (A) (A) (A) (A) (A) (A) (A) (A)
                 (A) (A) (A) (A) (A) (A) (A) (A) (A) (A) (A) (A)
                 (A) (A) (A) (A) (A) (A) (A) (A) (A) (A) (A) (A)
                 (A) (A) (A) (A) (A) (A) (A)
 Beta  Orbitals:
       Occupied  (A) (A) (A) (A) (A) (A) (A) (A) (A) (A) (A) (A)
                 (A) (A) (A) (A) (A) (A) (A) (A) (A) (A) (A) (A)
       Virtual   (A) (A) (A) (A) (A) (A) (A) (A) (A) (A) (A) (A)
                 (A) (A) (A) (A) (A) (A) (A) (A) (A) (A) (A) (A)
                 (A) (A) (A) (A) (A) (A) (A) (A) (A) (A) (A) (A)
                 (A) (A) (A) (A) (A) (A) (A) (A) (A) (A) (A) (A)
                 (A) (A) (A) (A) (A) (A) (A) (A) (A) (A) (A) (A)
                 (A) (A) (A) (A) (A) (A) (A) (A) (A) (A) (A) (A)
                 (A) (A) (A) (A) (A) (A) (A) (A) (A) (A) (A) (A)
                 (A) (A) (A) (A) (A) (A) (A) (A)
 The electronic state is 2-A.
 Alpha  occ. eigenvalues --  -10.19700 -10.19184 -10.17597 -10.17587 -10.17046
 Alpha  occ. eigenvalues --  -10.16865  -0.81984  -0.73228  -0.68227  -0.67079
 Alpha  occ. eigenvalues --   -0.61902  -0.52103  -0.45603  -0.45345  -0.42345
 Alpha  occ. eigenvalues --   -0.41754  -0.39214  -0.37990  -0.37226  -0.35479
 Alpha  occ. eigenvalues --   -0.35065  -0.32323  -0.31439  -0.30770  -0.22840
 Alpha virt. eigenvalues --    0.07926   0.12344   0.13361   0.13954   0.14260
 Alpha virt. eigenvalues --    0.14492   0.16957   0.17736   0.18338   0.19619
 Alpha virt. eigenvalues --    0.20764   0.22277   0.22547   0.23666   0.24903
 Alpha virt. eigenvalues --    0.25672   0.26350   0.27214   0.49289   0.50860
 Alpha virt. eigenvalues --    0.51583   0.51689   0.53733   0.57387   0.58642
 Alpha virt. eigenvalues --    0.61695   0.63531   0.63771   0.69650   0.71583
 Alpha virt. eigenvalues --    0.74421   0.76411   0.81733   0.82074   0.87327
 Alpha virt. eigenvalues --    0.88993   0.89376   0.90600   0.90749   0.91417
 Alpha virt. eigenvalues --    0.92072   0.92792   0.94844   0.95690   0.96401
 Alpha virt. eigenvalues --    0.97149   0.99251   0.99712   1.02165   1.03799
 Alpha virt. eigenvalues --    1.20664   1.37579   1.39260   1.42566   1.50249
 Alpha virt. eigenvalues --    1.57771   1.61452   1.67710   1.71918   1.72935
 Alpha virt. eigenvalues --    1.80223   1.83707   1.87833   1.92221   1.93294
 Alpha virt. eigenvalues --    1.96503   1.99308   2.08738   2.10120   2.11311
 Alpha virt. eigenvalues --    2.12661   2.15612   2.24310   2.24939   2.25931
 Alpha virt. eigenvalues --    2.26732   2.30132   2.35316   2.36483   2.47310
 Alpha virt. eigenvalues --    2.57886   2.68508   2.70998   2.73661   2.76049
 Alpha virt. eigenvalues --    4.11341   4.21241   4.27232   4.30895   4.43896
 Alpha virt. eigenvalues --    4.66814
  Beta  occ. eigenvalues --  -10.19724 -10.17747 -10.17578 -10.17480 -10.17047
  Beta  occ. eigenvalues --  -10.16850  -0.81500  -0.73079  -0.68063  -0.64740
  Beta  occ. eigenvalues --   -0.61735  -0.51547  -0.45340  -0.45119  -0.42089
  Beta  occ. eigenvalues --   -0.41375  -0.38891  -0.37905  -0.36583  -0.35375
  Beta  occ. eigenvalues --   -0.34772  -0.31870  -0.31052  -0.30542
  Beta virt. eigenvalues --   -0.06114   0.08103   0.12461   0.13586   0.14300
  Beta virt. eigenvalues --    0.14403   0.14745   0.17052   0.18063   0.18706
  Beta virt. eigenvalues --    0.19882   0.21023   0.22484   0.22966   0.23973
  Beta virt. eigenvalues --    0.25208   0.25748   0.26875   0.27731   0.49428
  Beta virt. eigenvalues --    0.51026   0.51843   0.51993   0.56338   0.58613
  Beta virt. eigenvalues --    0.60478   0.62470   0.63893   0.65180   0.69844
  Beta virt. eigenvalues --    0.71864   0.74812   0.76655   0.82182   0.82564
  Beta virt. eigenvalues --    0.87669   0.89283   0.89682   0.90961   0.91013
  Beta virt. eigenvalues --    0.91843   0.92350   0.93101   0.95018   0.96162
  Beta virt. eigenvalues --    0.96636   0.97507   0.99751   0.99931   1.02375
  Beta virt. eigenvalues --    1.04163   1.21732   1.38173   1.39896   1.43471
  Beta virt. eigenvalues --    1.50394   1.58193   1.61659   1.68938   1.72655
  Beta virt. eigenvalues --    1.74136   1.80680   1.86279   1.88031   1.92695
  Beta virt. eigenvalues --    1.93531   1.97426   2.02541   2.09359   2.10352
  Beta virt. eigenvalues --    2.12972   2.13692   2.17767   2.24775   2.25544
  Beta virt. eigenvalues --    2.26163   2.27880   2.30642   2.35560   2.36655
  Beta virt. eigenvalues --    2.47955   2.58287   2.68965   2.71844   2.74171
  Beta virt. eigenvalues --    2.76088   4.12387   4.23002   4.27969   4.31128
  Beta virt. eigenvalues --    4.43961   4.66978
          Condensed to atoms (all electrons):
               1          2          3          4          5          6
     1  C    5.151201   0.363950   0.368312   0.363884   0.383666  -0.058021
     2  H    0.363950   0.588402  -0.030837  -0.031133  -0.029554  -0.005449
     3  H    0.368312  -0.030837   0.574094  -0.029933  -0.029617  -0.004847
     4  H    0.363884  -0.031133  -0.029933   0.586194  -0.028489   0.005299
     5  C    0.383666  -0.029554  -0.029617  -0.028489   4.750531   0.391507
     6  C   -0.058021  -0.005449  -0.004847   0.005299   0.391507   5.019013
     7  H   -0.005052  -0.000250   0.005336  -0.000026  -0.036157   0.370142
     8  H   -0.005498   0.005512  -0.000253  -0.000048  -0.035791   0.365450
     9  C    0.004568  -0.000004   0.000006  -0.000164  -0.036766   0.369264
    10  H    0.000060  -0.000003   0.000003   0.000002  -0.005615  -0.034430
    11  H   -0.000129  -0.000003  -0.000003   0.000002   0.004100  -0.026676
    12  H    0.000051   0.000004  -0.000003   0.000001  -0.005177  -0.033920
    13  C   -0.058952   0.005603  -0.001886  -0.005051   0.383709  -0.054909
    14  H    0.005714  -0.000215  -0.000009  -0.000046  -0.037459  -0.007353
    15  H   -0.007398  -0.000044  -0.000066   0.004511  -0.037953   0.005572
    16  C   -0.061063  -0.004718   0.005799  -0.004792   0.375908  -0.055989
    17  H   -0.005767  -0.000157  -0.000028   0.004488  -0.029646   0.005512
    18  H   -0.004508   0.003718  -0.000070  -0.000135  -0.027789  -0.004733
    19  H    0.005695  -0.000050  -0.000191  -0.000058  -0.028634  -0.005690
               7          8          9         10         11         12
     1  C   -0.005052  -0.005498   0.004568   0.000060  -0.000129   0.000051
     2  H   -0.000250   0.005512  -0.000004  -0.000003  -0.000003   0.000004
     3  H    0.005336  -0.000253   0.000006   0.000003  -0.000003  -0.000003
     4  H   -0.000026  -0.000048  -0.000164   0.000002   0.000002   0.000001
     5  C   -0.036157  -0.035791  -0.036766  -0.005615   0.004100  -0.005177
     6  C    0.370142   0.365450   0.369264  -0.034430  -0.026676  -0.033920
     7  H    0.609928  -0.037977  -0.038765   0.005198  -0.003255  -0.004136
     8  H   -0.037977   0.624247  -0.040355  -0.004152  -0.003277   0.005326
     9  C   -0.038765  -0.040355   5.080723   0.376758   0.371917   0.376780
    10  H    0.005198  -0.004152   0.376758   0.577322  -0.031440  -0.033024
    11  H   -0.003255  -0.003277   0.371917  -0.031440   0.576816  -0.031053
    12  H   -0.004136   0.005326   0.376780  -0.033024  -0.031053   0.571376
    13  C   -0.003263   0.005981  -0.005932  -0.000450   0.000072   0.003876
    14  H   -0.000016  -0.000069   0.002136   0.000179  -0.000066   0.002559
    15  H   -0.000031  -0.000198   0.000102  -0.000022   0.000000  -0.000140
    16  C    0.006217  -0.006844  -0.005439   0.003282   0.000085  -0.000432
    17  H   -0.000179  -0.000080   0.000082  -0.000111   0.000000  -0.000022
    18  H   -0.000042   0.004461  -0.000225   0.000269  -0.000030   0.000047
    19  H   -0.000049  -0.000077   0.001898   0.002786  -0.000068   0.000190
              13         14         15         16         17         18
     1  C   -0.058952   0.005714  -0.007398  -0.061063  -0.005767  -0.004508
     2  H    0.005603  -0.000215  -0.000044  -0.004718  -0.000157   0.003718
     3  H   -0.001886  -0.000009  -0.000066   0.005799  -0.000028  -0.000070
     4  H   -0.005051  -0.000046   0.004511  -0.004792   0.004488  -0.000135
     5  C    0.383709  -0.037459  -0.037953   0.375908  -0.029646  -0.027789
     6  C   -0.054909  -0.007353   0.005572  -0.055989   0.005512  -0.004733
     7  H   -0.003263  -0.000016  -0.000031   0.006217  -0.000179  -0.000042
     8  H    0.005981  -0.000069  -0.000198  -0.006844  -0.000080   0.004461
     9  C   -0.005932   0.002136   0.000102  -0.005439   0.000082  -0.000225
    10  H   -0.000450   0.000179  -0.000022   0.003282  -0.000111   0.000269
    11  H    0.000072  -0.000066   0.000000   0.000085   0.000000  -0.000030
    12  H    0.003876   0.002559  -0.000140  -0.000432  -0.000022   0.000047
    13  C    5.392202   0.348230   0.347879  -0.064141  -0.003830   0.005894
    14  H    0.348230   0.597065  -0.044792  -0.001666  -0.000243  -0.000133
    15  H    0.347879  -0.044792   0.603235  -0.001492   0.004000  -0.000171
    16  C   -0.064141  -0.001666  -0.001492   5.167650   0.366127   0.362631
    17  H   -0.003830  -0.000243   0.004000   0.366127   0.579940  -0.030333
    18  H    0.005894  -0.000133  -0.000171   0.362631  -0.030333   0.576304
    19  H   -0.004148   0.004128  -0.000223   0.366498  -0.030867  -0.030453
              19
     1  C    0.005695
     2  H   -0.000050
     3  H   -0.000191
     4  H   -0.000058
     5  C   -0.028634
     6  C   -0.005690
     7  H   -0.000049
     8  H   -0.000077
     9  C    0.001898
    10  H    0.002786
    11  H   -0.000068
    12  H    0.000190
    13  C   -0.004148
    14  H    0.004128
    15  H   -0.000223
    16  C    0.366498
    17  H   -0.030867
    18  H   -0.030453
    19  H    0.573720
          Atomic-Atomic Spin Densities.
               1          2          3          4          5          6
     1  C    0.010658  -0.000635  -0.002923   0.000021   0.005373   0.002651
     2  H   -0.000635  -0.001170   0.000834   0.000052   0.000206  -0.000270
     3  H   -0.002923   0.000834   0.000784  -0.000079  -0.000737  -0.000724
     4  H    0.000021   0.000052  -0.000079  -0.000576   0.000440   0.000011
     5  C    0.005373   0.000206  -0.000737   0.000440  -0.031985   0.006205
     6  C    0.002651  -0.000270  -0.000724   0.000011   0.006205   0.011689
     7  H   -0.000852   0.000134   0.000341  -0.000010  -0.000906  -0.003584
     8  H   -0.000372  -0.000067   0.000150   0.000001   0.000125  -0.001313
     9  C    0.000018   0.000002  -0.000006   0.000000   0.000546   0.000422
    10  H   -0.000006   0.000001   0.000001   0.000000  -0.000012  -0.000062
    11  H    0.000003   0.000000  -0.000001   0.000000   0.000000   0.000094
    12  H   -0.000018   0.000001   0.000005   0.000000  -0.000296  -0.000324
    13  C   -0.007703   0.000122   0.003249  -0.000077  -0.032217  -0.007389
    14  H    0.000113  -0.000001  -0.000062   0.000012   0.002072   0.000981
    15  H    0.000985  -0.000050  -0.000231   0.000070   0.002171   0.000064
    16  C   -0.003835   0.001059   0.000467  -0.000339   0.010345  -0.004230
    17  H    0.000085  -0.000027  -0.000014   0.000003   0.000249   0.000023
    18  H    0.000732  -0.000683  -0.000085   0.000079  -0.002047   0.000869
    19  H    0.000014  -0.000001  -0.000002   0.000001   0.000344   0.000056
               7          8          9         10         11         12
     1  C   -0.000852  -0.000372   0.000018  -0.000006   0.000003  -0.000018
     2  H    0.000134  -0.000067   0.000002   0.000001   0.000000   0.000001
     3  H    0.000341   0.000150  -0.000006   0.000001  -0.000001   0.000005
     4  H   -0.000010   0.000001   0.000000   0.000000   0.000000   0.000000
     5  C   -0.000906   0.000125   0.000546  -0.000012   0.000000  -0.000296
     6  C   -0.003584  -0.001313   0.000422  -0.000062   0.000094  -0.000324
     7  H    0.001266   0.001084  -0.000135   0.000038  -0.000155   0.000299
     8  H    0.001084  -0.000212   0.000045   0.000080  -0.000121   0.000042
     9  C   -0.000135   0.000045  -0.000450  -0.000344   0.000350  -0.000685
    10  H    0.000038   0.000080  -0.000344   0.000405  -0.000125   0.000203
    11  H   -0.000155  -0.000121   0.000350  -0.000125   0.000402  -0.000268
    12  H    0.000299   0.000042  -0.000685   0.000203  -0.000268   0.000962
    13  C    0.003624   0.000171  -0.000188  -0.000076  -0.000031   0.000751
    14  H   -0.000205  -0.000034   0.000603  -0.000071   0.000003  -0.000671
    15  H   -0.000070  -0.000004   0.000023  -0.000003   0.000001  -0.000015
    16  C    0.000508   0.001252  -0.000711   0.000279  -0.000029   0.000289
    17  H   -0.000004  -0.000007   0.000006  -0.000003   0.000000  -0.000002
    18  H   -0.000098  -0.000843   0.000127  -0.000120   0.000010  -0.000031
    19  H   -0.000008  -0.000012   0.000044  -0.000024   0.000002  -0.000019
              13         14         15         16         17         18
     1  C   -0.007703   0.000113   0.000985  -0.003835   0.000085   0.000732
     2  H    0.000122  -0.000001  -0.000050   0.001059  -0.000027  -0.000683
     3  H    0.003249  -0.000062  -0.000231   0.000467  -0.000014  -0.000085
     4  H   -0.000077   0.000012   0.000070  -0.000339   0.000003   0.000079
     5  C   -0.032217   0.002072   0.002171   0.010345   0.000249  -0.002047
     6  C   -0.007389   0.000981   0.000064  -0.004230   0.000023   0.000869
     7  H    0.003624  -0.000205  -0.000070   0.000508  -0.000004  -0.000098
     8  H    0.000171  -0.000034  -0.000004   0.001252  -0.000007  -0.000843
     9  C   -0.000188   0.000603   0.000023  -0.000711   0.000006   0.000127
    10  H   -0.000076  -0.000071  -0.000003   0.000279  -0.000003  -0.000120
    11  H   -0.000031   0.000003   0.000001  -0.000029   0.000000   0.000010
    12  H    0.000751  -0.000671  -0.000015   0.000289  -0.000002  -0.000031
    13  C    1.129052  -0.012014  -0.011576  -0.028359   0.000984   0.002449
    14  H   -0.012014  -0.024103   0.006241  -0.002544   0.000073   0.000148
    15  H   -0.011576   0.006241  -0.026625  -0.002383   0.000112   0.000139
    16  C   -0.028359  -0.002544  -0.002383   0.077585  -0.001546  -0.014221
    17  H    0.000984   0.000073   0.000112  -0.001546  -0.002003   0.000733
    18  H    0.002449   0.000148   0.000139  -0.014221   0.000733   0.030243
    19  H    0.000483   0.000049   0.000044  -0.000772   0.000332   0.000357
              19
     1  C    0.000014
     2  H   -0.000001
     3  H   -0.000002
     4  H    0.000001
     5  C    0.000344
     6  C    0.000056
     7  H   -0.000008
     8  H   -0.000012
     9  C    0.000044
    10  H   -0.000024
    11  H    0.000002
    12  H   -0.000019
    13  C    0.000483
    14  H    0.000049
    15  H    0.000044
    16  C   -0.000772
    17  H    0.000332
    18  H    0.000357
    19  H   -0.002046
 Mulliken charges and spin densities:
               1          2
     1  C   -0.440713   0.004307
     2  H    0.135227  -0.000492
     3  H    0.144192   0.000965
     4  H    0.135493  -0.000389
     5  C    0.079224  -0.040123
     6  C   -0.239743   0.005167
     7  H    0.132379   0.001269
     8  H    0.123641  -0.000036
     9  C   -0.456583  -0.000332
    10  H    0.143390   0.000161
    11  H    0.143009   0.000134
    12  H    0.147697   0.000223
    13  C   -0.290885   1.041256
    14  H    0.132054  -0.029410
    15  H    0.127232  -0.031107
    16  C   -0.447620   0.032814
    17  H    0.141113  -0.001006
    18  H    0.145298   0.017757
    19  H    0.145594  -0.001158
 Sum of Mulliken charges =   0.00000   1.00000
 Mulliken charges and spin densities with hydrogens summed into heavy atoms:
               1          2
     1  C   -0.025801   0.004391
     5  C    0.079224  -0.040123
     6  C    0.016278   0.006400
     9  C   -0.022487   0.000186
    13  C   -0.031599   0.980739
    16  C   -0.015615   0.048407
 Electronic spatial extent (au):  <R**2>=            686.2734
 Charge=              0.0000 electrons
 Dipole moment (field-independent basis, Debye):
    X=              0.0056    Y=             -0.2486    Z=             -0.5741  Tot=              0.6257
 Quadrupole moment (field-independent basis, Debye-Ang):
   XX=            -40.7933   YY=            -40.3832   ZZ=            -42.1854
   XY=              0.4434   XZ=              0.2059   YZ=             -0.2336
 Traceless Quadrupole moment (field-independent basis, Debye-Ang):
   XX=              0.3273   YY=              0.7374   ZZ=             -1.0648
   XY=              0.4434   XZ=              0.2059   YZ=             -0.2336
 Octapole moment (field-independent basis, Debye-Ang**2):
  XXX=             -0.8304  YYY=             -0.4626  ZZZ=             -6.1200  XYY=              0.6622
  XXY=             -1.0862  XXZ=              0.0763  XZZ=              1.1852  YZZ=              1.0392
  YYZ=              0.7676  XYZ=              0.1634
 Hexadecapole moment (field-independent basis, Debye-Ang**3):
 XXXX=           -496.8640 YYYY=           -240.4985 ZZZZ=           -226.7710 XXXY=              8.9981
 XXXZ=             -0.7439 YYYX=             -0.0255 YYYZ=              0.4140 ZZZX=              3.1708
 ZZZY=             -0.2127 XXYY=           -120.9845 XXZZ=           -119.7711 YYZZ=            -74.4978
 XXYZ=             -0.4470 YYXZ=             -0.6335 ZZXY=             -1.6073
 N-N= 2.541179712280D+02 E-N=-1.053782982001D+03  KE= 2.339796431276D+02
                          Isotropic Fermi Contact Couplings
        Atom                 a.u.       MegaHertz       Gauss      10(-4) cm-1
     1  C(13)              0.00647       7.27216       2.59489       2.42573
     2  H(1)              -0.00016      -0.73714      -0.26303      -0.24588
     3  H(1)              -0.00019      -0.83069      -0.29641      -0.27709
     4  H(1)              -0.00020      -0.89203      -0.31830      -0.29755
     5  C(13)             -0.00907     -10.20047      -3.63978      -3.40251
     6  C(13)              0.00772       8.67851       3.09671       2.89484
     7  H(1)              -0.00019      -0.84870      -0.30284      -0.28309
     8  H(1)              -0.00001      -0.06351      -0.02266      -0.02118
     9  C(13)             -0.00044      -0.49604      -0.17700      -0.16546
    10  H(1)               0.00006       0.25035       0.08933       0.08351
    11  H(1)               0.00009       0.38026       0.13568       0.12684
    12  H(1)               0.00004       0.19001       0.06780       0.06338
    13  C(13)              0.30202     339.52838     121.15217     113.25448
    14  H(1)              -0.00392     -17.53924      -6.25844      -5.85046
    15  H(1)              -0.00454     -20.30464      -7.24520      -6.77290
    16  C(13)              0.04772      53.64255      19.14100      17.89323
    17  H(1)              -0.00027      -1.21646      -0.43406      -0.40577
    18  H(1)               0.00697      31.17182      11.12288      10.39780
    19  H(1)              -0.00018      -0.81444      -0.29061      -0.27167
 --------------------------------------------------------
       Center         ----  Spin Dipole Couplings  ----
                      3XX-RR        3YY-RR        3ZZ-RR
 --------------------------------------------------------
     1   Atom       -0.000504     -0.001906      0.002410
     2   Atom       -0.002484      0.000620      0.001864
     3   Atom       -0.003951      0.007618     -0.003667
     4   Atom        0.004212     -0.003566     -0.000646
     5   Atom       -0.023702     -0.018035      0.041737
     6   Atom        0.002064     -0.004160      0.002097
     7   Atom       -0.002245      0.005756     -0.003511
     8   Atom       -0.002078      0.000046      0.002032
     9   Atom        0.004788     -0.003853     -0.000935
    10   Atom        0.002575     -0.002928      0.000354
    11   Atom        0.002449     -0.001487     -0.000961
    12   Atom        0.009916     -0.005546     -0.004370
    13   Atom       -0.466637      0.159366      0.307271
    14   Atom        0.014243      0.014079     -0.028323
    15   Atom        0.042168     -0.014089     -0.028079
    16   Atom       -0.029965     -0.016632      0.046597
    17   Atom       -0.001464     -0.003582      0.005046
    18   Atom       -0.005655     -0.002077      0.007732
    19   Atom       -0.004575     -0.000518      0.005093
 --------------------------------------------------------
                        XY            XZ            YZ
 --------------------------------------------------------
     1   Atom       -0.008562      0.010904     -0.009738
     2   Atom       -0.002153      0.002221     -0.004087
     3   Atom       -0.007719      0.002911     -0.005373
     4   Atom       -0.004727      0.006725     -0.002887
     5   Atom        0.001093      0.000803     -0.002904
     6   Atom        0.009566     -0.012682     -0.009248
     7   Atom        0.008730     -0.003594     -0.005115
     8   Atom        0.002360     -0.002564     -0.003939
     9   Atom        0.002124     -0.004839     -0.000607
    10   Atom       -0.000153     -0.003846      0.000201
    11   Atom        0.001559     -0.002020     -0.000658
    12   Atom        0.000029     -0.003631      0.000383
    13   Atom        0.084489      0.093585      0.710511
    14   Atom       -0.057539      0.020160      0.012215
    15   Atom        0.050330     -0.016439      0.016729
    16   Atom        0.001527      0.004094      0.033233
    17   Atom        0.005982      0.006482      0.005073
    18   Atom        0.000478     -0.000368     -0.002888
    19   Atom       -0.005740     -0.004968      0.006583
 --------------------------------------------------------


 ---------------------------------------------------------------------------------
              Anisotropic Spin Dipole Couplings in Principal Axis System
 ---------------------------------------------------------------------------------

       Atom             a.u.   MegaHertz   Gauss  10(-4) cm-1        Axes

              Baa    -0.0100    -1.349    -0.481    -0.450  0.7733  0.0580 -0.6314
     1 C(13)  Bbb    -0.0097    -1.298    -0.463    -0.433  0.2872  0.8558  0.4303
              Bcc     0.0197     2.647     0.945     0.883  0.5653 -0.5141  0.6451
 
              Baa    -0.0036    -1.918    -0.685    -0.640  0.9173  0.3897 -0.0814
     2 H(1)   Bbb    -0.0028    -1.520    -0.542    -0.507 -0.2271  0.6802  0.6969
              Bcc     0.0064     3.438     1.227     1.147  0.3269 -0.6208  0.7125
 
              Baa    -0.0078    -4.178    -1.491    -1.394  0.9030  0.4202 -0.0892
     3 H(1)   Bbb    -0.0058    -3.098    -1.105    -1.033 -0.0648  0.3385  0.9387
              Bcc     0.0136     7.275     2.596     2.427 -0.4247  0.8419 -0.3329
 
              Baa    -0.0059    -3.135    -1.119    -1.046  0.5536  0.7848 -0.2787
     4 H(1)   Bbb    -0.0052    -2.750    -0.981    -0.917 -0.3180  0.5085  0.8002
              Bcc     0.0110     5.884     2.100     1.963  0.7697 -0.3544  0.5310
 
              Baa    -0.0239    -3.212    -1.146    -1.071  0.9812 -0.1919 -0.0205
     5 C(13)  Bbb    -0.0180    -2.409    -0.860    -0.804  0.1927  0.9802  0.0451
              Bcc     0.0419     5.621     2.006     1.875  0.0114 -0.0482  0.9988
 
              Baa    -0.0111    -1.491    -0.532    -0.497 -0.5676  0.8227  0.0310
     6 C(13)  Bbb    -0.0105    -1.411    -0.504    -0.471  0.5296  0.3360  0.7788
              Bcc     0.0216     2.902     1.036     0.968  0.6303  0.4585 -0.6265
 
              Baa    -0.0079    -4.203    -1.500    -1.402  0.8553 -0.5060  0.1112
     7 H(1)   Bbb    -0.0058    -3.072    -1.096    -1.025  0.0855  0.3497  0.9330
              Bcc     0.0136     7.275     2.596     2.427  0.5110  0.7885 -0.3424
 
              Baa    -0.0036    -1.923    -0.686    -0.641  0.8449 -0.5349  0.0106
     8 H(1)   Bbb    -0.0029    -1.549    -0.553    -0.517  0.3812  0.6158  0.6895
              Bcc     0.0065     3.472     1.239     1.158 -0.3753 -0.5785  0.7242
 
              Baa    -0.0046    -0.611    -0.218    -0.204 -0.3855  0.8435 -0.3741
     9 C(13)  Bbb    -0.0034    -0.454    -0.162    -0.152  0.3381  0.5063  0.7933
              Bcc     0.0079     1.065     0.380     0.355  0.8585  0.1794 -0.4804
 
              Baa    -0.0029    -1.572    -0.561    -0.524 -0.0768  0.9858 -0.1494
    10 H(1)   Bbb    -0.0025    -1.348    -0.481    -0.450  0.5968  0.1655  0.7852
              Bcc     0.0055     2.921     1.042     0.974  0.7987 -0.0289 -0.6010
 
              Baa    -0.0020    -1.088    -0.388    -0.363 -0.4091  0.8838 -0.2269
    11 H(1)   Bbb    -0.0019    -1.001    -0.357    -0.334  0.2852  0.3600  0.8883
              Bcc     0.0039     2.090     0.746     0.697  0.8668  0.2987 -0.3993
 
              Baa    -0.0058    -3.096    -1.105    -1.033 -0.1273  0.8291 -0.5444
    12 H(1)   Bbb    -0.0050    -2.659    -0.949    -0.887  0.1953  0.5591  0.8058
              Bcc     0.0108     5.755     2.053     1.920  0.9725 -0.0037 -0.2331
 
              Baa    -0.4810   -64.550   -23.033   -21.532 -0.0315  0.7443 -0.6671
    13 C(13)  Bbb    -0.4778   -64.114   -22.878   -21.386  0.9956 -0.0354 -0.0866
              Bcc     0.9588   128.664    45.911    42.918  0.0881  0.6669  0.7399
 
              Baa    -0.0600   -32.028   -11.428   -10.683  0.5890  0.5543 -0.5881
    14 H(1)   Bbb    -0.0120    -6.405    -2.285    -2.136  0.3774  0.4548  0.8067
              Bcc     0.0720    38.433    13.714    12.820  0.7146 -0.6971  0.0587
 
              Baa    -0.0600   -31.997   -11.417   -10.673 -0.4326  0.6873 -0.5835
    15 H(1)   Bbb    -0.0121    -6.439    -2.298    -2.148 -0.2478  0.5316  0.8099
              Bcc     0.0720    38.436    13.715    12.821  0.8669  0.4950 -0.0596
 
              Baa    -0.0309    -4.152    -1.482    -1.385  0.2636  0.8815 -0.3917
    16 C(13)  Bbb    -0.0301    -4.041    -1.442    -1.348  0.9634 -0.2608  0.0616
              Bcc     0.0611     8.194     2.924     2.733  0.0479  0.3936  0.9180
 
              Baa    -0.0086    -4.593    -1.639    -1.532 -0.6598  0.7507  0.0343
    17 H(1)   Bbb    -0.0040    -2.109    -0.753    -0.704 -0.5397 -0.5051  0.6735
              Bcc     0.0126     6.702     2.391     2.236  0.5229  0.4258  0.7384
 
              Baa    -0.0057    -3.051    -1.089    -1.018  0.9914 -0.1311 -0.0010
    18 H(1)   Bbb    -0.0028    -1.504    -0.537    -0.502  0.1266  0.9556  0.2660
              Bcc     0.0085     4.554     1.625     1.519 -0.0339 -0.2639  0.9640
 
              Baa    -0.0086    -4.611    -1.645    -1.538  0.8281  0.5597  0.0312
    19 H(1)   Bbb    -0.0040    -2.111    -0.753    -0.704  0.3969 -0.6248  0.6724
              Bcc     0.0126     6.722     2.399     2.242 -0.3959  0.5444  0.7395
 

 ---------------------------------------------------------------------------------

 No NMR shielding tensors so no spin-rotation constants.
 Leave Link  601 at Sat Nov  7 02:14:39 2015, MaxMem=   805306368 cpu:         1.5
 (Enter /home/hetanjin/apps/g09D01/g09/l701.exe)
 Compute integral first derivatives.
 ... and contract with generalized density number  0.
 Leave Link  701 at Sat Nov  7 02:14:39 2015, MaxMem=   805306368 cpu:         0.6
 (Enter /home/hetanjin/apps/g09D01/g09/l702.exe)
 L702 exits ... SP integral derivatives will be done elsewhere.
 Leave Link  702 at Sat Nov  7 02:14:39 2015, MaxMem=   805306368 cpu:         0.0
 (Enter /home/hetanjin/apps/g09D01/g09/l703.exe)
 Compute integral first derivatives, UseDBF=F ICtDFT=           0.
 Integral derivatives from FoFJK, PRISM(SPDF).
 Calling FoFJK, ICntrl=      2127 FMM=F ISym2X=0 I1Cent= 0 IOpClX= 1 NMat=1 NMatS=1 NMatT=0.
 FoFJK:  IHMeth= 1 ICntrl=    2127 DoSepK=F KAlg= 0 I1Cent=   0 FoldK=F
 IRaf=         0 NMat=   1 IRICut=       1 DoRegI=T DoRafI=F ISym2E= 0.
 FoFCou: FMM=F IPFlag=           0 FMFlag=      100000 FMFlg1=         800
         NFxFlg=           0 DoJE=F BraDBF=F KetDBF=F FulRan=T
         wScrn=  0.000000 ICntrl=    2127 IOpCl=  1 I1Cent=           0 NGrid=           0
         NMat0=    1 NMatS0=      1 NMatT0=    0 NMatD0=    1 NMtDS0=    0 NMtDT0=    0
 Symmetry not used in FoFCou.
 Leave Link  703 at Sat Nov  7 02:14:48 2015, MaxMem=   805306368 cpu:        34.9
 (Enter /home/hetanjin/apps/g09D01/g09/l716.exe)
 Dipole        = 2.21764341D-03-9.78253086D-02-2.25870500D-01
 ***** Axes restored to original set *****
 -------------------------------------------------------------------
 Center     Atomic                   Forces (Hartrees/Bohr)
 Number     Number              X              Y              Z
 -------------------------------------------------------------------
      1        6           0.001092674    0.001405303    0.000119534
      2        1           0.000007363   -0.000148285    0.000217035
      3        1          -0.000146823   -0.000645509    0.000415166
      4        1          -0.000014679   -0.000050014   -0.000030097
      5        6          -0.000904144    0.008996885   -0.017466502
      6        6          -0.001564031    0.001420839   -0.000108065
      7        1           0.000193915   -0.000649201    0.000499783
      8        1           0.000040107   -0.000078395    0.000227365
      9        6           0.000147116   -0.000268705    0.000019557
     10        1          -0.000162598   -0.000033549    0.000154433
     11        1           0.000113417   -0.000010083    0.000018935
     12        1           0.000102270    0.000185673   -0.000047800
     13        6           0.002709390   -0.018992632    0.041712312
     14        1          -0.005072497    0.006164646   -0.012297194
     15        1           0.003127750    0.007279281   -0.012291800
     16        6           0.000623656   -0.006238076   -0.001189231
     17        1          -0.000168275    0.000120451    0.000325722
     18        1          -0.000216771    0.001435943   -0.000672071
     19        1           0.000092161    0.000105429    0.000392918
 -------------------------------------------------------------------
 Cartesian Forces:  Max     0.041712312 RMS     0.007226352
 Leave Link  716 at Sat Nov  7 02:14:48 2015, MaxMem=   805306368 cpu:         0.1
 (Enter /home/hetanjin/apps/g09D01/g09/l103.exe)

 GradGradGradGradGradGradGradGradGradGradGradGradGradGradGradGradGradGrad
 Berny optimization.
 FormGI is forming the generalized inverse of G from B-inverse, IUseBI=4.
 Internal  Forces:  Max     0.013675979 RMS     0.003224851
 Search for a local minimum.
 Step number   1 out of a maximum of  103
 All quantities printed in internal units (Hartrees-Bohrs-Radians)
 RMS Force = .32249D-02 SwitMx=.10000D-02 MixMth= 1
 Mixed Optimization -- RFO/linear search
 Second derivative matrix not updated -- first step.
 ITU=  0
     Eigenvalues ---    0.00230   0.00230   0.00230   0.00230   0.00316
     Eigenvalues ---    0.03068   0.03538   0.04674   0.04701   0.05073
     Eigenvalues ---    0.05293   0.05319   0.05397   0.05404   0.05446
     Eigenvalues ---    0.05447   0.05522   0.09014   0.12691   0.14837
     Eigenvalues ---    0.15122   0.16000   0.16000   0.16000   0.16000
     Eigenvalues ---    0.16000   0.16000   0.16000   0.16000   0.16000
     Eigenvalues ---    0.16000   0.16000   0.21977   0.27481   0.28370
     Eigenvalues ---    0.28418   0.28418   0.29059   0.33721   0.33721
     Eigenvalues ---    0.33969   0.33990   0.33990   0.34015   0.34017
     Eigenvalues ---    0.34017   0.34112   0.34156   0.34156   0.34166
     Eigenvalues ---    0.34166
 RFO step:  Lambda=-1.35977209D-02 EMin= 2.30000000D-03
 Linear search not attempted -- first point.
 Iteration  1 RMS(Cart)=  0.04535904 RMS(Int)=  0.00824559
 Iteration  2 RMS(Cart)=  0.00643512 RMS(Int)=  0.00569839
 Iteration  3 RMS(Cart)=  0.00008561 RMS(Int)=  0.00569804
 Iteration  4 RMS(Cart)=  0.00000194 RMS(Int)=  0.00569804
 Iteration  5 RMS(Cart)=  0.00000006 RMS(Int)=  0.00569804
 ITry= 1 IFail=0 DXMaxC= 2.27D-01 DCOld= 1.00D+10 DXMaxT= 3.00D-01 DXLimC= 3.00D+00 Rises=F
 Variable       Old X    -DE/DX   Delta X   Delta X   Delta X     New X
                                 (Linear)    (Quad)   (Total)
    R1        2.07346   0.00009   0.00000   0.00025   0.00025   2.07371
    R2        2.07346  -0.00071   0.00000  -0.00202  -0.00202   2.07145
    R3        2.07305   0.00001   0.00000   0.00003   0.00003   2.07308
    R4        2.91336   0.00108   0.00000   0.00363   0.00363   2.91699
    R5        2.93287   0.00126   0.00000   0.00436   0.00436   2.93723
    R6        2.91234  -0.01075   0.00000  -0.03611  -0.03611   2.87623
    R7        2.91234   0.00171   0.00000   0.00575   0.00575   2.91809
    R8        2.07803  -0.00079   0.00000  -0.00225  -0.00225   2.07579
    R9        2.07803   0.00013   0.00000   0.00038   0.00038   2.07841
   R10        2.89880  -0.00011   0.00000  -0.00035  -0.00035   2.89845
   R11        2.07051   0.00016   0.00000   0.00045   0.00045   2.07096
   R12        2.07142  -0.00009   0.00000  -0.00027  -0.00027   2.07115
   R13        2.07051  -0.00008   0.00000  -0.00022  -0.00022   2.07029
   R14        2.07067  -0.00030   0.00000  -0.00084  -0.00084   2.06983
   R15        2.07301  -0.00039   0.00000  -0.00111  -0.00111   2.07190
   R16        2.07301  -0.00020   0.00000  -0.00055  -0.00055   2.07245
   R17        2.07382   0.00024   0.00000   0.00069   0.00069   2.07451
   R18        2.07067  -0.00013   0.00000  -0.00037  -0.00037   2.07031
    A1        1.87988   0.00032   0.00000   0.00240   0.00240   1.88228
    A2        1.88010   0.00004   0.00000   0.00011   0.00011   1.88022
    A3        1.94072  -0.00008   0.00000  -0.00022  -0.00022   1.94050
    A4        1.88010   0.00013   0.00000   0.00028   0.00028   1.88039
    A5        1.94072  -0.00036   0.00000  -0.00203  -0.00203   1.93869
    A6        1.93954  -0.00002   0.00000  -0.00040  -0.00040   1.93914
    A7        1.88414  -0.00085   0.00000   0.00428   0.00419   1.88834
    A8        1.89923   0.00107   0.00000   0.00925   0.00916   1.90839
    A9        1.89923   0.00072   0.00000   0.00272   0.00274   1.90197
   A10        1.93449   0.00121   0.00000   0.00945   0.00935   1.94384
   A11        1.93449   0.00067   0.00000   0.00186   0.00186   1.93635
   A12        1.91142  -0.00277   0.00000  -0.02691  -0.02687   1.88455
   A13        1.88615  -0.00014   0.00000  -0.00165  -0.00165   1.88450
   A14        1.88616   0.00001   0.00000  -0.00020  -0.00020   1.88596
   A15        2.04055  -0.00011   0.00000  -0.00088  -0.00088   2.03967
   A16        1.84789   0.00009   0.00000   0.00181   0.00181   1.84970
   A17        1.89691   0.00014   0.00000   0.00075   0.00075   1.89766
   A18        1.89691   0.00004   0.00000   0.00044   0.00044   1.89736
   A19        1.95529   0.00023   0.00000   0.00167   0.00167   1.95696
   A20        1.92445  -0.00011   0.00000  -0.00100  -0.00100   1.92345
   A21        1.95528  -0.00024   0.00000  -0.00136  -0.00136   1.95393
   A22        1.87221  -0.00007   0.00000  -0.00043  -0.00043   1.87179
   A23        1.88042   0.00009   0.00000   0.00116   0.00116   1.88157
   A24        1.87221   0.00010   0.00000  -0.00004  -0.00004   1.87218
   A25        1.95325   0.01368   0.00000   0.14545   0.11766   2.07091
   A26        1.93250   0.01329   0.00000   0.14464   0.11666   2.04916
   A27        1.87429  -0.00079   0.00000   0.12231   0.08725   1.96154
   A28        1.93250   0.00076   0.00000   0.00560   0.00557   1.93807
   A29        1.94002  -0.00259   0.00000  -0.01713  -0.01712   1.92290
   A30        1.95325   0.00089   0.00000   0.00613   0.00610   1.95935
   A31        1.87869   0.00067   0.00000   0.00188   0.00188   1.88057
   A32        1.87429  -0.00029   0.00000   0.00251   0.00245   1.87674
   A33        1.88195   0.00063   0.00000   0.00143   0.00143   1.88338
    D1        1.04736  -0.00022   0.00000  -0.00232  -0.00232   1.04504
    D2       -3.13510   0.00135   0.00000   0.01687   0.01688  -3.11822
    D3       -1.05336  -0.00094   0.00000  -0.00862  -0.00863  -1.06199
    D4       -1.04737  -0.00033   0.00000  -0.00385  -0.00385  -1.05122
    D5        1.05335   0.00125   0.00000   0.01534   0.01535   1.06870
    D6        3.13509  -0.00105   0.00000  -0.01015  -0.01016   3.12493
    D7        3.14159  -0.00024   0.00000  -0.00259  -0.00259   3.13900
    D8       -1.04087   0.00134   0.00000   0.01661   0.01661  -1.02426
    D9        1.04086  -0.00096   0.00000  -0.00889  -0.00890   1.03196
   D10        0.99614   0.00025   0.00000   0.00365   0.00366   0.99979
   D11       -0.99615   0.00021   0.00000   0.00248   0.00248  -0.99367
   D12        3.14159   0.00023   0.00000   0.00268   0.00268  -3.13892
   D13       -1.08232  -0.00124   0.00000  -0.01575  -0.01578  -1.09810
   D14       -3.07460  -0.00128   0.00000  -0.01693  -0.01695  -3.09156
   D15        1.06313  -0.00126   0.00000  -0.01673  -0.01675   1.04638
   D16        3.07459   0.00099   0.00000   0.01068   0.01070   3.08529
   D17        1.08231   0.00095   0.00000   0.00951   0.00952   1.09183
   D18       -1.06314   0.00098   0.00000   0.00971   0.00973  -1.05342
   D19        3.09341   0.00837   0.00000   0.16376   0.16997  -3.01980
   D20        1.00293  -0.00878   0.00000  -0.18644  -0.19274   0.81019
   D21       -1.12043   0.00871   0.00000   0.18035   0.18665  -0.93378
   D22        3.07227  -0.00844   0.00000  -0.16985  -0.17606   2.89621
   D23        1.01930   0.00848   0.00000   0.17071   0.17697   1.19627
   D24       -1.07118  -0.00867   0.00000  -0.17949  -0.18574  -1.25693
   D25       -1.00294   0.00027   0.00000   0.00957   0.00956  -0.99337
   D26        1.08436  -0.00008   0.00000   0.00440   0.00438   1.08874
   D27       -3.09342  -0.00047   0.00000  -0.00149  -0.00153  -3.09495
   D28       -3.07228   0.00047   0.00000   0.00154   0.00159  -3.07069
   D29       -0.98499   0.00012   0.00000  -0.00362  -0.00359  -0.98858
   D30        1.12042  -0.00027   0.00000  -0.00952  -0.00950   1.11092
   D31        1.07117   0.00038   0.00000   0.00666   0.00667   1.07784
   D32       -3.12472   0.00003   0.00000   0.00149   0.00148  -3.12323
   D33       -1.01931  -0.00037   0.00000  -0.00440  -0.00443  -1.02374
   D34        1.05782   0.00008   0.00000   0.00103   0.00103   1.05885
   D35        3.14158   0.00007   0.00000   0.00090   0.00090  -3.14070
   D36       -1.05785  -0.00004   0.00000  -0.00070  -0.00070  -1.05854
   D37       -3.08547  -0.00008   0.00000  -0.00120  -0.00120  -3.08667
   D38       -1.00171  -0.00009   0.00000  -0.00132  -0.00133  -1.00304
   D39        1.08205  -0.00020   0.00000  -0.00293  -0.00293   1.07913
   D40       -1.08208   0.00012   0.00000   0.00157   0.00157  -1.08051
   D41        1.00168   0.00011   0.00000   0.00144   0.00144   1.00312
   D42        3.08544   0.00001   0.00000  -0.00016  -0.00016   3.08528
         Item               Value     Threshold  Converged?
 Maximum Force            0.013676     0.000015     NO 
 RMS     Force            0.003225     0.000010     NO 
 Maximum Displacement     0.226971     0.000060     NO 
 RMS     Displacement     0.042706     0.000040     NO 
 Predicted change in Energy=-9.815981D-03
 Lowest energy point so far.  Saving SCF results.
 GradGradGradGradGradGradGradGradGradGradGradGradGradGradGradGradGradGrad

 Leave Link  103 at Sat Nov  7 02:14:48 2015, MaxMem=   805306368 cpu:         0.1
 (Enter /home/hetanjin/apps/g09D01/g09/l202.exe)
                          Input orientation:                          
 ---------------------------------------------------------------------
 Center     Atomic      Atomic             Coordinates (Angstroms)
 Number     Number       Type             X           Y           Z
 ---------------------------------------------------------------------
      1          6           0        1.624445    0.982314    0.006768
      2          1           0        1.597221    1.643551    0.882110
      3          1           0        1.606093    1.611778   -0.890456
      4          1           0        2.582746    0.448527    0.021016
      5          6           0        0.438017   -0.005112    0.016542
      6          6           0       -0.879590    0.819211   -0.000722
      7          1           0       -0.863918    1.464800   -0.889306
      8          1           0       -0.869406    1.496467    0.865815
      9          6           0       -2.192936    0.027034    0.009353
     10          1           0       -2.291724   -0.596961    0.904827
     11          1           0       -3.048343    0.712085   -0.005305
     12          1           0       -2.284133   -0.625852   -0.865661
     13          6           0        0.534884   -0.921571   -1.194784
     14          1           0       -0.293628   -1.607319   -1.402172
     15          1           0        1.511856   -1.369206   -1.412147
     16          6           0        0.524413   -0.881272    1.285163
     17          1           0        1.484652   -1.408734    1.334813
     18          1           0        0.439138   -0.256151    2.183538
     19          1           0       -0.268926   -1.635866    1.323249
 ---------------------------------------------------------------------
                    Distance matrix (angstroms):
                    1          2          3          4          5
     1  C    0.000000
     2  H    1.097361   0.000000
     3  H    1.096162   1.772873   0.000000
     4  H    1.097029   1.772237   1.771379   0.000000
     5  C    1.543605   2.193411   2.191205   2.192184   0.000000
     6  C    2.509352   2.755634   2.756521   3.482190   1.554315
     7  H    2.688436   3.037609   2.474380   3.706884   2.162460
     8  H    2.687304   2.471062   3.037413   3.705295   2.164569
     9  C    3.935093   4.211903   4.213513   4.794260   2.631159
    10  H    4.317059   4.488241   4.826442   5.063065   2.931010
    11  H    4.680611   4.820415   4.822522   5.637315   3.559432
    12  H    4.315589   4.823879   4.487924   5.062311   2.928088
    13  C    2.501129   3.467261   2.767302   2.747558   1.522035
    14  H    3.517146   4.400161   3.772715   3.811233   2.261664
    15  H    2.748752   3.787824   3.027756   2.550473   2.248340
    16  C    2.513427   2.772743   3.481184   2.757384   1.544189
    17  H    2.738678   3.087727   3.753673   2.526122   2.191675
    18  H    2.770754   2.577545   3.781584   3.125400   2.181490
    19  H    3.488960   3.798906   4.354696   3.764643   2.206040
                    6          7          8          9         10
     6  C    0.000000
     7  H    1.098458   0.000000
[...]
 .00026338,-0.00029591,0.00038284,-0.00036909,0.27134943,0.11361800,-0.
 11195873,0.00177837,0.01713826,-0.00976474,0.00167106,0.01489603,-0.00
 871882,-0.00111791,-0.12180340,0.12013454,-0.00283300,0.00160775,-0.04
 953033,0.02378573,-0.01234295,0.00120388,-0.02543674,0.01329619,0.0006
 0184,0.00320723,-0.00202319,0.04839870,-0.11605113,-0.04253898,-0.0047
 6519,-0.00146715,0.00006316,0.00089092,0.00084345,0.00183284,0.0001626
 2,-0.02124651,-0.01912059,0.00089434,0.42356270,-0.03099943,-0.1016893
 1,-0.00090596,-0.01644791,-0.01442179,0.00187337,-0.01266224,-0.012409
 08,0.00005494,0.01169457,0.01002538,-0.00083916,-0.02755423,0.46377913
 ,0.00972590,0.01126034,-0.07175079,-0.01970955,-0.01672423,0.00034516,
 0.02102402,0.01697368,-0.00137782,-0.00092055,-0.00038524,-0.00175336,
 0.00402821,0.00656690,0.49881367,-0.03555069,0.00981037,-0.00011319,0.
 00127249,0.00165180,0.00044264,0.00137648,0.00149978,-0.00066486,-0.00
 336161,-0.00252277,0.00014997,-0.12702686,0.03171614,-0.00252280,0.444
 46383,-0.01745386,0.01046410,0.00017294,-0.00083131,0.00024334,-0.0000
 8726,-0.00091656,0.00026400,-0.00006118,-0.00522515,-0.00308295,0.0001
 0603,0.04036814,-0.09694736,0.00378515,0.02028773,0.52560719,0.0017154
 0,0.00014215,0.00163924,-0.00108472,0.00008378,-0.00023968,0.00131192,
 0.00001328,-0.00014327,0.00030144,0.00022483,-0.00034782,0.00104353,0.
 00185200,-0.07992903,0.00046342,0.00710327,0.59640139,0.00112837,0.001
 08059,-0.00137275,-0.00011336,-0.00005217,-0.00001165,-0.00051245,-0.0
 0035688,0.00052863,0.00033756,-0.00011456,0.00026800,-0.00275949,0.014
 92759,-0.02422902,-0.04704666,0.00127567,-0.00156488,0.05867324,-0.001
 40524,0.00037374,-0.00024919,0.00007039,0.00004319,-0.00013210,0.00026
 544,0.00072521,-0.00027716,-0.00010034,-0.00005095,-0.00033765,0.00170
 322,-0.01169215,0.01669950,0.00117754,-0.11939765,0.11077042,-0.000906
 23,0.12860527,0.00055800,-0.00010163,-0.00015353,0.00000052,0.00011145
 ,-0.00002379,-0.00058361,-0.00039146,0.00054549,-0.00007892,-0.0002820
 2,0.00034875,0.00014069,0.00036951,-0.00229678,-0.00239905,0.11091757,
 -0.23159044,0.00166400,-0.12383148,0.25006845,0.00116004,0.00114091,0.
 00097732,-0.00062480,-0.00046250,-0.00048633,-0.00008673,-0.00009313,0
 .00002862,0.00037346,-0.00014768,-0.00023785,-0.00278561,0.01759862,0.
 02179581,-0.04795192,-0.00270414,-0.00362485,-0.00038306,-0.00036236,-
 0.00043889,0.05802535,-0.00167759,0.00036184,0.00019328,0.00036985,0.0
 0087789,0.00030574,0.00009839,0.00006789,0.00011938,-0.00009397,0.0000
 6699,0.00041240,0.00133729,-0.01313172,-0.01503656,-0.00237981,-0.1564
 9566,-0.12308945,0.00022508,0.01251339,0.01320116,0.00379542,0.1701865
 5,-0.00040665,-0.00005836,-0.00010796,0.00052830,0.00033604,0.00048560
 ,0.00001954,-0.00011808,-0.00008968,0.00008598,0.00035650,0.00025469,-
 0.00084058,0.00100329,-0.00063917,-0.00278847,-0.12328672,-0.19462877,
 -0.00026948,-0.01856662,-0.02174887,0.00338692,0.13697787,0.20908223,-
 0.00317312,0.00354671,-0.00016795,0.00009411,-0.00007771,-0.00023672,0
 .00014159,-0.00006219,0.00025218,-0.00070741,-0.00116836,0.00007823,-0
 .02551446,-0.01227886,0.00104201,-0.15673658,-0.05289408,0.00537190,-0
 .00214933,-0.00109988,0.00034845,-0.00167219,-0.00135448,0.00030292,0.
 50365681,0.00369440,-0.00280188,-0.00004282,0.00008035,0.00007607,0.00
 032195,0.00009073,0.00002031,-0.00023567,0.00159203,0.00119789,0.00000
 106,0.01165071,0.01435345,-0.00153507,-0.05034189,-0.11859333,0.002938
 93,-0.01616238,-0.01025237,0.00036673,-0.02004806,-0.01280978,0.002496
 83,-0.04618593,0.55076122,-0.00037534,0.00017377,-0.00038796,0.0002083
 9,0.00028473,0.00029233,-0.00027259,-0.00027137,0.00029557,-0.00013966
 ,-0.00005101,0.00073949,-0.00044381,-0.00090417,-0.00033611,0.00444542
 ,0.00368606,-0.08283931,0.02599593,0.01645890,-0.00060375,-0.02256041,
 -0.01414600,0.00252388,0.00186306,0.00150942,0.57558429,-0.00000662,0.
 00000917,-0.00018037,0.00001329,-0.00003532,0.00001303,0.00018140,0.00
 018828,-0.00016509,-0.00009154,0.00010715,-0.00012197,0.00117151,-0.00
 027304,0.00084421,-0.00103796,-0.01368030,0.02680585,-0.00492916,-0.00
 343024,0.00022600,0.00128900,0.00072919,-0.00052624,-0.05047283,-0.008
 57937,0.01653406,0.05383224,-0.00001064,0.00006855,0.00015337,0.000020
 27,-0.00002213,-0.00000661,0.00005960,0.00006616,-0.00011440,-0.000099
 04,0.00003501,-0.00007802,0.00065940,-0.00000508,-0.00019185,-0.001059
 76,-0.00962625,0.01650921,-0.00381120,-0.00127610,-0.00021717,0.000654
 14,0.00028030,-0.00010956,-0.00887248,-0.10773316,0.10773859,0.0116174
 1,0.11495075,0.00018293,-0.00015118,0.00011771,-0.00000094,0.00002227,
 -0.00001022,-0.00003686,-0.00008685,0.00006575,0.00011920,0.00003140,-
 0.00000766,-0.00027824,0.00073896,-0.00035705,0.00080852,-0.00017349,0
 .00013355,-0.00014331,-0.00012154,0.00168531,0.00049930,0.00015228,0.0
 0093153,0.01740723,0.10801155,-0.25317782,-0.01778741,-0.12090962,0.27
 297062,-0.00129623,0.00139927,-0.00003231,0.00003078,-0.00002841,-0.00
 008427,0.00001314,-0.00002420,0.00008049,-0.00057630,-0.00045938,0.000
 03001,-0.00217606,-0.00516974,0.00044991,-0.02245906,0.01805138,-0.002
 42869,0.00111798,0.00021617,0.00065543,0.00085704,-0.00005452,-0.00060
 170,-0.21338779,0.12568455,-0.02078053,0.00268966,-0.00194195,-0.00049
 329,0.23333221,-0.00090169,0.00060769,0.00003276,0.00005755,0.00002855
 ,-0.00003427,0.00002645,0.00001529,0.00001913,-0.00033839,-0.00022137,
 0.00002407,-0.00254761,-0.00247002,0.00025300,-0.01747192,0.01256474,-
 0.00183449,0.00074723,0.00098826,-0.00011551,0.00081626,0.00072768,-0.
 00011976,0.12644084,-0.14381675,0.01541597,0.01150419,-0.00963939,0.00
 052231,-0.13606498,0.15452653,0.00000905,-0.00020108,0.00026246,0.0000
 3399,0.00005615,-0.00000196,-0.00001282,-0.00003823,-0.00000479,0.0000
 7209,0.00002285,0.00000860,0.00047447,0.00057186,0.00008363,0.00198175
 ,-0.00132838,-0.00093268,0.00022075,-0.00044741,0.00025265,-0.00023235
 ,0.00025848,-0.00004395,-0.02105219,0.01545335,-0.05216402,-0.02453819
 ,0.01800725,-0.00214297,0.02230467,-0.01780777,0.05095791,-0.00013200,
 -0.00016216,0.00027088,0.00021089,0.00027147,0.00018488,0.00002155,-0.
 00001756,-0.00004123,-0.00003160,0.00012956,0.00009148,0.00177368,-0.0
 0000258,-0.00078526,-0.00060935,-0.02037970,-0.02287301,0.00102551,0.0
 0073695,0.00041967,-0.00498987,-0.00355717,0.00060540,-0.04862358,-0.0
 0383445,-0.00483531,-0.00088018,0.00162147,0.00093243,0.00146899,0.017
 20146,0.02075505,0.05142352,-0.00010618,-0.00003111,0.00004852,0.00013
 927,0.00011516,0.00009485,0.00000785,-0.00004096,-0.00001436,-0.000084
 61,0.00005296,0.00006010,0.00089150,0.00034463,0.00014415,-0.00079985,
 -0.01286251,-0.01354824,0.00051389,0.00012782,0.00021894,-0.00345807,-
 0.00111690,0.00084123,-0.00424122,-0.17136023,-0.12970467,0.00056623,0
 .01274090,0.01208209,-0.00102486,-0.01338499,-0.01447679,0.00754648,0.
 18494575,-0.00022350,0.00010059,0.00006332,0.00004965,0.00005532,0.000
 01173,0.00003023,0.00001682,-0.00002217,-0.00008060,-0.00002891,-0.000
 01089,0.00008404,-0.00075890,-0.00002590,-0.00106892,0.00206594,0.0021
 9909,-0.00057805,-0.00002619,0.00065457,0.00070316,0.00037831,0.001438
 18,-0.00512311,-0.12961239,-0.19051815,-0.00011601,-0.02070558,-0.0205
 1749,0.00095190,0.00382664,0.00341335,0.00482035,0.14417654,0.20359219
 ,-0.00006130,-0.01419748,-0.01624409,-0.00221690,-0.00400071,-0.001084
 95,0.00038123,0.00091442,0.00002545,0.00125461,-0.00048966,-0.00049663
 ,-0.05348009,0.02129815,-0.00256357,-0.00350868,0.01847262,0.02012054,
 0.00057600,-0.00019863,0.00027361,-0.00395787,0.00309772,0.00043235,-0
 .00108565,0.00078390,0.00035582,0.00000826,-0.00009194,0.00006695,0.00
 010974,0.00052042,0.00033478,-0.00022979,0.00027299,0.00074111,0.20577
 038,-0.00764691,-0.02249756,-0.01855900,-0.00271613,-0.00271851,-0.001
 28254,0.00102356,0.00093730,-0.00109108,0.00145779,0.00139250,0.000527
 21,0.02036497,-0.12347427,-0.06438506,0.00738304,-0.02002392,-0.017172
 09,-0.00086061,0.00068245,-0.00101423,0.00348275,-0.00164251,-0.000402
 02,-0.00121786,0.00072835,-0.00017061,0.00018812,-0.00002625,-0.000085
 60,-0.00047101,-0.00002139,0.00018222,0.00036573,0.00032445,0.00033742
 ,-0.21527952,0.49024739,-0.00867404,-0.01171362,-0.00353841,0.00048147
 ,0.00022567,0.00068751,0.00095194,0.00138198,0.00080638,0.00094514,0.0
 0048405,-0.00024053,-0.00492406,-0.06178157,-0.16165951,0.00688993,-0.
 00606813,0.00000431,-0.00083292,0.00159301,0.00059923,-0.00146294,0.00
 145163,0.00069677,-0.00005126,0.00096759,0.00026023,-0.00001821,-0.000
 18074,-0.00008518,-0.00055777,-0.00033957,-0.00001262,-0.00013467,-0.0
 0051596,-0.00016563,0.10645840,0.00120464,0.54180078,0.00006528,0.0007
 6594,0.00085394,0.00018057,0.00016099,0.00017450,-0.00001129,-0.000377
 73,0.00004880,-0.00006567,-0.00003974,-0.00013849,0.00172208,0.0010701
 4,0.00070751,0.00068759,-0.00084585,0.00087894,0.00023496,0.00000942,-
 0.00004105,-0.00010194,-0.00012505,-0.00016847,0.00007585,0.00008928,0
 .00016801,0.00002902,-0.00001220,-0.00006987,-0.00001530,-0.00008960,-
 0.00008439,-0.00039163,-0.00005307,0.00014677,-0.04515612,0.04339224,-
 0.08063640,0.04285615,0.00051684,0.00087014,0.00018702,0.00008138,-0.0
 0006063,0.00020946,-0.00012982,-0.00023557,0.00028495,-0.00014914,-0.0
 0012123,-0.00005995,-0.00547608,0.00910555,-0.01598066,-0.00028912,0.0
 0137306,-0.00036794,0.00002514,-0.00028887,0.00034054,-0.00024436,0.00
 001263,0.00021033,0.00021907,0.00007423,0.00019824,-0.00007271,-0.0000
 6423,-0.00001548,0.00003185,-0.00003963,-0.00006388,-0.00017396,-0.000
 04958,-0.00003791,0.04701181,-0.07810797,0.07997446,-0.04739158,0.0724
 9863,0.00050080,0.00062053,-0.00020062,-0.00009076,-0.00031342,0.00010
 524,-0.00032802,-0.00055172,0.00031459,0.00000705,-0.00003708,0.000022
 24,-0.00535187,0.01187689,-0.01405847,-0.00126899,0.00139088,0.0002630
 7,0.00050838,-0.00092352,0.00043663,0.00002068,-0.00011961,0.00040291,
 0.00019293,-0.00038200,-0.00014790,-0.00017111,0.00003265,0.00020535,0
 .00010398,0.00012024,0.00012348,0.00037840,0.00032351,-0.00001533,-0.0
 8631488,0.07721705,-0.28739348,0.09029143,-0.08367534,0.30125450,-0.00
 050694,0.00056011,0.00078903,0.00004089,0.00027833,-0.00006276,0.00000
 853,-0.00014885,-0.00010020,-0.00016028,0.00002060,-0.00007816,0.00273
 099,-0.00173907,-0.00123548,-0.00032055,0.00083056,0.00032096,0.000064
 63,-0.00022031,0.00001727,-0.00010691,0.00016817,0.00024110,0.00012064
 ,0.00018873,0.00017883,-0.00006726,0.00001201,0.00011407,-0.00001044,-
 0.00005331,0.00001095,0.00001611,0.00006232,-0.00017643,-0.09975255,0.
 15114140,-0.01787613,-0.00097713,0.00594199,0.00143099,0.09877648,0.00
 047976,0.00037145,0.00027541,-0.00025594,0.00006843,-0.00016416,0.0000
 1804,0.00001236,-0.00007733,-0.00066484,-0.00013149,-0.00011216,0.0110
 9712,-0.00881670,0.00488755,-0.00202916,-0.00111766,-0.00299727,-0.000
 18677,0.00020331,0.00012335,0.00100166,-0.00043835,-0.00011490,-0.0002
 6877,-0.00016906,0.00008584,0.00005985,0.00004695,-0.00006412,0.000101
 26,0.00006959,0.00000675,0.00001069,0.00009005,0.00007453,0.14444745,-
 0.25571316,0.00910454,0.00386410,-0.00334588,-0.00180055,-0.15689020,0
 .26752245,0.00081726,-0.00006452,-0.00078305,-0.00038015,-0.00021798,-
 0.00003093,-0.00009208,-0.00009858,0.00003610,-0.00031215,0.00004394,0
 .00017317,0.01223826,-0.01704263,0.00459424,-0.00087523,-0.00240224,-0
 .00362888,0.00001602,-0.00030931,0.00024427,0.00127242,-0.00100462,0.0
 0015956,-0.00013131,-0.00019514,0.00009404,0.00003050,0.00005184,0.000
 00573,0.00008678,0.00008114,-0.00000068,0.00020988,0.00020376,-0.00001
 379,-0.01662064,0.00919644,-0.05557044,-0.01339416,0.02183426,0.002271
 11,0.01652738,-0.00972120,0.05080045,-0.00061340,-0.01650834,0.0223310
 8,0.00076863,0.00077542,0.00016498,-0.00411491,-0.00416328,0.00112957,
 0.00052046,-0.00044329,0.00092378,-0.07820096,0.00649602,-0.00531513,-
 0.00350578,0.01673728,-0.02558337,-0.00527845,0.00352925,-0.00087142,0
 .00085277,-0.00086376,-0.00012890,0.00034510,0.00062221,-0.00044407,-0
 .00074890,0.00045266,-0.00020153,0.00024069,-0.00013935,-0.00007199,-0
 .00017387,-0.00016460,-0.00031183,0.00015167,-0.00147374,-0.00060567,0
 .00042226,0.00042479,0.00026648,0.00037901,-0.00009232,0.00104767,0.58
 054150,-0.00323589,-0.01728166,0.02333966,0.00090066,0.00058625,0.0007
 4043,-0.00293509,-0.00298446,0.00048680,0.00150650,0.00116045,-0.00061
 321,0.00504301,-0.10219556,0.03953949,0.00578280,-0.01176103,0.0155899
 0,0.00247331,-0.00113804,-0.00001065,-0.00060199,0.00014984,0.00067261
 ,0.00055090,0.00044073,-0.00133477,-0.00007145,0.00004061,0.00113127,-
 0.00041391,-0.00052084,0.00047892,0.00011619,0.00011753,-0.00002864,-0
 .00321603,0.01067033,-0.01591716,-0.00040728,-0.00255887,-0.00465812,0
 .00029345,0.00071726,-0.00094373,0.00946588,0.55200216,0.00311475,0.00
 743933,-0.00476638,-0.00070894,-0.00125332,0.00061191,-0.00051379,-0.0
 0090344,0.00085474,-0.00079218,-0.00066136,0.00015221,-0.00151346,0.04
 332797,-0.14420461,-0.00590824,0.00436233,-0.00248188,0.00105872,-0.00
 154803,0.00110093,0.00097894,-0.00139334,0.00070948,0.00003857,-0.0006
 4702,0.00025640,-0.00011399,0.00023957,-0.00005368,0.00047999,0.000231
 77,0.00007787,-0.00004300,0.00007183,-0.00000794,-0.00349704,0.0093467
 8,-0.03500815,0.00076156,-0.00188271,-0.00256696,-0.00064453,0.0013865
 2,0.00178859,-0.01153535,0.05335546,0.49246718,0.00066024,-0.00080108,
 0.00063644,-0.00002512,-0.00002407,-0.00006980,0.00025410,-0.00009432,
 -0.00013429,0.00062950,0.00021738,0.00002485,-0.00292030,0.00069057,0.
 00011235,0.00098330,-0.00048516,-0.00081411,-0.00010264,0.00022900,-0.
 00011036,0.00004327,-0.00005343,0.00013008,0.00004191,0.00011023,0.000
 35474,0.00030210,0.00010173,-0.00030583,-0.00002164,0.00012407,-0.0001
 6463,-0.00000834,-0.00002909,-0.00006545,0.00021363,0.00048451,0.00062
 095,0.00014543,-0.00034493,-0.00011880,0.00012515,-0.00051711,-0.00056
 084,-0.25322558,0.10740624,-0.00735031,0.27410340,0.00145078,0.0002256
 5,-0.00071307,0.00002268,-0.00013425,0.00002373,-0.00029246,0.00032722
 ,-0.00017221,-0.00085280,-0.00008093,0.00043188,0.01540427,-0.00959741
 ,0.00013160,-0.00114100,-0.00142459,0.00387801,0.00128830,-0.00051826,
 0.00042189,-0.00031675,0.00037858,-0.00002824,-0.00062677,-0.00006052,
 0.00027579,0.00014791,0.00011328,-0.00040465,0.00009447,0.00016137,-0.
 00019287,0.00008939,0.00003490,0.00005973,-0.00060040,0.00027256,-0.00
 107269,-0.00011469,0.00001260,0.00005290,-0.00001499,0.00041483,0.0000
 9011,0.10674092,-0.10500749,0.00289524,-0.11847965,0.11194991,-0.00109
 505,-0.00078028,0.00099157,0.00019238,0.00002227,-0.00003014,-0.000032
 93,-0.00040433,0.00001682,0.00065102,0.00012139,0.00006287,-0.02597458
 ,0.01358809,-0.00163056,0.00100455,0.00214578,-0.00523786,-0.00157513,
 0.00120584,0.00003425,0.00005348,0.00028046,0.00017512,0.00055335,0.00
 026897,-0.00009956,-0.00013165,-0.00024318,0.00015834,-0.00006197,-0.0
 0008165,0.00009030,-0.00002723,-0.00006595,0.00002622,-0.00061269,0.00
 108566,0.00142813,0.00018558,-0.00018708,0.00025908,0.00019296,-0.0006
 7544,-0.00025448,-0.00656197,0.00243843,-0.04871085,0.00762471,-0.0062
 6039,0.05189623,-0.00015184,0.00043863,0.00082832,0.00020738,-0.000311
 62,0.00012918,-0.00011051,-0.00003813,-0.00019173,-0.00000589,0.000072
 29,0.00010870,-0.00098357,-0.00148994,-0.00280976,0.00030999,-0.000735
 39,-0.00089538,-0.00001024,-0.00001730,0.00017782,0.00010861,0.0002683
 8,0.00002937,-0.00000991,0.00006766,-0.00008689,-0.00010861,-0.0001943
 6,0.00001465,-0.00001891,0.00003412,0.00006756,0.00010573,0.00002229,0
 .00017252,0.00037299,0.00052936,-0.00036990,0.00032269,-0.00017582,-0.
 00013659,-0.00001964,-0.00023665,-0.00012021,-0.05098042,0.00958136,0.
 01346805,-0.00075110,0.01807375,0.02427702,0.04916891,0.00022914,0.001
 00046,0.00029010,0.00001106,-0.00000361,-0.00005909,0.00018522,0.00023
 938,-0.00014094,-0.00009777,-0.00008724,-0.00002992,-0.00183527,0.0102
 6397,0.01412610,-0.00012060,0.00104146,0.00023323,-0.00027252,0.000178
 12,-0.00010651,-0.00009820,0.00001528,-0.00020010,-0.00004260,0.000079
 31,-0.00013843,-0.00003776,-0.00014314,-0.00005218,-0.00000689,0.00005
 222,-0.00000447,-0.00001545,-0.00006201,0.00013537,0.00079921,-0.00143
 395,0.00244429,0.00003393,0.00086504,0.00074665,-0.00032672,0.00012061
 ,0.00027870,0.00995318,-0.14719202,-0.12591923,-0.00015082,-0.00946575
 ,-0.01116624,-0.01144362,0.15793141,-0.00064885,-0.00169035,0.00087276
 ,0.00056230,0.00109204,0.00040321,-0.00020449,0.00020924,0.00044674,0.
 00003321,0.00011386,-0.00001774,0.00235680,-0.01795355,-0.02234637,0.0
 0089582,-0.00168485,0.00055105,0.00021281,0.00019479,0.00045261,-0.000
 57434,0.00103041,0.00041764,-0.00029665,0.00018187,-0.00003063,-0.0001
 6094,-0.00014781,-0.00007194,-0.00007935,-0.00001331,0.00003674,0.0002
 1928,0.00007770,0.00013144,-0.00148339,0.00440829,-0.00437392,0.000260
 69,-0.00094415,-0.00143271,0.00005817,0.00006110,0.00028992,0.01369011
 ,-0.12494175,-0.20963415,0.00043301,0.00132966,0.00159646,-0.01439575,
 0.13679687,0.22999995,0.00029657,0.00011214,0.00040429,-0.00005917,0.0
 0008861,-0.00014343,0.00030239,-0.00010220,-0.00017067,0.00047607,0.00
 011017,-0.00021947,0.00280777,0.00312523,0.00036118,0.00002201,0.00012
 813,0.00053510,0.00012657,-0.00019685,0.00004184,-0.00004864,0.0000702
 9,-0.00003145,-0.00094316,0.00049731,-0.00016565,-0.00117343,0.0008948
 7,-0.00082799,0.00010149,0.00013428,-0.00010852,0.00002423,-0.00006128
 ,0.00004418,0.00061044,-0.00014768,-0.00020385,-0.00002281,0.00019466,
 0.00007989,-0.00034074,0.00006184,0.00024061,-0.18737981,-0.13223867,0
 .01272024,-0.02044731,-0.02087296,0.00133815,0.00255432,0.00323650,-0.
 00087843,0.20309320,0.00116901,-0.00155244,0.00386476,0.00037991,0.000
 49276,-0.00005536,-0.00114278,-0.00050253,0.00033299,-0.00016469,0.000
 15272,-0.00003049,-0.01134287,-0.01102166,-0.00012881,-0.00115332,-0.0
 0022498,-0.00032954,0.00016652,0.00017362,-0.00000046,0.00004749,-0.00
 000393,0.00010966,-0.00036632,-0.00013447,0.00089371,0.00106271,0.0001
 9320,-0.00062743,0.00008092,0.00037246,-0.00047695,0.00005364,0.000014
 15,-0.00002870,0.00045568,0.00040418,-0.00124244,0.00007075,0.00006056
 ,0.00008006,-0.00010422,0.00009503,0.00021974,-0.13134892,-0.17524520,
 0.01155165,0.01161591,0.01239829,-0.00129235,-0.01444501,-0.01339956,0
 .00187993,0.14496562,0.18772779,-0.00139942,0.00239376,-0.00544063,-0.
 00016683,0.00023326,0.00021153,0.00138564,0.00160586,0.00004308,-0.000
 15276,-0.00026154,-0.00005811,0.02177794,0.01836215,-0.00147116,0.0005
 2774,-0.00064371,0.00080793,0.00010394,-0.00015227,-0.00000596,-0.0000
 9869,0.00002818,-0.00001919,-0.00039164,0.00013187,0.00025896,-0.00042
 247,0.00017206,0.00015010,-0.00002327,-0.00018070,-0.00000332,-0.00014
 799,-0.00001724,-0.00023280,0.00010888,0.00065651,0.00176453,0.0000551
 0,-0.00002418,0.00015727,0.00029200,-0.00027847,-0.00017494,0.01207753
 ,0.01067504,-0.05058473,-0.00024269,-0.00074642,-0.00077193,-0.0202669
 9,-0.01723422,0.00270894,-0.01301600,-0.01471997,0.05266043\\-0.000000
 52,-0.00000108,0.00000162,0.00000023,-0.00000029,0.00000026,0.00000023
 ,0.00000048,0.00000005,0.00000019,0.00000022,0.00000005,0.00000079,0.0
 0000068,-0.00000152,-0.00000125,-0.00000006,0.00000058,0.00000033,0.00
 000068,-0.00000023,-0.00000010,-0.00000029,0.,0.00000033,0.00000027,-0
 .00000077,-0.00000030,-0.00000037,0.00000017,0.00000014,0.00000027,0.0
 0000005,0.,0.00000056,0.00000004,0.00000051,-0.00000085,0.00000069,0.0
 0000035,0.00000036,0.00000024,-0.00000046,0.00000078,-0.00000091,0.000
 00035,-0.00000096,-0.00000016,-0.00000002,-0.00000018,-0.00000035,-0.0
 0000016,0.,0.00000061,-0.00000064,-0.00000022,-0.00000042\\\@


 POCKETA-POCKETA
 BARON VON RICHTOFEN
 SLAUGHTERED THE ALLIES WITH
 HARDLY A CARE.
 KILLED EIGHTY-ONE WITH HIS
 BLOOD-COLORED TRIPLANE, THEN
 UN-AEROBATICALLY
 PLUNGED FROM THE AIR.
   -- TONY HOFFMAN
 Job cpu time:       0 days  0 hours 31 minutes  5.2 seconds.
 File lengths (MBytes):  RWF=     64 Int=      0 D2E=      0 Chk=      3 Scr=      1
 Normal termination of Gaussian 09 at Sat Nov  7 03:07:51 2015.
