using PM6 to do opt and freq calc.                                      
FOpt      RPM6                                                        ZDO                 
Number of atoms                            I               20
Info1-9                                    I   N=           9
          33          29           0           0           0         110
           2           8         302
Charge                                     I                0
Multiplicity                               I                1
Number of electrons                        I               38
Number of alpha electrons                  I               19
Number of beta electrons                   I               19
Number of basis functions                  I               38
Number of independent functions            I               38
Number of point charges in /Mol/           I                0
Number of translation vectors              I                0
Atomic numbers                             I   N=          20
           6           1           1           1           6           1
           1           6           1           1           6           1
           1           6           1           1           6           1
           1           1
Nuclear charges                            R   N=          20
  4.00000000E+00  1.00000000E+00  1.00000000E+00  1.00000000E+00  4.00000000E+00
  1.00000000E+00  1.00000000E+00  4.00000000E+00  1.00000000E+00  1.00000000E+00
  4.00000000E+00  1.00000000E+00  1.00000000E+00  4.00000000E+00  1.00000000E+00
  1.00000000E+00  4.00000000E+00  1.00000000E+00  1.00000000E+00  1.00000000E+00
Current cartesian coordinates              R   N=          60
 -5.59836072E+00  9.87954262E-01  2.30119070E-01 -5.30399789E+00  2.94382875E+00
 -3.83549820E-01 -5.80010964E+00  1.01076138E+00  2.29106363E+00 -7.40245826E+00
  3.53622423E-01 -5.63023391E-01 -3.43100789E+00 -7.24701805E-01 -6.05816837E-01
 -3.82295119E+00 -2.69529415E+00 -2.00197074E-02 -3.32603326E+00 -7.60752155E-01
 -2.69580297E+00 -8.90720085E-01  1.44452288E-01  4.93148492E-01 -9.97032907E-01
  1.87981413E-01  2.58125224E+00 -4.99699775E-01  2.11415322E+00 -9.33114672E-02
  1.28118479E+00 -1.58159157E+00 -3.50000614E-01  1.39077545E+00 -1.61767103E+00
 -2.43874940E+00  8.78814163E-01 -3.55130905E+00  2.31226929E-01  3.83883033E+00
 -7.65951421E-01  7.52622019E-01  5.21280973E+00 -2.32968803E+00  5.22852942E-01
  3.66054231E+00 -4.68123776E-01  2.81680749E+00  4.88757060E+00  1.61934229E+00
 -4.88228965E-01  3.60624496E+00  3.22835804E+00 -2.42924204E-01  6.71511393E+00
  2.14796708E+00  3.27116517E-01  5.16300019E+00  1.35914161E+00 -2.52399777E+00
Force Field                                I                0
Int Atom Types                             I   N=          20
           0           0           0           0           0           0
           0           0           0           0           0           0
           0           0           0           0           0           0
           0           0
MM charges                                 R   N=          20
  0.00000000E+00  0.00000000E+00  0.00000000E+00  0.00000000E+00  0.00000000E+00
  0.00000000E+00  0.00000000E+00  0.00000000E+00  0.00000000E+00  0.00000000E+00
  0.00000000E+00  0.00000000E+00  0.00000000E+00  0.00000000E+00  0.00000000E+00
  0.00000000E+00  0.00000000E+00  0.00000000E+00  0.00000000E+00  0.00000000E+00
Integer atomic weights                     I   N=          20
          12           1           1           1          12           1
           1          12           1           1          12           1
           1          12           1           1          12           1
           1           1
Real atomic weights                        R   N=          20
  1.20000000E+01  1.00782504E+00  1.00782504E+00  1.00782504E+00  1.20000000E+01
  1.00782504E+00  1.00782504E+00  1.20000000E+01  1.00782504E+00  1.00782504E+00
  1.20000000E+01  1.00782504E+00  1.00782504E+00  1.20000000E+01  1.00782504E+00
  1.00782504E+00  1.20000000E+01  1.00782504E+00  1.00782504E+00  1.00782504E+00
Atom fragment info                         I   N=          20
           0           0           0           0           0           0
           0           0           0           0           0           0
           0           0           0           0           0           0
           0           0
Atom residue num                           I   N=          20
           0           0           0           0           0           0
           0           0           0           0           0           0
           0           0           0           0           0           0
           0           0
Nuclear spins                              I   N=          20
           0           1           1           1           0           1
           1           0           1           1           0           1
           1           0           1           1           0           1
           1           1
Nuclear ZEff                               R   N=          20
 -3.90000000E+00 -1.00000000E+00 -1.00000000E+00 -1.00000000E+00 -3.90000000E+00
 -1.00000000E+00 -1.00000000E+00 -3.90000000E+00 -1.00000000E+00 -1.00000000E+00
 -3.90000000E+00 -1.00000000E+00 -1.00000000E+00 -3.90000000E+00 -1.00000000E+00
 -1.00000000E+00 -3.90000000E+00 -1.00000000E+00 -1.00000000E+00 -1.00000000E+00
Nuclear QMom                               R   N=          20
  0.00000000E+00  0.00000000E+00  0.00000000E+00  0.00000000E+00  0.00000000E+00
  0.00000000E+00  0.00000000E+00  0.00000000E+00  0.00000000E+00  0.00000000E+00
  0.00000000E+00  0.00000000E+00  0.00000000E+00  0.00000000E+00  0.00000000E+00
  0.00000000E+00  0.00000000E+00  0.00000000E+00  0.00000000E+00  0.00000000E+00
Nuclear GFac                               R   N=          20
  0.00000000E+00  2.79284600E+00  2.79284600E+00  2.79284600E+00  0.00000000E+00
  2.79284600E+00  2.79284600E+00  0.00000000E+00  2.79284600E+00  2.79284600E+00
  0.00000000E+00  2.79284600E+00  2.79284600E+00  0.00000000E+00  2.79284600E+00
  2.79284600E+00  0.00000000E+00  2.79284600E+00  2.79284600E+00  2.79284600E+00
MicOpt                                     I   N=          20
          -1          -1          -1          -1          -1          -1
          -1          -1          -1          -1          -1          -1
          -1          -1          -1          -1          -1          -1
          -1          -1
Number of contracted shells                I               20
Number of primitive shells                 I              120
Pure/Cartesian d shells                    I                0
Pure/Cartesian f shells                    I                0
Highest angular momentum                   I                1
Largest degree of contraction              I                6
Shell types                                I   N=          20
          -1           0           0           0          -1           0
           0          -1           0           0          -1           0
           0          -1           0           0          -1           0
           0           0
Number of primitives per shell             I   N=          20
           6           6           6           6           6           6
           6           6           6           6           6           6
           6           6           6           6           6           6
           6           6
Shell to atom map                          I   N=          20
           1           2           3           4           5           6
           7           8           9          10          11          12
          13          14          15          16          17          18
          19          20
Primitive exponents                        R   N=         120
  1.14476344E+01  3.29633588E+00  1.29653143E+00  5.92558930E-01  2.94896438E-01
  1.51447622E-01  4.39461478E+00  1.26542531E+00  4.97723458E-01  2.27476537E-01
  1.13207340E-01  5.81389949E-02  4.39461478E+00  1.26542531E+00  4.97723458E-01
  2.27476537E-01  1.13207340E-01  5.81389949E-02  4.39461478E+00  1.26542531E+00
  4.97723458E-01  2.27476537E-01  1.13207340E-01  5.81389949E-02  1.14476344E+01
  3.29633588E+00  1.29653143E+00  5.92558930E-01  2.94896438E-01  1.51447622E-01
  4.39461478E+00  1.26542531E+00  4.97723458E-01  2.27476537E-01  1.13207340E-01
  5.81389949E-02  4.39461478E+00  1.26542531E+00  4.97723458E-01  2.27476537E-01
  1.13207340E-01  5.81389949E-02  1.14476344E+01  3.29633588E+00  1.29653143E+00
  5.92558930E-01  2.94896438E-01  1.51447622E-01  4.39461478E+00  1.26542531E+00
  4.97723458E-01  2.27476537E-01  1.13207340E-01  5.81389949E-02  4.39461478E+00
  1.26542531E+00  4.97723458E-01  2.27476537E-01  1.13207340E-01  5.81389949E-02
  1.14476344E+01  3.29633588E+00  1.29653143E+00  5.92558930E-01  2.94896438E-01
  1.51447622E-01  4.39461478E+00  1.26542531E+00  4.97723458E-01  2.27476537E-01
  1.13207340E-01  5.81389949E-02  4.39461478E+00  1.26542531E+00  4.97723458E-01
  2.27476537E-01  1.13207340E-01  5.81389949E-02  1.14476344E+01  3.29633588E+00
  1.29653143E+00  5.92558930E-01  2.94896438E-01  1.51447622E-01  4.39461478E+00
  1.26542531E+00  4.97723458E-01  2.27476537E-01  1.13207340E-01  5.81389949E-02
  4.39461478E+00  1.26542531E+00  4.97723458E-01  2.27476537E-01  1.13207340E-01
  5.81389949E-02  1.14476344E+01  3.29633588E+00  1.29653143E+00  5.92558930E-01
  2.94896438E-01  1.51447622E-01  4.39461478E+00  1.26542531E+00  4.97723458E-01
  2.27476537E-01  1.13207340E-01  5.81389949E-02  4.39461478E+00  1.26542531E+00
  4.97723458E-01  2.27476537E-01  1.13207340E-01  5.81389949E-02  4.39461478E+00
  1.26542531E+00  4.97723458E-01  2.27476537E-01  1.13207340E-01  5.81389949E-02
Contraction coefficients                   R   N=         120
 -9.73739553E-03 -7.26587678E-02 -1.71615520E-01  1.28977624E-01  7.28861451E-01
  3.01331742E-01 -9.73739553E-03 -7.26587678E-02 -1.71615520E-01  1.28977624E-01
  7.28861451E-01  3.01331742E-01 -9.73739553E-03 -7.26587678E-02 -1.71615520E-01
  1.28977624E-01  7.28861451E-01  3.01331742E-01 -9.73739553E-03 -7.26587678E-02
 -1.71615520E-01  1.28977624E-01  7.28861451E-01  3.01331742E-01 -9.73739553E-03
 -7.26587678E-02 -1.71615520E-01  1.28977624E-01  7.28861451E-01  3.01331742E-01
 -9.73739553E-03 -7.26587678E-02 -1.71615520E-01  1.28977624E-01  7.28861451E-01
  3.01331742E-01 -9.73739553E-03 -7.26587678E-02 -1.71615520E-01  1.28977624E-01
  7.28861451E-01  3.01331742E-01 -9.73739553E-03 -7.26587678E-02 -1.71615520E-01
  1.28977624E-01  7.28861451E-01  3.01331742E-01 -9.73739553E-03 -7.26587678E-02
 -1.71615520E-01  1.28977624E-01  7.28861451E-01  3.01331742E-01 -9.73739553E-03
 -7.26587678E-02 -1.71615520E-01  1.28977624E-01  7.28861451E-01  3.01331742E-01
 -9.73739553E-03 -7.26587678E-02 -1.71615520E-01  1.28977624E-01  7.28861451E-01
  3.01331742E-01 -9.73739553E-03 -7.26587678E-02 -1.71615520E-01  1.28977624E-01
  7.28861451E-01  3.01331742E-01 -9.73739553E-03 -7.26587678E-02 -1.71615520E-01
  1.28977624E-01  7.28861451E-01  3.01331742E-01 -9.73739553E-03 -7.26587678E-02
 -1.71615520E-01  1.28977624E-01  7.28861451E-01  3.01331742E-01 -9.73739553E-03
 -7.26587678E-02 -1.71615520E-01  1.28977624E-01  7.28861451E-01  3.01331742E-01
 -9.73739553E-03 -7.26587678E-02 -1.71615520E-01  1.28977624E-01  7.28861451E-01
  3.01331742E-01 -9.73739553E-03 -7.26587678E-02 -1.71615520E-01  1.28977624E-01
  7.28861451E-01  3.01331742E-01 -9.73739553E-03 -7.26587678E-02 -1.71615520E-01
  1.28977624E-01  7.28861451E-01  3.01331742E-01 -9.73739553E-03 -7.26587678E-02
 -1.71615520E-01  1.28977624E-01  7.28861451E-01  3.01331742E-01 -9.73739553E-03
 -7.26587678E-02 -1.71615520E-01  1.28977624E-01  7.28861451E-01  3.01331742E-01
P(S=P) Contraction coefficients            R   N=         120
 -8.10494336E-03 -1.71547892E-02  7.36978576E-02  3.96514999E-01  4.97808488E-01
  1.17482582E-01  0.00000000E+00  0.00000000E+00  0.00000000E+00  0.00000000E+00
  0.00000000E+00  0.00000000E+00  0.00000000E+00  0.00000000E+00  0.00000000E+00
  0.00000000E+00  0.00000000E+00  0.00000000E+00  0.00000000E+00  0.00000000E+00
  0.00000000E+00  0.00000000E+00  0.00000000E+00  0.00000000E+00 -8.10494336E-03
 -1.71547892E-02  7.36978576E-02  3.96514999E-01  4.97808488E-01  1.17482582E-01
  0.00000000E+00  0.00000000E+00  0.00000000E+00  0.00000000E+00  0.00000000E+00
  0.00000000E+00  0.00000000E+00  0.00000000E+00  0.00000000E+00  0.00000000E+00
  0.00000000E+00  0.00000000E+00 -8.10494336E-03 -1.71547892E-02  7.36978576E-02
  3.96514999E-01  4.97808488E-01  1.17482582E-01  0.00000000E+00  0.00000000E+00
  0.00000000E+00  0.00000000E+00  0.00000000E+00  0.00000000E+00  0.00000000E+00
  0.00000000E+00  0.00000000E+00  0.00000000E+00  0.00000000E+00  0.00000000E+00
 -8.10494336E-03 -1.71547892E-02  7.36978576E-02  3.96514999E-01  4.97808488E-01
  1.17482582E-01  0.00000000E+00  0.00000000E+00  0.00000000E+00  0.00000000E+00
  0.00000000E+00  0.00000000E+00  0.00000000E+00  0.00000000E+00  0.00000000E+00
  0.00000000E+00  0.00000000E+00  0.00000000E+00 -8.10494336E-03 -1.71547892E-02
  7.36978576E-02  3.96514999E-01  4.97808488E-01  1.17482582E-01  0.00000000E+00
  0.00000000E+00  0.00000000E+00  0.00000000E+00  0.00000000E+00  0.00000000E+00
  0.00000000E+00  0.00000000E+00  0.00000000E+00  0.00000000E+00  0.00000000E+00
  0.00000000E+00 -8.10494336E-03 -1.71547892E-02  7.36978576E-02  3.96514999E-01
  4.97808488E-01  1.17482582E-01  0.00000000E+00  0.00000000E+00  0.00000000E+00
  0.00000000E+00  0.00000000E+00  0.00000000E+00  0.00000000E+00  0.00000000E+00
  0.00000000E+00  0.00000000E+00  0.00000000E+00  0.00000000E+00  0.00000000E+00
  0.00000000E+00  0.00000000E+00  0.00000000E+00  0.00000000E+00  0.00000000E+00
Coordinates of each shell                  R   N=          60
 -5.59836072E+00  9.87954262E-01  2.30119070E-01 -5.30399789E+00  2.94382875E+00
 -3.83549820E-01 -5.80010964E+00  1.01076138E+00  2.29106363E+00 -7.40245826E+00
  3.53622423E-01 -5.63023391E-01 -3.43100789E+00 -7.24701805E-01 -6.05816837E-01
 -3.82295119E+00 -2.69529415E+00 -2.00197074E-02 -3.32603326E+00 -7.60752155E-01
 -2.69580297E+00 -8.90720085E-01  1.44452288E-01  4.93148492E-01 -9.97032907E-01
  1.87981413E-01  2.58125224E+00 -4.99699775E-01  2.11415322E+00 -9.33114672E-02
  1.28118479E+00 -1.58159157E+00 -3.50000614E-01  1.39077545E+00 -1.61767103E+00
 -2.43874940E+00  8.78814163E-01 -3.55130905E+00  2.31226929E-01  3.83883033E+00
 -7.65951421E-01  7.52622019E-01  5.21280973E+00 -2.32968803E+00  5.22852942E-01
  3.66054231E+00 -4.68123776E-01  2.81680749E+00  4.88757060E+00  1.61934229E+00
 -4.88228965E-01  3.60624496E+00  3.22835804E+00 -2.42924204E-01  6.71511393E+00
  2.14796708E+00  3.27116517E-01  5.16300019E+00  1.35914161E+00 -2.52399777E+00
Constraint Structure                       R   N=          60
 -5.60448153E+00  1.02808038E+00  1.93246838E-01 -5.33548382E+00  2.84613629E+00
 -8.32688509E-01 -5.65989738E+00  1.40469572E+00  2.26328807E+00 -7.44577151E+00
  1.92456646E-01 -3.89492944E-01 -3.46867317E+00 -8.04869950E-01 -4.39017713E-01
 -3.83846631E+00 -2.63053734E+00  5.45114278E-01 -3.47844144E+00 -1.15523630E+00
 -2.51644458E+00 -8.77663898E-01  2.16635871E-01  3.62838120E-01 -8.70028060E-01
  5.06957973E-01  2.45001796E+00 -5.64834634E-01  2.07659594E+00 -5.74029175E-01
  1.27360256E+00 -1.59192225E+00 -3.61801477E-01  1.38095512E+00 -1.74985297E+00
 -2.46031121E+00  8.35134725E-01 -3.50521892E+00  4.04720633E-01  3.87042670E+00
 -8.15071707E-01  6.74780766E-01  5.24365976E+00 -2.34055110E+00  2.00430740E-01
  3.77917098E+00 -6.66192057E-01  2.77383114E+00  4.88719386E+00  1.66229682E+00
 -4.06251220E-01  3.70961256E+00  3.28685214E+00  2.24502241E-01  6.85335188E+00
  1.96917602E+00  2.77912217E-01  4.90861099E+00  1.59382301E+00 -2.50962273E+00
Num ILSW                                   I              100
ILSW                                       I   N=         100
           0           0           0           0           2           0
           0           0           0           0           0          -1
           0           0           0           0           0           0
           0           0           0           0           1           0
           1           0           0           0           0           0
           0           0      100000           0          -1           0
           0           0           0           0           0           0
           0           0           0          40           0           0
           0           0           1           0           0           0
           0           0           4          40           0           0
           0           0           0           0           0           0
           0           0           0           0           0           0
           0           0           0           0           0           0
           0           0           0           0           0           0
           0           0           0           0           0           0
           0           0           0           0           0           0
           0           0           0           0
Num RLSW                                   I               40
RLSW                                       R   N=          40
  1.00000000E+00  1.00000000E+00  1.00000000E+00  1.00000000E+00  1.00000000E+00
  0.00000000E+00  0.00000000E+00  1.00000000E+00  0.00000000E+00  0.00000000E+00
  0.00000000E+00  0.00000000E+00  1.00000000E+00  0.00000000E+00  0.00000000E+00
  0.00000000E+00  0.00000000E+00  1.00000000E+00  0.00000000E+00  0.00000000E+00
  0.00000000E+00  0.00000000E+00  1.00000000E+00  0.00000000E+00  0.00000000E+00
  0.00000000E+00  0.00000000E+00  1.00000000E+00  0.00000000E+00  0.00000000E+00
  0.00000000E+00  0.00000000E+00  0.00000000E+00  0.00000000E+00  0.00000000E+00
  0.00000000E+00  0.00000000E+00  0.00000000E+00  1.00000000E+00  1.00000000E+00
MxBond                                     I                4
NBond                                      I   N=          20
           4           1           1           1           4           1
           1           4           1           1           4           1
           1           4           1           1           4           1
           1           1
IBond                                      I   N=          80
           2           3           4           5           1           0
           0           0           1           0           0           0
           1           0           0           0           1           6
           7           8           5           0           0           0
           5           0           0           0           5           9
          10          11           8           0           0           0
           8           0           0           0           8          12
          13          14          11           0           0           0
          11           0           0           0          11          15
          16          17          14           0           0           0
          14           0           0           0          14          18
          19          20          17           0           0           0
          17           0           0           0          17           0
           0           0
RBond                                      R   N=          80
  1.00000000E+00  1.00000000E+00  1.00000000E+00  1.00000000E+00  1.00000000E+00
  0.00000000E+00  0.00000000E+00  0.00000000E+00  1.00000000E+00  0.00000000E+00
  0.00000000E+00  0.00000000E+00  1.00000000E+00  0.00000000E+00  0.00000000E+00
  0.00000000E+00  1.00000000E+00  1.00000000E+00  1.00000000E+00  1.00000000E+00
  1.00000000E+00  0.00000000E+00  0.00000000E+00  0.00000000E+00  1.00000000E+00
  0.00000000E+00  0.00000000E+00  0.00000000E+00  1.00000000E+00  1.00000000E+00
  1.00000000E+00  1.00000000E+00  1.00000000E+00  0.00000000E+00  0.00000000E+00
  0.00000000E+00  1.00000000E+00  0.00000000E+00  0.00000000E+00  0.00000000E+00
  1.00000000E+00  1.00000000E+00  1.00000000E+00  1.00000000E+00  1.00000000E+00
  0.00000000E+00  0.00000000E+00  0.00000000E+00  1.00000000E+00  0.00000000E+00
  0.00000000E+00  0.00000000E+00  1.00000000E+00  1.00000000E+00  1.00000000E+00
  1.00000000E+00  1.00000000E+00  0.00000000E+00  0.00000000E+00  0.00000000E+00
  1.00000000E+00  0.00000000E+00  0.00000000E+00  0.00000000E+00  1.00000000E+00
  1.00000000E+00  1.00000000E+00  1.00000000E+00  1.00000000E+00  0.00000000E+00
  0.00000000E+00  0.00000000E+00  1.00000000E+00  0.00000000E+00  0.00000000E+00
  0.00000000E+00  1.00000000E+00  0.00000000E+00  0.00000000E+00  0.00000000E+00
Virial Ratio                               R      9.989954725693858E-01
SCF Energy                                 R     -5.634323884120818E-02
Total Energy                               R     -5.634323884120818E-02
RMS Force                                  R      2.793789347570434E-06
RMS Density                                R      6.278399768313712E-09
External E-field                           R   N=          35
  0.00000000E+00  0.00000000E+00  0.00000000E+00  0.00000000E+00  0.00000000E+00
  0.00000000E+00  0.00000000E+00  0.00000000E+00  0.00000000E+00  0.00000000E+00
  0.00000000E+00  0.00000000E+00  0.00000000E+00  0.00000000E+00  0.00000000E+00
  0.00000000E+00  0.00000000E+00  0.00000000E+00  0.00000000E+00  0.00000000E+00
  0.00000000E+00  0.00000000E+00  0.00000000E+00  0.00000000E+00  0.00000000E+00
  0.00000000E+00  0.00000000E+00  0.00000000E+00  0.00000000E+00  0.00000000E+00
  0.00000000E+00  0.00000000E+00  0.00000000E+00  0.00000000E+00  0.00000000E+00
IOpCl                                      I                0
IROHF                                      I                0
Alpha Orbital Energies                     R   N=          38
 -1.05607665E+00 -1.00006723E+00 -9.09461269E-01 -8.23178002E-01 -7.46824597E-01
 -7.24449660E-01 -5.92255537E-01 -5.65989402E-01 -5.45592171E-01 -5.18840152E-01
 -5.15588574E-01 -4.87446291E-01 -4.69001647E-01 -4.56234066E-01 -4.40649812E-01
 -4.27422021E-01 -4.16957603E-01 -4.08226533E-01 -4.03633888E-01  1.52664659E-01
  1.58573035E-01  1.68643158E-01  1.75366491E-01  1.84847213E-01  2.05313787E-01
  2.11359644E-01  2.16511037E-01  2.20862394E-01  2.22317365E-01  2.27680651E-01
  2.29792188E-01  2.35951337E-01  2.40915018E-01  2.44634601E-01  2.46865213E-01
  2.49601692E-01  2.56128043E-01  2.58980749E-01
Alpha MO coefficients                      R   N=        1444
  2.19392777E-01  6.42028780E-02 -3.50023294E-02 -1.35420229E-02  9.45889571E-02
  9.44361838E-02  8.35876839E-02  3.43076309E-01  5.52397740E-02  3.47501519E-02
  3.48115990E-02  1.44026517E-01  1.44440518E-01  4.19069311E-01  1.30437124E-02
 -5.27874659E-02 -3.88581588E-02  1.76286665E-01  1.80729829E-01  4.16411193E-01
 -1.00894819E-02  6.42794912E-02  3.74450020E-02  1.76138429E-01  1.70906838E-01
  3.53239742E-01 -6.50811470E-02  1.84811924E-02 -4.12957536E-02  1.38153833E-01
  1.49686709E-01  2.48158548E-01 -4.58928523E-02 -5.94613674E-02  2.50173007E-02
  1.14485705E-01  9.39649980E-02  1.06165778E-01  3.99042599E-01  6.69779442E-02
 -4.83245605E-02 -2.21458361E-02  1.69920242E-01  1.70252253E-01  1.67362838E-01
  4.09867239E-01 -4.91600114E-02  5.78053586E-02  3.40214343E-02  1.68318479E-01
  1.67173042E-01  1.57651528E-01 -1.57454588E-01  6.31755846E-04 -2.22203124E-02
  6.48610094E-02  5.64648741E-02 -1.64240759E-01 -1.39395088E-01 -1.49003125E-02
 -2.13140099E-02 -6.77768609E-02 -5.55009980E-02 -3.87685915E-01 -1.25051619E-02
 -4.40063718E-02  4.09467339E-02 -1.66938041E-01 -1.57977856E-01 -3.53033235E-01
  2.83912785E-02  6.79574070E-02 -3.14233801E-02 -1.45850591E-01 -1.48906471E-01
 -1.50740958E-01  3.98989673E-01 -2.46376113E-02 -4.13007688E-03 -8.57797611E-03
  1.78593150E-01  1.77666657E-01  1.96337526E-01  7.27466664E-02 -1.99318722E-01
  5.63295644E-02  1.69815735E-04  2.24893374E-02  2.54305908E-02 -3.13083448E-01
 -1.01280481E-01  7.17912042E-02  1.80265968E-02 -1.25696084E-01 -1.08811400E-01
 -3.46337808E-01  1.19924425E-01 -2.91664785E-03 -1.61812555E-02 -1.40798080E-01
 -1.69270434E-01  1.27788618E-01  1.65951682E-01  1.25676576E-01 -1.56290790E-02
  6.66382477E-02  4.96320614E-02  4.27105838E-01  3.20595407E-02 -1.79846501E-03
  1.30231345E-02  1.79950596E-01  2.13406000E-01  1.89529670E-01 -3.21914921E-01
  1.11839969E-01 -5.15249523E-02 -1.90212835E-02 -1.60319551E-01 -1.62535980E-01
 -1.88603308E-01  1.77140039E-01  1.77572803E-01 -3.10188187E-02  2.71975633E-03
  7.53274862E-02  8.18496895E-02  2.95866813E-01 -1.08601400E-01  5.00033525E-02
 -1.11592415E-02  1.26444102E-01  1.54955757E-01 -2.60260822E-01 -1.85579507E-01
  1.02818452E-01 -2.12399080E-02 -1.07273298E-01 -1.54269915E-01 -2.82645609E-01
  9.77286142E-02  1.90442238E-01 -3.08392810E-02 -1.69370894E-01 -1.30819061E-01
  3.48683786E-01  5.25932953E-02  1.33304081E-01 -4.84196786E-02  2.00428844E-01
  1.93421454E-01  1.78708161E-01 -2.43696397E-01  1.37598088E-01 -1.90931803E-01
 -1.10202885E-01 -1.89287454E-01 -1.87324840E-01 -1.23751582E-01  4.51831257E-01
 -4.00515015E-02 -1.94258811E-01 -1.41710953E-01  2.94304364E-01  2.89009831E-01
 -2.77113531E-01 -1.71790414E-01 -1.37423112E-01 -1.14501531E-01 -1.90845019E-01
 -2.07413134E-01 -5.39223561E-02  9.88316050E-02 -1.11931780E-01 -3.08443260E-02
  7.82695767E-04  2.62677699E-02  1.87096020E-01  8.52048407E-02 -8.09040206E-02
  3.24791070E-02  1.52054485E-01  8.82709294E-02 -7.19179675E-02  1.50048639E-02
 -9.71510286E-02  4.25874299E-02 -8.86285363E-02 -2.98830648E-02 -4.86430787E-02
  5.42894431E-02 -6.72108990E-02 -1.00338017E-02 -2.69328875E-02  1.65612133E-02
  1.03326106E-02  6.78056570E-02  3.74809714E-03 -6.15257302E-02 -8.11345272E-02
 -8.81889447E-02  4.29852063E-02  5.82207094E-02 -2.30457848E-01  9.10051643E-02
 -1.69007833E-01 -1.53047594E-01 -2.05949841E-01 -1.58977721E-01  3.62867666E-01
 -7.48556909E-02 -1.51454048E-01 -2.12312387E-01  2.95219198E-01  2.24994002E-01
 -3.44651225E-01 -1.17997752E-01  1.87884619E-02 -2.18955130E-01 -1.97103533E-01
 -2.82949380E-01  1.83869316E-01  3.67679901E-02  1.52743915E-01 -1.62832150E-01
  1.23886881E-01  9.02400565E-02  1.75465416E-01  7.77922088E-03 -7.09654420E-02
 -1.50198726E-01  2.33219404E-01 -1.45747169E-01  1.63273595E-01  1.60456158E-02
 -1.66482672E-02 -4.40069556E-02 -2.51052532E-01  3.20043706E-01  2.20465339E-01
 -2.23807682E-01 -2.91359761E-03 -4.71753415E-02 -2.86968253E-01  3.17838382E-01
  2.11961129E-01 -2.48179953E-01  2.40804106E-02 -1.29425496E-01 -2.30582180E-01
  2.48139116E-01 -1.60140383E-01  2.24934421E-01 -6.38653236E-02  5.27971437E-03
 -5.07022101E-02  1.61752531E-01 -1.42826645E-02  7.55342317E-02  5.24441783E-02
  1.47058161E-01  1.31830252E-01  3.61076045E-02  2.48992958E-02  1.43388756E-01
  9.01509599E-04 -4.23519897E-03  1.81194199E-01  1.14410666E-01  1.49763808E-01
  5.80144563E-02  8.76692774E-02 -1.72023831E-01 -4.87345682E-03  1.57058509E-01
  1.63914831E-01  1.84687323E-01 -9.08690793E-02 -1.22481766E-01  5.56720698E-02
 -2.80259645E-01  4.53554871E-02  7.44397978E-03  3.97138176E-02  8.07605666E-03
 -3.89692209E-02  4.23212536E-02 -2.16029512E-01 -1.87305975E-01  1.12414243E-01
  7.79633589E-02 -5.00407522E-03  3.07153847E-01 -2.70418835E-01 -2.26655879E-01
  2.94766499E-01 -2.00162273E-01 -5.71895910E-04  2.65609348E-01 -2.05963463E-01
 -2.04580483E-01 -2.35855914E-01  6.85408723E-02  1.78646978E-01  1.30573399E-02
 -2.30596375E-02  2.83391868E-01 -1.89509092E-01  2.25907881E-01 -1.21302769E-01
  1.07202204E-02 -3.93536064E-02  1.76886361E-01  1.38468945E-01 -2.21089798E-01
 -1.73015157E-01  1.39069588E-01  1.90310091E-02 -1.64956404E-02 -1.07243934E-01
 -1.39732708E-01 -8.59433488E-02 -3.49363611E-02  1.88162154E-02 -2.65412447E-01
 -2.11904907E-01  6.55913039E-02 -4.51649908E-02  1.95170929E-01 -5.38372852E-02
  1.61907223E-01 -5.15721002E-02  3.26066683E-01  5.14315884E-02  1.81057323E-01
  1.05651550E-02  3.08505995E-01  1.67414166E-01  2.48249710E-01 -1.83008799E-02
  2.92423147E-01 -1.49440305E-01  1.18978927E-03  4.51641366E-01  1.02186479E-01
 -6.93779331E-02  1.29106603E-01 -7.71769513E-02 -2.84768602E-01  8.00192848E-02
 -1.10147158E-01  2.84264307E-01  6.07189790E-02 -1.22232322E-01 -1.33689685E-02
 -1.10034948E-01 -1.68226223E-01  1.02988864E-01  1.36805813E-01  4.96133630E-02
 -2.09056496E-02  3.54548506E-02  2.46156372E-01 -2.20182719E-01  1.74181845E-01
 -9.43072348E-02  1.65041936E-01 -1.57241133E-02 -2.80952960E-01 -1.06839289E-01
  6.03214189E-02 -8.84478903E-02  4.29637399E-02  1.11638210E-02 -2.00092565E-01
  2.96118030E-01 -9.35444295E-02  2.44522350E-01 -9.27802913E-02  2.37616480E-02
  1.09311999E-02  1.86352530E-01  1.04491615E-01  4.12108524E-01  6.53301733E-03
  2.81127677E-01 -2.47534982E-01  3.01122286E-02  1.70834371E-01  1.75903833E-02
  2.00195472E-01  1.89057902E-02 -1.19718503E-01 -6.11226859E-02 -1.40292894E-01
 -9.70905786E-02 -2.51066434E-01 -1.98301208E-01 -5.76300357E-02  2.06708819E-02
 -6.44046084E-02  6.35691520E-02 -2.51172835E-01  1.78350632E-01 -7.51354248E-02
  3.68539121E-02  2.57336974E-02  2.62050750E-01  8.38300707E-02 -1.19262489E-01
  9.82923814E-02 -2.95174301E-04 -1.69434404E-01  6.35178985E-03  3.32369922E-01
  1.01302010E-01 -1.22853226E-02 -2.44881458E-01 -1.23856490E-02 -4.26695755E-02
  4.52035875E-01  1.49682395E-02  2.94995379E-01  1.09281157E-02 -8.59451241E-02
  9.63663030E-03  2.80356635E-01 -1.45456329E-01 -8.03555956E-02  5.04973239E-02
  7.32182001E-02  6.60031939E-03 -3.75731041E-02 -3.64426127E-01  2.52074791E-03
  2.76396877E-04 -2.48276041E-01 -4.33346856E-02 -9.84998703E-02  1.06300757E-01
  2.21799970E-01 -1.84783272E-01 -3.73297353E-02  5.51959527E-02 -4.23806249E-02
  1.16117384E-01 -6.85497214E-02 -5.33321986E-02 -8.36026659E-03  2.94459763E-02
 -2.08263053E-01 -2.04489107E-01 -2.64554500E-01 -4.23877118E-02 -2.38231774E-01