 Entering Gaussian System, Link 0=/share/apps/g09/g09
 Input=C6H14_1_03_1_opt_PM6.gjf
 Output=C6H14_1_03_1_opt_PM6.log
 Initial command:
 /share/apps/g09/l1.exe /state/partition1/Gau-12401.inp -scrdir=/state/partition1/
 Entering Link 1 = /share/apps/g09/l1.exe PID=     12405.
  
 Copyright (c) 1988,1990,1992,1993,1995,1998,2003,2009, Gaussian, Inc.
                  All Rights Reserved.
  
 This is part of the Gaussian(R) 09 program.  It is based on
 the Gaussian(R) 03 system (copyright 2003, Gaussian, Inc.),
 the Gaussian(R) 98 system (copyright 1998, Gaussian, Inc.),
 the Gaussian(R) 94 system (copyright 1995, Gaussian, Inc.),
 the Gaussian 92(TM) system (copyright 1992, Gaussian, Inc.),
 the Gaussian 90(TM) system (copyright 1990, Gaussian, Inc.),
 the Gaussian 88(TM) system (copyright 1988, Gaussian, Inc.),
 the Gaussian 86(TM) system (copyright 1986, Carnegie Mellon
 University), and the Gaussian 82(TM) system (copyright 1983,
 Carnegie Mellon University). Gaussian is a federally registered
 trademark of Gaussian, Inc.
  
 This software contains proprietary and confidential information,
 including trade secrets, belonging to Gaussian, Inc.
  
 This software is provided under written license and may be
 used, copied, transmitted, or stored only in accord with that
 written license.
  
 The following legend is applicable only to US Government
 contracts under FAR:
  
                    RESTRICTED RIGHTS LEGEND
  
 Use, reproduction and disclosure by the US Government is
 subject to restrictions as set forth in subparagraphs (a)
 and (c) of the Commercial Computer Software - Restricted
 Rights clause in FAR 52.227-19.
  
 Gaussian, Inc.
 340 Quinnipiac St., Bldg. 40, Wallingford CT 06492
  
  
 ---------------------------------------------------------------
 Warning -- This program may not be used in any manner that
 competes with the business of Gaussian, Inc. or will provide
 assistance to any competitor of Gaussian, Inc.  The licensee
 of this program is prohibited from giving any competitor of
 Gaussian, Inc. access to this program.  By using this program,
 the user acknowledges that Gaussian, Inc. is engaged in the
 business of creating and licensing software in the field of
 computational chemistry and represents and warrants to the
 licensee that it is not a competitor of Gaussian, Inc. and that
 it will not use this program in any manner prohibited above.
 ---------------------------------------------------------------
  

 Cite this work as:
 Gaussian 09, Revision A.01,
 M. J. Frisch, G. W. Trucks, H. B. Schlegel, G. E. Scuseria, 
 M. A. Robb, J. R. Cheeseman, G. Scalmani, V. Barone, B. Mennucci, 
 G. A. Petersson, H. Nakatsuji, M. Caricato, X. Li, H. P. Hratchian, 
 A. F. Izmaylov, J. Bloino, G. Zheng, J. L. Sonnenberg, M. Hada, 
 M. Ehara, K. Toyota, R. Fukuda, J. Hasegawa, M. Ishida, T. Nakajima, 
 Y. Honda, O. Kitao, H. Nakai, T. Vreven, J. A. Montgomery, Jr., 
 J. E. Peralta, F. Ogliaro, M. Bearpark, J. J. Heyd, E. Brothers, 
 K. N. Kudin, V. N. Staroverov, R. Kobayashi, J. Normand, 
 K. Raghavachari, A. Rendell, J. C. Burant, S. S. Iyengar, J. Tomasi, 
 M. Cossi, N. Rega, J. M. Millam, M. Klene, J. E. Knox, J. B. Cross, 
 V. Bakken, C. Adamo, J. Jaramillo, R. Gomperts, R. E. Stratmann, 
 O. Yazyev, A. J. Austin, R. Cammi, C. Pomelli, J. W. Ochterski, 
 R. L. Martin, K. Morokuma, V. G. Zakrzewski, G. A. Voth, 
 P. Salvador, J. J. Dannenberg, S. Dapprich, A. D. Daniels, 
 O. Farkas, J. B. Foresman, J. V. Ortiz, J. Cioslowski, 
 and D. J. Fox, Gaussian, Inc., Wallingford CT, 2009.
 
 ******************************************
 Gaussian 09:  EM64L-G09RevA.01  8-May-2009
                14-Sep-2015 
 ******************************************
 %mem=3GB
 %nprocshared=2
 Will use up to    2 processors via shared memory.
 %chk=C6H14_1_03_1_opt_PM6.chk
 ----------
 #p PM6 opt
 ----------
 1/14=-1,18=20,19=15,26=1,38=1/1,3;
 2/9=110,12=2,17=6,18=5,40=1/2;
 3/5=2,16=1,25=1,41=3900000,71=1/1,2,3;
 4/35=1/1;
 5/5=2,35=1,38=5/2;
 6/7=2,8=2,9=2,10=2,28=1/1;
 7//1,2,3,16;
 1/14=-1,18=20,19=15/3(2);
 2/9=110/2;
 99//99;
 2/9=110/2;
 3/5=2,16=1,25=1,41=3900000,71=1,135=20/1,2,3;
 4/5=5,16=3,35=1/1;
 5/5=2,35=1,38=5/2;
 7//1,2,3,16;
 1/14=-1,18=20,19=15/3(-5);
 2/9=110/2;
 6/7=2,8=2,9=2,10=2,19=2,28=1/1;
 99/9=1/99;
 Leave Link    1 at Mon Sep 14 19:11:51 2015, MaxMem=  402653184 cpu:       1.8
 (Enter /share/apps/g09/l101.exe)
 ----------------------------------
 using PM6 to do opt and freq calc.
 ----------------------------------
 Symbolic Z-matrix:
 Charge =  0 Multiplicity = 1
 C                     0.0191    4.134    -1.2017 
 H                    -0.8479    4.6744   -0.758 
 H                    -0.1596    3.9886   -2.2914 
 H                     0.9325    4.7572   -1.07 
 C                     0.215     2.7874   -0.51 
 H                     1.1153    2.2933   -0.9438 
 H                     0.4012    2.969     0.5741 
 C                    -1.0019    1.8689   -0.6764 
 H                    -1.1611    1.6698   -1.762 
 H                    -1.9014    2.3907   -0.2757 
 C                    -0.82      0.535     0.0629 
 H                    -0.7526    0.7244    1.1597 
 H                     0.142     0.0742   -0.2622 
 C                    -1.9338   -0.487    -0.2077 
 H                    -1.6537   -1.4426    0.2934 
 H                    -2.0019   -0.6859   -1.3023 
 C                    -3.309    -0.0696    0.3119 
 H                    -3.692     0.8101   -0.2522 
 H                    -4.0267   -0.9101    0.1761 
 H                    -3.256     0.1825    1.3954 
 
 NAtoms=     20 NQM=     20 NQMF=      0 NMic=      0 NMicF=      0 NTot=     20.
                    Isotopes and Nuclear Properties:
 (Nuclear quadrupole moments (NQMom) in fm**2, nuclear magnetic moments (NMagM)
  in nuclear magnetons)

  Atom         1           2           3           4           5           6           7           8           9          10
 IAtWgt=          12           1           1           1          12           1           1          12           1           1
 AtmWgt=  12.0000000   1.0078250   1.0078250   1.0078250  12.0000000   1.0078250   1.0078250  12.0000000   1.0078250   1.0078250
 NucSpn=           0           1           1           1           0           1           1           0           1           1
 AtZEff=   0.0000000   0.0000000   0.0000000   0.0000000   0.0000000   0.0000000   0.0000000   0.0000000   0.0000000   0.0000000
 NQMom=    0.0000000   0.0000000   0.0000000   0.0000000   0.0000000   0.0000000   0.0000000   0.0000000   0.0000000   0.0000000
 NMagM=    0.0000000   2.7928460   2.7928460   2.7928460   0.0000000   2.7928460   2.7928460   0.0000000   2.7928460   2.7928460

  Atom        11          12          13          14          15          16          17          18          19          20
 IAtWgt=          12           1           1          12           1           1          12           1           1           1
 AtmWgt=  12.0000000   1.0078250   1.0078250  12.0000000   1.0078250   1.0078250  12.0000000   1.0078250   1.0078250   1.0078250
 NucSpn=           0           1           1           0           1           1           0           1           1           1
 AtZEff=   0.0000000   0.0000000   0.0000000   0.0000000   0.0000000   0.0000000   0.0000000   0.0000000   0.0000000   0.0000000
 NQMom=    0.0000000   0.0000000   0.0000000   0.0000000   0.0000000   0.0000000   0.0000000   0.0000000   0.0000000   0.0000000
 NMagM=    0.0000000   2.7928460   2.7928460   0.0000000   2.7928460   2.7928460   0.0000000   2.7928460   2.7928460   2.7928460
 Leave Link  101 at Mon Sep 14 19:11:53 2015, MaxMem=  402653184 cpu:       0.1
 (Enter /share/apps/g09/l103.exe)

 GradGradGradGradGradGradGradGradGradGradGradGradGradGradGradGradGradGrad
 Berny optimization.
 Initialization pass.
                           ----------------------------
                           !    Initial Parameters    !
                           ! (Angstroms and Degrees)  !
 --------------------------                            --------------------------
 ! Name  Definition              Value          Derivative Info.                !
 --------------------------------------------------------------------------------
 ! R1    R(1,2)                  1.1138         estimate D2E/DX2                !
 ! R2    R(1,3)                  1.1138         estimate D2E/DX2                !
 ! R3    R(1,4)                  1.1136         estimate D2E/DX2                !
 ! R4    R(1,5)                  1.5265         estimate D2E/DX2                !
 ! R5    R(5,6)                  1.1148         estimate D2E/DX2                !
 ! R6    R(5,7)                  1.1149         estimate D2E/DX2                !
 ! R7    R(5,8)                  1.5337         estimate D2E/DX2                !
 ! R8    R(8,9)                  1.1151         estimate D2E/DX2                !
 ! R9    R(8,10)                 1.1144         estimate D2E/DX2                !
 ! R10   R(8,11)                 1.5359         estimate D2E/DX2                !
 ! R11   R(11,12)                1.1151         estimate D2E/DX2                !
 ! R12   R(11,13)                1.1151         estimate D2E/DX2                !
 ! R13   R(11,14)                1.5357         estimate D2E/DX2                !
 ! R14   R(14,15)                1.1148         estimate D2E/DX2                !
 ! R15   R(14,16)                1.1146         estimate D2E/DX2                !
 ! R16   R(14,17)                1.5282         estimate D2E/DX2                !
 ! R17   R(17,18)                1.113          estimate D2E/DX2                !
 ! R18   R(17,19)                1.1135         estimate D2E/DX2                !
 ! R19   R(17,20)                1.1137         estimate D2E/DX2                !
 ! A1    A(2,1,3)              109.1591         estimate D2E/DX2                !
 ! A2    A(2,1,4)              108.6535         estimate D2E/DX2                !
 ! A3    A(2,1,5)              110.3277         estimate D2E/DX2                !
 ! A4    A(3,1,4)              108.6856         estimate D2E/DX2                !
 ! A5    A(3,1,5)              110.4116         estimate D2E/DX2                !
 ! A6    A(4,1,5)              109.5626         estimate D2E/DX2                !
 ! A7    A(1,5,6)              108.5597         estimate D2E/DX2                !
 ! A8    A(1,5,7)              108.5643         estimate D2E/DX2                !
 ! A9    A(1,5,8)              112.1679         estimate D2E/DX2                !
 ! A10   A(6,5,7)              108.4028         estimate D2E/DX2                !
 ! A11   A(6,5,8)              109.4579         estimate D2E/DX2                !
 ! A12   A(7,5,8)              109.6075         estimate D2E/DX2                !
 ! A13   A(5,8,9)              109.0157         estimate D2E/DX2                !
 ! A14   A(5,8,10)             108.7237         estimate D2E/DX2                !
 ! A15   A(5,8,11)             111.9582         estimate D2E/DX2                !
 ! A16   A(9,8,10)             108.5665         estimate D2E/DX2                !
 ! A17   A(9,8,11)             109.296          estimate D2E/DX2                !
 ! A18   A(10,8,11)            109.2182         estimate D2E/DX2                !
 ! A19   A(8,11,12)            109.4574         estimate D2E/DX2                !
 ! A20   A(8,11,13)            108.7069         estimate D2E/DX2                !
 ! A21   A(8,11,14)            114.0336         estimate D2E/DX2                !
 ! A22   A(12,11,13)           107.7466         estimate D2E/DX2                !
 ! A23   A(12,11,14)           109.2811         estimate D2E/DX2                !
 ! A24   A(13,11,14)           107.4168         estimate D2E/DX2                !
 ! A25   A(11,14,15)           108.0013         estimate D2E/DX2                !
 ! A26   A(11,14,16)           109.6407         estimate D2E/DX2                !
 ! A27   A(11,14,17)           114.2671         estimate D2E/DX2                !
 ! A28   A(15,14,16)           107.6873         estimate D2E/DX2                !
 ! A29   A(15,14,17)           107.9027         estimate D2E/DX2                !
 ! A30   A(16,14,17)           109.1271         estimate D2E/DX2                !
 ! A31   A(14,17,18)           110.6843         estimate D2E/DX2                !
 ! A32   A(14,17,19)           109.4126         estimate D2E/DX2                !
 ! A33   A(14,17,20)           110.4745         estimate D2E/DX2                !
 ! A34   A(18,17,19)           108.2392         estimate D2E/DX2                !
 ! A35   A(18,17,20)           109.3019         estimate D2E/DX2                !
 ! A36   A(19,17,20)           108.6735         estimate D2E/DX2                !
 ! D1    D(2,1,5,6)           -177.461          estimate D2E/DX2                !
 ! D2    D(2,1,5,7)            -59.8119         estimate D2E/DX2                !
 ! D3    D(2,1,5,8)             61.4589         estimate D2E/DX2                !
 ! D4    D(3,1,5,6)             61.7889         estimate D2E/DX2                !
 ! D5    D(3,1,5,7)            179.4379         estimate D2E/DX2                !
 ! D6    D(3,1,5,8)            -59.2913         estimate D2E/DX2                !
 ! D7    D(4,1,5,6)            -57.8818         estimate D2E/DX2                !
 ! D8    D(4,1,5,7)             59.7672         estimate D2E/DX2                !
 ! D9    D(4,1,5,8)           -178.9619         estimate D2E/DX2                !
 ! D10   D(1,5,8,9)             60.9686         estimate D2E/DX2                !
 ! D11   D(1,5,8,10)           -57.2226         estimate D2E/DX2                !
 ! D12   D(1,5,8,11)          -177.9797         estimate D2E/DX2                !
 ! D13   D(6,5,8,9)            -59.5928         estimate D2E/DX2                !
 ! D14   D(6,5,8,10)          -177.784          estimate D2E/DX2                !
 ! D15   D(6,5,8,11)            61.4588         estimate D2E/DX2                !
 ! D16   D(7,5,8,9)           -178.362          estimate D2E/DX2                !
 ! D17   D(7,5,8,10)            63.4468         estimate D2E/DX2                !
 ! D18   D(7,5,8,11)           -57.3104         estimate D2E/DX2                !
 ! D19   D(5,8,11,12)           64.1741         estimate D2E/DX2                !
 ! D20   D(5,8,11,13)          -53.2728         estimate D2E/DX2                !
 ! D21   D(5,8,11,14)         -173.0752         estimate D2E/DX2                !
 ! D22   D(9,8,11,12)         -174.9365         estimate D2E/DX2                !
 ! D23   D(9,8,11,13)           67.6166         estimate D2E/DX2                !
 ! D24   D(9,8,11,14)          -52.1858         estimate D2E/DX2                !
 ! D25   D(10,8,11,12)         -56.2958         estimate D2E/DX2                !
 ! D26   D(10,8,11,13)        -173.7427         estimate D2E/DX2                !
 ! D27   D(10,8,11,14)          66.4549         estimate D2E/DX2                !
 ! D28   D(8,11,14,15)         174.5998         estimate D2E/DX2                !
 ! D29   D(8,11,14,16)          57.5245         estimate D2E/DX2                !
 ! D30   D(8,11,14,17)         -65.3309         estimate D2E/DX2                !
 ! D31   D(12,11,14,15)        -62.5533         estimate D2E/DX2                !
 ! D32   D(12,11,14,16)       -179.6287         estimate D2E/DX2                !
 ! D33   D(12,11,14,17)         57.5159         estimate D2E/DX2                !
 ! D34   D(13,11,14,15)         54.0735         estimate D2E/DX2                !
 ! D35   D(13,11,14,16)        -63.0019         estimate D2E/DX2                !
 ! D36   D(13,11,14,17)        174.1427         estimate D2E/DX2                !
 ! D37   D(11,14,17,18)         67.0698         estimate D2E/DX2                !
 ! D38   D(11,14,17,19)       -173.7364         estimate D2E/DX2                !
 ! D39   D(11,14,17,20)        -54.1361         estimate D2E/DX2                !
 ! D40   D(15,14,17,18)       -172.8058         estimate D2E/DX2                !
 ! D41   D(15,14,17,19)        -53.612          estimate D2E/DX2                !
 ! D42   D(15,14,17,20)         65.9882         estimate D2E/DX2                !
 ! D43   D(16,14,17,18)        -56.0639         estimate D2E/DX2                !
 ! D44   D(16,14,17,19)         63.1299         estimate D2E/DX2                !
 ! D45   D(16,14,17,20)       -177.2698         estimate D2E/DX2                !
 --------------------------------------------------------------------------------
 Trust Radius=3.00D-01 FncErr=1.00D-07 GrdErr=1.00D-07
 Number of steps in this run= 110 maximum allowed number of steps= 120.
 GradGradGradGradGradGradGradGradGradGradGradGradGradGradGradGradGradGrad

 Leave Link  103 at Mon Sep 14 19:11:54 2015, MaxMem=  402653184 cpu:       0.0
 (Enter /share/apps/g09/l202.exe)
                          Input orientation:                          
 ---------------------------------------------------------------------
 Center     Atomic      Atomic             Coordinates (Angstroms)
 Number     Number       Type             X           Y           Z
 ---------------------------------------------------------------------
      1          6           0        0.019100    4.134000   -1.201700
      2          1           0       -0.847900    4.674400   -0.758000
      3          1           0       -0.159600    3.988600   -2.291400
      4          1           0        0.932500    4.757200   -1.070000
      5          6           0        0.215000    2.787400   -0.510000
      6          1           0        1.115300    2.293300   -0.943800
      7          1           0        0.401200    2.969000    0.574100
      8          6           0       -1.001900    1.868900   -0.676400
      9          1           0       -1.161100    1.669800   -1.762000
     10          1           0       -1.901400    2.390700   -0.275700
     11          6           0       -0.820000    0.535000    0.062900
     12          1           0       -0.752600    0.724400    1.159700
     13          1           0        0.142000    0.074200   -0.262200
     14          6           0       -1.933800   -0.487000   -0.207700
     15          1           0       -1.653700   -1.442600    0.293400
     16          1           0       -2.001900   -0.685900   -1.302300
     17          6           0       -3.309000   -0.069600    0.311900
     18          1           0       -3.692000    0.810100   -0.252200
     19          1           0       -4.026700   -0.910100    0.176100
     20          1           0       -3.256000    0.182500    1.395400
 ---------------------------------------------------------------------
                    Distance matrix (angstroms):
                    1          2          3          4          5
     1  C    0.000000
     2  H    1.113818   0.000000
     3  H    1.113787   1.815322   0.000000
     4  H    1.113563   1.809426   1.809764   0.000000
     5  C    1.526485   2.179915   2.180961   2.169912   0.000000
     6  H    2.157856   3.091652   2.513053   2.473893   1.114835
     7  H    2.157937   2.498626   3.092761   2.486565   1.114864
     8  C    2.539500   2.810908   2.794785   3.498443   1.533681
     9  H    2.789102   3.183352   2.580717   3.793951   2.170296
    10  H    2.754068   2.560813   3.106477   3.776536   2.165968
    11  C    3.905906   4.220105   4.231573   4.709744   2.544159
    12  H    4.218661   4.391942   4.787143   4.906587   2.824910
    13  H    4.168902   4.731549   4.419405   4.817460   2.725470
    14  C    5.114244   5.303024   5.246007   6.038284   3.928158
    15  H    6.010994   6.258789   6.197698   6.854547   4.693654
    16  H    5.227427   5.510063   5.120873   6.188053   4.195974
    17  C    5.571130   5.450434   5.758896   6.572516   4.610482
    18  H    5.071698   4.824682   5.170981   6.134688   4.386436
    19  H    6.611337   6.493378   6.711206   7.633133   5.668709
    20  H    5.752005   5.532924   6.137311   6.674549   4.739609
                    6          7          8          9         10
     6  H    0.000000
     7  H    1.808461   0.000000
     8  C    2.175811   2.177765   0.000000
     9  H    2.498039   3.096137   1.115129   0.000000
    10  H    3.091330   2.521618   1.114422   1.810201   0.000000
    11  C    2.801865   2.770742   1.535885   2.175863   2.174327
    12  H    3.221057   2.590832   2.177910   3.097900   2.481264
    13  H    2.517200   3.024310   2.168183   2.548217   3.088987
    14  C    4.191530   4.243509   2.576506   2.768519   2.878686
    15  H    4.811962   4.874794   3.511608   3.762228   3.883223
    16  H    4.326788   4.759628   2.814028   2.543146   3.244915
    17  C    5.170542   4.802856   3.171314   3.455437   2.894769
    18  H    5.078221   4.700841   2.921924   3.069859   2.388534
    19  H    6.160853   5.900180   4.195118   4.315528   3.951747
    20  H    5.388469   4.670570   3.495321   4.070607   3.082801
                   11         12         13         14         15
    11  C    0.000000
    12  H    1.115072   0.000000
    13  H    1.115110   1.801352   0.000000
    14  C    1.535662   2.175432   2.151014   0.000000
    15  H    2.158492   2.501669   2.415349   1.114777   0.000000
    16  H    2.179737   3.100184   2.501173   1.114607   1.800027
    17  C    2.573454   2.807914   3.501381   1.528196   2.150695
    18  H    2.902301   3.262036   3.903999   2.185341   3.086584
    19  H    3.519098   3.789299   4.305695   2.169458   2.434840
    20  H    2.798912   2.572202   3.782297   2.183202   2.534308
                   16         17         18         19         20
    16  H    0.000000
    17  C    2.166559   0.000000
    18  H    2.489410   1.113000   0.000000
    19  H    2.517091   1.113542   1.804038   0.000000
    20  H    3.099108   1.113704   1.816195   1.809543   0.000000
 Stoichiometry    C6H14
 Framework group  C1[X(C6H14)]
 Deg. of freedom    54
 Full point group                 C1      NOp   1
 Largest Abelian subgroup         C1      NOp   1
 Largest concise Abelian subgroup C1      NOp   1
                         Standard orientation:                         
 ---------------------------------------------------------------------
 Center     Atomic      Atomic             Coordinates (Angstroms)
 Number     Number       Type             X           Y           Z
 ---------------------------------------------------------------------
      1          6           0       -2.965764    0.544037    0.102262
      2          1           0       -2.823416    1.506110   -0.440640
      3          1           0       -2.995089    0.743333    1.197680
      4          1           0       -3.940133    0.101844   -0.206111
      5          6           0       -1.835543   -0.425919   -0.232318
      6          1           0       -2.031229   -1.392020    0.288462
      7          1           0       -1.840712   -0.611325   -1.331645
      8          6           0       -0.464440    0.114639    0.192006
      9          1           0       -0.460399    0.268271    1.296494
     10          1           0       -0.298898    1.098887   -0.303763
     11          6           0        0.673961   -0.842409   -0.191457
     12          1           0        0.730770   -0.925982   -1.301941
     13          1           0        0.441934   -1.854882    0.214169
     14          6           0        2.048142   -0.431317    0.357079
     15          1           0        2.774825   -1.238566    0.106063
     16          1           0        1.999851   -0.352534    1.467848
     17          6           0        2.586192    0.879650   -0.214979
     18          1           0        1.963042    1.739327    0.118801
     19          1           0        3.626638    1.042043    0.147065
     20          1           0        2.597525    0.843415   -1.328035
 ---------------------------------------------------------------------
 Rotational constants (GHZ):      8.7018980      1.3422620      1.2480802
 Leave Link  202 at Mon Sep 14 19:11:56 2015, MaxMem=  402653184 cpu:       0.0
 (Enter /share/apps/g09/l301.exe)
 Standard basis: VSTO-6G (5D, 7F)
 Ernie: Thresh=  0.10000D-02 Tol=  0.10000D-05 Strict=F.
  NNHCO=     0 NNPyr=     0 NCTC=     0               EPep=         0.000000000
    EC=       124.939590622  ECS=         3.145709865   EG=         0.309006989
   EHC=         0.000409467  EAt=       -31.187935768  AtH=         2.796400831
 EPDDG=         0.000000000  ECC=       128.394716943 EAtT=        33.984336599
 There are    38 symmetry adapted basis functions of A   symmetry.
 Integral buffers will be    131072 words long.
 Regular integral format.
 Two-electron integral symmetry is turned off.
    38 basis functions,   228 primitive gaussians,    38 cartesian basis functions
    19 alpha electrons       19 beta electrons
       nuclear repulsion energy       162.3790535416 Hartrees.
 IExCor=    0 DFT=F Ex=HF Corr=None ExCW=0 ScaHFX=  1.000000
 ScaDFX=  1.000000  1.000000  1.000000  1.000000 ScalE2=  1.000000  1.000000
 IRadAn=      0 IRanWt=     -1 IRanGd=            0 ICorTp=0
 Leave Link  301 at Mon Sep 14 19:11:56 2015, MaxMem=  402653184 cpu:       0.1
 (Enter /share/apps/g09/l302.exe)
 Do NDO integrals.
 NPDir=0 NMtPBC=     1 NCelOv=     1 NCel=       1 NClECP=     1 NCelD=      1
         NCelK=      1 NCelE2=     1 NClLst=     1 CellRange=     0.0.
 One-electron integrals computed using PRISM.
 NBasis=    38 RedAO= F  NBF=    38
 NBsUse=    38 1.00D-04 NBFU=    38
 Leave Link  302 at Mon Sep 14 19:11:57 2015, MaxMem=  402653184 cpu:       0.2
 (Enter /share/apps/g09/l303.exe)
 DipDrv:  MaxL=1.
 Leave Link  303 at Mon Sep 14 19:11:57 2015, MaxMem=  402653184 cpu:       0.0
 (Enter /share/apps/g09/l401.exe)
 Simple Huckel Guess.
 Initial guess orbital symmetries:
       Occupied  (A) (A) (A) (A) (A) (A) (A) (A) (A) (A) (A) (A)
                 (A) (A) (A) (A) (A) (A) (A)
       Virtual   (A) (A) (A) (A) (A) (A) (A) (A) (A) (A) (A) (A)
                 (A) (A) (A) (A) (A) (A) (A)
 The electronic state of the initial guess is 1-A.
 Leave Link  401 at Mon Sep 14 19:11:59 2015, MaxMem=  402653184 cpu:       0.1
 (Enter /share/apps/g09/l502.exe)
 Closed shell SCF:
 Requested convergence on RMS density matrix=1.00D-08 within 128 cycles.
 Requested convergence on MAX density matrix=1.00D-06.
 Requested convergence on             energy=1.00D-06.
 No special actions if energy rises.
 Using DIIS extrapolation, IDIIS=  1040.
 Overlap will be assumed to be unity.
 Two-electron integral symmetry not used.
 Keep J ints in memory in canonical form, NReq=884654.
 IEnd=       81865 IEndB=       81865 NGot=   402653184 MDV=   402586639
 LenX=   402586639 LenY=   402584754
 Symmetry not used in FoFDir.
 MinBra= 0 MaxBra= 1 Meth=40.
 IRaf=       0 NMat=   1 IRICut=       1 DoRegI=T DoRafI=F ISym2E= 0 JSym2E=0.

 Cycle   1  Pass 1  IDiag  1:
 E= 0.733625312907975E-01
 DIIS: error= 2.20D-02 at cycle   1 NSaved=   1.
 NSaved= 1 IEnMin= 1 EnMin= 0.733625312907975E-01 IErMin= 1 ErrMin= 2.20D-02
 ErrMax= 2.20D-02 EMaxC= 1.00D-01 BMatC= 4.41D-02 BMatP= 4.41D-02
 IDIUse=3 WtCom= 7.80D-01 WtEn= 2.20D-01
 Coeff-Com:  0.100D+01
 Coeff-En:   0.100D+01
 Coeff:      0.100D+01
 GapD=    2.000 DampG=2.000 DampE=0.500 DampFc=1.0000 IDamp=-1.
 RMSDP=8.41D-03 MaxDP=6.94D-02              OVMax= 0.00D+00

 Cycle   2  Pass 1  IDiag  1:
 E=-0.436823334074177E-01 Delta-E=       -0.117044864698 Rises=F Damp=F
 DIIS: error= 5.37D-03 at cycle   2 NSaved=   2.
 NSaved= 2 IEnMin= 2 EnMin=-0.436823334074177E-01 IErMin= 2 ErrMin= 5.37D-03
 ErrMax= 5.37D-03 EMaxC= 1.00D-01 BMatC= 2.96D-03 BMatP= 4.41D-02
 IDIUse=3 WtCom= 9.46D-01 WtEn= 5.37D-02
 Coeff-Com: -0.324D+00 0.132D+01
 Coeff-En:   0.000D+00 0.100D+01
 Coeff:     -0.307D+00 0.131D+01
 RMSDP=3.05D-03 MaxDP=2.15D-02 DE=-1.17D-01 OVMax= 0.00D+00

 Cycle   3  Pass 1  IDiag  3:
 E=-0.532744609585905E-01 Delta-E=       -0.009592127551 Rises=F Damp=F
 DIIS: error= 1.47D-03 at cycle   3 NSaved=   3.
 NSaved= 3 IEnMin= 3 EnMin=-0.532744609585905E-01 IErMin= 3 ErrMin= 1.47D-03
 ErrMax= 1.47D-03 EMaxC= 1.00D-01 BMatC= 8.33D-05 BMatP= 2.96D-03
 IDIUse=3 WtCom= 9.85D-01 WtEn= 1.47D-02
 Coeff-Com:  0.246D+00-0.105D+01 0.180D+01
 Coeff-En:   0.000D+00 0.000D+00 0.100D+01
 Coeff:      0.242D+00-0.104D+01 0.179D+01
 Gap=     0.558 Goal=   None    Shift=    0.000
 RMSDP=8.74D-04 MaxDP=9.01D-03 DE=-9.59D-03 OVMax= 0.00D+00

 Cycle   4  Pass 1  IDiag  3:
 E=-0.537716857652697E-01 Delta-E=       -0.000497224807 Rises=F Damp=F
 DIIS: error= 3.42D-04 at cycle   4 NSaved=   4.
 NSaved= 4 IEnMin= 4 EnMin=-0.537716857652697E-01 IErMin= 4 ErrMin= 3.42D-04
 ErrMax= 3.42D-04 EMaxC= 1.00D-01 BMatC= 4.36D-06 BMatP= 8.33D-05
 IDIUse=3 WtCom= 9.97D-01 WtEn= 3.42D-03
 Coeff-Com: -0.118D+00 0.510D+00-0.103D+01 0.164D+01
 Coeff-En:   0.000D+00 0.000D+00 0.000D+00 0.100D+01
 Coeff:     -0.118D+00 0.508D+00-0.103D+01 0.164D+01
 Gap=     0.559 Goal=   None    Shift=    0.000
 RMSDP=2.29D-04 MaxDP=2.38D-03 DE=-4.97D-04 OVMax= 0.00D+00

 Cycle   5  Pass 1  IDiag  3:
 E=-0.538012166534827E-01 Delta-E=       -0.000029530888 Rises=F Damp=F
 DIIS: error= 9.09D-05 at cycle   5 NSaved=   5.
 NSaved= 5 IEnMin= 5 EnMin=-0.538012166534827E-01 IErMin= 5 ErrMin= 9.09D-05
 ErrMax= 9.09D-05 EMaxC= 1.00D-01 BMatC= 3.61D-07 BMatP= 4.36D-06
 IDIUse=1 WtCom= 1.00D+00 WtEn= 0.00D+00
 Coeff-Com:  0.664D-01-0.288D+00 0.620D+00-0.119D+01 0.179D+01
 Coeff:      0.664D-01-0.288D+00 0.620D+00-0.119D+01 0.179D+01
 Gap=     0.559 Goal=   None    Shift=    0.000
 RMSDP=6.98D-05 MaxDP=6.40D-04 DE=-2.95D-05 OVMax= 0.00D+00

 Cycle   6  Pass 1  IDiag  3:
 E=-0.538039200302762E-01 Delta-E=       -0.000002703377 Rises=F Damp=F
 DIIS: error= 2.63D-05 at cycle   6 NSaved=   6.
 NSaved= 6 IEnMin= 6 EnMin=-0.538039200302762E-01 IErMin= 6 ErrMin= 2.63D-05
 ErrMax= 2.63D-05 EMaxC= 1.00D-01 BMatC= 2.78D-08 BMatP= 3.61D-07
 IDIUse=1 WtCom= 1.00D+00 WtEn= 0.00D+00
 Coeff-Com: -0.568D-03 0.311D-02-0.200D-01 0.901D-01-0.432D+00 0.136D+01
 Coeff:     -0.568D-03 0.311D-02-0.200D-01 0.901D-01-0.432D+00 0.136D+01
 Gap=     0.559 Goal=   None    Shift=    0.000
 RMSDP=1.99D-05 MaxDP=2.08D-04 DE=-2.70D-06 OVMax= 0.00D+00

 Cycle   7  Pass 1  IDiag  3:
 E=-0.538041184800591E-01 Delta-E=       -0.000000198450 Rises=F Damp=F
 DIIS: error= 5.67D-06 at cycle   7 NSaved=   7.
 NSaved= 7 IEnMin= 7 EnMin=-0.538041184800591E-01 IErMin= 7 ErrMin= 5.67D-06
 ErrMax= 5.67D-06 EMaxC= 1.00D-01 BMatC= 1.99D-09 BMatP= 2.78D-08
 IDIUse=1 WtCom= 1.00D+00 WtEn= 0.00D+00
 Coeff-Com:  0.892D-03-0.415D-02 0.144D-01-0.473D-01 0.204D+00-0.769D+00
 Coeff-Com:  0.160D+01
 Coeff:      0.892D-03-0.415D-02 0.144D-01-0.473D-01 0.204D+00-0.769D+00
 Coeff:      0.160D+01
 Gap=     0.559 Goal=   None    Shift=    0.000
 RMSDP=4.78D-06 MaxDP=5.28D-05 DE=-1.98D-07 OVMax= 0.00D+00

 Cycle   8  Pass 1  IDiag  3:
 E=-0.538041308630568E-01 Delta-E=       -0.000000012383 Rises=F Damp=F
 DIIS: error= 1.92D-06 at cycle   8 NSaved=   8.
 NSaved= 8 IEnMin= 8 EnMin=-0.538041308630568E-01 IErMin= 8 ErrMin= 1.92D-06
 ErrMax= 1.92D-06 EMaxC= 1.00D-01 BMatC= 1.05D-10 BMatP= 1.99D-09
 IDIUse=1 WtCom= 1.00D+00 WtEn= 0.00D+00
 Coeff-Com: -0.357D-03 0.175D-02-0.760D-02 0.282D-01-0.131D+00 0.522D+00
 Coeff-Com: -0.121D+01 0.180D+01
 Coeff:     -0.357D-03 0.175D-02-0.760D-02 0.282D-01-0.131D+00 0.522D+00
 Coeff:     -0.121D+01 0.180D+01
 Gap=     0.559 Goal=   None    Shift=    0.000
 RMSDP=1.12D-06 MaxDP=1.18D-05 DE=-1.24D-08 OVMax= 0.00D+00

 Cycle   9  Pass 1  IDiag  3:
 E=-0.538041315167561E-01 Delta-E=       -0.000000000654 Rises=F Damp=F
 DIIS: error= 2.53D-07 at cycle   9 NSaved=   9.
 NSaved= 9 IEnMin= 9 EnMin=-0.538041315167561E-01 IErMin= 9 ErrMin= 2.53D-07
 ErrMax= 2.53D-07 EMaxC= 1.00D-01 BMatC= 2.43D-12 BMatP= 1.05D-10
 IDIUse=1 WtCom= 1.00D+00 WtEn= 0.00D+00
 Coeff-Com: -0.306D-04 0.746D-04 0.963D-03-0.580D-02 0.334D-01-0.143D+00
 Coeff-Com:  0.350D+00-0.623D+00 0.139D+01
 Coeff:     -0.306D-04 0.746D-04 0.963D-03-0.580D-02 0.334D-01-0.143D+00
 Coeff:      0.350D+00-0.623D+00 0.139D+01
 Gap=     0.559 Goal=   None    Shift=    0.000
 RMSDP=1.45D-07 MaxDP=1.65D-06 DE=-6.54D-10 OVMax= 0.00D+00

 Cycle  10  Pass 1  IDiag  3:
 E=-0.538041315298301E-01 Delta-E=       -0.000000000013 Rises=F Damp=F
 DIIS: error= 4.20D-08 at cycle  10 NSaved=  10.
 NSaved=10 IEnMin=10 EnMin=-0.538041315298301E-01 IErMin=10 ErrMin= 4.20D-08
 ErrMax= 4.20D-08 EMaxC= 1.00D-01 BMatC= 1.40D-13 BMatP= 2.43D-12
 IDIUse=1 WtCom= 1.00D+00 WtEn= 0.00D+00
 Coeff-Com:  0.312D-05 0.118D-04-0.509D-03 0.267D-02-0.146D-01 0.620D-01
 Coeff-Com: -0.152D+00 0.277D+00-0.726D+00 0.155D+01
 Coeff:      0.312D-05 0.118D-04-0.509D-03 0.267D-02-0.146D-01 0.620D-01
 Coeff:     -0.152D+00 0.277D+00-0.726D+00 0.155D+01
 Gap=     0.559 Goal=   None    Shift=    0.000
 RMSDP=3.52D-08 MaxDP=3.82D-07 DE=-1.31D-11 OVMax= 0.00D+00

 Cycle  11  Pass 1  IDiag  3:
 E=-0.538041315305406E-01 Delta-E=       -0.000000000001 Rises=F Damp=F
 DIIS: error= 2.19D-08 at cycle  11 NSaved=  11.
 NSaved=11 IEnMin=11 EnMin=-0.538041315305406E-01 IErMin=11 ErrMin= 2.19D-08
 ErrMax= 2.19D-08 EMaxC= 1.00D-01 BMatC= 2.53D-14 BMatP= 1.40D-13
 IDIUse=1 WtCom= 1.00D+00 WtEn= 0.00D+00
 Coeff-Com:  0.499D-05-0.420D-04 0.476D-03-0.226D-02 0.119D-01-0.498D-01
 Coeff-Com:  0.121D+00-0.223D+00 0.610D+00-0.165D+01 0.218D+01
 Coeff:      0.499D-05-0.420D-04 0.476D-03-0.226D-02 0.119D-01-0.498D-01
 Coeff:      0.121D+00-0.223D+00 0.610D+00-0.165D+01 0.218D+01
 Gap=     0.559 Goal=   None    Shift=    0.000
 RMSDP=2.36D-08 MaxDP=2.39D-07 DE=-7.11D-13 OVMax= 0.00D+00

 Cycle  12  Pass 1  IDiag  3:
 E=-0.538041315309101E-01 Delta-E=        0.000000000000 Rises=F Damp=F
 DIIS: error= 5.09D-09 at cycle  12 NSaved=  12.
 NSaved=12 IEnMin=12 EnMin=-0.538041315309101E-01 IErMin=12 ErrMin= 5.09D-09
 ErrMax= 5.09D-09 EMaxC= 1.00D-01 BMatC= 1.31D-15 BMatP= 2.53D-14
 IDIUse=1 WtCom= 1.00D+00 WtEn= 0.00D+00
 Coeff-Com: -0.145D-05 0.142D-04-0.178D-03 0.856D-03-0.453D-02 0.190D-01
 Coeff-Com: -0.464D-01 0.857D-01-0.238D+00 0.689D+00-0.111D+01 0.161D+01
 Coeff:     -0.145D-05 0.142D-04-0.178D-03 0.856D-03-0.453D-02 0.190D-01
 Coeff:     -0.464D-01 0.857D-01-0.238D+00 0.689D+00-0.111D+01 0.161D+01
 Gap=     0.559 Goal=   None    Shift=    0.000
 RMSDP=5.24D-09 MaxDP=6.31D-08 DE=-3.69D-13 OVMax= 0.00D+00

 Cycle  13  Pass 2  IDiag  1:
 RMSDP=5.24D-09 MaxDP=6.31D-08 DE=-3.69D-13 OVMax= 0.00D+00

 SCF Done:  E(RPM6) = -0.538041315309E-01 A.U. after   13 cycles
             Convg  =    0.5243D-08             -V/T =  0.9990
 KE=-5.602873444452D+01 PE=-2.459536404677D+02 EE= 1.395495172391D+02
 Leave Link  502 at Mon Sep 14 19:12:00 2015, MaxMem=  402653184 cpu:       1.0
 (Enter /share/apps/g09/l601.exe)
 Copying SCF densities to generalized density rwf, IOpCl= 0 IROHF=0.

 **********************************************************************

            Population analysis using the SCF density.

 **********************************************************************

 Orbital symmetries:
       Occupied  (A) (A) (A) (A) (A) (A) (A) (A) (A) (A) (A) (A)
                 (A) (A) (A) (A) (A) (A) (A)
       Virtual   (A) (A) (A) (A) (A) (A) (A) (A) (A) (A) (A) (A)
                 (A) (A) (A) (A) (A) (A) (A)
 The electronic state is 1-A.
 Alpha  occ. eigenvalues --   -1.05037  -0.99464  -0.90206  -0.81620  -0.73816
 Alpha  occ. eigenvalues --   -0.71232  -0.59506  -0.56427  -0.54606  -0.51816
 Alpha  occ. eigenvalues --   -0.51085  -0.48685  -0.46498  -0.45287  -0.43866
 Alpha  occ. eigenvalues --   -0.42510  -0.41279  -0.40746  -0.40483
 Alpha virt. eigenvalues --    0.15379   0.15712   0.16869   0.17566   0.18465
 Alpha virt. eigenvalues --    0.20532   0.21027   0.21599   0.21852   0.21968
 Alpha virt. eigenvalues --    0.22672   0.22954   0.23562   0.23894   0.24185
 Alpha virt. eigenvalues --    0.24380   0.24574   0.25035   0.25323
          Condensed to atoms (all electrons):
              1          2          3          4          5          6
     1  C    4.462646   0.000000   0.000000   0.000000   0.000000   0.000000
     2  H    0.000000   0.852690   0.000000   0.000000   0.000000   0.000000
     3  H    0.000000   0.000000   0.852547   0.000000   0.000000   0.000000
     4  H    0.000000   0.000000   0.000000   0.855712   0.000000   0.000000
     5  C    0.000000   0.000000   0.000000   0.000000   4.231371   0.000000
     6  H    0.000000   0.000000   0.000000   0.000000   0.000000   0.873732
     7  H    0.000000   0.000000   0.000000   0.000000   0.000000   0.000000
     8  C    0.000000   0.000000   0.000000   0.000000   0.000000   0.000000
     9  H    0.000000   0.000000   0.000000   0.000000   0.000000   0.000000
    10  H    0.000000   0.000000   0.000000   0.000000   0.000000   0.000000
    11  C    0.000000   0.000000   0.000000   0.000000   0.000000   0.000000
    12  H    0.000000   0.000000   0.000000   0.000000   0.000000   0.000000
    13  H    0.000000   0.000000   0.000000   0.000000   0.000000   0.000000
    14  C    0.000000   0.000000   0.000000   0.000000   0.000000   0.000000
    15  H    0.000000   0.000000   0.000000   0.000000   0.000000   0.000000
    16  H    0.000000   0.000000   0.000000   0.000000   0.000000   0.000000
    17  C    0.000000   0.000000   0.000000   0.000000   0.000000   0.000000
    18  H    0.000000   0.000000   0.000000   0.000000   0.000000   0.000000
    19  H    0.000000   0.000000   0.000000   0.000000   0.000000   0.000000
    20  H    0.000000   0.000000   0.000000   0.000000   0.000000   0.000000
              7          8          9         10         11         12
     1  C    0.000000   0.000000   0.000000   0.000000   0.000000   0.000000
     2  H    0.000000   0.000000   0.000000   0.000000   0.000000   0.000000
     3  H    0.000000   0.000000   0.000000   0.000000   0.000000   0.000000
     4  H    0.000000   0.000000   0.000000   0.000000   0.000000   0.000000
     5  C    0.000000   0.000000   0.000000   0.000000   0.000000   0.000000
     6  H    0.000000   0.000000   0.000000   0.000000   0.000000   0.000000
     7  H    0.872953   0.000000   0.000000   0.000000   0.000000   0.000000
     8  C    0.000000   4.259805   0.000000   0.000000   0.000000   0.000000
     9  H    0.000000   0.000000   0.867993   0.000000   0.000000   0.000000
    10  H    0.000000   0.000000   0.000000   0.865995   0.000000   0.000000
    11  C    0.000000   0.000000   0.000000   0.000000   4.267254   0.000000
    12  H    0.000000   0.000000   0.000000   0.000000   0.000000   0.867883
    13  H    0.000000   0.000000   0.000000   0.000000   0.000000   0.000000
    14  C    0.000000   0.000000   0.000000   0.000000   0.000000   0.000000
    15  H    0.000000   0.000000   0.000000   0.000000   0.000000   0.000000
    16  H    0.000000   0.000000   0.000000   0.000000   0.000000   0.000000
    17  C    0.000000   0.000000   0.000000   0.000000   0.000000   0.000000
    18  H    0.000000   0.000000   0.000000   0.000000   0.000000   0.000000
    19  H    0.000000   0.000000   0.000000   0.000000   0.000000   0.000000
    20  H    0.000000   0.000000   0.000000   0.000000   0.000000   0.000000
             13         14         15         16         17         18
     1  C    0.000000   0.000000   0.000000   0.000000   0.000000   0.000000
     2  H    0.000000   0.000000   0.000000   0.000000   0.000000   0.000000
     3  H    0.000000   0.000000   0.000000   0.000000   0.000000   0.000000
     4  H    0.000000   0.000000   0.000000   0.000000   0.000000   0.000000
     5  C    0.000000   0.000000   0.000000   0.000000   0.000000   0.000000
     6  H    0.000000   0.000000   0.000000   0.000000   0.000000   0.000000
     7  H    0.000000   0.000000   0.000000   0.000000   0.000000   0.000000
     8  C    0.000000   0.000000   0.000000   0.000000   0.000000   0.000000
     9  H    0.000000   0.000000   0.000000   0.000000   0.000000   0.000000
    10  H    0.000000   0.000000   0.000000   0.000000   0.000000   0.000000
    11  C    0.000000   0.000000   0.000000   0.000000   0.000000   0.000000
    12  H    0.000000   0.000000   0.000000   0.000000   0.000000   0.000000
    13  H    0.872374   0.000000   0.000000   0.000000   0.000000   0.000000
    14  C    0.000000   4.225797   0.000000   0.000000   0.000000   0.000000
    15  H    0.000000   0.000000   0.877042   0.000000   0.000000   0.000000
    16  H    0.000000   0.000000   0.000000   0.873200   0.000000   0.000000
    17  C    0.000000   0.000000   0.000000   0.000000   4.457993   0.000000
    18  H    0.000000   0.000000   0.000000   0.000000   0.000000   0.852143
    19  H    0.000000   0.000000   0.000000   0.000000   0.000000   0.000000
    20  H    0.000000   0.000000   0.000000   0.000000   0.000000   0.000000
             19         20
     1  C    0.000000   0.000000
     2  H    0.000000   0.000000
     3  H    0.000000   0.000000
     4  H    0.000000   0.000000
     5  C    0.000000   0.000000
     6  H    0.000000   0.000000
     7  H    0.000000   0.000000
     8  C    0.000000   0.000000
     9  H    0.000000   0.000000
    10  H    0.000000   0.000000
    11  C    0.000000   0.000000
    12  H    0.000000   0.000000
    13  H    0.000000   0.000000
    14  C    0.000000   0.000000
    15  H    0.000000   0.000000
    16  H    0.000000   0.000000
    17  C    0.000000   0.000000
    18  H    0.000000   0.000000
    19  H    0.858343   0.000000
    20  H    0.000000   0.852529
 Mulliken atomic charges:
              1
     1  C   -0.462646
     2  H    0.147310
     3  H    0.147453
     4  H    0.144288
     5  C   -0.231371
     6  H    0.126268
     7  H    0.127047
     8  C   -0.259805
     9  H    0.132007
    10  H    0.134005
    11  C   -0.267254
    12  H    0.132117
    13  H    0.127626
    14  C   -0.225797
    15  H    0.122958
    16  H    0.126800
    17  C   -0.457993
    18  H    0.147857
    19  H    0.141657
    20  H    0.147471
 Sum of Mulliken atomic charges =   0.00000
 Mulliken charges with hydrogens summed into heavy atoms:
              1
     1  C   -0.023595
     5  C    0.021944
     8  C    0.006208
    11  C   -0.007510
    14  C    0.023961
    17  C   -0.021007
 Sum of Mulliken charges with hydrogens summed into heavy atoms =   0.00000
 Charge=              0.0000 electrons
 Dipole moment (field-independent basis, Debye):
    X=              0.0147    Y=              0.0004    Z=              0.0004  Tot=              0.0147
 N-N= 1.623790535416D+02 E-N=-2.459536404305D+02  KE=-5.602873444452D+01
 Leave Link  601 at Mon Sep 14 19:12:01 2015, MaxMem=  402653184 cpu:       0.0
 (Enter /share/apps/g09/l701.exe)
 Compute integral first derivatives.
 ... and contract with generalized density number  0.
 Leave Link  701 at Mon Sep 14 19:12:01 2015, MaxMem=  402653184 cpu:       0.1
 (Enter /share/apps/g09/l702.exe)
 L702 exits ... SP integral derivatives will be done elsewhere.
 Leave Link  702 at Mon Sep 14 19:12:07 2015, MaxMem=  402653184 cpu:       0.0
 (Enter /share/apps/g09/l703.exe)
 Compute integral first derivatives, UseDBF=F ICtDFT=           0.
 Integral derivatives from FoFDir, PRISM(SPDF).
 Calling FoFJK, ICntrl=      2127 FMM=F ISym2X=0 I1Cent= 0 IOpClX= 0 NMat=1 NMatS=1 NMatT=0.
 FoFCou: FMM=F IPFlag=           0 FMFlag=      100000 FMFlg1=         800
         NFxFlg=           0 DoJE=F BraDBF=F KetDBF=F FulRan=T
         Omega=  0.000000  0.000000  1.000000  0.000000  0.000000 ICntrl=    2127 IOpCl=  0
         NMat0=    1 NMatS0=    1 NMatT0=    0 NMatD0=    1 NMtDS0=    0 NMtDT0=    0
         I1Cent=           0 NGrid=           0.
 Symmetry not used in FoFCou.
 Leave Link  703 at Mon Sep 14 19:12:09 2015, MaxMem=  402653184 cpu:       0.0
 (Enter /share/apps/g09/l716.exe)
 Dipole        = 5.76659138D-03 1.67737826D-04 1.41939260D-04
 ***** Axes restored to original set *****
 -------------------------------------------------------------------
 Center     Atomic                   Forces (Hartrees/Bohr)
 Number     Number              X              Y              Z
 -------------------------------------------------------------------
      1        6          -0.000695870    0.003456993   -0.001776650
      2        1           0.007866551   -0.002607695   -0.006260621
      3        1           0.000926613    0.004313347    0.009408761
      4        1          -0.009207255   -0.002966327   -0.002824770
      5        6           0.003095264   -0.000641506    0.001389827
      6        1          -0.001939270    0.000888760    0.004505392
      7        1           0.001707237   -0.002835984   -0.003736683
      8        6          -0.003067375   -0.001057539   -0.000625970
      9        1          -0.002429997    0.001854801    0.004731570
     10        1           0.001386403   -0.002779836   -0.004390249
     11        6           0.002188877   -0.000086935    0.000759742
     12        1           0.001346812   -0.001088100   -0.004553095
     13        1          -0.001498811    0.001974358    0.003668361
     14        6          -0.001033221   -0.000329532   -0.000444497
     15        1           0.000225600    0.001186973   -0.003900541
     16        1           0.001052066   -0.000651582    0.004085547
     17        6          -0.002555454    0.000653976    0.000462628
     18        1           0.001835714   -0.007017471    0.006980009
     19        1           0.003820241    0.008761755    0.002524413
     20        1          -0.003024124   -0.001028455   -0.010003173
 -------------------------------------------------------------------
 Cartesian Forces:  Max     0.010003173 RMS     0.003802992
 Leave Link  716 at Mon Sep 14 19:12:09 2015, MaxMem=  402653184 cpu:       0.0
 (Enter /share/apps/g09/l103.exe)

 GradGradGradGradGradGradGradGradGradGradGradGradGradGradGradGradGradGrad
 Berny optimization.
 Internal  Forces:  Max     0.010108606 RMS     0.003070841
 Search for a local minimum.
 Step number   1 out of a maximum of  110
 All quantities printed in internal units (Hartrees-Bohrs-Radians)
 RMS Force = .30708D-02 SwitMx=.10000D-02 MixMth= 1
 Mixed Optimization -- RFO/linear search
 Second derivative matrix not updated -- first step.
     Eigenvalues ---    0.00291   0.00294   0.00320   0.00393   0.00416
     Eigenvalues ---    0.03391   0.03407   0.03626   0.03650   0.04795
     Eigenvalues ---    0.04828   0.04863   0.04894   0.05601   0.05663
     Eigenvalues ---    0.05775   0.05778   0.08119   0.08193   0.08479
     Eigenvalues ---    0.08543   0.12051   0.12096   0.12321   0.12363
     Eigenvalues ---    0.16000   0.16000   0.16000   0.16000   0.16000
     Eigenvalues ---    0.16000   0.21971   0.21972   0.21988   0.21992
     Eigenvalues ---    0.28887   0.28907   0.29086   0.29591   0.29750
     Eigenvalues ---    0.32063   0.32065   0.32069   0.32090   0.32093
     Eigenvalues ---    0.32099   0.32117   0.32136   0.32199   0.32202
     Eigenvalues ---    0.32211   0.32226   0.32228   0.322841000.00000
     Eigenvalues --- 1000.000001000.000001000.000001000.000001000.00000
     Eigenvalues --- 1000.000001000.000001000.000001000.000001000.00000
     Eigenvalues --- 1000.000001000.000001000.000001000.000001000.00000
     Eigenvalues --- 1000.000001000.000001000.000001000.000001000.00000
     Eigenvalues --- 1000.000001000.000001000.000001000.000001000.00000
     Eigenvalues --- 1000.000001000.000001000.000001000.000001000.00000
     Eigenvalues --- 1000.000001000.000001000.000001000.000001000.00000
     Eigenvalues --- 1000.000001000.000001000.000001000.000001000.00000
     Eigenvalues --- 1000.000001000.000001000.000001000.000001000.00000
 RFO step:  Lambda=-3.91447980D-03 EMin= 2.91263811D-03
 Linear search not attempted -- first point.
 Iteration  1 RMS(Cart)=  0.03223245 RMS(Int)=  0.00049613
 Iteration  2 RMS(Cart)=  0.00062426 RMS(Int)=  0.00007432
 Iteration  3 RMS(Cart)=  0.00000030 RMS(Int)=  0.00007432
 Variable       Old X    -DE/DX   Delta X   Delta X   Delta X     New X
                                 (Linear)    (Quad)   (Total)
    R1        2.10481  -0.00988   0.00000  -0.03032  -0.03032   2.07449
    R2        2.10475  -0.00992   0.00000  -0.03043  -0.03043   2.07433
    R3        2.10433  -0.00955   0.00000  -0.02927  -0.02927   2.07506
    R4        2.88464   0.00274   0.00000   0.00909   0.00909   2.89372
    R5        2.10673  -0.00371   0.00000  -0.01143  -0.01143   2.09530
    R6        2.10679  -0.00381   0.00000  -0.01173  -0.01173   2.09506
    R7        2.89824   0.00123   0.00000   0.00418   0.00418   2.90242
    R8        2.10729  -0.00459   0.00000  -0.01414  -0.01414   2.09314
    R9        2.10595  -0.00400   0.00000  -0.01229  -0.01229   2.09366
   R10        2.90240  -0.00199   0.00000  -0.00678  -0.00678   2.89562
   R11        2.10718  -0.00458   0.00000  -0.01412  -0.01412   2.09307
   R12        2.10725  -0.00318   0.00000  -0.00979  -0.00979   2.09746
   R13        2.90198  -0.00123   0.00000  -0.00420  -0.00420   2.89779
   R14        2.10662  -0.00271   0.00000  -0.00835  -0.00835   2.09827
   R15        2.10630  -0.00396   0.00000  -0.01218  -0.01218   2.09412
   R16        2.88787   0.00029   0.00000   0.00098   0.00098   2.88885
   R17        2.10327  -0.00972   0.00000  -0.02973  -0.02973   2.07353
   R18        2.10429  -0.00938   0.00000  -0.02877  -0.02877   2.07552
   R19        2.10459  -0.01011   0.00000  -0.03101  -0.03101   2.07359
    A1        1.90519  -0.00357   0.00000  -0.02461  -0.02470   1.88048
    A2        1.89636  -0.00319   0.00000  -0.01781  -0.01806   1.87830
    A3        1.92558   0.00317   0.00000   0.01874   0.01856   1.94414
    A4        1.89692  -0.00318   0.00000  -0.01818  -0.01840   1.87852
    A5        1.92705   0.00301   0.00000   0.01750   0.01733   1.94437
    A6        1.91223   0.00354   0.00000   0.02308   0.02283   1.93506
    A7        1.89472   0.00156   0.00000   0.01488   0.01487   1.90960
    A8        1.89480   0.00168   0.00000   0.01494   0.01494   1.90975
    A9        1.95770  -0.00212   0.00000  -0.00339  -0.00340   1.95430
   A10        1.89199  -0.00203   0.00000  -0.02930  -0.02935   1.86264
   A11        1.91040   0.00056   0.00000   0.00234   0.00230   1.91270
   A12        1.91301   0.00033   0.00000  -0.00040  -0.00043   1.91259
   A13        1.90268   0.00140   0.00000   0.01152   0.01152   1.91420
   A14        1.89759   0.00178   0.00000   0.01551   0.01550   1.91309
   A15        1.95404  -0.00258   0.00000  -0.00513  -0.00514   1.94890
   A16        1.89484  -0.00225   0.00000  -0.03142  -0.03142   1.86342
   A17        1.90758   0.00094   0.00000   0.00480   0.00479   1.91237
   A18        1.90622   0.00068   0.00000   0.00370   0.00367   1.90989
   A19        1.91039   0.00143   0.00000   0.00029   0.00025   1.91064
   A20        1.89729   0.00153   0.00000   0.01274   0.01283   1.91013
   A21        1.99026  -0.00496   0.00000  -0.01922  -0.01921   1.97105
   A22        1.88053  -0.00201   0.00000  -0.01943  -0.01943   1.86110
   A23        1.90731   0.00159   0.00000   0.00333   0.00324   1.91056
   A24        1.87478   0.00253   0.00000   0.02227   0.02232   1.89710
   A25        1.88498   0.00119   0.00000   0.01026   0.01031   1.89528
   A26        1.91359   0.00088   0.00000  -0.00293  -0.00294   1.91065
   A27        1.99434  -0.00393   0.00000  -0.01443  -0.01443   1.97990
   A28        1.87950  -0.00180   0.00000  -0.01916  -0.01917   1.86033
   A29        1.88326   0.00222   0.00000   0.02132   0.02134   1.90460
   A30        1.90463   0.00151   0.00000   0.00468   0.00460   1.90923
   A31        1.93180   0.00206   0.00000   0.01110   0.01099   1.94279
   A32        1.90961   0.00378   0.00000   0.02635   0.02609   1.93570
   A33        1.92814   0.00262   0.00000   0.01408   0.01395   1.94210
   A34        1.88913  -0.00252   0.00000  -0.01172  -0.01196   1.87717
   A35        1.90768  -0.00324   0.00000  -0.02598  -0.02597   1.88171
   A36        1.89671  -0.00290   0.00000  -0.01485  -0.01511   1.88160
    D1       -3.09728   0.00011   0.00000   0.00447   0.00443  -3.09285
    D2       -1.04391  -0.00052   0.00000  -0.01391  -0.01395  -1.05786
    D3        1.07266  -0.00031   0.00000  -0.00640  -0.00644   1.06622
    D4        1.07842   0.00054   0.00000   0.01158   0.01162   1.09004
    D5        3.13178  -0.00008   0.00000  -0.00679  -0.00676   3.12503
    D6       -1.03483   0.00012   0.00000   0.00072   0.00075  -1.03408
    D7       -1.01023   0.00036   0.00000   0.00860   0.00861  -1.00162
    D8        1.04314  -0.00026   0.00000  -0.00977  -0.00977   1.03337
    D9       -3.12347  -0.00006   0.00000  -0.00227  -0.00226  -3.12574
   D10        1.06410  -0.00047   0.00000  -0.01375  -0.01375   1.05035
   D11       -0.99872   0.00041   0.00000   0.00855   0.00856  -0.99016
   D12       -3.10633   0.00000   0.00000  -0.00322  -0.00322  -3.10955
   D13       -1.04009  -0.00145   0.00000  -0.03191  -0.03190  -1.07199
   D14       -3.10292  -0.00057   0.00000  -0.00960  -0.00958  -3.11250
   D15        1.07266  -0.00097   0.00000  -0.02137  -0.02136   1.05129
   D16       -3.11300   0.00049   0.00000   0.00264   0.00262  -3.11038
   D17        1.10736   0.00137   0.00000   0.02494   0.02493   1.13229
   D18       -1.00026   0.00097   0.00000   0.01317   0.01315  -0.98710
   D19        1.12005  -0.00009   0.00000  -0.01081  -0.01083   1.10922
   D20       -0.92979   0.00064   0.00000   0.00507   0.00506  -0.92472
   D21       -3.02073  -0.00045   0.00000  -0.01984  -0.01982  -3.04055
   D22       -3.05322   0.00064   0.00000   0.00362   0.00359  -3.04962
   D23        1.18013   0.00137   0.00000   0.01949   0.01948   1.19962
   D24       -0.91081   0.00028   0.00000  -0.00542  -0.00540  -0.91621
   D25       -0.98255  -0.00113   0.00000  -0.02946  -0.02948  -1.01202
   D26       -3.03238  -0.00039   0.00000  -0.01359  -0.01358  -3.04597
   D27        1.15986  -0.00149   0.00000  -0.03849  -0.03847   1.12139
   D28        3.04734  -0.00047   0.00000  -0.01786  -0.01788   3.02946
   D29        1.00399   0.00053   0.00000   0.00082   0.00082   1.00481
   D30       -1.14024   0.00069   0.00000   0.00727   0.00723  -1.13301
   D31       -1.09176  -0.00090   0.00000  -0.02850  -0.02851  -1.12027
   D32       -3.13511   0.00010   0.00000  -0.00983  -0.00981   3.13827
   D33        1.00384   0.00026   0.00000  -0.00337  -0.00340   1.00044
   D34        0.94376  -0.00106   0.00000  -0.03752  -0.03749   0.90627
   D35       -1.09959  -0.00006   0.00000  -0.01884  -0.01879  -1.11838
   D36        3.03936   0.00009   0.00000  -0.01239  -0.01239   3.02698
   D37        1.17059  -0.00090   0.00000  -0.02475  -0.02481   1.14577
   D38       -3.03227  -0.00037   0.00000  -0.01580  -0.01580  -3.04808
   D39       -0.94485   0.00005   0.00000  -0.00883  -0.00876  -0.95361
   D40       -3.01603  -0.00032   0.00000  -0.00581  -0.00589  -3.02192
   D41       -0.93571   0.00022   0.00000   0.00314   0.00312  -0.93258
   D42        1.15171   0.00063   0.00000   0.01011   0.01017   1.16188
   D43       -0.97850  -0.00042   0.00000  -0.01428  -0.01433  -0.99283
   D44        1.10183   0.00011   0.00000  -0.00533  -0.00532   1.09650
   D45       -3.09394   0.00053   0.00000   0.00164   0.00172  -3.09222
         Item               Value     Threshold  Converged?
 Maximum Force            0.010109     0.000450     NO 
 RMS     Force            0.003071     0.000300     NO 
 Maximum Displacement     0.152487     0.001800     NO 
 RMS     Displacement     0.032240     0.001200     NO 
 Predicted change in Energy=-2.011526D-03
 GradGradGradGradGradGradGradGradGradGradGradGradGradGradGradGradGradGrad

 Leave Link  103 at Mon Sep 14 19:12:09 2015, MaxMem=  402653184 cpu:       0.1
 (Enter /share/apps/g09/l202.exe)
                          Input orientation:                          
 ---------------------------------------------------------------------
 Center     Atomic      Atomic             Coordinates (Angstroms)
 Number     Number       Type             X           Y           Z
 ---------------------------------------------------------------------
      1          6           0       -0.000130    4.125246   -1.198810
      2          1           0       -0.866760    4.659906   -0.788698
      3          1           0       -0.165936    3.996025   -2.276179
      4          1           0        0.878978    4.771027   -1.072694
      5          6           0        0.207349    2.778671   -0.499850
      6          1           0        1.117579    2.290539   -0.903106
      7          1           0        0.388441    2.948251    0.580691
      8          6           0       -0.999648    1.845988   -0.679375
      9          1           0       -1.162188    1.649684   -1.757299
     10          1           0       -1.914593    2.345394   -0.303947
     11          6           0       -0.803598    0.518415    0.060250
     12          1           0       -0.736236    0.708940    1.149261
     13          1           0        0.163163    0.065563   -0.243456
     14          6           0       -1.926188   -0.489642   -0.213714
     15          1           0       -1.655774   -1.457589    0.258354
     16          1           0       -1.995928   -0.677713   -1.303570
     17          6           0       -3.289307   -0.039549    0.311917
     18          1           0       -3.647603    0.850895   -0.219802
     19          1           0       -4.040848   -0.829407    0.179195
     20          1           0       -3.243274    0.203656    1.380931
 ---------------------------------------------------------------------
                    Distance matrix (angstroms):
                    1          2          3          4          5
     1  C    0.000000
     2  H    1.097772   0.000000
     3  H    1.097686   1.773272   0.000000
     4  H    1.098075   1.772175   1.772245   0.000000
     5  C    1.531293   2.185450   2.185552   2.179156   0.000000
     6  H    2.168609   3.092668   2.537997   2.497702   1.108786
     7  H    2.168623   2.525969   3.093036   2.509347   1.108656
     8  C    2.542414   2.819175   2.804910   3.498541   1.535894
     9  H    2.791183   3.175989   2.601360   3.791811   2.175184
    10  H    2.762938   2.586485   3.109998   3.778718   2.174568
    11  C    3.903847   4.228079   4.237839   4.711617   2.538598
    12  H    4.210278   4.402597   4.781612   4.903729   2.809574
    13  H    4.173775   4.739834   4.437207   4.831297   2.725555
    14  C    5.096795   5.288747   5.241513   6.023409   3.913532
    15  H    6.002710   6.256405   6.195593   6.855094   4.689563
    16  H    5.202173   5.479990   5.112598   6.164994   4.176959
    17  C    5.517835   5.400460   5.721848   6.514092   4.563763
    18  H    4.998389   4.750294   5.122746   6.048537   4.319190
    19  H    6.540252   6.414376   6.657973   7.558888   5.614847
    20  H    5.705429   5.496660   6.101354   6.623754   4.698387
                    6          7          8          9         10
     6  H    0.000000
     7  H    1.779292   0.000000
     8  C    2.174933   2.174751   0.000000
     9  H    2.517475   3.091428   1.107644   0.000000
    10  H    3.091289   2.539682   1.107916   1.778302   0.000000
    11  C    2.785570   2.756070   1.532295   2.170677   2.169055
    12  H    3.185953   2.569570   2.169372   3.084563   2.485623
    13  H    2.509296   3.006636   2.170730   2.560804   3.085184
    14  C    4.179616   4.219917   2.555482   2.746464   2.836496
    15  H    4.805095   4.867663   3.496206   3.736526   3.853031
    16  H    4.320279   4.731096   2.784108   2.513516   3.185127
    17  C    5.130910   4.746053   3.127370   3.414644   2.820829
    18  H    5.024583   4.618370   2.865847   3.029727   2.289963
    19  H    6.124933   5.835281   4.140505   4.264104   3.851460
    20  H    5.346863   4.621963   3.460632   4.033659   3.031707
                   11         12         13         14         15
    11  C    0.000000
    12  H    1.107602   0.000000
    13  H    1.109928   1.778345   0.000000
    14  C    1.533442   2.170319   2.162065   0.000000
    15  H    2.161028   2.516567   2.424940   1.110357   0.000000
    16  H    2.170800   3.086423   2.517533   1.108160   1.778628
    17  C    2.559962   2.789184   3.498433   1.528713   2.163824
    18  H    2.877035   3.220332   3.890918   2.181822   3.086279
    19  H    3.508640   3.772002   4.318948   2.177522   2.467683
    20  H    2.792004   2.567921   3.776442   2.181346   2.557356
                   16         17         18         19         20
    16  H    0.000000
    17  C    2.165613   0.000000
    18  H    2.497844   1.097266   0.000000
    19  H    2.530475   1.098319   1.771230   0.000000
    20  H    3.088564   1.097296   1.773343   1.774123   0.000000
 Stoichiometry    C6H14
 Framework group  C1[X(C6H14)]
 Deg. of freedom    54
 Full point group                 C1      NOp   1
 Largest Abelian subgroup         C1      NOp   1
 Largest concise Abelian subgroup C1      NOp   1
                         Standard orientation:                         
 ---------------------------------------------------------------------
 Center     Atomic      Atomic             Coordinates (Angstroms)
 Number     Number       Type             X           Y           Z
 ---------------------------------------------------------------------
      1          6           0       -2.951019    0.546265    0.103662
      2          1           0       -2.815735    1.510725   -0.402912
      3          1           0       -2.998214    0.739151    1.183237
      4          1           0       -3.924392    0.142413   -0.204909
      5          6           0       -1.821758   -0.428855   -0.240964
      6          1           0       -2.016872   -1.405644    0.246089
      7          1           0       -1.814754   -0.613267   -1.334153
      8          6           0       -0.449647    0.101688    0.200403
      9          1           0       -0.444667    0.255962    1.297240
     10          1           0       -0.267296    1.091649   -0.262416
     11          6           0        0.679685   -0.858349   -0.188016
     12          1           0        0.733937   -0.937370   -1.291463
     13          1           0        0.447564   -1.874930    0.192277
     14          6           0        2.045160   -0.427983    0.361264
     15          1           0        2.783714   -1.226893    0.139516
     16          1           0        1.990040   -0.345562    1.464980
     17          6           0        2.546258    0.893266   -0.221971
     18          1           0        1.904875    1.731002    0.079391
     19          1           0        3.564512    1.113965    0.125531
     20          1           0        2.565213    0.862605   -1.318675
 ---------------------------------------------------------------------
 Rotational constants (GHZ):      8.5789444      1.3622327      1.2624993
 Leave Link  202 at Mon Sep 14 19:12:11 2015, MaxMem=  402653184 cpu:       0.0
 (Enter /share/apps/g09/l301.exe)
 Standard basis: VSTO-6G (5D, 7F)
 Ernie: Thresh=  0.10000D-02 Tol=  0.10000D-05 Strict=F.
  NNHCO=     0 NNPyr=     0 NCTC=     0               EPep=         0.000000000
    EC=       125.332216661  ECS=         3.215989098   EG=         0.308680471
   EHC=         0.000451556  EAt=       -31.187935768  AtH=         2.796400831
 EPDDG=         0.000000000  ECC=       128.857337786 EAtT=        33.984336599
 There are    38 symmetry adapted basis functions of A   symmetry.
 Integral buffers will be    131072 words long.
 Regular integral format.
 Two-electron integral symmetry is turned off.
    38 basis functions,   228 primitive gaussians,    38 cartesian basis functions
    19 alpha electrons       19 beta electrons
       nuclear repulsion energy       162.8416743848 Hartrees.
 IExCor=    0 DFT=F Ex=HF Corr=None ExCW=0 ScaHFX=  1.000000
 ScaDFX=  1.000000  1.000000  1.000000  1.000000 ScalE2=  1.000000  1.000000
 IRadAn=      0 IRanWt=     -1 IRanGd=            0 ICorTp=0
 Leave Link  301 at Mon Sep 14 19:12:12 2015, MaxMem=  402653184 cpu:       0.1
 (Enter /share/apps/g09/l302.exe)
 Do NDO integrals.
 NPDir=0 NMtPBC=     1 NCelOv=     1 NCel=       1 NClECP=     1 NCelD=      1
         NCelK=      1 NCelE2=     1 NClLst=     1 CellRange=     0.0.
 One-electron integrals computed using PRISM.
 NBasis=    38 RedAO= F  NBF=    38
 NBsUse=    38 1.00D-04 NBFU=    38
 Leave Link  302 at Mon Sep 14 19:12:13 2015, MaxMem=  402653184 cpu:       0.1
 (Enter /share/apps/g09/l303.exe)
 DipDrv:  MaxL=1.
 Leave Link  303 at Mon Sep 14 19:12:13 2015, MaxMem=  402653184 cpu:       0.0
 (Enter /share/apps/g09/l401.exe)
 Initial guess read from the read-write file.
 B after Tr=     0.000000    0.000000    0.000000
         Rot=    1.000000    0.000000    0.000000    0.000000 Ang=   0.00 deg.
 Guess basis will be translated and rotated to current coordinates.
 Initial guess orbital symmetries:
       Occupied  (A) (A) (A) (A) (A) (A) (A) (A) (A) (A) (A) (A)
                 (A) (A) (A) (A) (A) (A) (A)
       Virtual   (A) (A) (A) (A) (A) (A) (A) (A) (A) (A) (A) (A)
                 (A) (A) (A) (A) (A) (A) (A)
 The electronic state of the initial guess is 1-A.
 Leave Link  401 at Mon Sep 14 19:12:20 2015, MaxMem=  402653184 cpu:       0.2
 (Enter /share/apps/g09/l502.exe)
 Closed shell SCF:
 Requested convergence on RMS density matrix=1.00D-08 within 128 cycles.
 Requested convergence on MAX density matrix=1.00D-06.
 Requested convergence on             energy=1.00D-06.
 No special actions if energy rises.
 Using DIIS extrapolation, IDIIS=  1040.
 Overlap will be assumed to be unity.
 Two-electron integral symmetry not used.
 Keep J ints in memory in canonical form, NReq=884654.
 IEnd=       81865 IEndB=       81865 NGot=   402653184 MDV=   402586639
 LenX=   402586639 LenY=   402584754
 Symmetry not used in FoFDir.
 MinBra= 0 MaxBra= 1 Meth=40.
 IRaf=       0 NMat=   1 IRICut=       1 DoRegI=T DoRafI=F ISym2E= 0 JSym2E=0.

 Cycle   1  Pass 1  IDiag  1:
 E=-0.545170258209851E-01
 DIIS: error= 3.85D-03 at cycle   1 NSaved=   1.
 NSaved= 1 IEnMin= 1 EnMin=-0.545170258209851E-01 IErMin= 1 ErrMin= 3.85D-03
 ErrMax= 3.85D-03 EMaxC= 1.00D-01 BMatC= 3.45D-04 BMatP= 3.45D-04
 IDIUse=3 WtCom= 9.61D-01 WtEn= 3.85D-02
 Coeff-Com:  0.100D+01
 Coeff-En:   0.100D+01
 Coeff:      0.100D+01
 GapD=    2.000 DampG=2.000 DampE=1.000 DampFc=2.0000 IDamp=-1.
 RMSDP=9.05D-04 MaxDP=9.96D-03              OVMax= 0.00D+00

 Cycle   2  Pass 1  IDiag  3:
 E=-0.557786765214985E-01 Delta-E=       -0.001261650701 Rises=F Damp=F
 DIIS: error= 1.71D-03 at cycle   2 NSaved=   2.
 NSaved= 2 IEnMin= 2 EnMin=-0.557786765214985E-01 IErMin= 2 ErrMin= 1.71D-03
 ErrMax= 1.71D-03 EMaxC= 1.00D-01 BMatC= 5.89D-05 BMatP= 3.45D-04
 IDIUse=3 WtCom= 9.83D-01 WtEn= 1.71D-02
 Coeff-Com: -0.647D+00 0.165D+01
 Coeff-En:   0.000D+00 0.100D+01
 Coeff:     -0.636D+00 0.164D+01
 Gap=     0.558 Goal=   None    Shift=    0.000
 RMSDP=6.44D-04 MaxDP=7.28D-03 DE=-1.26D-03 OVMax= 0.00D+00

 Cycle   3  Pass 1  IDiag  3:
 E=-0.560646889837813E-01 Delta-E=       -0.000286012462 Rises=F Damp=F
 DIIS: error= 1.68D-04 at cycle   3 NSaved=   3.
 NSaved= 3 IEnMin= 3 EnMin=-0.560646889837813E-01 IErMin= 3 ErrMin= 1.68D-04
 ErrMax= 1.68D-04 EMaxC= 1.00D-01 BMatC= 8.48D-07 BMatP= 5.89D-05
 IDIUse=3 WtCom= 9.98D-01 WtEn= 1.68D-03
 Coeff-Com:  0.254D+00-0.713D+00 0.146D+01
 Coeff-En:   0.000D+00 0.000D+00 0.100D+01
 Coeff:      0.254D+00-0.711D+00 0.146D+01
 Gap=     0.558 Goal=   None    Shift=    0.000
 RMSDP=8.34D-05 MaxDP=8.28D-04 DE=-2.86D-04 OVMax= 0.00D+00

 Cycle   4  Pass 1  IDiag  3:
 E=-0.560689812560042E-01 Delta-E=       -0.000004292272 Rises=F Damp=F
 DIIS: error= 1.73D-05 at cycle   4 NSaved=   4.
 NSaved= 4 IEnMin= 4 EnMin=-0.560689812560042E-01 IErMin= 4 ErrMin= 1.73D-05
 ErrMax= 1.73D-05 EMaxC= 1.00D-01 BMatC= 1.89D-08 BMatP= 8.48D-07
 IDIUse=1 WtCom= 1.00D+00 WtEn= 0.00D+00
 Coeff-Com: -0.126D+00 0.354D+00-0.769D+00 0.154D+01
 Coeff:     -0.126D+00 0.354D+00-0.769D+00 0.154D+01
 Gap=     0.558 Goal=   None    Shift=    0.000
 RMSDP=1.24D-05 MaxDP=1.03D-04 DE=-4.29D-06 OVMax= 0.00D+00

 Cycle   5  Pass 1  IDiag  3:
 E=-0.560690964498178E-01 Delta-E=       -0.000000115194 Rises=F Damp=F
 DIIS: error= 6.38D-06 at cycle   5 NSaved=   5.
 NSaved= 5 IEnMin= 5 EnMin=-0.560690964498178E-01 IErMin= 5 ErrMin= 6.38D-06
 ErrMax= 6.38D-06 EMaxC= 1.00D-01 BMatC= 2.37D-09 BMatP= 1.89D-08
 IDIUse=1 WtCom= 1.00D+00 WtEn= 0.00D+00
 Coeff-Com:  0.851D-01-0.240D+00 0.529D+00-0.128D+01 0.191D+01
 Coeff:      0.851D-01-0.240D+00 0.529D+00-0.128D+01 0.191D+01
 Gap=     0.558 Goal=   None    Shift=    0.000
 RMSDP=5.98D-06 MaxDP=5.50D-05 DE=-1.15D-07 OVMax= 0.00D+00

 Cycle   6  Pass 1  IDiag  3:
 E=-0.560691148061210E-01 Delta-E=       -0.000000018356 Rises=F Damp=F
 DIIS: error= 1.66D-06 at cycle   6 NSaved=   6.
 NSaved= 6 IEnMin= 6 EnMin=-0.560691148061210E-01 IErMin= 6 ErrMin= 1.66D-06
 ErrMax= 1.66D-06 EMaxC= 1.00D-01 BMatC= 1.66D-10 BMatP= 2.37D-09
 IDIUse=1 WtCom= 1.00D+00 WtEn= 0.00D+00
 Coeff-Com: -0.408D-01 0.115D+00-0.254D+00 0.649D+00-0.118D+01 0.171D+01
 Coeff:     -0.408D-01 0.115D+00-0.254D+00 0.649D+00-0.118D+01 0.171D+01
 Gap=     0.558 Goal=   None    Shift=    0.000
 RMSDP=1.66D-06 MaxDP=1.58D-05 DE=-1.84D-08 OVMax= 0.00D+00

 Cycle   7  Pass 1  IDiag  3:
 E=-0.560691160675049E-01 Delta-E=       -0.000000001261 Rises=F Damp=F
 DIIS: error= 2.94D-07 at cycle   7 NSaved=   7.
 NSaved= 7 IEnMin= 7 EnMin=-0.560691160675049E-01 IErMin= 7 ErrMin= 2.94D-07
 ErrMax= 2.94D-07 EMaxC= 1.00D-01 BMatC= 6.75D-12 BMatP= 1.66D-10
 IDIUse=1 WtCom= 1.00D+00 WtEn= 0.00D+00
 Coeff-Com:  0.121D-01-0.340D-01 0.751D-01-0.196D+00 0.379D+00-0.709D+00
 Coeff-Com:  0.147D+01
 Coeff:      0.121D-01-0.340D-01 0.751D-01-0.196D+00 0.379D+00-0.709D+00
 Coeff:      0.147D+01
 Gap=     0.558 Goal=   None    Shift=    0.000
 RMSDP=2.87D-07 MaxDP=2.32D-06 DE=-1.26D-09 OVMax= 0.00D+00

 Cycle   8  Pass 1  IDiag  3:
 E=-0.560691161107911E-01 Delta-E=       -0.000000000043 Rises=F Damp=F
 DIIS: error= 5.52D-08 at cycle   8 NSaved=   8.
 NSaved= 8 IEnMin= 8 EnMin=-0.560691161107911E-01 IErMin= 8 ErrMin= 5.52D-08
 ErrMax= 5.52D-08 EMaxC= 1.00D-01 BMatC= 2.44D-13 BMatP= 6.75D-12
 IDIUse=1 WtCom= 1.00D+00 WtEn= 0.00D+00
 Coeff-Com: -0.207D-02 0.581D-02-0.128D-01 0.340D-01-0.689D-01 0.144D+00
 Coeff-Com: -0.450D+00 0.135D+01
 Coeff:     -0.207D-02 0.581D-02-0.128D-01 0.340D-01-0.689D-01 0.144D+00
 Coeff:     -0.450D+00 0.135D+01
 Gap=     0.558 Goal=   None    Shift=    0.000
 RMSDP=4.91D-08 MaxDP=4.06D-07 DE=-4.33D-11 OVMax= 0.00D+00

 Cycle   9  Pass 1  IDiag  3:
 E=-0.560691161124680E-01 Delta-E=       -0.000000000002 Rises=F Damp=F
 DIIS: error= 1.58D-08 at cycle   9 NSaved=   9.
 NSaved= 9 IEnMin= 9 EnMin=-0.560691161124680E-01 IErMin= 9 ErrMin= 1.58D-08
 ErrMax= 1.58D-08 EMaxC= 1.00D-01 BMatC= 1.57D-14 BMatP= 2.44D-13
 IDIUse=1 WtCom= 1.00D+00 WtEn= 0.00D+00
 Coeff-Com:  0.235D-03-0.656D-03 0.144D-02-0.412D-02 0.968D-02-0.257D-01
 Coeff-Com:  0.124D+00-0.607D+00 0.150D+01
 Coeff:      0.235D-03-0.656D-03 0.144D-02-0.412D-02 0.968D-02-0.257D-01
 Coeff:      0.124D+00-0.607D+00 0.150D+01
 Gap=     0.558 Goal=   None    Shift=    0.000
 RMSDP=1.21D-08 MaxDP=1.07D-07 DE=-1.68D-12 OVMax= 0.00D+00

 Cycle  10  Pass 1  IDiag  3:
 E=-0.560691161127238E-01 Delta-E=        0.000000000000 Rises=F Damp=F
 DIIS: error= 5.11D-09 at cycle  10 NSaved=  10.
 NSaved=10 IEnMin=10 EnMin=-0.560691161127238E-01 IErMin=10 ErrMin= 5.11D-09
 ErrMax= 5.11D-09 EMaxC= 1.00D-01 BMatC= 9.41D-16 BMatP= 1.57D-14
 IDIUse=1 WtCom= 1.00D+00 WtEn= 0.00D+00
 Coeff-Com: -0.407D-04 0.112D-03-0.242D-03 0.792D-03-0.221D-02 0.693D-02
 Coeff-Com: -0.416D-01 0.236D+00-0.735D+00 0.154D+01
 Coeff:     -0.407D-04 0.112D-03-0.242D-03 0.792D-03-0.221D-02 0.693D-02
 Coeff:     -0.416D-01 0.236D+00-0.735D+00 0.154D+01
 Gap=     0.558 Goal=   None    Shift=    0.000
 RMSDP=2.99D-09 MaxDP=3.24D-08 DE=-2.56D-13 OVMax= 0.00D+00

 Cycle  11  Pass 2  IDiag  1:
 RMSDP=2.99D-09 MaxDP=3.24D-08 DE=-2.56D-13 OVMax= 0.00D+00

 SCF Done:  E(RPM6) = -0.560691161127E-01 A.U. after   11 cycles
             Convg  =    0.2989D-08             -V/T =  0.9990
 KE=-5.608471794541D+01 PE=-2.467131853775D+02 EE= 1.399001598221D+02
 Leave Link  502 at Mon Sep 14 19:12:22 2015, MaxMem=  402653184 cpu:       0.3
 (Enter /share/apps/g09/l701.exe)
 Compute integral first derivatives.
 ... and contract with generalized density number  0.
 Leave Link  701 at Mon Sep 14 19:12:23 2015, MaxMem=  402653184 cpu:       0.1
 (Enter /share/apps/g09/l702.exe)
 L702 exits ... SP integral derivatives will be done elsewhere.
 Leave Link  702 at Mon Sep 14 19:12:23 2015, MaxMem=  402653184 cpu:       0.0
 (Enter /share/apps/g09/l703.exe)
 Compute integral first derivatives, UseDBF=F ICtDFT=           0.
 Integral derivatives from FoFDir, PRISM(SPDF).
 Calling FoFJK, ICntrl=      2127 FMM=F ISym2X=0 I1Cent= 0 IOpClX= 0 NMat=1 NMatS=1 NMatT=0.
 FoFCou: FMM=F IPFlag=           0 FMFlag=      100000 FMFlg1=         800
         NFxFlg=           0 DoJE=F BraDBF=F KetDBF=F FulRan=T
         Omega=  0.000000  0.000000  1.000000  0.000000  0.000000 ICntrl=    2127 IOpCl=  0
         NMat0=    1 NMatS0=    1 NMatT0=    0 NMatD0=    1 NMtDS0=    0 NMtDT0=    0
         I1Cent=           0 NGrid=           0.
 Symmetry not used in FoFCou.
 Leave Link  703 at Mon Sep 14 19:12:24 2015, MaxMem=  402653184 cpu:       0.0
 (Enter /share/apps/g09/l716.exe)
 Dipole        = 9.11265036D-04 2.11519892D-02-2.38617807D-03
 ***** Axes restored to original set *****
 -------------------------------------------------------------------
 Center     Atomic                   Forces (Hartrees/Bohr)
 Number     Number              X              Y              Z
 -------------------------------------------------------------------
      1        6           0.000329613   -0.001724770    0.000946876
      2        1           0.000977549   -0.000461641   -0.000847199
      3        1           0.000009447    0.000481599    0.001235682
      4        1          -0.001343876   -0.000591388   -0.000362337
      5        6          -0.000336851    0.001468364   -0.000827553
      6        1          -0.000275142    0.000512858    0.001165242
      7        1           0.000777891   -0.000371411   -0.000887737
      8        6           0.000090385    0.001223133   -0.000993952
      9        1          -0.000913845    0.000975313    0.000505418
     10        1           0.000005911   -0.000054733   -0.001451824
     11        6           0.001403187   -0.000148061    0.001126195
     12        1           0.000997282   -0.000394229   -0.000157109
     13        1          -0.000506555    0.000429972    0.001315378
     14        6          -0.001411231   -0.000680543   -0.000090909
     15        1          -0.000363901    0.000346090   -0.001317572
     16        1           0.000017448   -0.000928920    0.000375114
     17        6           0.000393662   -0.000977578   -0.000143011
     18        1           0.000014679   -0.000523915    0.000992140
     19        1           0.000753788    0.001351040    0.000444037
     20        1          -0.000619439    0.000068819   -0.001026879
 -------------------------------------------------------------------
 Cartesian Forces:  Max     0.001724770 RMS     0.000828891
 Leave Link  716 at Mon Sep 14 19:12:26 2015, MaxMem=  402653184 cpu:       0.1
 (Enter /share/apps/g09/l103.exe)

 GradGradGradGradGradGradGradGradGradGradGradGradGradGradGradGradGradGrad
 Berny optimization.
 Using GEDIIS/GDIIS optimizer.
 Internal  Forces:  Max     0.002459655 RMS     0.000652817
 Search for a local minimum.
 Step number   2 out of a maximum of  110
 All quantities printed in internal units (Hartrees-Bohrs-Radians)
 RMS Force = .65282D-03 SwitMx=.10000D-02 MixMth= 2
 Mixed Optimization -- En-DIIS/RFO-DIIS
 Update second derivatives using D2CorX and points    1    2
 DE= -2.26D-03 DEPred=-2.01D-03 R= 1.13D+00
 SS=  1.41D+00  RLast= 1.67D-01 DXNew= 5.0454D-01 4.9986D-01
 Trust test= 1.13D+00 RLast= 1.67D-01 DXMaxT set to 5.00D-01
 Use linear search instead of GDIIS.
     Eigenvalues ---    0.00291   0.00293   0.00320   0.00393   0.00416
     Eigenvalues ---    0.03447   0.03505   0.03579   0.03599   0.04469
     Eigenvalues ---    0.04792   0.04812   0.04858   0.05476   0.05486
     Eigenvalues ---    0.05536   0.05549   0.08162   0.08264   0.08349
     Eigenvalues ---    0.08489   0.12068   0.12122   0.12214   0.12295
     Eigenvalues ---    0.15382   0.16000   0.16000   0.16000   0.16000
     Eigenvalues ---    0.16048   0.20798   0.21894   0.21922   0.21989
     Eigenvalues ---    0.28114   0.28898   0.29093   0.29420   0.29598
     Eigenvalues ---    0.31771   0.32064   0.32072   0.32085   0.32092
     Eigenvalues ---    0.32097   0.32120   0.32139   0.32198   0.32201
     Eigenvalues ---    0.32210   0.32227   0.32261   0.336671000.00000
     Eigenvalues --- 1000.000001000.000001000.000001000.000001000.00000
     Eigenvalues --- 1000.000001000.000001000.000001000.000001000.00000
     Eigenvalues --- 1000.000001000.000001000.000001000.000001000.00000
     Eigenvalues --- 1000.000001000.000001000.000001000.000001000.00000
     Eigenvalues --- 1000.000001000.000001000.000001000.000001000.00000
     Eigenvalues --- 1000.000001000.000001000.000001000.000001000.00000
     Eigenvalues --- 1000.000001000.000001000.000001000.000001000.00000
     Eigenvalues --- 1000.000001000.000001000.000001000.000001000.00000
     Eigenvalues --- 1000.000001000.000001000.000001000.000001000.00000
 RFO step:  Lambda=-2.60273381D-04 EMin= 2.90790854D-03
 Quartic linear search produced a step of  0.17876.
 Iteration  1 RMS(Cart)=  0.03329377 RMS(Int)=  0.00050518
 Iteration  2 RMS(Cart)=  0.00065606 RMS(Int)=  0.00001707
 Iteration  3 RMS(Cart)=  0.00000020 RMS(Int)=  0.00001707
 Variable       Old X    -DE/DX   Delta X   Delta X   Delta X     New X
                                 (Linear)    (Quad)   (Total)
    R1        2.07449  -0.00131  -0.00542  -0.00108  -0.00650   2.06799
    R2        2.07433  -0.00127  -0.00544  -0.00091  -0.00635   2.06798
    R3        2.07506  -0.00147  -0.00523  -0.00176  -0.00699   2.06807
    R4        2.89372  -0.00246   0.00162  -0.01085  -0.00923   2.88450
    R5        2.09530  -0.00088  -0.00204  -0.00181  -0.00385   2.09145
    R6        2.09506  -0.00079  -0.00210  -0.00148  -0.00357   2.09148
    R7        2.90242  -0.00026   0.00075  -0.00156  -0.00081   2.90161
    R8        2.09314  -0.00053  -0.00253  -0.00021  -0.00274   2.09040
    R9        2.09366  -0.00052  -0.00220  -0.00040  -0.00260   2.09106
   R10        2.89562   0.00208  -0.00121   0.00932   0.00811   2.90372
   R11        2.09307  -0.00016  -0.00252   0.00114  -0.00138   2.09168
   R12        2.09746  -0.00098  -0.00175  -0.00238  -0.00413   2.09333
   R13        2.89779   0.00191  -0.00075   0.00830   0.00755   2.90533
   R14        2.09827  -0.00095  -0.00149  -0.00246  -0.00395   2.09432
   R15        2.09412  -0.00021  -0.00218   0.00072  -0.00146   2.09266
   R16        2.88885  -0.00042   0.00017  -0.00178  -0.00160   2.88725
   R17        2.07353  -0.00091  -0.00532   0.00033  -0.00498   2.06855
   R18        2.07552  -0.00154  -0.00514  -0.00210  -0.00724   2.06828
   R19        2.07359  -0.00101  -0.00554   0.00011  -0.00543   2.06816
    A1        1.88048  -0.00046  -0.00442  -0.00151  -0.00594   1.87454
    A2        1.87830  -0.00032  -0.00323   0.00063  -0.00265   1.87565
    A3        1.94414   0.00031   0.00332  -0.00032   0.00296   1.94710
    A4        1.87852  -0.00033  -0.00329   0.00052  -0.00282   1.87570
    A5        1.94437   0.00030   0.00310  -0.00033   0.00274   1.94711
    A6        1.93506   0.00043   0.00408   0.00100   0.00502   1.94008
    A7        1.90960   0.00044   0.00266   0.00068   0.00334   1.91294
    A8        1.90975   0.00045   0.00267   0.00089   0.00357   1.91331
    A9        1.95430  -0.00134  -0.00061  -0.00498  -0.00558   1.94872
[...]
 ! D17   D(7,5,8,10)            63.9606         -DE/DX =    0.0                 !
 ! D18   D(7,5,8,11)           -58.0494         -DE/DX =    0.0                 !
 ! D19   D(5,8,11,12)           58.0872         -DE/DX =    0.0                 !
 ! D20   D(5,8,11,13)          -57.6824         -DE/DX =    0.0                 !
 ! D21   D(5,8,11,14)         -179.3307         -DE/DX =    0.0                 !
 ! D22   D(9,8,11,12)         -179.7714         -DE/DX =    0.0                 !
 ! D23   D(9,8,11,13)           64.459          -DE/DX =    0.0                 !
 ! D24   D(9,8,11,14)          -57.1892         -DE/DX =    0.0                 !
 ! D25   D(10,8,11,12)         -63.9438         -DE/DX =    0.0                 !
 ! D26   D(10,8,11,13)        -179.7134         -DE/DX =    0.0                 !
 ! D27   D(10,8,11,14)          58.6383         -DE/DX =    0.0                 !
 ! D28   D(8,11,14,15)         164.8374         -DE/DX =    0.0                 !
 ! D29   D(8,11,14,16)          49.442          -DE/DX =    0.0                 !
 ! D30   D(8,11,14,17)         -73.371          -DE/DX =    0.0                 !
 ! D31   D(12,11,14,15)        -72.518          -DE/DX =    0.0                 !
 ! D32   D(12,11,14,16)        172.0866         -DE/DX =    0.0                 !
 ! D33   D(12,11,14,17)         49.2736         -DE/DX =    0.0                 !
 ! D34   D(13,11,14,15)         42.9455         -DE/DX =    0.0                 !
 ! D35   D(13,11,14,16)        -72.4499         -DE/DX =    0.0                 !
 ! D36   D(13,11,14,17)        164.7371         -DE/DX =    0.0                 !
 ! D37   D(11,14,17,18)         60.3221         -DE/DX =    0.0                 !
 ! D38   D(11,14,17,19)       -179.6516         -DE/DX =    0.0                 !
 ! D39   D(11,14,17,20)        -59.5284         -DE/DX =    0.0                 !
 ! D40   D(15,14,17,18)       -178.0539         -DE/DX =    0.0                 !
 ! D41   D(15,14,17,19)        -58.0276         -DE/DX =    0.0                 !
 ! D42   D(15,14,17,20)         62.0956         -DE/DX =    0.0                 !
 ! D43   D(16,14,17,18)        -62.567          -DE/DX =    0.0                 !
 ! D44   D(16,14,17,19)         57.4593         -DE/DX =    0.0                 !
 ! D45   D(16,14,17,20)        177.5825         -DE/DX =    0.0                 !
 --------------------------------------------------------------------------------
 GradGradGradGradGradGradGradGradGradGradGradGradGradGradGradGradGradGrad

 Largest change from initial coordinates is atom    6       0.183 Angstoms.
 Leave Link  103 at Mon Sep 14 19:14:11 2015, MaxMem=  402653184 cpu:       0.0
 (Enter /share/apps/g09/l202.exe)
                          Input orientation:                          
 ---------------------------------------------------------------------
 Center     Atomic      Atomic             Coordinates (Angstroms)
 Number     Number       Type             X           Y           Z
 ---------------------------------------------------------------------
      1          6           0        0.024722    4.115118   -1.226904
      2          1           0       -0.902532    4.633020   -0.956848
      3          1           0        0.002381    3.947918   -2.309728
      4          1           0        0.855315    4.798039   -1.017149
      5          6           0        0.180193    2.804174   -0.458969
      6          1           0        1.143212    2.326984   -0.726199
      7          1           0        0.237454    3.012318    0.627320
      8          6           0       -0.978123    1.837872   -0.744178
      9          1           0       -1.038231    1.632697   -1.829977
     10          1           0       -1.940458    2.315280   -0.476685
     11          6           0       -0.817818    0.522030    0.028574
     12          1           0       -0.761926    0.728048    1.114801
     13          1           0        0.147998    0.050099   -0.237639
     14          6           0       -1.957686   -0.467585   -0.254143
     15          1           0       -1.658543   -1.474701    0.098566
     16          1           0       -2.108284   -0.565617   -1.347127
     17          6           0       -3.271737   -0.067023    0.413114
     18          1           0       -3.618275    0.911866    0.062027
     19          1           0       -4.063258   -0.793276    0.199256
     20          1           0       -3.166903   -0.002960    1.501987
 ---------------------------------------------------------------------
                    Distance matrix (angstroms):
                    1          2          3          4          5
     1  C    0.000000
     2  H    1.095880   0.000000
     3  H    1.095884   1.765933   0.000000
     4  H    1.095566   1.766605   1.766625   0.000000
     5  C    1.527242   2.182855   2.182905   2.177809   0.000000
     6  H    2.167752   3.091290   2.537023   2.504726   1.107487
     7  H    2.167849   2.536894   3.091417   2.504961   1.107532
     8  C    2.534674   2.804246   2.804394   3.492649   1.535181
     9  H    2.766944   3.127732   2.583270   3.776983   2.176369
    10  H    2.768425   2.584524   3.130523   3.777902   2.176349
    11  C    3.898253   4.228294   4.228131   4.709264   2.538091
    12  H    4.192211   4.422703   4.762260   4.870883   2.770314
    13  H    4.185478   4.756474   4.416758   4.863216   2.763142
    14  C    5.086981   5.255789   5.250139   6.018468   3.913680
    15  H    5.986345   6.244174   6.161440   6.849202   4.690476
    16  H    5.145236   5.350887   5.074791   6.136825   4.169106
    17  C    5.571948   5.438781   5.852646   6.538122   4.573852
    18  H    5.019322   4.718088   5.286963   6.023285   4.275585
    19  H    6.545062   6.385253   6.730775   7.545515   5.601944
    20  H    5.881486   5.715378   6.339003   6.750842   4.788361
                    6          7          8          9         10
     6  H    0.000000
     7  H    1.766945   0.000000
     8  C    2.177066   2.176685   0.000000
     9  H    2.541467   3.093386   1.106648   0.000000
    10  H    3.093771   2.539290   1.107050   1.763897   0.000000
    11  C    2.770051   2.770131   1.534367   2.176322   2.175167
    12  H    3.094419   2.540529   2.175834   3.092968   2.537927
    13  H    2.532459   3.087215   2.172755   2.539153   3.090281
    14  C    4.200955   4.207772   2.552413   2.782056   2.791802
    15  H    4.794046   4.899768   3.485158   3.709446   3.843741
    16  H    4.396012   4.711958   2.723522   2.492136   3.014200
    17  C    5.149862   4.673612   3.198221   3.592917   2.870438
    18  H    5.029475   4.426974   2.911676   3.279619   2.252743
    19  H    6.140018   5.758638   4.163059   4.376519   3.824434
    20  H    5.382429   4.631046   3.636575   4.278855   3.285353
                   11         12         13         14         15
    11  C    0.000000
    12  H    1.107003   0.000000
    13  H    1.107424   1.765410   0.000000
    14  C    1.535763   2.175636   2.168450   0.000000
    15  H    2.167638   2.586264   2.387810   1.108230   0.000000
    16  H    2.177346   3.089877   2.588605   1.107656   1.765992
    17  C    2.552758   2.724639   3.483071   1.527224   2.163999
    18  H    2.827658   3.049730   3.875210   2.181835   3.088298
    19  H    3.506001   3.748526   4.317040   2.178320   2.501426
    20  H    2.822190   2.543266   3.744019   2.182218   2.531948
                   16         17         18         19         20
    16  H    0.000000
    17  C    2.168102   0.000000
    18  H    2.539438   1.096164   0.000000
    19  H    2.503008   1.095301   1.767583   0.000000
    20  H    3.091069   1.095783   1.764689   1.767813   0.000000
 Stoichiometry    C6H14
 Framework group  C1[X(C6H14)]
 Deg. of freedom    54
 Full point group                 C1      NOp   1
 Largest Abelian subgroup         C1      NOp   1
 Largest concise Abelian subgroup C1      NOp   1
                         Standard orientation:                         
 ---------------------------------------------------------------------
 Center     Atomic      Atomic             Coordinates (Angstroms)
 Number     Number       Type             X           Y           Z
 ---------------------------------------------------------------------
      1          6           0       -2.962525    0.522803    0.121774
      2          1           0       -2.806755    1.557807   -0.202966
      3          1           0       -3.069286    0.534872    1.212379
      4          1           0       -3.917212    0.187129   -0.297939
      5          6           0       -1.815611   -0.383496   -0.320584
      6          1           0       -2.023019   -1.426288   -0.010594
      7          1           0       -1.760061   -0.402573   -1.426557
      8          6           0       -0.471349    0.076441    0.260963
      9          1           0       -0.527607    0.099475    1.365940
     10          1           0       -0.264430    1.118762   -0.049378
     11          6           0        0.677974   -0.836942   -0.185212
     12          1           0        0.735967   -0.856035   -1.290531
     13          1           0        0.465048   -1.879272    0.122360
     14          6           0        2.031422   -0.405324    0.398270
     15          1           0        2.758500   -1.232818    0.276682
     16          1           0        1.937076   -0.247720    1.490590
     17          6           0        2.586391    0.856919   -0.258360
     18          1           0        1.908343    1.708373   -0.128550
     19          1           0        3.553485    1.136655    0.173103
     20          1           0        2.732142    0.719227   -1.335642
 ---------------------------------------------------------------------
 Rotational constants (GHZ):      8.7215462      1.3432892      1.2612904
 Leave Link  202 at Mon Sep 14 19:14:14 2015, MaxMem=  402653184 cpu:       0.0
 (Enter /share/apps/g09/l601.exe)
 Copying SCF densities to generalized density rwf, IOpCl= 0 IROHF=0.

 **********************************************************************

            Population analysis using the SCF density.

 **********************************************************************

 Orbital symmetries:
       Occupied  (A) (A) (A) (A) (A) (A) (A) (A) (A) (A) (A) (A)
                 (A) (A) (A) (A) (A) (A) (A)
       Virtual   (A) (A) (A) (A) (A) (A) (A) (A) (A) (A) (A) (A)
                 (A) (A) (A) (A) (A) (A) (A)
 The electronic state is 1-A.
 Alpha  occ. eigenvalues --   -1.05608  -1.00007  -0.90946  -0.82318  -0.74682
 Alpha  occ. eigenvalues --   -0.72445  -0.59226  -0.56599  -0.54559  -0.51884
 Alpha  occ. eigenvalues --   -0.51559  -0.48745  -0.46900  -0.45623  -0.44065
 Alpha  occ. eigenvalues --   -0.42742  -0.41696  -0.40823  -0.40363
 Alpha virt. eigenvalues --    0.15266   0.15857   0.16864   0.17537   0.18485
 Alpha virt. eigenvalues --    0.20531   0.21136   0.21651   0.22086   0.22232
 Alpha virt. eigenvalues --    0.22768   0.22979   0.23595   0.24092   0.24463
 Alpha virt. eigenvalues --    0.24687   0.24960   0.25613   0.25898
          Condensed to atoms (all electrons):
              1          2          3          4          5          6
     1  C    4.463670   0.000000   0.000000   0.000000   0.000000   0.000000
     2  H    0.000000   0.853719   0.000000   0.000000   0.000000   0.000000
     3  H    0.000000   0.000000   0.853709   0.000000   0.000000   0.000000
     4  H    0.000000   0.000000   0.000000   0.856434   0.000000   0.000000
     5  C    0.000000   0.000000   0.000000   0.000000   4.224032   0.000000
     6  H    0.000000   0.000000   0.000000   0.000000   0.000000   0.874713
     7  H    0.000000   0.000000   0.000000   0.000000   0.000000   0.000000
     8  C    0.000000   0.000000   0.000000   0.000000   0.000000   0.000000
     9  H    0.000000   0.000000   0.000000   0.000000   0.000000   0.000000
    10  H    0.000000   0.000000   0.000000   0.000000   0.000000   0.000000
    11  C    0.000000   0.000000   0.000000   0.000000   0.000000   0.000000
    12  H    0.000000   0.000000   0.000000   0.000000   0.000000   0.000000
    13  H    0.000000   0.000000   0.000000   0.000000   0.000000   0.000000
    14  C    0.000000   0.000000   0.000000   0.000000   0.000000   0.000000
    15  H    0.000000   0.000000   0.000000   0.000000   0.000000   0.000000
    16  H    0.000000   0.000000   0.000000   0.000000   0.000000   0.000000
    17  C    0.000000   0.000000   0.000000   0.000000   0.000000   0.000000
    18  H    0.000000   0.000000   0.000000   0.000000   0.000000   0.000000
    19  H    0.000000   0.000000   0.000000   0.000000   0.000000   0.000000
    20  H    0.000000   0.000000   0.000000   0.000000   0.000000   0.000000
              7          8          9         10         11         12
     1  C    0.000000   0.000000   0.000000   0.000000   0.000000   0.000000
     2  H    0.000000   0.000000   0.000000   0.000000   0.000000   0.000000
     3  H    0.000000   0.000000   0.000000   0.000000   0.000000   0.000000
     4  H    0.000000   0.000000   0.000000   0.000000   0.000000   0.000000
     5  C    0.000000   0.000000   0.000000   0.000000   0.000000   0.000000
     6  H    0.000000   0.000000   0.000000   0.000000   0.000000   0.000000
     7  H    0.874240   0.000000   0.000000   0.000000   0.000000   0.000000
     8  C    0.000000   4.259826   0.000000   0.000000   0.000000   0.000000
     9  H    0.000000   0.000000   0.869379   0.000000   0.000000   0.000000
    10  H    0.000000   0.000000   0.000000   0.866843   0.000000   0.000000
    11  C    0.000000   0.000000   0.000000   0.000000   4.266594   0.000000
    12  H    0.000000   0.000000   0.000000   0.000000   0.000000   0.867276
    13  H    0.000000   0.000000   0.000000   0.000000   0.000000   0.000000
    14  C    0.000000   0.000000   0.000000   0.000000   0.000000   0.000000
    15  H    0.000000   0.000000   0.000000   0.000000   0.000000   0.000000
    16  H    0.000000   0.000000   0.000000   0.000000   0.000000   0.000000
    17  C    0.000000   0.000000   0.000000   0.000000   0.000000   0.000000
    18  H    0.000000   0.000000   0.000000   0.000000   0.000000   0.000000
    19  H    0.000000   0.000000   0.000000   0.000000   0.000000   0.000000
    20  H    0.000000   0.000000   0.000000   0.000000   0.000000   0.000000
             13         14         15         16         17         18
     1  C    0.000000   0.000000   0.000000   0.000000   0.000000   0.000000
     2  H    0.000000   0.000000   0.000000   0.000000   0.000000   0.000000
     3  H    0.000000   0.000000   0.000000   0.000000   0.000000   0.000000
     4  H    0.000000   0.000000   0.000000   0.000000   0.000000   0.000000
     5  C    0.000000   0.000000   0.000000   0.000000   0.000000   0.000000
     6  H    0.000000   0.000000   0.000000   0.000000   0.000000   0.000000
     7  H    0.000000   0.000000   0.000000   0.000000   0.000000   0.000000
     8  C    0.000000   0.000000   0.000000   0.000000   0.000000   0.000000
     9  H    0.000000   0.000000   0.000000   0.000000   0.000000   0.000000
    10  H    0.000000   0.000000   0.000000   0.000000   0.000000   0.000000
    11  C    0.000000   0.000000   0.000000   0.000000   0.000000   0.000000
    12  H    0.000000   0.000000   0.000000   0.000000   0.000000   0.000000
    13  H    0.873045   0.000000   0.000000   0.000000   0.000000   0.000000
    14  C    0.000000   4.220347   0.000000   0.000000   0.000000   0.000000
    15  H    0.000000   0.000000   0.877549   0.000000   0.000000   0.000000
    16  H    0.000000   0.000000   0.000000   0.873455   0.000000   0.000000
    17  C    0.000000   0.000000   0.000000   0.000000   4.459665   0.000000
    18  H    0.000000   0.000000   0.000000   0.000000   0.000000   0.852740
    19  H    0.000000   0.000000   0.000000   0.000000   0.000000   0.000000
    20  H    0.000000   0.000000   0.000000   0.000000   0.000000   0.000000
             19         20
     1  C    0.000000   0.000000
     2  H    0.000000   0.000000
     3  H    0.000000   0.000000
     4  H    0.000000   0.000000
     5  C    0.000000   0.000000
     6  H    0.000000   0.000000
     7  H    0.000000   0.000000
     8  C    0.000000   0.000000
     9  H    0.000000   0.000000
    10  H    0.000000   0.000000
    11  C    0.000000   0.000000
    12  H    0.000000   0.000000
    13  H    0.000000   0.000000
    14  C    0.000000   0.000000
    15  H    0.000000   0.000000
    16  H    0.000000   0.000000
    17  C    0.000000   0.000000
    18  H    0.000000   0.000000
    19  H    0.858429   0.000000
    20  H    0.000000   0.854335
 Mulliken atomic charges:
              1
     1  C   -0.463670
     2  H    0.146281
     3  H    0.146291
     4  H    0.143566
     5  C   -0.224032
     6  H    0.125287
     7  H    0.125760
     8  C   -0.259826
     9  H    0.130621
    10  H    0.133157
    11  C   -0.266594
    12  H    0.132724
    13  H    0.126955
    14  C   -0.220347
    15  H    0.122451
    16  H    0.126545
    17  C   -0.459665
    18  H    0.147260
    19  H    0.141571
    20  H    0.145665
 Sum of Mulliken atomic charges =   0.00000
 Mulliken charges with hydrogens summed into heavy atoms:
              1
     1  C   -0.027532
     5  C    0.027015
     8  C    0.003952
    11  C   -0.006915
    14  C    0.028649
    17  C   -0.025169
 Sum of Mulliken charges with hydrogens summed into heavy atoms =   0.00000
 Charge=              0.0000 electrons
 Dipole moment (field-independent basis, Debye):
    X=             -0.0069    Y=              0.0669    Z=             -0.0067  Tot=              0.0676
 N-N= 1.627601699142D+02 E-N=-2.465279376680D+02  KE=-5.608929843435D+01
 Leave Link  601 at Mon Sep 14 19:14:14 2015, MaxMem=  402653184 cpu:       0.0
 (Enter /share/apps/g09/l9999.exe)
 1\1\GINC-COMPUTE-0-12\FOpt\RPM6\ZDO\C6H14\HETANJIN\14-Sep-2015\0\\#p P
 M6 opt\\using PM6 to do opt and freq calc.\\0,1\C,0.0247217915,4.11511
 77202,-1.2269040968\H,-0.9025324145,4.63302024,-0.9568477349\H,0.00238
 09948,3.9479175518,-2.3097279854\H,0.8553147685,4.7980391859,-1.017148
 6484\C,0.1801930797,2.8041740088,-0.4589690576\H,1.1432122385,2.326983
 7857,-0.7261990454\H,0.2374544998,3.0123177572,0.6273197661\C,-0.97812
 30745,1.8378718088,-0.744178059\H,-1.0382311533,1.632696736,-1.8299772
 019\H,-1.9404583516,2.3152798278,-0.4766854351\C,-0.8178180665,0.52203
 01903,0.0285744949\H,-0.7619256968,0.7280484774,1.1148012853\H,0.14799
 76899,0.05009872,-0.2376389029\C,-1.9576860947,-0.4675852208,-0.254143
 317\H,-1.6585432352,-1.4747010853,0.0985664333\H,-2.108284298,-0.56561
 73869,-1.3471267157\C,-3.2717370045,-0.0670232569,0.4131137588\H,-3.61
 82750003,0.9118661359,0.0620272134\H,-4.0632580842,-0.7932756628,0.199
 2559416\H,-3.1669025888,-0.0029595331,1.5019873069\\Version=EM64L-G09R
 evA.01\State=1-A\HF=-0.0563432\RMSD=6.278e-09\RMSF=2.794e-06\Dipole=-0
 .0202899,0.0172005,-0.000135\PG=C01 [X(C6H14)]\\@


 10 WHATSOEVER THY HAND FINDETH TO DO, DO IT WITH THY  
 MIGHT. FOR THERE IS NO WORK, NOR DEVICE, NOR KNOWLEDGE, NOR  
 WISDOM, IN THE GRAVE, WHITHER THOU GOEST.                    
 11 I RETURNED AND SAW UNDER THE SUN, THAT THE RACE IS NOT TO 
 THE SWIFT, NOR THE BATTLE TO THE STRONG, NEITHER YET BREAD TO
 THE WISE, NOR YET RICHES TO MEN OF UNDERSTANDING, NOR YET    
 FAVOR TO MEN OF SKILL. BUT TIME AND CHANCE HAPPEN TO THEM ALL.
 12 FOR MAN ALSO KNOWETH NOT HIS TIME. AS THE FISHES   
 THAT ARE TAKEN IN AN EVIL NET, AND AS THE BIRDS THAT ARE     
 CAUGHT IN THE SNARE. SO ARE THE SONS OF MEN SNARED IN AN EVIL
 TIME, WHEN IT FALLETH SUDDENLY UPON THEM.
                                         ECCLESIASTES 9
 Job cpu time:  0 days  0 hours  0 minutes 21.5 seconds.
 File lengths (MBytes):  RWF=      5 Int=      0 D2E=      0 Chk=      3 Scr=      1
 Normal termination of Gaussian 09 at Mon Sep 14 19:14:16 2015.
