 Entering Gaussian System, Link 0=/share/apps/g09/g09
 Input=C6H14_1_10_1_opt_B3L.gjf
 Output=C6H14_1_10_1_opt_B3L.log
 Initial command:
 /share/apps/g09/l1.exe /state/partition1/Gau-23237.inp -scrdir=/state/partition1/
 Entering Link 1 = /share/apps/g09/l1.exe PID=     23238.
  
 Copyright (c) 1988,1990,1992,1993,1995,1998,2003,2009, Gaussian, Inc.
                  All Rights Reserved.
  
 This is part of the Gaussian(R) 09 program.  It is based on
 the Gaussian(R) 03 system (copyright 2003, Gaussian, Inc.),
 the Gaussian(R) 98 system (copyright 1998, Gaussian, Inc.),
 the Gaussian(R) 94 system (copyright 1995, Gaussian, Inc.),
 the Gaussian 92(TM) system (copyright 1992, Gaussian, Inc.),
 the Gaussian 90(TM) system (copyright 1990, Gaussian, Inc.),
 the Gaussian 88(TM) system (copyright 1988, Gaussian, Inc.),
 the Gaussian 86(TM) system (copyright 1986, Carnegie Mellon
 University), and the Gaussian 82(TM) system (copyright 1983,
 Carnegie Mellon University). Gaussian is a federally registered
 trademark of Gaussian, Inc.
  
 This software contains proprietary and confidential information,
 including trade secrets, belonging to Gaussian, Inc.
  
 This software is provided under written license and may be
 used, copied, transmitted, or stored only in accord with that
 written license.
  
 The following legend is applicable only to US Government
 contracts under FAR:
  
                    RESTRICTED RIGHTS LEGEND
  
 Use, reproduction and disclosure by the US Government is
 subject to restrictions as set forth in subparagraphs (a)
 and (c) of the Commercial Computer Software - Restricted
 Rights clause in FAR 52.227-19.
  
 Gaussian, Inc.
 340 Quinnipiac St., Bldg. 40, Wallingford CT 06492
  
  
 ---------------------------------------------------------------
 Warning -- This program may not be used in any manner that
 competes with the business of Gaussian, Inc. or will provide
 assistance to any competitor of Gaussian, Inc.  The licensee
 of this program is prohibited from giving any competitor of
 Gaussian, Inc. access to this program.  By using this program,
 the user acknowledges that Gaussian, Inc. is engaged in the
 business of creating and licensing software in the field of
 computational chemistry and represents and warrants to the
 licensee that it is not a competitor of Gaussian, Inc. and that
 it will not use this program in any manner prohibited above.
 ---------------------------------------------------------------
  

 Cite this work as:
 Gaussian 09, Revision A.01,
 M. J. Frisch, G. W. Trucks, H. B. Schlegel, G. E. Scuseria, 
 M. A. Robb, J. R. Cheeseman, G. Scalmani, V. Barone, B. Mennucci, 
 G. A. Petersson, H. Nakatsuji, M. Caricato, X. Li, H. P. Hratchian, 
 A. F. Izmaylov, J. Bloino, G. Zheng, J. L. Sonnenberg, M. Hada, 
 M. Ehara, K. Toyota, R. Fukuda, J. Hasegawa, M. Ishida, T. Nakajima, 
 Y. Honda, O. Kitao, H. Nakai, T. Vreven, J. A. Montgomery, Jr., 
 J. E. Peralta, F. Ogliaro, M. Bearpark, J. J. Heyd, E. Brothers, 
 K. N. Kudin, V. N. Staroverov, R. Kobayashi, J. Normand, 
 K. Raghavachari, A. Rendell, J. C. Burant, S. S. Iyengar, J. Tomasi, 
 M. Cossi, N. Rega, J. M. Millam, M. Klene, J. E. Knox, J. B. Cross, 
 V. Bakken, C. Adamo, J. Jaramillo, R. Gomperts, R. E. Stratmann, 
 O. Yazyev, A. J. Austin, R. Cammi, C. Pomelli, J. W. Ochterski, 
 R. L. Martin, K. Morokuma, V. G. Zakrzewski, G. A. Voth, 
 P. Salvador, J. J. Dannenberg, S. Dapprich, A. D. Daniels, 
 O. Farkas, J. B. Foresman, J. V. Ortiz, J. Cioslowski, 
 and D. J. Fox, Gaussian, Inc., Wallingford CT, 2009.
 
 ******************************************
 Gaussian 09:  EM64L-G09RevA.01  8-May-2009
                18-Sep-2015 
 ******************************************
 %mem=3GB
 %nprocshared=2
 Will use up to    2 processors via shared memory.
 -----------------------------------------
 #p B3LYP/6-31G(d) opt=tight int=ultrafine
 -----------------------------------------
 1/7=10,14=-1,18=20,19=15,26=3,38=1/1,3;
 2/9=110,12=2,17=6,18=5,40=1/2;
 3/5=1,6=6,7=1,11=2,16=1,25=1,30=1,71=1,74=-5,75=-5/1,2,3;
 4//1;
 5/5=2,38=5/2;
 6/7=2,8=2,9=2,10=2,28=1/1;
 7//1,2,3,16;
 1/7=10,14=-1,18=20,19=15/3(2);
 2/9=110/2;
 99//99;
 2/9=110/2;
 3/5=1,6=6,7=1,11=2,16=1,25=1,30=1,71=1,74=-5,75=-5/1,2,3;
 4/5=5,16=3/1;
 5/5=2,38=5/2;
 7//1,2,3,16;
 1/7=10,14=-1,18=20,19=15/3(-5);
 2/9=110/2;
 6/7=2,8=2,9=2,10=2,19=2,28=1/1;
 99/9=1/99;
 Leave Link    1 at Fri Sep 18 13:22:16 2015, MaxMem=  402653184 cpu:       0.1
 (Enter /share/apps/g09/l101.exe)
 ---------------------------------------------
 using B3LYP/6-31G(d) to do opt and freq calc.
 ---------------------------------------------
 Symbolic Z-matrix:
 Charge =  0 Multiplicity = 1
 C                    -2.74986  -0.47339  -0.0805 
 H                    -2.35949  -1.40875   0.33661 
 H                    -2.87645  -0.62582  -1.15819 
 H                    -3.74403  -0.31022   0.3493 
 C                    -1.81979   0.70184   0.21383 
 H                    -2.26552   1.63278  -0.18961 
 H                    -1.74635   0.85514   1.3083 
 C                    -0.41672   0.5182   -0.3827 
 H                     0.11172   1.49161  -0.37945 
 H                    -0.49616   0.2244   -1.44682 
 C                     0.41672  -0.5182    0.3827 
 H                    -0.11172  -1.49161   0.37945 
 H                     0.49616  -0.2244    1.44682 
 C                     1.81979  -0.70184  -0.21383 
 H                     1.74635  -0.85514  -1.3083 
 H                     2.26552  -1.63278   0.18961 
 C                     2.74986   0.47339   0.0805 
 H                     2.87646   0.62582   1.15819 
 H                     3.74403   0.31022  -0.3493 
 H                     2.35949   1.40875  -0.33661 
 
 NAtoms=     20 NQM=     20 NQMF=      0 NMic=      0 NMicF=      0 NTot=     20.
                    Isotopes and Nuclear Properties:
 (Nuclear quadrupole moments (NQMom) in fm**2, nuclear magnetic moments (NMagM)
  in nuclear magnetons)

  Atom         1           2           3           4           5           6           7           8           9          10
 IAtWgt=          12           1           1           1          12           1           1          12           1           1
 AtmWgt=  12.0000000   1.0078250   1.0078250   1.0078250  12.0000000   1.0078250   1.0078250  12.0000000   1.0078250   1.0078250
 NucSpn=           0           1           1           1           0           1           1           0           1           1
 AtZEff=   0.0000000   0.0000000   0.0000000   0.0000000   0.0000000   0.0000000   0.0000000   0.0000000   0.0000000   0.0000000
 NQMom=    0.0000000   0.0000000   0.0000000   0.0000000   0.0000000   0.0000000   0.0000000   0.0000000   0.0000000   0.0000000
 NMagM=    0.0000000   2.7928460   2.7928460   2.7928460   0.0000000   2.7928460   2.7928460   0.0000000   2.7928460   2.7928460

  Atom        11          12          13          14          15          16          17          18          19          20
 IAtWgt=          12           1           1          12           1           1          12           1           1           1
 AtmWgt=  12.0000000   1.0078250   1.0078250  12.0000000   1.0078250   1.0078250  12.0000000   1.0078250   1.0078250   1.0078250
 NucSpn=           0           1           1           0           1           1           0           1           1           1
 AtZEff=   0.0000000   0.0000000   0.0000000   0.0000000   0.0000000   0.0000000   0.0000000   0.0000000   0.0000000   0.0000000
 NQMom=    0.0000000   0.0000000   0.0000000   0.0000000   0.0000000   0.0000000   0.0000000   0.0000000   0.0000000   0.0000000
 NMagM=    0.0000000   2.7928460   2.7928460   0.0000000   2.7928460   2.7928460   0.0000000   2.7928460   2.7928460   2.7928460
 Leave Link  101 at Fri Sep 18 13:22:16 2015, MaxMem=  402653184 cpu:       0.2
 (Enter /share/apps/g09/l103.exe)

 GradGradGradGradGradGradGradGradGradGradGradGradGradGradGradGradGradGrad
 Berny optimization.
 Initialization pass.
                           ----------------------------
                           !    Initial Parameters    !
                           ! (Angstroms and Degrees)  !
 --------------------------                            --------------------------
 ! Name  Definition              Value          Derivative Info.                !
 --------------------------------------------------------------------------------
 ! R1    R(1,2)                  1.096          estimate D2E/DX2                !
 ! R2    R(1,3)                  1.0958         estimate D2E/DX2                !
 ! R3    R(1,4)                  1.0953         estimate D2E/DX2                !
 ! R4    R(1,5)                  1.5274         estimate D2E/DX2                !
 ! R5    R(5,6)                  1.1082         estimate D2E/DX2                !
 ! R6    R(5,7)                  1.1076         estimate D2E/DX2                !
 ! R7    R(5,8)                  1.5356         estimate D2E/DX2                !
 ! R8    R(8,9)                  1.1076         estimate D2E/DX2                !
 ! R9    R(8,10)                 1.1068         estimate D2E/DX2                !
 ! R10   R(8,11)                 1.5345         estimate D2E/DX2                !
 ! R11   R(11,12)                1.1076         estimate D2E/DX2                !
 ! R12   R(11,13)                1.1068         estimate D2E/DX2                !
 ! R13   R(11,14)                1.5356         estimate D2E/DX2                !
 ! R14   R(14,15)                1.1076         estimate D2E/DX2                !
 ! R15   R(14,16)                1.1082         estimate D2E/DX2                !
 ! R16   R(14,17)                1.5274         estimate D2E/DX2                !
 ! R17   R(17,18)                1.0958         estimate D2E/DX2                !
 ! R18   R(17,19)                1.0953         estimate D2E/DX2                !
 ! R19   R(17,20)                1.096          estimate D2E/DX2                !
 ! A1    A(2,1,3)              107.2607         estimate D2E/DX2                !
 ! A2    A(2,1,4)              107.5226         estimate D2E/DX2                !
 ! A3    A(2,1,5)              111.4962         estimate D2E/DX2                !
 ! A4    A(3,1,4)              107.5652         estimate D2E/DX2                !
 ! A5    A(3,1,5)              111.5252         estimate D2E/DX2                !
 ! A6    A(4,1,5)              111.2517         estimate D2E/DX2                !
 ! A7    A(1,5,6)              109.348          estimate D2E/DX2                !
 ! A8    A(1,5,7)              109.712          estimate D2E/DX2                !
 ! A9    A(1,5,8)              112.9235         estimate D2E/DX2                !
 ! A10   A(6,5,7)              105.6725         estimate D2E/DX2                !
 ! A11   A(6,5,8)              109.0586         estimate D2E/DX2                !
 ! A12   A(7,5,8)              109.866          estimate D2E/DX2                !
 ! A13   A(5,8,9)              109.2491         estimate D2E/DX2                !
 ! A14   A(5,8,10)             109.8551         estimate D2E/DX2                !
 ! A15   A(5,8,11)             112.5365         estimate D2E/DX2                !
 ! A16   A(9,8,10)             105.6851         estimate D2E/DX2                !
 ! A17   A(9,8,11)             109.4501         estimate D2E/DX2                !
 ! A18   A(10,8,11)            109.8325         estimate D2E/DX2                !
 ! A19   A(8,11,12)            109.4501         estimate D2E/DX2                !
 ! A20   A(8,11,13)            109.8325         estimate D2E/DX2                !
 ! A21   A(8,11,14)            112.5365         estimate D2E/DX2                !
 ! A22   A(12,11,13)           105.685          estimate D2E/DX2                !
 ! A23   A(12,11,14)           109.2491         estimate D2E/DX2                !
 ! A24   A(13,11,14)           109.8552         estimate D2E/DX2                !
 ! A25   A(11,14,15)           109.8659         estimate D2E/DX2                !
 ! A26   A(11,14,16)           109.0588         estimate D2E/DX2                !
 ! A27   A(11,14,17)           112.9235         estimate D2E/DX2                !
 ! A28   A(15,14,16)           105.6725         estimate D2E/DX2                !
 ! A29   A(15,14,17)           109.7119         estimate D2E/DX2                !
 ! A30   A(16,14,17)           109.3479         estimate D2E/DX2                !
 ! A31   A(14,17,18)           111.5253         estimate D2E/DX2                !
 ! A32   A(14,17,19)           111.2518         estimate D2E/DX2                !
 ! A33   A(14,17,20)           111.4962         estimate D2E/DX2                !
 ! A34   A(18,17,19)           107.5651         estimate D2E/DX2                !
 ! A35   A(18,17,20)           107.2607         estimate D2E/DX2                !
 ! A36   A(19,17,20)           107.5226         estimate D2E/DX2                !
 ! D1    D(2,1,5,6)           -177.9122         estimate D2E/DX2                !
 ! D2    D(2,1,5,7)            -62.4486         estimate D2E/DX2                !
 ! D3    D(2,1,5,8)             60.4699         estimate D2E/DX2                !
 ! D4    D(3,1,5,6)             62.2104         estimate D2E/DX2                !
 ! D5    D(3,1,5,7)            177.674          estimate D2E/DX2                !
 ! D6    D(3,1,5,8)            -59.4075         estimate D2E/DX2                !
 ! D7    D(4,1,5,6)            -57.8878         estimate D2E/DX2                !
 ! D8    D(4,1,5,7)             57.5758         estimate D2E/DX2                !
 ! D9    D(4,1,5,8)           -179.5057         estimate D2E/DX2                !
 ! D10   D(1,5,8,9)            164.7483         estimate D2E/DX2                !
 ! D11   D(1,5,8,10)            49.2454         estimate D2E/DX2                !
 ! D12   D(1,5,8,11)           -73.4644         estimate D2E/DX2                !
 ! D13   D(6,5,8,9)             42.9673         estimate D2E/DX2                !
 ! D14   D(6,5,8,10)           -72.5356         estimate D2E/DX2                !
 ! D15   D(6,5,8,11)           164.7546         estimate D2E/DX2                !
 ! D16   D(7,5,8,9)            -72.4189         estimate D2E/DX2                !
 ! D17   D(7,5,8,10)           172.0782         estimate D2E/DX2                !
 ! D18   D(7,5,8,11)            49.3684         estimate D2E/DX2                !
 ! D19   D(5,8,11,12)           58.3268         estimate D2E/DX2                !
 ! D20   D(5,8,11,13)          -57.2775         estimate D2E/DX2                !
 ! D21   D(5,8,11,14)          179.9999         estimate D2E/DX2                !
 ! D22   D(9,8,11,12)          180.0            estimate D2E/DX2                !
 ! D23   D(9,8,11,13)           64.3957         estimate D2E/DX2                !
 ! D24   D(9,8,11,14)          -58.3269         estimate D2E/DX2                !
 ! D25   D(10,8,11,12)         -64.3957         estimate D2E/DX2                !
 ! D26   D(10,8,11,13)         180.0            estimate D2E/DX2                !
 ! D27   D(10,8,11,14)          57.2774         estimate D2E/DX2                !
 ! D28   D(8,11,14,15)         -49.3684         estimate D2E/DX2                !
 ! D29   D(8,11,14,16)        -164.7546         estimate D2E/DX2                !
 ! D30   D(8,11,14,17)          73.4643         estimate D2E/DX2                !
 ! D31   D(12,11,14,15)         72.4189         estimate D2E/DX2                !
 ! D32   D(12,11,14,16)        -42.9673         estimate D2E/DX2                !
 ! D33   D(12,11,14,17)       -164.7484         estimate D2E/DX2                !
 ! D34   D(13,11,14,15)       -172.0782         estimate D2E/DX2                !
 ! D35   D(13,11,14,16)         72.5355         estimate D2E/DX2                !
 ! D36   D(13,11,14,17)        -49.2455         estimate D2E/DX2                !
 ! D37   D(11,14,17,18)         59.4077         estimate D2E/DX2                !
 ! D38   D(11,14,17,19)        179.5057         estimate D2E/DX2                !
 ! D39   D(11,14,17,20)        -60.4698         estimate D2E/DX2                !
 ! D40   D(15,14,17,18)       -177.6739         estimate D2E/DX2                !
 ! D41   D(15,14,17,19)        -57.5758         estimate D2E/DX2                !
 ! D42   D(15,14,17,20)         62.4486         estimate D2E/DX2                !
 ! D43   D(16,14,17,18)        -62.2103         estimate D2E/DX2                !
 ! D44   D(16,14,17,19)         57.8877         estimate D2E/DX2                !
 ! D45   D(16,14,17,20)        177.9122         estimate D2E/DX2                !
 --------------------------------------------------------------------------------
 Trust Radius=3.00D-01 FncErr=1.00D-07 GrdErr=1.00D-06
 Number of steps in this run= 110 maximum allowed number of steps= 120.
 GradGradGradGradGradGradGradGradGradGradGradGradGradGradGradGradGradGrad

 Leave Link  103 at Fri Sep 18 13:22:16 2015, MaxMem=  402653184 cpu:       0.0
 (Enter /share/apps/g09/l202.exe)
                          Input orientation:                          
 ---------------------------------------------------------------------
 Center     Atomic      Atomic             Coordinates (Angstroms)
 Number     Number       Type             X           Y           Z
 ---------------------------------------------------------------------
      1          6           0       -2.749863   -0.473388   -0.080497
      2          1           0       -2.359493   -1.408750    0.336609
      3          1           0       -2.876452   -0.625817   -1.158194
      4          1           0       -3.744027   -0.310217    0.349297
      5          6           0       -1.819790    0.701841    0.213828
      6          1           0       -2.265517    1.632780   -0.189608
      7          1           0       -1.746349    0.855138    1.308304
      8          6           0       -0.416719    0.518197   -0.382695
      9          1           0        0.111720    1.491610   -0.379448
     10          1           0       -0.496160    0.224403   -1.446815
     11          6           0        0.416719   -0.518196    0.382696
     12          1           0       -0.111720   -1.491609    0.379450
     13          1           0        0.496160   -0.224402    1.446816
     14          6           0        1.819789   -0.701842   -0.213827
     15          1           0        1.746347   -0.855139   -1.308304
     16          1           0        2.265517   -1.632780    0.189608
     17          6           0        2.749863    0.473387    0.080496
     18          1           0        2.876455    0.625816    1.158192
     19          1           0        3.744027    0.310216   -0.349299
     20          1           0        2.359493    1.408749   -0.336609
 ---------------------------------------------------------------------
                    Distance matrix (angstroms):
                    1          2          3          4          5
     1  C    0.000000
     2  H    1.096024   0.000000
     3  H    1.095760   1.764842   0.000000
     4  H    1.095313   1.767447   1.767716   0.000000
     5  C    1.527359   2.181960   2.182122   2.178371   0.000000
     6  H    2.163895   3.088145   2.532323   2.500330   1.108188
     7  H    2.168131   2.538765   3.090950   2.503690   1.107597
     8  C    2.553062   2.829292   2.821428   3.506146   1.535634
     9  H    3.484142   3.877076   3.744211   4.317920   2.169434
    10  H    2.726337   3.052835   2.544006   3.749730   2.176621
    11  C    3.200593   2.915916   3.637430   4.166075   2.553229
    12  H    2.864982   2.249708   3.279891   3.819719   2.784988
    13  H    3.596018   3.284813   4.280388   4.380765   2.782411
    14  C    4.577301   4.274236   4.790855   5.605937   3.924252
    15  H    4.676446   4.457594   4.630917   5.760971   4.178326
    16  H    5.154724   4.632766   5.410212   6.155428   4.705399
    17  C    5.582946   5.451014   5.864983   6.546518   4.577302
    18  H    5.864985   5.677113   6.326782   6.735076   4.790858
    19  H    6.546518   6.377952   6.735073   7.546120   5.605938
    20  H    5.451014   5.537179   5.677110   6.377952   4.274237
                    6          7          8          9         10
     6  H    0.000000
     7  H    1.765787   0.000000
     8  C    2.167402   2.177366   0.000000
     9  H    2.388980   2.589599   1.107606   0.000000
    10  H    2.587416   3.090547   1.106787   1.764824   0.000000
    11  C    3.485487   2.724272   1.534455   2.170992   2.175296
    12  H    3.837248   3.006992   2.170993   3.086332   2.535298
    13  H    3.708621   2.492677   2.175296   2.535297   3.091800
    14  C    4.705398   4.178326   2.553229   2.784989   2.782411
    15  H    4.851420   4.687282   2.724272   3.006993   2.492676
    16  H    5.598031   4.851421   3.485487   3.837249   3.708621
    17  C    5.154725   4.676448   3.200593   2.864983   3.596017
    18  H    5.410214   4.630922   3.637432   3.279893   4.280389
    19  H    6.155428   5.760974   4.166075   3.819719   4.380764
    20  H    4.632766   4.457596   2.915915   2.249708   3.284812
                   11         12         13         14         15
    11  C    0.000000
    12  H    1.107606   0.000000
    13  H    1.106787   1.764823   0.000000
    14  C    1.535634   2.169432   2.176621   0.000000
    15  H    2.177366   2.589599   3.090547   1.107598   0.000000
    16  H    2.167403   2.388980   2.587417   1.108187   1.765787
    17  C    2.553061   3.484141   2.726338   1.527359   2.168131
    18  H    2.821428   3.744211   2.544008   2.182122   3.090950
    19  H    3.506146   4.317920   3.749731   2.178372   2.503691
    20  H    2.829291   3.877075   3.052834   2.181960   2.538765
                   16         17         18         19         20
    16  H    0.000000
    17  C    2.163894   0.000000
    18  H    2.532322   1.095759   0.000000
    19  H    2.500329   1.095313   1.767714   0.000000
    20  H    3.088144   1.096023   1.764841   1.767447   0.000000
 Stoichiometry    C6H14
 Framework group  C1[X(C6H14)]
 Deg. of freedom    54
 Full point group                 C1      NOp   1
 Largest Abelian subgroup         C1      NOp   1
 Largest concise Abelian subgroup C1      NOp   1
                         Standard orientation:                         
 ---------------------------------------------------------------------
 Center     Atomic      Atomic             Coordinates (Angstroms)
 Number     Number       Type             X           Y           Z
 ---------------------------------------------------------------------
      1          6           0        2.749863   -0.473388    0.080497
      2          1           0        2.359493   -1.408750   -0.336609
      3          1           0        2.876452   -0.625817    1.158194
      4          1           0        3.744027   -0.310217   -0.349297
      5          6           0        1.819790    0.701841   -0.213828
      6          1           0        2.265517    1.632780    0.189608
      7          1           0        1.746349    0.855138   -1.308304
      8          6           0        0.416719    0.518197    0.382695
      9          1           0       -0.111720    1.491610    0.379448
     10          1           0        0.496160    0.224403    1.446815
     11          6           0       -0.416719   -0.518196   -0.382696
     12          1           0        0.111720   -1.491609   -0.379450
     13          1           0       -0.496160   -0.224402   -1.446816
     14          6           0       -1.819789   -0.701842    0.213827
     15          1           0       -1.746347   -0.855139    1.308304
     16          1           0       -2.265517   -1.632780   -0.189608
     17          6           0       -2.749863    0.473387   -0.080496
     18          1           0       -2.876455    0.625816   -1.158192
     19          1           0       -3.744027    0.310216    0.349299
     20          1           0       -2.359493    1.408749    0.336609
 ---------------------------------------------------------------------
 Rotational constants (GHZ):      9.0209455      1.4264496      1.3357107
 Leave Link  202 at Fri Sep 18 13:22:16 2015, MaxMem=  402653184 cpu:       0.0
 (Enter /share/apps/g09/l301.exe)
 Standard basis: 6-31G(d) (6D, 7F)
 Ernie: Thresh=  0.10000D-02 Tol=  0.10000D-05 Strict=F.
 There are   118 symmetry adapted basis functions of A   symmetry.
 Integral buffers will be    131072 words long.
 Raffenetti 2 integral format.
 Two-electron integral symmetry is turned on.
   118 basis functions,   224 primitive gaussians,   118 cartesian basis functions
    25 alpha electrons       25 beta electrons
       nuclear repulsion energy       249.4113443487 Hartrees.
 IExCor=  402 DFT=T Ex+Corr=B3LYP ExCW=0 ScaHFX=  0.200000
 ScaDFX=  0.800000  0.720000  1.000000  0.810000 ScalE2=  1.000000  1.000000
 IRadAn=      5 IRanWt=     -1 IRanGd=            0 ICorTp=0
 NAtoms=   20 NActive=   20 NUniq=   20 SFac= 7.50D-01 NAtFMM=   80 NAOKFM=F Big=F
 Leave Link  301 at Fri Sep 18 13:22:16 2015, MaxMem=  402653184 cpu:       0.1
 (Enter /share/apps/g09/l302.exe)
 NPDir=0 NMtPBC=     1 NCelOv=     1 NCel=       1 NClECP=     1 NCelD=      1
         NCelK=      1 NCelE2=     1 NClLst=     1 CellRange=     0.0.
 One-electron integrals computed using PRISM.
 NBasis=   118 RedAO= T  NBF=   118
 NBsUse=   118 1.00D-06 NBFU=   118
 Precomputing XC quadrature grid using
 IXCGrd= 2 IRadAn=           5 IRanWt=          -1 IRanGd=           0 AccXCQ= 1.00D-10.
 NRdTot=    1652 NPtTot=      442444 NUsed=      454281 NTot=      454313
 NSgBfM=   118   118   118   118   118 NAtAll=    20    20.
 Leave Link  302 at Fri Sep 18 13:22:17 2015, MaxMem=  402653184 cpu:       1.2
 (Enter /share/apps/g09/l303.exe)
 DipDrv:  MaxL=1.
 Leave Link  303 at Fri Sep 18 13:22:17 2015, MaxMem=  402653184 cpu:       0.1
 (Enter /share/apps/g09/l401.exe)
 Harris functional with IExCor=  402 diagonalized for initial guess.
 ExpMin= 1.61D-01 ExpMax= 3.05D+03 ExpMxC= 4.57D+02 IAcc=3 IRadAn=         5 AccDes= 0.00D+00
 HarFok:  IExCor=  402 AccDes= 0.00D+00 IRadAn=         5 IDoV= 1
 ScaDFX=  1.000000  1.000000  1.000000  1.000000
 FoFCou: FMM=F IPFlag=           0 FMFlag=      100000 FMFlg1=           0
         NFxFlg=           0 DoJE=T BraDBF=F KetDBF=T FulRan=T
         Omega=  0.000000  0.000000  1.000000  0.000000  0.000000 ICntrl=     500 IOpCl=  0
         NMat0=    1 NMatS0=    1 NMatT0=    0 NMatD0=    1 NMtDS0=    0 NMtDT0=    0
         I1Cent=           4 NGrid=           0.
 Petite list used in FoFCou.
 Harris En= -237.177343618526    
 Initial guess orbital symmetries:
       Occupied  (A) (A) (A) (A) (A) (A) (A) (A) (A) (A) (A) (A)
                 (A) (A) (A) (A) (A) (A) (A) (A) (A) (A) (A) (A)
                 (A)
       Virtual   (A) (A) (A) (A) (A) (A) (A) (A) (A) (A) (A) (A)
                 (A) (A) (A) (A) (A) (A) (A) (A) (A) (A) (A) (A)
                 (A) (A) (A) (A) (A) (A) (A) (A) (A) (A) (A) (A)
                 (A) (A) (A) (A) (A) (A) (A) (A) (A) (A) (A) (A)
                 (A) (A) (A) (A) (A) (A) (A) (A) (A) (A) (A) (A)
                 (A) (A) (A) (A) (A) (A) (A) (A) (A) (A) (A) (A)
                 (A) (A) (A) (A) (A) (A) (A) (A) (A) (A) (A) (A)
                 (A) (A) (A) (A) (A) (A) (A) (A) (A)
 The electronic state of the initial guess is 1-A.
 Leave Link  401 at Fri Sep 18 13:22:22 2015, MaxMem=  402653184 cpu:      10.0
 (Enter /share/apps/g09/l502.exe)
 Closed shell SCF:
 Requested convergence on RMS density matrix=1.00D-08 within 128 cycles.
 Requested convergence on MAX density matrix=1.00D-06.
 Requested convergence on             energy=1.00D-06.
 No special actions if energy rises.
 Using DIIS extrapolation, IDIIS=  1040.
 Integral symmetry usage will be decided dynamically.
       454088 words used for storage of precomputed grid.
 Keep R1 ints in memory in canonical form, NReq=26108143.
 IEnd=      515632 IEndB=      515632 NGot=   402653184 MDV=   377517476
 LenX=   377517476 LenY=   377503111
 Symmetry not used in FoFDir.
 MinBra= 0 MaxBra= 2 Meth= 1.
 IRaf=       0 NMat=   1 IRICut=       1 DoRegI=T DoRafI=F ISym2E= 0 JSym2E=0.
 Integral accuracy reduced to 1.0D-05 until final iterations.

 Cycle   1  Pass 0  IDiag  1:
 E= -236.791140377790    
 DIIS: error= 4.59D-02 at cycle   1 NSaved=   1.
 NSaved= 1 IEnMin= 1 EnMin= -236.791140377790     IErMin= 1 ErrMin= 4.59D-02
 ErrMax= 4.59D-02 EMaxC= 1.00D-01 BMatC= 2.55D-01 BMatP= 2.55D-01
 IDIUse=3 WtCom= 5.41D-01 WtEn= 4.59D-01
 Coeff-Com:  0.100D+01
 Coeff-En:   0.100D+01
 Coeff:      0.100D+01
 Gap=     0.328 Goal=   None    Shift=    0.000
 GapD=    0.328 DampG=1.000 DampE=0.500 DampFc=0.5000 IDamp=-1.
 Damping current iteration by 5.00D-01
 RMSDP=1.01D-02 MaxDP=1.47D-01              OVMax= 1.91D-01

 Cycle   2  Pass 0  IDiag  1:
 E= -236.917328372834     Delta-E=       -0.126187995044 Rises=F Damp=T
 DIIS: error= 7.77D-03 at cycle   2 NSaved=   2.
 NSaved= 2 IEnMin= 2 EnMin= -236.917328372834     IErMin= 2 ErrMin= 7.77D-03
 ErrMax= 7.77D-03 EMaxC= 1.00D-01 BMatC= 1.05D-02 BMatP= 2.55D-01
 IDIUse=3 WtCom= 9.22D-01 WtEn= 7.77D-02
 Coeff-Com:  0.923D-01 0.908D+00
 Coeff-En:   0.150D+00 0.850D+00
 Coeff:      0.968D-01 0.903D+00
 Gap=     0.401 Goal=   None    Shift=    0.000
 RMSDP=1.51D-03 MaxDP=2.41D-02 DE=-1.26D-01 OVMax= 1.02D-01

 Cycle   3  Pass 0  IDiag  1:
 E= -237.080576914191     Delta-E=       -0.163248541356 Rises=F Damp=F
 DIIS: error= 2.41D-03 at cycle   3 NSaved=   3.
 NSaved= 3 IEnMin= 3 EnMin= -237.080576914191     IErMin= 3 ErrMin= 2.41D-03
 ErrMax= 2.41D-03 EMaxC= 1.00D-01 BMatC= 7.69D-04 BMatP= 1.05D-02
 IDIUse=3 WtCom= 9.76D-01 WtEn= 2.41D-02
 Coeff-Com:  0.665D-02 0.163D+00 0.831D+00
 Coeff-En:   0.000D+00 0.000D+00 0.100D+01
 Coeff:      0.649D-02 0.159D+00 0.835D+00
 Gap=     0.388 Goal=   None    Shift=    0.000
 RMSDP=3.94D-04 MaxDP=5.60D-03 DE=-1.63D-01 OVMax= 7.66D-03

 Cycle   4  Pass 0  IDiag  1:
 E= -237.081127952283     Delta-E=       -0.000551038093 Rises=F Damp=F
 DIIS: error= 1.07D-03 at cycle   4 NSaved=   4.
 NSaved= 4 IEnMin= 4 EnMin= -237.081127952283     IErMin= 4 ErrMin= 1.07D-03
 ErrMax= 1.07D-03 EMaxC= 1.00D-01 BMatC= 2.13D-04 BMatP= 7.69D-04
 IDIUse=3 WtCom= 9.89D-01 WtEn= 1.07D-02
 Coeff-Com:  0.284D-03 0.242D-01 0.348D+00 0.627D+00
 Coeff-En:   0.000D+00 0.000D+00 0.135D+00 0.865D+00
 Coeff:      0.281D-03 0.240D-01 0.346D+00 0.630D+00
 Gap=     0.390 Goal=   None    Shift=    0.000
 RMSDP=1.57D-04 MaxDP=2.18D-03 DE=-5.51D-04 OVMax= 3.26D-03

 Cycle   5  Pass 0  IDiag  1:
 E= -237.081320121115     Delta-E=       -0.000192168832 Rises=F Damp=F
 DIIS: error= 3.35D-04 at cycle   5 NSaved=   5.
 NSaved= 5 IEnMin= 5 EnMin= -237.081320121115     IErMin= 5 ErrMin= 3.35D-04
 ErrMax= 3.35D-04 EMaxC= 1.00D-01 BMatC= 2.36D-05 BMatP= 2.13D-04
 IDIUse=3 WtCom= 9.97D-01 WtEn= 3.35D-03
 Coeff-Com:  0.593D-04-0.140D-02 0.103D+00 0.310D+00 0.589D+00
 Coeff-En:   0.000D+00 0.000D+00 0.000D+00 0.000D+00 0.100D+01
 Coeff:      0.591D-04-0.140D-02 0.103D+00 0.309D+00 0.590D+00
 Gap=     0.389 Goal=   None    Shift=    0.000
 RMSDP=3.81D-05 MaxDP=6.26D-04 DE=-1.92D-04 OVMax= 8.06D-04

 Cycle   6  Pass 0  IDiag  1:
 E= -237.081343354628     Delta-E=       -0.000023233512 Rises=F Damp=F
 DIIS: error= 1.96D-05 at cycle   6 NSaved=   6.
 NSaved= 6 IEnMin= 6 EnMin= -237.081343354628     IErMin= 6 ErrMin= 1.96D-05
 ErrMax= 1.96D-05 EMaxC= 1.00D-01 BMatC= 1.04D-07 BMatP= 2.36D-05
 IDIUse=1 WtCom= 1.00D+00 WtEn= 0.00D+00
 Coeff-Com:  0.121D-03-0.902D-03 0.203D-01 0.681D-01 0.154D+00 0.759D+00
 Coeff:      0.121D-03-0.902D-03 0.203D-01 0.681D-01 0.154D+00 0.759D+00
 Gap=     0.389 Goal=   None    Shift=    0.000
 RMSDP=3.37D-06 MaxDP=5.31D-05 DE=-2.32D-05 OVMax= 7.82D-05

 Initial convergence to 1.0D-05 achieved.  Increase integral accuracy.
 Cycle   7  Pass 1  IDiag  1:
 E= -237.081322071615     Delta-E=        0.000021283013 Rises=F Damp=F
 DIIS: error= 9.30D-06 at cycle   1 NSaved=   1.
 NSaved= 1 IEnMin= 1 EnMin= -237.081322071615     IErMin= 1 ErrMin= 9.30D-06
 ErrMax= 9.30D-06 EMaxC= 1.00D-01 BMatC= 1.73D-08 BMatP= 1.73D-08
 IDIUse=1 WtCom= 1.00D+00 WtEn= 0.00D+00
 Coeff-Com:  0.100D+01
 Coeff:      0.100D+01
 Gap=     0.389 Goal=   None    Shift=    0.000
 RMSDP=3.37D-06 MaxDP=5.31D-05 DE= 2.13D-05 OVMax= 4.48D-05

 Cycle   8  Pass 1  IDiag  1:
 E= -237.081322071381     Delta-E=        0.000000000234 Rises=F Damp=F
 DIIS: error= 1.11D-05 at cycle   2 NSaved=   2.
 NSaved= 2 IEnMin= 1 EnMin= -237.081322071615     IErMin= 1 ErrMin= 9.30D-06
 ErrMax= 1.11D-05 EMaxC= 1.00D-01 BMatC= 2.03D-08 BMatP= 1.73D-08
 IDIUse=1 WtCom= 1.00D+00 WtEn= 0.00D+00
 Coeff-Com:  0.521D+00 0.479D+00
 Coeff:      0.521D+00 0.479D+00
 Gap=     0.389 Goal=   None    Shift=    0.000
 RMSDP=1.02D-06 MaxDP=2.50D-05 DE= 2.34D-10 OVMax= 2.44D-05

 Cycle   9  Pass 1  IDiag  1:
 E= -237.081322090510     Delta-E=       -0.000000019129 Rises=F Damp=F
 DIIS: error= 7.60D-07 at cycle   3 NSaved=   3.
 NSaved= 3 IEnMin= 3 EnMin= -237.081322090510     IErMin= 3 ErrMin= 7.60D-07
 ErrMax= 7.60D-07 EMaxC= 1.00D-01 BMatC= 9.39D-11 BMatP= 1.73D-08
 IDIUse=1 WtCom= 1.00D+00 WtEn= 0.00D+00
 Coeff-Com:  0.696D-02 0.593D-01 0.934D+00
 Coeff:      0.696D-02 0.593D-01 0.934D+00
 Gap=     0.389 Goal=   None    Shift=    0.000
 RMSDP=1.29D-07 MaxDP=2.05D-06 DE=-1.91D-08 OVMax= 2.30D-06

 Cycle  10  Pass 1  IDiag  1:
 E= -237.081322090599     Delta-E=       -0.000000000088 Rises=F Damp=F
 DIIS: error= 2.27D-07 at cycle   4 NSaved=   4.
 NSaved= 4 IEnMin= 4 EnMin= -237.081322090599     IErMin= 4 ErrMin= 2.27D-07
 ErrMax= 2.27D-07 EMaxC= 1.00D-01 BMatC= 1.01D-11 BMatP= 9.39D-11
 IDIUse=1 WtCom= 1.00D+00 WtEn= 0.00D+00
 Coeff-Com: -0.102D-01 0.975D-02 0.350D+00 0.650D+00
 Coeff:     -0.102D-01 0.975D-02 0.350D+00 0.650D+00
 Gap=     0.389 Goal=   None    Shift=    0.000
 RMSDP=3.64D-08 MaxDP=4.11D-07 DE=-8.83D-11 OVMax= 7.37D-07

 Cycle  11  Pass 1  IDiag  1:
 E= -237.081322090607     Delta-E=       -0.000000000008 Rises=F Damp=F
 DIIS: error= 7.76D-08 at cycle   5 NSaved=   5.
 NSaved= 5 IEnMin= 5 EnMin= -237.081322090607     IErMin= 5 ErrMin= 7.76D-08
 ErrMax= 7.76D-08 EMaxC= 1.00D-01 BMatC= 9.83D-13 BMatP= 1.01D-11
 IDIUse=1 WtCom= 1.00D+00 WtEn= 0.00D+00
 Coeff-Com: -0.545D-02 0.262D-02 0.143D+00 0.331D+00 0.529D+00
 Coeff:     -0.545D-02 0.262D-02 0.143D+00 0.331D+00 0.529D+00
 Gap=     0.389 Goal=   None    Shift=    0.000
 RMSDP=8.87D-09 MaxDP=1.27D-07 DE=-8.47D-12 OVMax= 1.93D-07

 SCF Done:  E(RB3LYP) =  -237.081322091     A.U. after   11 cycles
             Convg  =    0.8870D-08             -V/T =  2.0106
 KE= 2.345857318103D+02 PE=-1.045722840810D+03 EE= 3.246444425601D+02
 Leave Link  502 at Fri Sep 18 13:23:07 2015, MaxMem=  402653184 cpu:      90.6
 (Enter /share/apps/g09/l601.exe)
 Copying SCF densities to generalized density rwf, IOpCl= 0 IROHF=0.

 **********************************************************************

            Population analysis using the SCF density.

 **********************************************************************

 Orbital symmetries:
       Occupied  (A) (A) (A) (A) (A) (A) (A) (A) (A) (A) (A) (A)
                 (A) (A) (A) (A) (A) (A) (A) (A) (A) (A) (A) (A)
                 (A)
       Virtual   (A) (A) (A) (A) (A) (A) (A) (A) (A) (A) (A) (A)
                 (A) (A) (A) (A) (A) (A) (A) (A) (A) (A) (A) (A)
                 (A) (A) (A) (A) (A) (A) (A) (A) (A) (A) (A) (A)
                 (A) (A) (A) (A) (A) (A) (A) (A) (A) (A) (A) (A)
                 (A) (A) (A) (A) (A) (A) (A) (A) (A) (A) (A) (A)
                 (A) (A) (A) (A) (A) (A) (A) (A) (A) (A) (A) (A)
                 (A) (A) (A) (A) (A) (A) (A) (A) (A) (A) (A) (A)
                 (A) (A) (A) (A) (A) (A) (A) (A) (A)
 The electronic state is 1-A.
 Alpha  occ. eigenvalues --  -10.17710 -10.17709 -10.17475 -10.17454 -10.16870
 Alpha  occ. eigenvalues --  -10.16870  -0.80036  -0.75964  -0.69736  -0.64267
 Alpha  occ. eigenvalues --   -0.58288  -0.55686  -0.45965  -0.44486  -0.43846
 Alpha  occ. eigenvalues --   -0.40925  -0.40341  -0.38382  -0.36130  -0.34869
 Alpha  occ. eigenvalues --   -0.34097  -0.32922  -0.32057  -0.30886  -0.29860
 Alpha virt. eigenvalues --    0.09057   0.11027   0.11379   0.12249   0.15143
 Alpha virt. eigenvalues --    0.15697   0.16566   0.17201   0.18048   0.18124
 Alpha virt. eigenvalues --    0.18650   0.19086   0.22377   0.22928   0.24923
 Alpha virt. eigenvalues --    0.25947   0.26375   0.28508   0.28906   0.50420
 Alpha virt. eigenvalues --    0.51489   0.52741   0.53460   0.54432   0.55224
 Alpha virt. eigenvalues --    0.57603   0.61430   0.66618   0.66862   0.68077
 Alpha virt. eigenvalues --    0.69726   0.71138   0.73903   0.78620   0.83428
 Alpha virt. eigenvalues --    0.83767   0.86505   0.87587   0.88790   0.88849
 Alpha virt. eigenvalues --    0.90574   0.91039   0.92883   0.94034   0.96160
 Alpha virt. eigenvalues --    0.96906   0.98153   0.99648   1.01670   1.01820
 Alpha virt. eigenvalues --    1.05325   1.11667   1.19945   1.36777   1.43054
 Alpha virt. eigenvalues --    1.43823   1.55442   1.58797   1.62500   1.65999
 Alpha virt. eigenvalues --    1.71391   1.75987   1.81688   1.82331   1.90885
 Alpha virt. eigenvalues --    1.92436   1.95746   1.97457   1.98877   2.02155
 Alpha virt. eigenvalues --    2.02277   2.11500   2.16561   2.18889   2.25092
 Alpha virt. eigenvalues --    2.29263   2.30944   2.33145   2.36976   2.41270
 Alpha virt. eigenvalues --    2.42135   2.44469   2.57652   2.63149   2.63439
 Alpha virt. eigenvalues --    2.69833   2.80046   4.11334   4.19163   4.28936
 Alpha virt. eigenvalues --    4.42032   4.45988   4.55326
          Condensed to atoms (all electrons):
              1          2          3          4          5          6
     1  C    5.066973   0.378288   0.377643   0.372627   0.379315  -0.039216
     2  H    0.378288   0.574617  -0.033461  -0.030721  -0.036809   0.005310
     3  H    0.377643  -0.033461   0.579360  -0.031257  -0.035060  -0.004490
     4  H    0.372627  -0.030721  -0.031257   0.578967  -0.029089  -0.003101
     5  C    0.379315  -0.036809  -0.035060  -0.029089   4.962096   0.371731
     6  H   -0.039216   0.005310  -0.004490  -0.003101   0.371731   0.617877
     7  H   -0.040096  -0.004385   0.005267  -0.002713   0.375765  -0.038698
     8  C   -0.047036  -0.004760  -0.004863   0.004536   0.376477  -0.034468
     9  H    0.004932   0.000003   0.000045  -0.000169  -0.033346  -0.004882
    10  H   -0.007380  -0.000057   0.005715   0.000048  -0.039203  -0.001242
    11  C   -0.005329   0.002280  -0.000287   0.000104  -0.041425   0.004743
    12  H    0.002048   0.004016   0.000237  -0.000133  -0.003951  -0.000006
    13  H   -0.000269   0.000244   0.000039  -0.000019  -0.003869   0.000043
    14  C    0.000089  -0.000164  -0.000013   0.000001   0.004113  -0.000165
    15  H   -0.000013   0.000012  -0.000001   0.000000   0.000139   0.000000
    16  H    0.000001   0.000008   0.000000   0.000000  -0.000165   0.000003
    17  C   -0.000005   0.000001   0.000000   0.000000   0.000089   0.000001
    18  H    0.000000   0.000000   0.000000   0.000000  -0.000013   0.000000
    19  H    0.000000   0.000000   0.000000   0.000000   0.000001   0.000000
    20  H    0.000001   0.000000   0.000000   0.000000  -0.000164   0.000008
              7          8          9         10         11         12
     1  C   -0.040096  -0.047036   0.004932  -0.007380  -0.005329   0.002048
     2  H   -0.004385  -0.004760   0.000003  -0.000057   0.002280   0.004016
     3  H    0.005267  -0.004863   0.000045   0.005715  -0.000287   0.000237
     4  H   -0.002713   0.004536  -0.000169   0.000048   0.000104  -0.000133
     5  C    0.375765   0.376477  -0.033346  -0.039203  -0.041425  -0.003951
     6  H   -0.038698  -0.034468  -0.004882  -0.001242   0.004743  -0.000006
     7  H    0.613722  -0.039633  -0.001350   0.005577  -0.007858  -0.000151
     8  C   -0.039633   4.997104   0.371079   0.371404   0.387922  -0.041067
     9  H   -0.001350   0.371079   0.612442  -0.039512  -0.041067   0.005724
    10  H    0.005577   0.371404  -0.039512   0.617114  -0.040923  -0.005075
    11  C   -0.007858   0.387922  -0.041067  -0.040923   4.997103   0.371079
    12  H   -0.000151  -0.041067   0.005724  -0.005075   0.371079   0.612442
    13  H    0.006067  -0.040923  -0.005075   0.005732   0.371404  -0.039512
    14  C    0.000139  -0.041425  -0.003951  -0.003869   0.376477  -0.033346
    15  H    0.000012  -0.007858  -0.000151   0.006067  -0.039633  -0.001350
    16  H    0.000000   0.004743  -0.000006   0.000043  -0.034468  -0.004882
    17  C   -0.000013  -0.005329   0.002048  -0.000269  -0.047036   0.004932
    18  H   -0.000001  -0.000287   0.000237   0.000039  -0.004863   0.000045
    19  H    0.000000   0.000104  -0.000133  -0.000019   0.004536  -0.000169
    20  H    0.000012   0.002280   0.004016   0.000244  -0.004760   0.000003
             13         14         15         16         17         18
     1  C   -0.000269   0.000089  -0.000013   0.000001  -0.000005   0.000000
     2  H    0.000244  -0.000164   0.000012   0.000008   0.000001   0.000000
     3  H    0.000039  -0.000013  -0.000001   0.000000   0.000000   0.000000
     4  H   -0.000019   0.000001   0.000000   0.000000   0.000000   0.000000
     5  C   -0.003869   0.004113   0.000139  -0.000165   0.000089  -0.000013
     6  H    0.000043  -0.000165   0.000000   0.000003   0.000001   0.000000
     7  H    0.006067   0.000139   0.000012   0.000000  -0.000013  -0.000001
     8  C   -0.040923  -0.041425  -0.007858   0.004743  -0.005329  -0.000287
     9  H   -0.005075  -0.003951  -0.000151  -0.000006   0.002048   0.000237
    10  H    0.005732  -0.003869   0.006067   0.000043  -0.000269   0.000039
    11  C    0.371404   0.376477  -0.039633  -0.034468  -0.047036  -0.004863
    12  H   -0.039512  -0.033346  -0.001350  -0.004882   0.004932   0.000045
    13  H    0.617115  -0.039203   0.005577  -0.001242  -0.007380   0.005715
    14  C   -0.039203   4.962095   0.375765   0.371731   0.379315  -0.035060
    15  H    0.005577   0.375765   0.613722  -0.038698  -0.040096   0.005267
    16  H   -0.001242   0.371731  -0.038698   0.617876  -0.039216  -0.004490
    17  C   -0.007380   0.379315  -0.040096  -0.039216   5.066973   0.377643
    18  H    0.005715  -0.035060   0.005267  -0.004490   0.377643   0.579360
    19  H    0.000048  -0.029089  -0.002713  -0.003101   0.372627  -0.031258
    20  H   -0.000057  -0.036809  -0.004385   0.005310   0.378288  -0.033461
             19         20
     1  C    0.000000   0.000001
     2  H    0.000000   0.000000
     3  H    0.000000   0.000000
     4  H    0.000000   0.000000
     5  C    0.000001  -0.000164
     6  H    0.000000   0.000008
     7  H    0.000000   0.000012
     8  C    0.000104   0.002280
     9  H   -0.000133   0.004016
    10  H   -0.000019   0.000244
    11  C    0.004536  -0.004760
    12  H   -0.000169   0.000003
    13  H    0.000048  -0.000057
    14  C   -0.029089  -0.036809
    15  H   -0.002713  -0.004385
    16  H   -0.003101   0.005310
    17  C    0.372627   0.378288
    18  H   -0.031258  -0.033461
    19  H    0.578967  -0.030721
    20  H   -0.030721   0.574617
 Mulliken atomic charges:
              1
     1  C   -0.442573
     2  H    0.145579
     3  H    0.141127
     4  H    0.140920
     5  C   -0.246630
     6  H    0.126554
     7  H    0.128338
     8  C   -0.247999
     9  H    0.129118
    10  H    0.125566
    11  C   -0.247999
    12  H    0.129118
    13  H    0.125566
    14  C   -0.246630
    15  H    0.128338
    16  H    0.126554
    17  C   -0.442573
    18  H    0.141127
    19  H    0.140920
    20  H    0.145579
 Sum of Mulliken atomic charges =   0.00000
 Mulliken charges with hydrogens summed into heavy atoms:
              1
     1  C   -0.014947
     5  C    0.008262
     8  C    0.006685
    11  C    0.006685
    14  C    0.008262
    17  C   -0.014947
 Sum of Mulliken charges with hydrogens summed into heavy atoms =   0.00000
 Electronic spatial extent (au):  <R**2>=            974.1302
 Charge=              0.0000 electrons
 Dipole moment (field-independent basis, Debye):
    X=              0.0000    Y=              0.0000    Z=              0.0000  Tot=              0.0000
 Quadrupole moment (field-independent basis, Debye-Ang):
   XX=            -42.1176   YY=            -41.6128   ZZ=            -41.1559
   XY=              0.2562   XZ=              0.0272   YZ=              0.0452
 Traceless Quadrupole moment (field-independent basis, Debye-Ang):
   XX=             -0.4888   YY=              0.0160   ZZ=              0.4728
   XY=              0.2562   XZ=              0.0272   YZ=              0.0452
 Octapole moment (field-independent basis, Debye-Ang**2):
  XXX=              0.0000  YYY=              0.0000  ZZZ=              0.0000  XYY=              0.0000
  XXY=              0.0000  XXZ=              0.0000  XZZ=              0.0000  YZZ=              0.0000
  YYZ=              0.0000  XYZ=              0.0000
 Hexadecapole moment (field-independent basis, Debye-Ang**3):
 XXXX=          -1063.7341 YYYY=           -177.8793 ZZZZ=           -103.5034 XXXY=              7.7702
 XXXZ=             -5.1707 YYYX=              1.1520 YYYZ=              2.4376 ZZZX=              2.1897
 ZZZY=             -2.0454 XXYY=           -211.1332 XXZZ=           -193.4985 YYZZ=            -48.7976
 XXYZ=              0.6773 YYXZ=              0.3475 ZZXY=             -0.2004
 N-N= 2.494113443487D+02 E-N=-1.045722835198D+03  KE= 2.345857318103D+02
 No NMR shielding tensors so no spin-rotation constants.
 Leave Link  601 at Fri Sep 18 13:23:08 2015, MaxMem=  402653184 cpu:       0.3
 (Enter /share/apps/g09/l701.exe)
 Compute integral first derivatives.
 ... and contract with generalized density number  0.
 Leave Link  701 at Fri Sep 18 13:23:08 2015, MaxMem=  402653184 cpu:       0.3
 (Enter /share/apps/g09/l702.exe)
 L702 exits ... SP integral derivatives will be done elsewhere.
 Leave Link  702 at Fri Sep 18 13:23:08 2015, MaxMem=  402653184 cpu:       0.0
 (Enter /share/apps/g09/l703.exe)
 Compute integral first derivatives, UseDBF=F ICtDFT=           0.
 Integral derivatives from FoFDir, PRISM(SPDF).
 Calling FoFJK, ICntrl=      2127 FMM=F ISym2X=0 I1Cent= 0 IOpClX= 0 NMat=1 NMatS=1 NMatT=0.
 FoFCou: FMM=F IPFlag=           0 FMFlag=      100000 FMFlg1=         800
         NFxFlg=           0 DoJE=F BraDBF=F KetDBF=F FulRan=T
         Omega=  0.000000  0.000000  1.000000  0.000000  0.000000 ICntrl=    2127 IOpCl=  0
         NMat0=    1 NMatS0=    1 NMatT0=    0 NMatD0=    1 NMtDS0=    0 NMtDT0=    0
         I1Cent=           0 NGrid=           0.
 Symmetry not used in FoFCou.
 Leave Link  703 at Fri Sep 18 13:23:20 2015, MaxMem=  402653184 cpu:      23.9
 (Enter /share/apps/g09/l716.exe)
 Dipole        = 3.24872111D-07-9.59879434D-08-7.32078264D-07
 ***** Axes restored to original set *****
 -------------------------------------------------------------------
 Center     Atomic                   Forces (Hartrees/Bohr)
 Number     Number              X              Y              Z
 -------------------------------------------------------------------
      1        6          -0.002994376   -0.002064606    0.002051482
      2        1          -0.000807216   -0.000133061    0.000255390
      3        1           0.000304316    0.000751697   -0.001050378
      4        1          -0.000695793   -0.000358875    0.000290397
      5        6          -0.002733101    0.008687925   -0.001555265
      6        1           0.001368706   -0.005348978    0.001840631
      7        1           0.000630100   -0.000820197   -0.005262159
      8        6           0.001609525    0.005945615    0.002866492
      9        1          -0.002995687   -0.005143006    0.000711965
     10        1          -0.000238120    0.000271459    0.004458063
     11        6          -0.001609709   -0.005945893   -0.002866249
     12        1           0.002995571    0.005143026   -0.000712010
     13        1           0.000238168   -0.000271399   -0.004458062
     14        6           0.002733383   -0.008687278    0.001554232
     15        1          -0.000630054    0.000820230    0.005262752
     16        1          -0.001368708    0.005348557   -0.001840396
     17        6           0.002994774    0.002064355   -0.002051760
     18        1          -0.000304412   -0.000751652    0.001050834
     19        1           0.000695519    0.000358845   -0.000290451
     20        1           0.000807113    0.000133235   -0.000255508
 -------------------------------------------------------------------
 Cartesian Forces:  Max     0.008687925 RMS     0.003004010
 Leave Link  716 at Fri Sep 18 13:23:20 2015, MaxMem=  402653184 cpu:       0.1
 (Enter /share/apps/g09/l103.exe)

 GradGradGradGradGradGradGradGradGradGradGradGradGradGradGradGradGradGrad
 Berny optimization.
 Internal  Forces:  Max     0.007827179 RMS     0.002398103
 Search for a local minimum.
 Step number   1 out of a maximum of  110
 All quantities printed in internal units (Hartrees-Bohrs-Radians)
 RMS Force = .23981D-02 SwitMx=.10000D-02 MixMth= 1
 Mixed Optimization -- RFO/linear search
 Second derivative matrix not updated -- first step.
     Eigenvalues ---    0.00295   0.00295   0.00310   0.00404   0.00404
     Eigenvalues ---    0.03454   0.03454   0.03457   0.03457   0.04767
     Eigenvalues ---    0.04767   0.04794   0.04794   0.05463   0.05463
     Eigenvalues ---    0.05479   0.05479   0.08323   0.08323   0.08408
     Eigenvalues ---    0.08408   0.12203   0.12203   0.12261   0.12261
     Eigenvalues ---    0.16000   0.16000   0.16000   0.16000   0.16000
     Eigenvalues ---    0.16000   0.21869   0.21869   0.21878   0.21878
     Eigenvalues ---    0.28909   0.28909   0.29016   0.29669   0.29669
     Eigenvalues ---    0.32793   0.32793   0.32855   0.32855   0.32856
     Eigenvalues ---    0.32856   0.32943   0.32943   0.34126   0.34126
     Eigenvalues ---    0.34155   0.34155   0.34206   0.342061000.00000
     Eigenvalues --- 1000.000001000.000001000.000001000.000001000.00000
     Eigenvalues --- 1000.000001000.000001000.000001000.000001000.00000
     Eigenvalues --- 1000.000001000.000001000.000001000.000001000.00000
     Eigenvalues --- 1000.000001000.000001000.000001000.000001000.00000
     Eigenvalues --- 1000.000001000.000001000.000001000.000001000.00000
     Eigenvalues --- 1000.000001000.000001000.000001000.000001000.00000
     Eigenvalues --- 1000.000001000.000001000.000001000.000001000.00000
     Eigenvalues --- 1000.000001000.000001000.000001000.000001000.00000
     Eigenvalues --- 1000.000001000.000001000.000001000.000001000.00000
 RFO step:  Lambda=-2.41992076D-03 EMin= 2.94572516D-03
 Linear search not attempted -- first point.
 Iteration  1 RMS(Cart)=  0.03735883 RMS(Int)=  0.00043787
 Iteration  2 RMS(Cart)=  0.00089151 RMS(Int)=  0.00006089
 Iteration  3 RMS(Cart)=  0.00000063 RMS(Int)=  0.00006089
 Variable       Old X    -DE/DX   Delta X   Delta X   Delta X     New X
                                 (Linear)    (Quad)   (Total)
    R1        2.07118  -0.00008   0.00000  -0.00022  -0.00022   2.07096
    R2        2.07069   0.00089   0.00000   0.00260   0.00260   2.07329
    R3        2.06984   0.00069   0.00000   0.00201   0.00201   2.07185
    R4        2.88629   0.00365   0.00000   0.01219   0.01219   2.89848
    R5        2.09417  -0.00571   0.00000  -0.01730  -0.01730   2.07687
    R6        2.09306  -0.00527   0.00000  -0.01593  -0.01593   2.07713
    R7        2.90193   0.00325   0.00000   0.01116   0.01116   2.91309
    R8        2.09307  -0.00595   0.00000  -0.01797  -0.01797   2.07510
    R9        2.09152  -0.00434   0.00000  -0.01308  -0.01308   2.07844
   R10        2.89970   0.00246   0.00000   0.00842   0.00842   2.90812
   R11        2.09307  -0.00595   0.00000  -0.01797  -0.01797   2.07510
   R12        2.09152  -0.00434   0.00000  -0.01308  -0.01308   2.07844
   R13        2.90193   0.00325   0.00000   0.01116   0.01116   2.91309
   R14        2.09306  -0.00527   0.00000  -0.01593  -0.01593   2.07713
   R15        2.09417  -0.00571   0.00000  -0.01730  -0.01730   2.07687
   R16        2.88629   0.00365   0.00000   0.01219   0.01219   2.89848
   R17        2.07069   0.00089   0.00000   0.00260   0.00260   2.07329
   R18        2.06984   0.00069   0.00000   0.00201   0.00201   2.07185
   R19        2.07118  -0.00008   0.00000  -0.00022  -0.00022   2.07096
    A1        1.87205   0.00042   0.00000   0.00375   0.00377   1.87582
    A2        1.87662  -0.00081   0.00000  -0.00425  -0.00427   1.87235
    A3        1.94598   0.00107   0.00000   0.00760   0.00760   1.95358
    A4        1.87737   0.00031   0.00000  -0.00004  -0.00004   1.87732
    A5        1.94648  -0.00159   0.00000  -0.01020  -0.01019   1.93629
    A6        1.94171   0.00061   0.00000   0.00310   0.00309   1.94480
    A7        1.90848  -0.00235   0.00000  -0.01030  -0.01043   1.89805
    A8        1.91484  -0.00120   0.00000  -0.00489  -0.00482   1.91001
    A9        1.97089   0.00552   0.00000   0.02644   0.02644   1.99733
   A10        1.84433   0.00108   0.00000  -0.00015  -0.00021   1.84413
   A11        1.90343  -0.00084   0.00000   0.00226   0.00225   1.90569
   A12        1.91752  -0.00252   0.00000  -0.01512  -0.01509   1.90243
   A13        1.90676  -0.00249   0.00000  -0.00721  -0.00740   1.89936
   A14        1.91733  -0.00260   0.00000  -0.01491  -0.01478   1.90255
   A15        1.96413   0.00783   0.00000   0.03686   0.03688   2.00101
   A16        1.84455   0.00170   0.00000   0.00272   0.00259   1.84715
   A17        1.91026  -0.00205   0.00000  -0.00339  -0.00352   1.90675
   A18        1.91694  -0.00281   0.00000  -0.01624  -0.01612   1.90082
   A19        1.91026  -0.00205   0.00000  -0.00339  -0.00352   1.90675
   A20        1.91694  -0.00281   0.00000  -0.01625  -0.01612   1.90082
   A21        1.96413   0.00783   0.00000   0.03686   0.03688   2.00101
   A22        1.84455   0.00170   0.00000   0.00272   0.00259   1.84715
   A23        1.90676  -0.00249   0.00000  -0.00721  -0.00740   1.89936
   A24        1.91733  -0.00260   0.00000  -0.01491  -0.01478   1.90255
   A25        1.91752  -0.00252   0.00000  -0.01512  -0.01509   1.90243
   A26        1.90343  -0.00084   0.00000   0.00226   0.00225   1.90569
   A27        1.97089   0.00552   0.00000   0.02644   0.02644   1.99733
   A28        1.84433   0.00108   0.00000  -0.00015  -0.00021   1.84413
   A29        1.91483  -0.00120   0.00000  -0.00489  -0.00482   1.91001
   A30        1.90848  -0.00235   0.00000  -0.01030  -0.01043   1.89805
   A31        1.94648  -0.00159   0.00000  -0.01020  -0.01019   1.93629
   A32        1.94171   0.00061   0.00000   0.00310   0.00309   1.94480
   A33        1.94598   0.00107   0.00000   0.00760   0.00760   1.95358
   A34        1.87737   0.00031   0.00000  -0.00004  -0.00004   1.87732
   A35        1.87205   0.00042   0.00000   0.00375   0.00377   1.87582
   A36        1.87662  -0.00081   0.00000  -0.00425  -0.00427   1.87235
    D1       -3.10515   0.00061   0.00000   0.01325   0.01321  -3.09195
    D2       -1.08993  -0.00009   0.00000   0.00452   0.00452  -1.08542
    D3        1.05540  -0.00036   0.00000  -0.00009  -0.00006   1.05534
    D4        1.08578   0.00044   0.00000   0.01025   0.01022   1.09599
    D5        3.10100  -0.00026   0.00000   0.00152   0.00153   3.10253
    D6       -1.03686  -0.00053   0.00000  -0.00309  -0.00305  -1.03991
    D7       -1.01033   0.00072   0.00000   0.01510   0.01507  -0.99526
    D8        1.00489   0.00002   0.00000   0.00637   0.00638   1.01127
    D9       -3.13296  -0.00025   0.00000   0.00176   0.00180  -3.13117
   D10        2.87540  -0.00050   0.00000   0.02850   0.02859   2.90399
   D11        0.85950   0.00032   0.00000   0.03765   0.03768   0.89717
   D12       -1.28219   0.00037   0.00000   0.04373   0.04383  -1.23837
   D13        0.74992  -0.00060   0.00000   0.02235   0.02232   0.77225
   D14       -1.26598   0.00022   0.00000   0.03150   0.03142  -1.23457
   D15        2.87551   0.00027   0.00000   0.03757   0.03756   2.91307
   D16       -1.26395  -0.00002   0.00000   0.02962   0.02961  -1.23434
   D17        3.00333   0.00079   0.00000   0.03878   0.03870   3.04203
   D18        0.86164   0.00084   0.00000   0.04485   0.04485   0.90649
   D19        1.01799  -0.00063   0.00000  -0.01315  -0.01323   1.00476
   D20       -0.99968   0.00007   0.00000  -0.00533  -0.00543  -1.00511
   D21        3.14159   0.00000   0.00000   0.00000   0.00000   3.14159
   D22        3.14159   0.00000   0.00000   0.00000   0.00000   3.14159
   D23        1.12392   0.00070   0.00000   0.00782   0.00780   1.13172
   D24       -1.01800   0.00063   0.00000   0.01315   0.01323  -1.00476
   D25       -1.12392  -0.00070   0.00000  -0.00782  -0.00780  -1.13172
   D26        3.14159   0.00000   0.00000   0.00000   0.00000   3.14159
   D27        0.99968  -0.00007   0.00000   0.00533   0.00543   1.00511
   D28       -0.86164  -0.00084   0.00000  -0.04485  -0.04485  -0.90649
   D29       -2.87551  -0.00027   0.00000  -0.03757  -0.03756  -2.91307
   D30        1.28219  -0.00037   0.00000  -0.04373  -0.04383   1.23837
   D31        1.26395   0.00002   0.00000  -0.02962  -0.02961   1.23434
   D32       -0.74992   0.00060   0.00000  -0.02235  -0.02232  -0.77225
   D33       -2.87540   0.00050   0.00000  -0.02850  -0.02859  -2.90399
   D34       -3.00333  -0.00079   0.00000  -0.03878  -0.03870  -3.04203
   D35        1.26598  -0.00022   0.00000  -0.03150  -0.03142   1.23457
   D36       -0.85950  -0.00032   0.00000  -0.03765  -0.03768  -0.89717
   D37        1.03686   0.00053   0.00000   0.00309   0.00305   1.03991
   D38        3.13297   0.00025   0.00000  -0.00176  -0.00180   3.13117
   D39       -1.05540   0.00036   0.00000   0.00008   0.00006  -1.05533
   D40       -3.10099   0.00026   0.00000  -0.00152  -0.00153  -3.10252
   D41       -1.00489  -0.00002   0.00000  -0.00637  -0.00638  -1.01127
   D42        1.08993   0.00009   0.00000  -0.00452  -0.00452   1.08542
   D43       -1.08578  -0.00044   0.00000  -0.01025  -0.01022  -1.09599
   D44        1.01033  -0.00072   0.00000  -0.01510  -0.01507   0.99526
   D45        3.10515  -0.00061   0.00000  -0.01325  -0.01321   3.09195
         Item               Value     Threshold  Converged?
 Maximum Force            0.007827     0.000015     NO 
 RMS     Force            0.002398     0.000010     NO 
 Maximum Displacement     0.118936     0.000060     NO 
 RMS     Displacement     0.037944     0.000040     NO 
 Predicted change in Energy=-1.250800D-03
 GradGradGradGradGradGradGradGradGradGradGradGradGradGradGradGradGradGrad

 Leave Link  103 at Fri Sep 18 13:23:20 2015, MaxMem=  402653184 cpu:       0.1
 (Enter /share/apps/g09/l202.exe)
                          Input orientation:                          
 ---------------------------------------------------------------------
 Center     Atomic      Atomic             Coordinates (Angstroms)
 Number     Number       Type             X           Y           Z
 ---------------------------------------------------------------------
      1          6           0       -2.793712   -0.476249   -0.071250
      2          1           0       -2.422431   -1.410288    0.365478
      3          1           0       -2.909258   -0.639946   -1.149934
      4          1           0       -3.791977   -0.296425    0.344883
      5          6           0       -1.850393    0.700822    0.206657
      6          1           0       -2.295758    1.616000   -0.208041
      7          1           0       -1.783965    0.868173    1.290979
      8          6           0       -0.428348    0.526575   -0.362354
      9          1           0        0.086844    1.495827   -0.331573
     10          1           0       -0.498769    0.257817   -1.426549
     11          6           0        0.428348   -0.526575    0.362354
     12          1           0       -0.086844   -1.495826    0.331574
     13          1           0        0.498769   -0.257816    1.426549
     14          6           0        1.850393   -0.700822   -0.206657
     15          1           0        1.783964   -0.868174   -1.290979
     16          1           0        2.295757   -1.616000    0.208041
     17          6           0        2.793712    0.476248    0.071250
     18          1           0        2.909259    0.639945    1.149934
     19          1           0        3.791977    0.296424   -0.344884
     20          1           0        2.422431    1.410288   -0.365478
 ---------------------------------------------------------------------
                    Distance matrix (angstroms):
                    1          2          3          4          5
     1  C    0.000000
     2  H    1.095907   0.000000
     3  H    1.097136   1.768305   0.000000
     4  H    1.096375   1.765439   1.769655   0.000000
     5  C    1.533812   2.192997   2.181557   2.187089   0.000000
     6  H    2.155034   3.082757   2.520483   2.490335   1.099034
     7  H    2.163961   2.540783   3.082006   2.506691   1.099169
     8  C    2.585603   2.873595   2.852362   3.534334   1.541541
     9  H    3.500636   3.902287   3.769332   4.326085   2.162085
    10  H    2.764498   3.113584   2.587073   3.780261   2.165756
    11  C    3.251494   2.984610   3.665989   4.226632   2.592953
    12  H    2.920434   2.337398   3.300517   3.894451   2.819747
    13  H    3.623748   3.314736   4.289398   4.425155   2.815260
    14  C    4.651502   4.368947   4.852602   5.683667   3.978850
    15  H    4.753574   4.553185   4.700885   5.839013   4.232400
    16  H    5.223000   4.725294   5.467080   6.230611   4.749550
    17  C    5.669820   5.554614   5.938101   6.636505   4.651503
    18  H    5.938102   5.765912   6.386130   6.814064   4.852604
    19  H    6.636505   6.483544   6.814062   7.638299   5.683668
    20  H    5.554614   5.653550   5.765912   6.483545   4.368948
                    6          7          8          9         10
     6  H    0.000000
     7  H    1.751638   0.000000
     8  C    2.167459   2.165155   0.000000
     9  H    2.388827   2.554711   1.098097   0.000000
    10  H    2.560974   3.067445   1.099864   1.753449   0.000000
    11  C    3.512368   2.775247   1.538913   2.165241   2.162173
    12  H    3.854081   3.064175   2.165241   3.069188   2.517129
    13  H    3.740649   2.548943   2.162172   2.517129   3.066126
    14  C    4.749550   4.232401   2.592953   2.819747   2.815260
    15  H    4.897755   4.734081   2.775246   3.064176   2.548942
    16  H    5.630360   4.897755   3.512368   3.854082   3.740649
    17  C    5.223001   4.753575   3.251494   2.920435   3.623748
    18  H    5.467082   4.700887   3.665990   3.300519   4.289399
    19  H    6.230612   5.839014   4.226632   3.894452   4.425155
    20  H    4.725295   4.553186   2.984610   2.337399   3.314736
                   11         12         13         14         15
    11  C    0.000000
    12  H    1.098098   0.000000
    13  H    1.099864   1.753449   0.000000
    14  C    1.541541   2.162085   2.165756   0.000000
    15  H    2.165155   2.554711   3.067445   1.099169   0.000000
    16  H    2.167459   2.388827   2.560974   1.099034   1.751638
    17  C    2.585603   3.500636   2.764498   1.533812   2.163961
    18  H    2.852363   3.769333   2.587074   2.181557   3.082006
    19  H    3.534334   4.326085   3.780261   2.187089   2.506691
    20  H    2.873595   3.902287   3.113584   2.192998   2.540783
                   16         17         18         19         20
    16  H    0.000000
    17  C    2.155034   0.000000
    18  H    2.520483   1.097136   0.000000
    19  H    2.490335   1.096375   1.769655   0.000000
    20  H    3.082757   1.095907   1.768305   1.765439   0.000000
 Stoichiometry    C6H14
 Framework group  C1[X(C6H14)]
 Deg. of freedom    54
 Full point group                 C1      NOp   1
 Largest Abelian subgroup         C1      NOp   1
 Largest concise Abelian subgroup C1      NOp   1
                         Standard orientation:                         
 ---------------------------------------------------------------------
 Center     Atomic      Atomic             Coordinates (Angstroms)
 Number     Number       Type             X           Y           Z
 ---------------------------------------------------------------------
      1          6           0       -2.793561   -0.476108   -0.077799
      2          1           0       -2.422915   -1.412018    0.355450
      3          1           0       -2.907368   -0.635112   -1.157370
      4          1           0       -3.792504   -0.298161    0.337514
      5          6           0       -1.850770    0.699800    0.206743
      6          1           0       -2.295534    1.616748   -0.204677
      7          1           0       -1.786091    0.862430    1.291889
      8          6           0       -0.427803    0.528122   -0.360742
      9          1           0        0.087271    1.497262   -0.324914
     10          1           0       -0.496502    0.263998   -1.426209
     11          6           0        0.427803   -0.528122    0.360743
     12          1           0       -0.087272   -1.497262    0.324915
     13          1           0        0.496502   -0.263997    1.426209
     14          6           0        1.850770   -0.699800   -0.206743
     15          1           0        1.786090   -0.862430   -1.291889
     16          1           0        2.295533   -1.616748    0.204677
     17          6           0        2.793561    0.476107    0.077799
     18          1           0        2.907369    0.635111    1.157369
     19          1           0        3.792504    0.298160   -0.337515
     20          1           0        2.422916    1.412018   -0.355450
 ---------------------------------------------------------------------
 Rotational constants (GHZ):      9.0979633      1.3862011      1.2970134
 Leave Link  202 at Fri Sep 18 13:23:20 2015, MaxMem=  402653184 cpu:       0.0
 (Enter /share/apps/g09/l301.exe)
 Standard basis: 6-31G(d) (6D, 7F)
 Ernie: Thresh=  0.10000D-02 Tol=  0.10000D-05 Strict=F.
 There are   118 symmetry adapted basis functions of A   symmetry.
 Integral buffers will be    131072 words long.
 Raffenetti 2 integral format.
 Two-electron integral symmetry is turned on.
   118 basis functions,   224 primitive gaussians,   118 cartesian basis functions
    25 alpha electrons       25 beta electrons
       nuclear repulsion energy       247.9201825670 Hartrees.
 IExCor=  402 DFT=T Ex+Corr=B3LYP ExCW=0 ScaHFX=  0.200000
 ScaDFX=  0.800000  0.720000  1.000000  0.810000 ScalE2=  1.000000  1.000000
 IRadAn=      5 IRanWt=     -1 IRanGd=            0 ICorTp=0
 NAtoms=   20 NActive=   20 NUniq=   20 SFac= 7.50D-01 NAtFMM=   80 NAOKFM=F Big=F
 Leave Link  301 at Fri Sep 18 13:23:20 2015, MaxMem=  402653184 cpu:       0.1
 (Enter /share/apps/g09/l302.exe)
 NPDir=0 NMtPBC=     1 NCelOv=     1 NCel=       1 NClECP=     1 NCelD=      1
         NCelK=      1 NCelE2=     1 NClLst=     1 CellRange=     0.0.
 One-electron integrals computed using PRISM.
 NBasis=   118 RedAO= T  NBF=   118
 NBsUse=   118 1.00D-06 NBFU=   118
 Precomputing XC quadrature grid using
 IXCGrd= 2 IRadAn=           5 IRanWt=          -1 IRanGd=           0 AccXCQ= 1.00D-10.
 NRdTot=    1652 NPtTot=      442444 NUsed=      454281 NTot=      454313
 NSgBfM=   118   118   118   118   118 NAtAll=    20    20.
 Leave Link  302 at Fri Sep 18 13:23:21 2015, MaxMem=  402653184 cpu:       1.2
 (Enter /share/apps/g09/l303.exe)
 DipDrv:  MaxL=1.
 Leave Link  303 at Fri Sep 18 13:23:21 2015, MaxMem=  402653184 cpu:       0.1
 (Enter /share/apps/g09/l401.exe)
 Initial guess read from the read-write file.
 B after Tr=     0.000000    0.000000    0.000000
         Rot=    1.000000    0.000000    0.000000    0.000000 Ang=   0.00 deg.
 Guess basis will be translated and rotated to current coordinates.
 Initial guess orbital symmetries:
       Occupied  (A) (A) (A) (A) (A) (A) (A) (A) (A) (A) (A) (A)
                 (A) (A) (A) (A) (A) (A) (A) (A) (A) (A) (A) (A)
                 (A)
       Virtual   (A) (A) (A) (A) (A) (A) (A) (A) (A) (A) (A) (A)
                 (A) (A) (A) (A) (A) (A) (A) (A) (A) (A) (A) (A)
                 (A) (A) (A) (A) (A) (A) (A) (A) (A) (A) (A) (A)
                 (A) (A) (A) (A) (A) (A) (A) (A) (A) (A) (A) (A)
                 (A) (A) (A) (A) (A) (A) (A) (A) (A) (A) (A) (A)
                 (A) (A) (A) (A) (A) (A) (A) (A) (A) (A) (A) (A)
                 (A) (A) (A) (A) (A) (A) (A) (A) (A) (A) (A) (A)
                 (A) (A) (A) (A) (A) (A) (A) (A) (A)
 The electronic state of the initial guess is 1-A.
 Generating alternative initial guess.
 Harris functional with IExCor=  402 diagonalized for initial guess.
 ExpMin= 1.61D-01 ExpMax= 3.05D+03 ExpMxC= 4.57D+02 IAcc=3 IRadAn=         5 AccDes= 0.00D+00
 HarFok:  IExCor=  402 AccDes= 0.00D+00 IRadAn=         5 IDoV= 1
 ScaDFX=  1.000000  1.000000  1.000000  1.000000
 FoFCou: FMM=F IPFlag=           0 FMFlag=      100000 FMFlg1=           0
         NFxFlg=           0 DoJE=T BraDBF=F KetDBF=T FulRan=T
         Omega=  0.000000  0.000000  1.000000  0.000000  0.000000 ICntrl=     500 IOpCl=  0
         NMat0=    1 NMatS0=    1 NMatT0=    0 NMatD0=    1 NMtDS0=    0 NMtDT0=    0
         I1Cent=           4 NGrid=           0.
 Petite list used in FoFCou.
 Harris En= -237.181541032391    
 Leave Link  401 at Fri Sep 18 13:23:26 2015, MaxMem=  402653184 cpu:      10.2
 (Enter /share/apps/g09/l502.exe)
 Closed shell SCF:
 Requested convergence on RMS density matrix=1.00D-08 within 128 cycles.
 Requested convergence on MAX density matrix=1.00D-06.
 Requested convergence on             energy=1.00D-06.
 No special actions if energy rises.
 Using DIIS extrapolation, IDIIS=  1040.
 Integral symmetry usage will be decided dynamically.
       454088 words used for storage of precomputed grid.
 Keep R1 ints in memory in canonical form, NReq=26108143.
 IEnd=      515632 IEndB=      515632 NGot=   402653184 MDV=   377517476
 LenX=   377517476 LenY=   377503111
 Symmetry not used in FoFDir.
 MinBra= 0 MaxBra= 2 Meth= 1.
 IRaf=       0 NMat=   1 IRICut=       1 DoRegI=T DoRafI=F ISym2E= 0 JSym2E=0.
 Integral accuracy reduced to 1.0D-05 until final iterations.

 Cycle   1  Pass 0  IDiag  1:
 E= -225.409387913417    
 DIIS: error= 9.93D-02 at cycle   1 NSaved=   1.
 NSaved= 1 IEnMin= 1 EnMin= -225.409387913417     IErMin= 1 ErrMin= 9.93D-02
 ErrMax= 9.93D-02 EMaxC= 1.00D-01 BMatC= 2.27D+00 BMatP= 2.27D+00
 IDIUse=3 WtCom= 7.36D-03 WtEn= 9.93D-01
 Coeff-Com:  0.100D+01
 Coeff-En:   0.100D+01
 Coeff:      0.100D+01
 Recover alternate guess density for next cycle.
 RMSDP=4.33D-02 MaxDP=6.48D-01              OVMax= 0.00D+00

 Cycle   2  Pass 0  IDiag  1:
 E= -236.794484071729     Delta-E=      -11.385096158311 Rises=F Damp=F
 DIIS: error= 4.81D-02 at cycle   2 NSaved=   2.
 NSaved= 2 IEnMin= 2 EnMin= -236.794484071729     IErMin= 2 ErrMin= 4.81D-02
 ErrMax= 4.81D-02 EMaxC= 1.00D-01 BMatC= 2.53D-01 BMatP= 2.27D+00
 IDIUse=3 WtCom= 5.19D-01 WtEn= 4.81D-01
 Coeff-Com:  0.669D-01 0.933D+00
 Coeff-En:   0.000D+00 0.100D+01
 Coeff:      0.347D-01 0.965D+00
 Gap=     0.328 Goal=   None    Shift=    0.000
 RMSDP=1.01D-02 MaxDP=1.44D-01 DE=-1.14D+01 OVMax= 1.92D-01

 Cycle   3  Pass 0  IDiag  1:
 E= -236.676568934508     Delta-E=        0.117915137220 Rises=F Damp=F
 DIIS: error= 5.27D-02 at cycle   3 NSaved=   3.
 NSaved= 3 IEnMin= 2 EnMin= -236.794484071729     IErMin= 2 ErrMin= 4.81D-02
 ErrMax= 5.27D-02 EMaxC= 1.00D-01 BMatC= 3.71D-01 BMatP= 2.53D-01
 IDIUse=2 WtCom= 0.00D+00 WtEn= 1.00D+00
 Coeff-En:   0.000D+00 0.582D+00 0.418D+00
 Coeff:      0.000D+00 0.582D+00 0.418D+00
 Gap=     0.398 Goal=   None    Shift=    0.000
 RMSDP=5.57D-03 MaxDP=9.18D-02 DE= 1.18D-01 OVMax= 9.49D-02

 Cycle   4  Pass 0  IDiag  1:
 E= -237.080682928912     Delta-E=       -0.404113994404 Rises=F Damp=F
 DIIS: error= 3.81D-03 at cycle   4 NSaved=   4.
 NSaved= 4 IEnMin= 4 EnMin= -237.080682928912     IErMin= 4 ErrMin= 3.81D-03
 ErrMax= 3.81D-03 EMaxC= 1.00D-01 BMatC= 1.76D-03 BMatP= 2.53D-01
 IDIUse=3 WtCom= 9.62D-01 WtEn= 3.81D-02
 Coeff-Com:  0.332D-04 0.882D-01 0.208D-01 0.891D+00
 Coeff-En:   0.000D+00 0.000D+00 0.000D+00 0.100D+01
 Coeff:      0.319D-04 0.849D-01 0.200D-01 0.895D+00
 Gap=     0.391 Goal=   None    Shift=    0.000
 RMSDP=4.17D-04 MaxDP=7.19D-03 DE=-4.04D-01 OVMax= 8.51D-03

 Cycle   5  Pass 0  IDiag  1:
 E= -237.082278650731     Delta-E=       -0.001595721819 Rises=F Damp=F
 DIIS: error= 8.80D-04 at cycle   5 NSaved=   5.
 NSaved= 5 IEnMin= 5 EnMin= -237.082278650731     IErMin= 5 ErrMin= 8.80D-04
 ErrMax= 8.80D-04 EMaxC= 1.00D-01 BMatC= 1.77D-04 BMatP= 1.76D-03
 IDIUse=3 WtCom= 9.91D-01 WtEn= 8.80D-03
 Coeff-Com:  0.696D-04 0.146D-01-0.949D-02 0.350D+00 0.644D+00
 Coeff-En:   0.000D+00 0.000D+00 0.000D+00 0.000D+00 0.100D+01
 Coeff:      0.690D-04 0.145D-01-0.941D-02 0.347D+00 0.648D+00
 Gap=     0.392 Goal=   None    Shift=    0.000
 RMSDP=1.47D-04 MaxDP=2.26D-03 DE=-1.60D-03 OVMax= 3.03D-03

 Cycle   6  Pass 0  IDiag  1:
 E= -237.082433704473     Delta-E=       -0.000155053742 Rises=F Damp=F
 DIIS: error= 3.69D-04 at cycle   6 NSaved=   6.
 NSaved= 6 IEnMin= 6 EnMin= -237.082433704473     IErMin= 6 ErrMin= 3.69D-04
 ErrMax= 3.69D-04 EMaxC= 1.00D-01 BMatC= 2.45D-05 BMatP= 1.77D-04
 IDIUse=3 WtCom= 9.96D-01 WtEn= 3.69D-03
 Coeff-Com:  0.164D-04 0.179D-02-0.645D-02 0.112D+00 0.327D+00 0.566D+00
 Coeff-En:   0.000D+00 0.000D+00 0.000D+00 0.000D+00 0.226D-01 0.977D+00
 Coeff:      0.164D-04 0.179D-02-0.643D-02 0.112D+00 0.326D+00 0.567D+00
 Gap=     0.392 Goal=   None    Shift=    0.000
 RMSDP=3.80D-05 MaxDP=6.58D-04 DE=-1.55D-04 OVMax= 8.60D-04

 Cycle   7  Pass 0  IDiag  1:
 E= -237.082457748336     Delta-E=       -0.000024043862 Rises=F Damp=F
 DIIS: error= 3.23D-05 at cycle   7 NSaved=   7.
 NSaved= 7 IEnMin= 7 EnMin= -237.082457748336     IErMin= 7 ErrMin= 3.23D-05
 ErrMax= 3.23D-05 EMaxC= 1.00D-01 BMatC= 1.63D-07 BMatP= 2.45D-05
 IDIUse=1 WtCom= 1.00D+00 WtEn= 0.00D+00
 Coeff-Com:  0.395D-05 0.278D-03-0.153D-02 0.198D-01 0.653D-01 0.140D+00
 Coeff-Com:  0.776D+00
 Coeff:      0.395D-05 0.278D-03-0.153D-02 0.198D-01 0.653D-01 0.140D+00
 Coeff:      0.776D+00
 Gap=     0.392 Goal=   None    Shift=    0.000
 RMSDP=4.13D-06 MaxDP=7.24D-05 DE=-2.40D-05 OVMax= 8.70D-05

 Initial convergence to 1.0D-05 achieved.  Increase integral accuracy.
 Cycle   8  Pass 1  IDiag  1:
 E= -237.082418531261     Delta-E=        0.000039217075 Rises=F Damp=F
 DIIS: error= 1.21D-05 at cycle   1 NSaved=   1.
 NSaved= 1 IEnMin= 1 EnMin= -237.082418531261     IErMin= 1 ErrMin= 1.21D-05
 ErrMax= 1.21D-05 EMaxC= 1.00D-01 BMatC= 2.33D-08 BMatP= 2.33D-08
 IDIUse=1 WtCom= 1.00D+00 WtEn= 0.00D+00
 Coeff-Com:  0.100D+01
 Coeff:      0.100D+01
 Gap=     0.392 Goal=   None    Shift=    0.000
 RMSDP=4.13D-06 MaxDP=7.24D-05 DE= 3.92D-05 OVMax= 5.42D-05

 Cycle   9  Pass 1  IDiag  1:
 E= -237.082418529865     Delta-E=        0.000000001396 Rises=F Damp=F
 DIIS: error= 1.53D-05 at cycle   2 NSaved=   2.
 NSaved= 2 IEnMin= 1 EnMin= -237.082418531261     IErMin= 1 ErrMin= 1.21D-05
 ErrMax= 1.53D-05 EMaxC= 1.00D-01 BMatC= 2.78D-08 BMatP= 2.33D-08
 IDIUse=1 WtCom= 1.00D+00 WtEn= 0.00D+00
 Coeff-Com:  0.523D+00 0.477D+00
 Coeff:      0.523D+00 0.477D+00
 Gap=     0.392 Goal=   None    Shift=    0.000
 RMSDP=1.23D-06 MaxDP=2.91D-05 DE= 1.40D-09 OVMax= 3.19D-05

 Cycle  10  Pass 1  IDiag  1:
 E= -237.082418556393     Delta-E=       -0.000000026528 Rises=F Damp=F
 DIIS: error= 1.03D-06 at cycle   3 NSaved=   3.
 NSaved= 3 IEnMin= 3 EnMin= -237.082418556393     IErMin= 3 ErrMin= 1.03D-06
 ErrMax= 1.03D-06 EMaxC= 1.00D-01 BMatC= 1.37D-10 BMatP= 2.33D-08
 IDIUse=1 WtCom= 1.00D+00 WtEn= 0.00D+00
 Coeff-Com:  0.841D-02 0.630D-01 0.929D+00
 Coeff:      0.841D-02 0.630D-01 0.929D+00
 Gap=     0.392 Goal=   None    Shift=    0.000
 RMSDP=1.37D-07 MaxDP=1.95D-06 DE=-2.65D-08 OVMax= 2.42D-06

 Cycle  11  Pass 1  IDiag  1:
 E= -237.082418556515     Delta-E=       -0.000000000122 Rises=F Damp=F
 DIIS: error= 2.83D-07 at cycle   4 NSaved=   4.
 NSaved= 4 IEnMin= 4 EnMin= -237.082418556515     IErMin= 4 ErrMin= 2.83D-07
 ErrMax= 2.83D-07 EMaxC= 1.00D-01 BMatC= 1.59D-11 BMatP= 1.37D-10
 IDIUse=1 WtCom= 1.00D+00 WtEn= 0.00D+00
 Coeff-Com: -0.985D-02 0.129D-01 0.370D+00 0.627D+00
 Coeff:     -0.985D-02 0.129D-01 0.370D+00 0.627D+00
 Gap=     0.392 Goal=   None    Shift=    0.000
 RMSDP=4.59D-08 MaxDP=6.54D-07 DE=-1.22D-10 OVMax= 9.44D-07

 Cycle  12  Pass 1  IDiag  1:
 E= -237.082418556531     Delta-E=       -0.000000000016 Rises=F Damp=F
 DIIS: error= 1.09D-07 at cycle   5 NSaved=   5.
 NSaved= 5 IEnMin= 5 EnMin= -237.082418556531     IErMin= 5 ErrMin= 1.09D-07
 ErrMax= 1.09D-07 EMaxC= 1.00D-01 BMatC= 1.69D-12 BMatP= 1.59D-11
 IDIUse=1 WtCom= 1.00D+00 WtEn= 0.00D+00
 Coeff-Com: -0.526D-02 0.301D-02 0.134D+00 0.318D+00 0.550D+00
 Coeff:     -0.526D-02 0.301D-02 0.134D+00 0.318D+00 0.550D+00
 Gap=     0.392 Goal=   None    Shift=    0.000
 RMSDP=1.19D-08 MaxDP=1.77D-07 DE=-1.63D-11 OVMax= 2.46D-07

 Cycle  13  Pass 1  IDiag  1:
 E= -237.082418556532     Delta-E=       -0.000000000001 Rises=F Damp=F
 DIIS: error= 7.19D-09 at cycle   6 NSaved=   6.
 NSaved= 6 IEnMin= 6 EnMin= -237.082418556532     IErMin= 6 ErrMin= 7.19D-09
 ErrMax= 7.19D-09 EMaxC= 1.00D-01 BMatC= 9.93D-15 BMatP= 1.69D-12
 IDIUse=1 WtCom= 1.00D+00 WtEn= 0.00D+00
 Coeff-Com: -0.585D-03-0.254D-04 0.957D-02 0.332D-01 0.985D-01 0.859D+00
 Coeff:     -0.585D-03-0.254D-04 0.957D-02 0.332D-01 0.985D-01 0.859D+00
 Gap=     0.392 Goal=   None    Shift=    0.000
 RMSDP=1.33D-09 MaxDP=1.45D-08 DE=-8.53D-13 OVMax= 2.78D-08

 SCF Done:  E(RB3LYP) =  -237.082418557     A.U. after   13 cycles
             Convg  =    0.1331D-08             -V/T =  2.0106
 KE= 2.346023456963D+02 PE=-1.042751360580D+03 EE= 3.231464137601D+02
 Leave Link  502 at Fri Sep 18 13:24:19 2015, MaxMem=  402653184 cpu:     106.4
 (Enter /share/apps/g09/l701.exe)
 Compute integral first derivatives.
 ... and contract with generalized density number  0.
 Leave Link  701 at Fri Sep 18 13:24:19 2015, MaxMem=  402653184 cpu:       0.3
 (Enter /share/apps/g09/l702.exe)
 L702 exits ... SP integral derivatives will be done elsewhere.
 Leave Link  702 at Fri Sep 18 13:24:19 2015, MaxMem=  402653184 cpu:       0.0
 (Enter /share/apps/g09/l703.exe)
 Compute integral first derivatives, UseDBF=F ICtDFT=           0.
 Integral derivatives from FoFDir, PRISM(SPDF).
 Calling FoFJK, ICntrl=      2127 FMM=F ISym2X=0 I1Cent= 0 IOpClX= 0 NMat=1 NMatS=1 NMatT=0.
 FoFCou: FMM=F IPFlag=           0 FMFlag=      100000 FMFlg1=         800
         NFxFlg=           0 DoJE=F BraDBF=F KetDBF=F FulRan=T
         Omega=  0.000000  0.000000  1.000000  0.000000  0.000000 ICntrl=    2127 IOpCl=  0
         NMat0=    1 NMatS0=    1 NMatT0=    0 NMatD0=    1 NMtDS0=    0 NMtDT0=    0
         I1Cent=           0 NGrid=           0.
 Symmetry not used in FoFCou.
 Leave Link  703 at Fri Sep 18 13:24:30 2015, MaxMem=  402653184 cpu:      21.6
 (Enter /share/apps/g09/l716.exe)
 Dipole        =-4.18647037D-08-1.71349259D-08 2.56371074D-08
 ***** Axes restored to original set *****
 -------------------------------------------------------------------
 Center     Atomic                   Forces (Hartrees/Bohr)
 Number     Number              X              Y              Z
 -------------------------------------------------------------------
      1        6           0.000378835   -0.000607005   -0.000037166
      2        1           0.000093635   -0.000045720    0.000094979
      3        1           0.000043197   -0.000024450   -0.000144376
      4        1           0.000304244    0.000508053    0.000054549
      5        6           0.000624178    0.000104348    0.000755743
      6        1           0.000749285   -0.000506081   -0.000672542
[...]
 ---------------------------------------------------------------------
 Center     Atomic      Atomic             Coordinates (Angstroms)
 Number     Number       Type             X           Y           Z
 ---------------------------------------------------------------------
      1          6           0       -2.763969   -0.483579   -0.051749
      2          1           0       -2.408680   -1.393627    0.444354
      3          1           0       -2.835786   -0.698004   -1.125639
      4          1           0       -3.777524   -0.284999    0.315384
      5          6           0       -1.839950    0.712046    0.210046
      6          1           0       -2.288208    1.609831   -0.236772
      7          1           0       -1.789678    0.905122    1.291422
      8          6           0       -0.412199    0.551340   -0.340436
      9          1           0        0.108480    1.512291   -0.236040
     10          1           0       -0.463026    0.348110   -1.421231
     11          6           0        0.412199   -0.551341    0.340436
     12          1           0       -0.108480   -1.512292    0.236040
     13          1           0        0.463026   -0.348110    1.421230
     14          6           0        1.839950   -0.712046   -0.210046
     15          1           0        1.789678   -0.905123   -1.291422
     16          1           0        2.288208   -1.609831    0.236772
     17          6           0        2.763969    0.483578    0.051749
     18          1           0        2.835786    0.698004    1.125639
     19          1           0        3.777524    0.284999   -0.315384
     20          1           0        2.408680    1.393626   -0.444354
 ---------------------------------------------------------------------
                    Distance matrix (angstroms):
                    1          2          3          4          5
     1  C    0.000000
     2  H    1.095689   0.000000
     3  H    1.097441   1.769517   0.000000
     4  H    1.096136   1.766188   1.770308   0.000000
     5  C    1.533579   2.193675   2.182656   2.181601   0.000000
     6  H    2.154749   3.082078   2.532988   2.472512   1.098453
     7  H    2.163756   2.526843   3.083268   2.514074   1.099628
     8  C    2.585579   2.895640   2.837461   3.529161   1.538613
     9  H    3.502631   3.904279   3.787545   4.316867   2.153083
    10  H    2.803841   3.209303   2.609927   3.795069   2.165510
    11  C    3.201006   2.945777   3.566552   4.198254   2.585599
    12  H    2.862288   2.312660   3.155223   3.869680   2.818926
    13  H    3.549861   3.208440   4.182240   4.382823   2.809733
    14  C    4.612302   4.352431   4.764559   5.658132   3.968146
    15  H    4.738163   4.569219   4.633066   5.827530   4.247804
    16  H    5.184224   4.706441   5.379861   6.209223   4.736403
    17  C    5.612860   5.516732   5.842913   6.591763   4.612302
    18  H    5.842913   5.687134   6.259698   6.734885   4.764559
    19  H    6.591763   6.454774   6.734885   7.602730   5.658132
    20  H    5.516732   5.636093   5.687134   6.454774   4.352431
                    6          7          8          9         10
     6  H    0.000000
     7  H    1.755142   0.000000
     8  C    2.156515   2.164618   0.000000
     9  H    2.398672   2.510936   1.097921   0.000000
    10  H    2.515188   3.070627   1.100910   1.756876   0.000000
    11  C    3.506569   2.806051   1.535944   2.164058   2.162984
    12  H    3.836980   3.127962   2.164058   3.068881   2.516613
    13  H    3.761887   2.581108   2.162984   2.516613   3.069508
    14  C    4.736403   4.247804   2.585599   2.818926   2.809733
    15  H    4.905754   4.770729   2.806050   3.127962   2.581108
    16  H    5.615518   4.905754   3.506569   3.836979   3.761887
    17  C    5.184224   4.738163   3.201006   2.862288   3.549861
    18  H    5.379861   4.633066   3.566552   3.155223   4.182240
    19  H    6.209223   5.827530   4.198254   3.869680   4.382823
    20  H    4.706441   4.569219   2.945777   2.312660   3.208440
                   11         12         13         14         15
    11  C    0.000000
    12  H    1.097921   0.000000
    13  H    1.100910   1.756876   0.000000
    14  C    1.538613   2.153083   2.165510   0.000000
    15  H    2.164618   2.510936   3.070627   1.099628   0.000000
    16  H    2.156515   2.398672   2.515187   1.098453   1.755142
    17  C    2.585579   3.502631   2.803841   1.533579   2.163756
    18  H    2.837461   3.787545   2.609927   2.182656   3.083268
    19  H    3.529161   4.316867   3.795069   2.181601   2.514074
    20  H    2.895640   3.904279   3.209303   2.193675   2.526843
                   16         17         18         19         20
    16  H    0.000000
    17  C    2.154749   0.000000
    18  H    2.532988   1.097441   0.000000
    19  H    2.472512   1.096136   1.770308   0.000000
    20  H    3.082078   1.095689   1.769517   1.766188   0.000000
 Stoichiometry    C6H14
 Framework group  C1[X(C6H14)]
 Deg. of freedom    54
 Full point group                 C1      NOp   1
 Largest Abelian subgroup         C1      NOp   1
 Largest concise Abelian subgroup C1      NOp   1
                         Standard orientation:                         
 ---------------------------------------------------------------------
 Center     Atomic      Atomic             Coordinates (Angstroms)
 Number     Number       Type             X           Y           Z
 ---------------------------------------------------------------------
      1          6           0       -2.762933    0.485802    0.079043
      2          1           0       -2.410913    1.399495   -0.412672
      3          1           0       -2.825448    0.691596    1.155202
      4          1           0       -3.779759    0.291176   -0.281094
      5          6           0       -1.842393   -0.708552   -0.200221
      6          1           0       -2.287782   -1.609493    0.243098
      7          1           0       -1.801462   -0.892916   -1.283511
      8          6           0       -0.409874   -0.553682    0.339441
      9          1           0        0.108913   -1.514256    0.222875
     10          1           0       -0.451354   -0.359159    1.422236
     11          6           0        0.409874    0.553682   -0.339441
     12          1           0       -0.108913    1.514257   -0.222875
     13          1           0        0.451354    0.359160   -1.422236
     14          6           0        1.842393    0.708552    0.200221
     15          1           0        1.801462    0.892916    1.283511
     16          1           0        2.287782    1.609493   -0.243098
     17          6           0        2.762933   -0.485802   -0.079043
     18          1           0        2.825448   -0.691596   -1.155202
     19          1           0        3.779759   -0.291176    0.281094
     20          1           0        2.410913   -1.399495    0.412672
 ---------------------------------------------------------------------
 Rotational constants (GHZ):      8.9394461      1.4134814      1.3136866
 Leave Link  202 at Fri Sep 18 13:32:24 2015, MaxMem=  402653184 cpu:       0.0
 (Enter /share/apps/g09/l601.exe)
 Copying SCF densities to generalized density rwf, IOpCl= 0 IROHF=0.

 **********************************************************************

            Population analysis using the SCF density.

 **********************************************************************

 Orbital symmetries:
       Occupied  (A) (A) (A) (A) (A) (A) (A) (A) (A) (A) (A) (A)
                 (A) (A) (A) (A) (A) (A) (A) (A) (A) (A) (A) (A)
                 (A)
       Virtual   (A) (A) (A) (A) (A) (A) (A) (A) (A) (A) (A) (A)
                 (A) (A) (A) (A) (A) (A) (A) (A) (A) (A) (A) (A)
                 (A) (A) (A) (A) (A) (A) (A) (A) (A) (A) (A) (A)
                 (A) (A) (A) (A) (A) (A) (A) (A) (A) (A) (A) (A)
                 (A) (A) (A) (A) (A) (A) (A) (A) (A) (A) (A) (A)
                 (A) (A) (A) (A) (A) (A) (A) (A) (A) (A) (A) (A)
                 (A) (A) (A) (A) (A) (A) (A) (A) (A) (A) (A) (A)
                 (A) (A) (A) (A) (A) (A) (A) (A) (A)
 The electronic state is 1-A.
 Alpha  occ. eigenvalues --  -10.17621 -10.17621 -10.17334 -10.17313 -10.16936
 Alpha  occ. eigenvalues --  -10.16936  -0.79854  -0.75876  -0.69798  -0.64544
 Alpha  occ. eigenvalues --   -0.58539  -0.55416  -0.45873  -0.44445  -0.44200
 Alpha  occ. eigenvalues --   -0.40816  -0.40226  -0.38583  -0.36026  -0.34904
 Alpha  occ. eigenvalues --   -0.34248  -0.32911  -0.31598  -0.31025  -0.30210
 Alpha virt. eigenvalues --    0.08949   0.11046   0.11946   0.12865   0.15233
 Alpha virt. eigenvalues --    0.15961   0.16595   0.17145   0.18247   0.18310
 Alpha virt. eigenvalues --    0.18772   0.19139   0.21947   0.22600   0.23952
 Alpha virt. eigenvalues --    0.25579   0.25643   0.28310   0.28892   0.50433
 Alpha virt. eigenvalues --    0.50611   0.52567   0.53851   0.54386   0.55034
 Alpha virt. eigenvalues --    0.57642   0.61912   0.66173   0.66330   0.67881
 Alpha virt. eigenvalues --    0.70252   0.70277   0.73141   0.79204   0.83190
 Alpha virt. eigenvalues --    0.84412   0.86914   0.88227   0.89142   0.89156
 Alpha virt. eigenvalues --    0.90568   0.91320   0.92617   0.94639   0.95782
 Alpha virt. eigenvalues --    0.97268   0.97552   1.00298   1.01719   1.01852
 Alpha virt. eigenvalues --    1.03770   1.11665   1.19916   1.35424   1.42544
 Alpha virt. eigenvalues --    1.44457   1.54080   1.58844   1.60323   1.65224
 Alpha virt. eigenvalues --    1.72562   1.73007   1.81007   1.81031   1.91517
 Alpha virt. eigenvalues --    1.92720   1.96878   1.98266   1.99018   2.00915
 Alpha virt. eigenvalues --    2.02146   2.11187   2.17323   2.18681   2.27186
 Alpha virt. eigenvalues --    2.29378   2.31475   2.33535   2.36030   2.40006
 Alpha virt. eigenvalues --    2.42442   2.43049   2.58494   2.62381   2.63849
 Alpha virt. eigenvalues --    2.70971   2.78629   4.10781   4.18785   4.29142
 Alpha virt. eigenvalues --    4.40973   4.45948   4.54680
          Condensed to atoms (all electrons):
              1          2          3          4          5          6
     1  C    5.066334   0.378306   0.376816   0.373105   0.378132  -0.040206
     2  H    0.378306   0.573108  -0.033050  -0.031316  -0.034386   0.005209
     3  H    0.376816  -0.033050   0.581236  -0.031285  -0.036166  -0.004094
     4  H    0.373105  -0.031316  -0.031285   0.578784  -0.028572  -0.003564
     5  C    0.378132  -0.034386  -0.036166  -0.028572   4.956634   0.373887
     6  H   -0.040206   0.005209  -0.004094  -0.003564   0.373887   0.614276
     7  H   -0.040579  -0.004548   0.005375  -0.002454   0.375108  -0.038579
     8  C   -0.045214  -0.004736  -0.004221   0.004298   0.381011  -0.034314
     9  H    0.004962  -0.000018   0.000015  -0.000159  -0.034305  -0.003902
    10  H   -0.006560  -0.000110   0.005524  -0.000015  -0.039412  -0.002659
    11  C   -0.004750   0.002490  -0.000489   0.000121  -0.039182   0.004624
    12  H    0.003070   0.002848   0.000297  -0.000102  -0.004846  -0.000011
    13  H   -0.000505   0.000307   0.000068  -0.000023  -0.003099   0.000003
    14  C    0.000081  -0.000108  -0.000022   0.000000   0.003767  -0.000144
    15  H   -0.000014   0.000009   0.000002   0.000000   0.000058   0.000001
    16  H    0.000000   0.000007   0.000000   0.000000  -0.000144   0.000002
    17  C   -0.000001   0.000000   0.000000   0.000000   0.000081   0.000000
    18  H    0.000000   0.000000   0.000000   0.000000  -0.000022   0.000000
    19  H    0.000000   0.000000   0.000000   0.000000   0.000000   0.000000
    20  H    0.000000   0.000000   0.000000   0.000000  -0.000108   0.000007
              7          8          9         10         11         12
     1  C   -0.040579  -0.045214   0.004962  -0.006560  -0.004750   0.003070
     2  H   -0.004548  -0.004736  -0.000018  -0.000110   0.002490   0.002848
     3  H    0.005375  -0.004221   0.000015   0.005524  -0.000489   0.000297
     4  H   -0.002454   0.004298  -0.000159  -0.000015   0.000121  -0.000102
     5  C    0.375108   0.381011  -0.034305  -0.039412  -0.039182  -0.004846
     6  H   -0.038579  -0.034314  -0.003902  -0.002659   0.004624  -0.000011
     7  H    0.614371  -0.039705  -0.002731   0.005990  -0.006878  -0.000199
     8  C   -0.039705   4.987909   0.372246   0.370414   0.389256  -0.040499
     9  H   -0.002731   0.372246   0.610790  -0.039230  -0.040499   0.005830
    10  H    0.005990   0.370414  -0.039230   0.621428  -0.042926  -0.005157
    11  C   -0.006878   0.389256  -0.040499  -0.042926   4.987909   0.372246
    12  H   -0.000199  -0.040499   0.005830  -0.005157   0.372246   0.610790
    13  H    0.005705  -0.042926  -0.005157   0.006166   0.370414  -0.039230
    14  C    0.000058  -0.039182  -0.004846  -0.003099   0.381011  -0.034305
    15  H    0.000010  -0.006878  -0.000199   0.005705  -0.039705  -0.002731
    16  H    0.000001   0.004624  -0.000011   0.000003  -0.034314  -0.003902
    17  C   -0.000014  -0.004750   0.003070  -0.000505  -0.045214   0.004962
    18  H    0.000002  -0.000489   0.000297   0.000068  -0.004221   0.000015
    19  H    0.000000   0.000121  -0.000102  -0.000023   0.004298  -0.000159
    20  H    0.000009   0.002490   0.002848   0.000307  -0.004736  -0.000018
             13         14         15         16         17         18
     1  C   -0.000505   0.000081  -0.000014   0.000000  -0.000001   0.000000
     2  H    0.000307  -0.000108   0.000009   0.000007   0.000000   0.000000
     3  H    0.000068  -0.000022   0.000002   0.000000   0.000000   0.000000
     4  H   -0.000023   0.000000   0.000000   0.000000   0.000000   0.000000
     5  C   -0.003099   0.003767   0.000058  -0.000144   0.000081  -0.000022
     6  H    0.000003  -0.000144   0.000001   0.000002   0.000000   0.000000
     7  H    0.005705   0.000058   0.000010   0.000001  -0.000014   0.000002
     8  C   -0.042926  -0.039182  -0.006878   0.004624  -0.004750  -0.000489
     9  H   -0.005157  -0.004846  -0.000199  -0.000011   0.003070   0.000297
    10  H    0.006166  -0.003099   0.005705   0.000003  -0.000505   0.000068
    11  C    0.370414   0.381011  -0.039705  -0.034314  -0.045214  -0.004221
    12  H   -0.039230  -0.034305  -0.002731  -0.003902   0.004962   0.000015
    13  H    0.621428  -0.039412   0.005990  -0.002659  -0.006560   0.005524
    14  C   -0.039412   4.956634   0.375108   0.373887   0.378132  -0.036166
    15  H    0.005990   0.375108   0.614371  -0.038579  -0.040579   0.005375
    16  H   -0.002659   0.373887  -0.038579   0.614276  -0.040206  -0.004094
    17  C   -0.006560   0.378132  -0.040579  -0.040206   5.066334   0.376816
    18  H    0.005524  -0.036166   0.005375  -0.004094   0.376816   0.581236
    19  H   -0.000015  -0.028572  -0.002454  -0.003564   0.373105  -0.031285
    20  H   -0.000110  -0.034386  -0.004548   0.005209   0.378306  -0.033050
             19         20
     1  C    0.000000   0.000000
     2  H    0.000000   0.000000
     3  H    0.000000   0.000000
     4  H    0.000000   0.000000
     5  C    0.000000  -0.000108
     6  H    0.000000   0.000007
     7  H    0.000000   0.000009
     8  C    0.000121   0.002490
     9  H   -0.000102   0.002848
    10  H   -0.000023   0.000307
    11  C    0.004298  -0.004736
    12  H   -0.000159  -0.000018
    13  H   -0.000015  -0.000110
    14  C   -0.028572  -0.034386
    15  H   -0.002454  -0.004548
    16  H   -0.003564   0.005209
    17  C    0.373105   0.378306
    18  H   -0.031285  -0.033050
    19  H    0.578784  -0.031316
    20  H   -0.031316   0.573108
 Mulliken atomic charges:
              1
     1  C   -0.442977
     2  H    0.145986
     3  H    0.139993
     4  H    0.141181
     5  C   -0.248437
     6  H    0.129464
     7  H    0.129058
     8  C   -0.249457
     9  H    0.131100
    10  H    0.124089
    11  C   -0.249457
    12  H    0.131100
    13  H    0.124089
    14  C   -0.248437
    15  H    0.129058
    16  H    0.129464
    17  C   -0.442977
    18  H    0.139993
    19  H    0.141181
    20  H    0.145986
 Sum of Mulliken atomic charges =   0.00000
 Mulliken charges with hydrogens summed into heavy atoms:
              1
     1  C   -0.015816
     5  C    0.010085
     8  C    0.005732
    11  C    0.005732
    14  C    0.010085
    17  C   -0.015816
 Sum of Mulliken charges with hydrogens summed into heavy atoms =   0.00000
 Electronic spatial extent (au):  <R**2>=            984.5730
 Charge=              0.0000 electrons
 Dipole moment (field-independent basis, Debye):
    X=              0.0000    Y=              0.0000    Z=              0.0000  Tot=              0.0000
 Quadrupole moment (field-independent basis, Debye-Ang):
   XX=            -41.8910   YY=            -41.5258   ZZ=            -41.1670
   XY=              0.3429   XZ=             -0.0302   YZ=             -0.0611
 Traceless Quadrupole moment (field-independent basis, Debye-Ang):
   XX=             -0.3630   YY=              0.0021   ZZ=              0.3609
   XY=              0.3429   XZ=             -0.0302   YZ=             -0.0611
 Octapole moment (field-independent basis, Debye-Ang**2):
  XXX=              0.0000  YYY=              0.0000  ZZZ=              0.0000  XYY=              0.0000
  XXY=              0.0000  XXZ=              0.0000  XZZ=              0.0000  YZZ=              0.0000
  YYZ=              0.0000  XYZ=              0.0000
 Hexadecapole moment (field-independent basis, Debye-Ang**3):
 XXXX=          -1073.3390 YYYY=           -183.1177 ZZZZ=            -99.3148 XXXY=              8.9995
 XXXZ=              5.0480 YYYX=              1.2795 YYYZ=             -2.2629 ZZZX=             -1.9207
 ZZZY=              1.7983 XXYY=           -213.8092 XXZZ=           -195.8231 YYZZ=            -48.5776
 XXYZ=             -1.1714 YYXZ=             -0.3170 ZZXY=             -0.1782
 N-N= 2.485993199254D+02 E-N=-1.044126526464D+03  KE= 2.346176800823D+02
 No NMR shielding tensors so no spin-rotation constants.
 Leave Link  601 at Fri Sep 18 13:32:24 2015, MaxMem=  402653184 cpu:       0.3
 (Enter /share/apps/g09/l9999.exe)
 1\1\GINC-COMPUTE-0-4\FOpt\RB3LYP\6-31G(d)\C6H14\HETANJIN\18-Sep-2015\0
 \\#p B3LYP/6-31G(d) opt=tight int=ultrafine\\using B3LYP/6-31G(d) to d
 o opt and freq calc.\\0,1\C,-2.7639688188,-0.4835785037,-0.0517485657\
 H,-2.4086803254,-1.3936267108,0.4443540042\H,-2.835786044,-0.698004181
 6,-1.12563939\H,-3.7775235855,-0.2849987651,0.3153839389\C,-1.83995027
 93,0.7120460423,0.2100457465\H,-2.2882075463,1.6098307735,-0.236772159
 9\H,-1.789677714,0.9051222592,1.2914222716\C,-0.4121985737,0.551340436
 7,-0.3404357727\H,0.1084800858,1.5122912694,-0.2360399157\H,-0.4630260
 39,0.3481100809,-1.4212305029\C,0.4121985977,-0.5513408306,0.340435726
 2\H,-0.1084800243,-1.5122916776,0.2360398272\H,0.4630260165,-0.3481104
 995,1.421230463\C,1.8399503303,-0.7120463535,-0.210045735\H,1.78967780
 82,-0.9051225718,-1.2914222608\H,2.2882076464,-1.6098310537,0.23677218
 66\C,2.7639687634,0.4835782695,0.0517485933\H,2.8357859706,0.698003933
 2,1.1256394212\H,3.7775235468,0.284998628,-0.3153839179\H,2.4086801847
 ,1.3936264553,-0.4443539582\\Version=EM64L-G09RevA.01\State=1-A\HF=-23
 7.0826489\RMSD=4.982e-09\RMSF=1.037e-06\Dipole=0.,0.,0.\Quadrupole=-0.
 2699805,0.0013946,0.268586,-0.2548593,0.0290482,-0.0411596\PG=C01 [X(C
 6H14)]\\@


 MATERIAL COPIED FROM ONE SCHOLARLY BOOK WITHOUT CREDIT COMPRISES PLAGIARISM.
 MATERIAL COPIED FROM TWO SCHOLARLY BOOKS COMPRISES AN ESSAY.
 MATERIAL COPIED FROM THREE SCHOLARLY BOOKS COMPRISES A DISSERTATION.
 MATERIAL COPIED FROM FOUR SCHOLARLY BOOKS COMPRISES A FIFTH SCHOLARLY BOOK.

                               -- C&EN, 25 FEB 1980
 Job cpu time:  0 days  0 hours 20 minutes 13.3 seconds.
 File lengths (MBytes):  RWF=     15 Int=      0 D2E=      0 Chk=      2 Scr=      1
 Normal termination of Gaussian 09 at Fri Sep 18 13:32:24 2015.
