 Entering Gaussian System, Link 0=/home/hetanjin/apps/g09D01/g09/g09
 Input=C6H14_4_r009_C17_2_opt_B3L.gjf
 Output=C6H14_4_r009_C17_2_opt_B3L.log
 Initial command:
 /home/hetanjin/apps/g09D01/g09/l1.exe "/state/partition1/Gau-5282.inp" -scrdir="/state/partition1/"
 Entering Link 1 = /home/hetanjin/apps/g09D01/g09/l1.exe PID=      5283.
  
 Copyright (c) 1988,1990,1992,1993,1995,1998,2003,2009,2013,
            Gaussian, Inc.  All Rights Reserved.
  
 This is part of the Gaussian(R) 09 program.  It is based on
 the Gaussian(R) 03 system (copyright 2003, Gaussian, Inc.),
 the Gaussian(R) 98 system (copyright 1998, Gaussian, Inc.),
 the Gaussian(R) 94 system (copyright 1995, Gaussian, Inc.),
 the Gaussian 92(TM) system (copyright 1992, Gaussian, Inc.),
 the Gaussian 90(TM) system (copyright 1990, Gaussian, Inc.),
 the Gaussian 88(TM) system (copyright 1988, Gaussian, Inc.),
 the Gaussian 86(TM) system (copyright 1986, Carnegie Mellon
 University), and the Gaussian 82(TM) system (copyright 1983,
 Carnegie Mellon University). Gaussian is a federally registered
 trademark of Gaussian, Inc.
  
 This software contains proprietary and confidential information,
 including trade secrets, belonging to Gaussian, Inc.
  
 This software is provided under written license and may be
 used, copied, transmitted, or stored only in accord with that
 written license.
  
 The following legend is applicable only to US Government
 contracts under FAR:
  
                    RESTRICTED RIGHTS LEGEND
  
 Use, reproduction and disclosure by the US Government is
 subject to restrictions as set forth in subparagraphs (a)
 and (c) of the Commercial Computer Software - Restricted
 Rights clause in FAR 52.227-19.
  
 Gaussian, Inc.
 340 Quinnipiac St., Bldg. 40, Wallingford CT 06492
  
  
 ---------------------------------------------------------------
 Warning -- This program may not be used in any manner that
 competes with the business of Gaussian, Inc. or will provide
 assistance to any competitor of Gaussian, Inc.  The licensee
 of this program is prohibited from giving any competitor of
 Gaussian, Inc. access to this program.  By using this program,
 the user acknowledges that Gaussian, Inc. is engaged in the
 business of creating and licensing software in the field of
 computational chemistry and represents and warrants to the
 licensee that it is not a competitor of Gaussian, Inc. and that
 it will not use this program in any manner prohibited above.
 ---------------------------------------------------------------
  

 Cite this work as:
 Gaussian 09, Revision D.01,
 M. J. Frisch, G. W. Trucks, H. B. Schlegel, G. E. Scuseria, 
 M. A. Robb, J. R. Cheeseman, G. Scalmani, V. Barone, B. Mennucci, 
 G. A. Petersson, H. Nakatsuji, M. Caricato, X. Li, H. P. Hratchian, 
 A. F. Izmaylov, J. Bloino, G. Zheng, J. L. Sonnenberg, M. Hada, 
 M. Ehara, K. Toyota, R. Fukuda, J. Hasegawa, M. Ishida, T. Nakajima, 
 Y. Honda, O. Kitao, H. Nakai, T. Vreven, J. A. Montgomery, Jr., 
 J. E. Peralta, F. Ogliaro, M. Bearpark, J. J. Heyd, E. Brothers, 
 K. N. Kudin, V. N. Staroverov, T. Keith, R. Kobayashi, J. Normand, 
 K. Raghavachari, A. Rendell, J. C. Burant, S. S. Iyengar, J. Tomasi, 
 M. Cossi, N. Rega, J. M. Millam, M. Klene, J. E. Knox, J. B. Cross, 
 V. Bakken, C. Adamo, J. Jaramillo, R. Gomperts, R. E. Stratmann, 
 O. Yazyev, A. J. Austin, R. Cammi, C. Pomelli, J. W. Ochterski, 
 R. L. Martin, K. Morokuma, V. G. Zakrzewski, G. A. Voth, 
 P. Salvador, J. J. Dannenberg, S. Dapprich, A. D. Daniels, 
 O. Farkas, J. B. Foresman, J. V. Ortiz, J. Cioslowski, 
 and D. J. Fox, Gaussian, Inc., Wallingford CT, 2013.
 
 ******************************************
 Gaussian 09:  ES64L-G09RevD.01 24-Apr-2013
                 7-Nov-2015 
 ******************************************
 %mem=6GB
 %nprocshared=4
 Will use up to    4 processors via shared memory.
 ----------------------------------------------
 #p B3LYP/6-31G(d) opt=tight int=ultrafine freq
 ----------------------------------------------
 1/7=10,14=-1,18=20,19=15,26=4,38=1/1,3;
 2/9=110,12=2,17=6,18=5,40=1/2;
 3/5=1,6=6,7=1,11=2,16=1,25=1,30=1,71=1,74=-5,75=-5/1,2,3;
 4//1;
 5/5=2,38=5/2;
 6/7=2,8=2,9=2,10=2,28=1/1;
 7//1,2,3,16;
 1/7=10,14=-1,18=20,19=15,26=4/3(2);
 2/9=110/2;
 99//99;
 2/9=110/2;
 3/5=1,6=6,7=1,11=2,16=1,25=1,30=1,71=1,74=-5,75=-5/1,2,3;
 4/5=5,16=3,69=1/1;
 5/5=2,38=5/2;
 7//1,2,3,16;
 1/7=10,14=-1,18=20,19=15,26=4/3(-5);
 2/9=110/2;
 6/7=2,8=2,9=2,10=2,19=2,28=1/1;
 99/9=1/99;
 Leave Link    1 at Sat Nov  7 02:10:32 2015, MaxMem=   805306368 cpu:         0.2
 (Enter /home/hetanjin/apps/g09D01/g09/l101.exe)
 ---------------------------------------------
 using B3LYP/6-31G(d) to do opt and freq calc.
 ---------------------------------------------
 Symbolic Z-matrix:
 Charge =  0 Multiplicity = 2
 C                     0.00001   1.51843   1.25476 
 H                     0.34915   1.04207   2.17587 
 H                    -1.085     1.66472   1.34294 
 H                     0.4623    2.51127   1.20422 
 C                     0.34297   0.69665  -0.00001 
 H                     1.43141   0.52249  -0.00002 
 C                    -0.34297  -0.69665  -0.00001 
 H                    -1.43141  -0.52249  -0.00002 
 C                     0.00001  -1.51845  -1.25475 
 H                     1.08502  -1.66473  -1.34293 
 H                    -0.46227  -2.51129  -1.2042 
 H                    -0.34913  -1.04211  -2.17587 
 C                    -0.00001   1.51845  -1.25475 
 H                     0.34913   1.04211  -2.17587 
 H                    -1.08502   1.66473  -1.34293 
 H                     0.46227   2.51129  -1.2042 
 C                    -0.00001  -1.51843   1.25476 
 H                     1.085    -1.66472   1.34294 
 H                    -0.4623   -2.51127   1.20422 
 
 NAtoms=     19 NQM=       19 NQMF=       0 NMMI=      0 NMMIF=      0
                NMic=       0 NMicF=      0.
                    Isotopes and Nuclear Properties:
 (Nuclear quadrupole moments (NQMom) in fm**2, nuclear magnetic moments (NMagM)
  in nuclear magnetons)

  Atom         1           2           3           4           5           6           7           8           9          10
 IAtWgt=          12           1           1           1          12           1          12           1          12           1
 AtmWgt=  12.0000000   1.0078250   1.0078250   1.0078250  12.0000000   1.0078250  12.0000000   1.0078250  12.0000000   1.0078250
 NucSpn=           0           1           1           1           0           1           0           1           0           1
 AtZEff=   0.0000000   0.0000000   0.0000000   0.0000000   0.0000000   0.0000000   0.0000000   0.0000000   0.0000000   0.0000000
 NQMom=    0.0000000   0.0000000   0.0000000   0.0000000   0.0000000   0.0000000   0.0000000   0.0000000   0.0000000   0.0000000
 NMagM=    0.0000000   2.7928460   2.7928460   2.7928460   0.0000000   2.7928460   0.0000000   2.7928460   0.0000000   2.7928460
 AtZNuc=   6.0000000   1.0000000   1.0000000   1.0000000   6.0000000   1.0000000   6.0000000   1.0000000   6.0000000   1.0000000

  Atom        11          12          13          14          15          16          17          18          19
 IAtWgt=           1           1          12           1           1           1          12           1           1
 AtmWgt=   1.0078250   1.0078250  12.0000000   1.0078250   1.0078250   1.0078250  12.0000000   1.0078250   1.0078250
 NucSpn=           1           1           0           1           1           1           0           1           1
 AtZEff=   0.0000000   0.0000000   0.0000000   0.0000000   0.0000000   0.0000000   0.0000000   0.0000000   0.0000000
 NQMom=    0.0000000   0.0000000   0.0000000   0.0000000   0.0000000   0.0000000   0.0000000   0.0000000   0.0000000
 NMagM=    2.7928460   2.7928460   0.0000000   2.7928460   2.7928460   2.7928460   0.0000000   2.7928460   2.7928460
 AtZNuc=   1.0000000   1.0000000   6.0000000   1.0000000   1.0000000   1.0000000   6.0000000   1.0000000   1.0000000
 Leave Link  101 at Sat Nov  7 02:10:32 2015, MaxMem=   805306368 cpu:         0.7
 (Enter /home/hetanjin/apps/g09D01/g09/l103.exe)

 GradGradGradGradGradGradGradGradGradGradGradGradGradGradGradGradGradGrad
 Berny optimization.
 Initialization pass.
                           ----------------------------
                           !    Initial Parameters    !
                           ! (Angstroms and Degrees)  !
 --------------------------                            --------------------------
 ! Name  Definition              Value          Derivative Info.                !
 --------------------------------------------------------------------------------
 ! R1    R(1,2)                  1.0942         estimate D2E/DX2                !
 ! R2    R(1,3)                  1.0984         estimate D2E/DX2                !
 ! R3    R(1,4)                  1.0964         estimate D2E/DX2                !
 ! R4    R(1,5)                  1.5386         estimate D2E/DX2                !
 ! R5    R(5,6)                  1.1023         estimate D2E/DX2                !
 ! R6    R(5,7)                  1.553          estimate D2E/DX2                !
 ! R7    R(5,13)                 1.5386         estimate D2E/DX2                !
 ! R8    R(7,8)                  1.1023         estimate D2E/DX2                !
 ! R9    R(7,9)                  1.5386         estimate D2E/DX2                !
 ! R10   R(7,17)                 1.5386         estimate D2E/DX2                !
 ! R11   R(9,10)                 1.0984         estimate D2E/DX2                !
 ! R12   R(9,11)                 1.0964         estimate D2E/DX2                !
 ! R13   R(9,12)                 1.0942         estimate D2E/DX2                !
 ! R14   R(13,14)                1.0942         estimate D2E/DX2                !
 ! R15   R(13,15)                1.0984         estimate D2E/DX2                !
 ! R16   R(13,16)                1.0964         estimate D2E/DX2                !
 ! R17   R(17,18)                1.0984         estimate D2E/DX2                !
 ! R18   R(17,19)                1.0964         estimate D2E/DX2                !
 ! A1    A(2,1,3)              107.7942         estimate D2E/DX2                !
 ! A2    A(2,1,4)              107.3678         estimate D2E/DX2                !
 ! A3    A(2,1,5)              112.5112         estimate D2E/DX2                !
 ! A4    A(3,1,4)              107.4347         estimate D2E/DX2                !
 ! A5    A(3,1,5)              110.9038         estimate D2E/DX2                !
 ! A6    A(4,1,5)              110.6151         estimate D2E/DX2                !
 ! A7    A(1,5,6)              107.7277         estimate D2E/DX2                !
 ! A8    A(1,5,7)              112.3785         estimate D2E/DX2                !
 ! A9    A(1,5,13)             109.2744         estimate D2E/DX2                !
 ! A10   A(6,5,7)              107.1209         estimate D2E/DX2                !
 ! A11   A(6,5,13)             107.7277         estimate D2E/DX2                !
 ! A12   A(7,5,13)             112.3788         estimate D2E/DX2                !
 ! A13   A(5,7,8)              107.1209         estimate D2E/DX2                !
 ! A14   A(5,7,9)              112.3788         estimate D2E/DX2                !
 ! A15   A(5,7,17)             112.3785         estimate D2E/DX2                !
 ! A16   A(8,7,9)              107.7277         estimate D2E/DX2                !
 ! A17   A(8,7,17)             107.7277         estimate D2E/DX2                !
 ! A18   A(9,7,17)             109.2744         estimate D2E/DX2                !
 ! A19   A(7,9,10)             110.9039         estimate D2E/DX2                !
 ! A20   A(7,9,11)             110.6151         estimate D2E/DX2                !
 ! A21   A(7,9,12)             112.5112         estimate D2E/DX2                !
 ! A22   A(10,9,11)            107.4347         estimate D2E/DX2                !
 ! A23   A(10,9,12)            107.7943         estimate D2E/DX2                !
 ! A24   A(11,9,12)            107.3677         estimate D2E/DX2                !
 ! A25   A(5,13,14)            112.5112         estimate D2E/DX2                !
 ! A26   A(5,13,15)            110.9039         estimate D2E/DX2                !
 ! A27   A(5,13,16)            110.6151         estimate D2E/DX2                !
 ! A28   A(14,13,15)           107.7943         estimate D2E/DX2                !
 ! A29   A(14,13,16)           107.3677         estimate D2E/DX2                !
 ! A30   A(15,13,16)           107.4347         estimate D2E/DX2                !
 ! A31   A(7,17,18)            110.9038         estimate D2E/DX2                !
 ! A32   A(7,17,19)            110.6151         estimate D2E/DX2                !
 ! A33   A(18,17,19)           107.4347         estimate D2E/DX2                !
 ! D1    D(2,1,5,6)            -55.3394         estimate D2E/DX2                !
 ! D2    D(2,1,5,7)             62.4263         estimate D2E/DX2                !
 ! D3    D(2,1,5,13)          -172.1116         estimate D2E/DX2                !
 ! D4    D(3,1,5,6)           -176.1635         estimate D2E/DX2                !
 ! D5    D(3,1,5,7)            -58.3978         estimate D2E/DX2                !
 ! D6    D(3,1,5,13)            67.0643         estimate D2E/DX2                !
 ! D7    D(4,1,5,6)             64.7357         estimate D2E/DX2                !
 ! D8    D(4,1,5,7)           -177.4986         estimate D2E/DX2                !
 ! D9    D(4,1,5,13)           -52.0364         estimate D2E/DX2                !
 ! D10   D(1,5,7,8)             61.8763         estimate D2E/DX2                !
 ! D11   D(1,5,7,9)           -179.9988         estimate D2E/DX2                !
 ! D12   D(1,5,7,17)           -56.2483         estimate D2E/DX2                !
 ! D13   D(6,5,7,8)           -179.999          estimate D2E/DX2                !
 ! D14   D(6,5,7,9)            -61.8741         estimate D2E/DX2                !
 ! D15   D(6,5,7,17)            61.8763         estimate D2E/DX2                !
 ! D16   D(13,5,7,8)           -61.8741         estimate D2E/DX2                !
 ! D17   D(13,5,7,9)            56.2508         estimate D2E/DX2                !
 ! D18   D(13,5,7,17)         -179.9988         estimate D2E/DX2                !
 ! D19   D(1,5,13,14)          172.1107         estimate D2E/DX2                !
 ! D20   D(1,5,13,15)          -67.0651         estimate D2E/DX2                !
 ! D21   D(1,5,13,16)           52.0357         estimate D2E/DX2                !
 ! D22   D(6,5,13,14)           55.3386         estimate D2E/DX2                !
 ! D23   D(6,5,13,15)          176.1628         estimate D2E/DX2                !
 ! D24   D(6,5,13,16)          -64.7364         estimate D2E/DX2                !
 ! D25   D(7,5,13,14)          -62.4273         estimate D2E/DX2                !
 ! D26   D(7,5,13,15)           58.3969         estimate D2E/DX2                !
 ! D27   D(7,5,13,16)          177.4977         estimate D2E/DX2                !
 ! D28   D(5,7,9,10)            58.3969         estimate D2E/DX2                !
 ! D29   D(5,7,9,11)           177.4977         estimate D2E/DX2                !
 ! D30   D(5,7,9,12)           -62.4273         estimate D2E/DX2                !
 ! D31   D(8,7,9,10)           176.1628         estimate D2E/DX2                !
 ! D32   D(8,7,9,11)           -64.7364         estimate D2E/DX2                !
 ! D33   D(8,7,9,12)            55.3386         estimate D2E/DX2                !
 ! D34   D(17,7,9,10)          -67.0651         estimate D2E/DX2                !
 ! D35   D(17,7,9,11)           52.0357         estimate D2E/DX2                !
 ! D36   D(17,7,9,12)          172.1107         estimate D2E/DX2                !
 ! D37   D(5,7,17,18)          -58.3978         estimate D2E/DX2                !
 ! D38   D(5,7,17,19)         -177.4986         estimate D2E/DX2                !
 ! D39   D(8,7,17,18)         -176.1635         estimate D2E/DX2                !
 ! D40   D(8,7,17,19)           64.7357         estimate D2E/DX2                !
 ! D41   D(9,7,17,18)           67.0643         estimate D2E/DX2                !
 ! D42   D(9,7,17,19)          -52.0364         estimate D2E/DX2                !
 --------------------------------------------------------------------------------
 Trust Radius=3.00D-01 FncErr=1.00D-07 GrdErr=1.00D-06
 Number of steps in this run=    103 maximum allowed number of steps=    114.
 GradGradGradGradGradGradGradGradGradGradGradGradGradGradGradGradGradGrad

 Leave Link  103 at Sat Nov  7 02:10:32 2015, MaxMem=   805306368 cpu:         0.0
 (Enter /home/hetanjin/apps/g09D01/g09/l202.exe)
                          Input orientation:                          
 ---------------------------------------------------------------------
 Center     Atomic      Atomic             Coordinates (Angstroms)
 Number     Number       Type             X           Y           Z
 ---------------------------------------------------------------------
      1          6           0        0.000010    1.518429    1.254759
      2          1           0        0.349148    1.042070    2.175866
      3          1           0       -1.085003    1.664723    1.342944
      4          1           0        0.462302    2.511266    1.204222
      5          6           0        0.342970    0.696651   -0.000006
      6          1           0        1.431409    0.522493   -0.000015
      7          6           0       -0.342970   -0.696651   -0.000006
      8          1           0       -1.431409   -0.522493   -0.000015
      9          6           0        0.000010   -1.518447   -1.254754
     10          1           0        1.085024   -1.664732   -1.342928
     11          1           0       -0.462273   -2.511288   -1.204204
     12          1           0       -0.349127   -1.042109   -2.175873
     13          6           0       -0.000010    1.518447   -1.254754
     14          1           0        0.349127    1.042109   -2.175873
     15          1           0       -1.085024    1.664732   -1.342928
     16          1           0        0.462273    2.511288   -1.204204
     17          6           0       -0.000010   -1.518429    1.254759
     18          1           0        1.085003   -1.664723    1.342944
     19          1           0       -0.462302   -2.511266    1.204222
 ---------------------------------------------------------------------
                    Distance matrix (angstroms):
                    1          2          3          4          5
     1  C    0.000000
     2  H    1.094191   0.000000
     3  H    1.098377   1.771509   0.000000
     4  H    1.096355   1.765059   1.769190   0.000000
     5  C    1.538628   2.203128   2.186272   2.181108   0.000000
     6  H    2.148313   2.485097   3.072549   2.518844   1.102284
     7  C    2.568784   2.869947   2.816064   3.519852   1.552998
     8  H    2.790839   3.217561   2.589874   3.773595   2.152843
     9  C    3.939578   4.295032   4.249454   4.743297   2.568788
    10  H    4.249441   4.500022   4.796686   4.930995   2.816063
    11  H    4.743292   4.970878   4.931006   5.646362   3.519855
    12  H    4.295054   4.875348   4.500058   4.970909   2.869962
    13  C    2.509513   3.481092   2.818979   2.691837   1.538628
    14  H    3.481092   4.351739   3.850513   3.687312   2.203129
    15  H    2.818986   3.850515   2.685872   3.098195   2.186272
    16  H    2.691831   3.687312   3.098177   2.408426   2.181108
    17  C    3.036858   2.743448   3.364141   4.056443   2.568784
    18  H    3.364141   2.926084   3.974184   4.224439   2.816064
    19  H    4.056443   3.772100   4.224439   5.106929   3.519852
                    6          7          8          9         10
     6  H    0.000000
     7  C    2.152843   0.000000
     8  H    3.047577   1.102284   0.000000
     9  C    2.790826   1.538628   2.148314   0.000000
    10  H    2.589855   2.186272   3.072549   1.098376   0.000000
    11  H    3.773583   2.181108   2.518849   1.096355   1.769189
    12  H    3.217553   2.203129   2.485094   1.094191   1.771509
    13  C    2.148314   2.568788   2.790826   3.036894   3.364179
    14  H    2.485094   2.869962   3.217553   2.743500   2.926146
    15  H    3.072549   2.816063   2.589855   3.364179   3.974222
    16  H    2.518849   3.519855   3.773583   4.056477   4.224477
    17  C    2.790839   1.538628   2.148313   2.509513   2.818986
    18  H    2.589874   2.186272   3.072549   2.818979   2.685872
    19  H    3.773595   2.181108   2.518844   2.691837   3.098195
                   11         12         13         14         15
    11  H    0.000000
    12  H    1.765058   0.000000
    13  C    4.056477   2.743500   0.000000
    14  H    3.772153   2.198073   1.094191   0.000000
    15  H    4.224477   2.926146   1.098376   1.771509   0.000000
    16  H    5.106961   3.772153   1.096355   1.765058   1.769189
    17  C    2.691831   3.481092   3.939578   4.295054   4.249441
    18  H    3.098177   3.850513   4.249454   4.500058   4.796686
    19  H    2.408426   3.687312   4.743297   4.970909   4.930995
                   16         17         18         19
    16  H    0.000000
    17  C    4.743292   0.000000
    18  H    4.931006   1.098377   0.000000
    19  H    5.646362   1.096355   1.769190   0.000000
 Stoichiometry    C6H13(2)
 Framework group  C1[X(C6H13)]
 Deg. of freedom    51
 Full point group                 C1      NOp   1
 Largest Abelian subgroup         C1      NOp   1
 Largest concise Abelian subgroup C1      NOp   1
                         Standard orientation:                         
 ---------------------------------------------------------------------
 Center     Atomic      Atomic             Coordinates (Angstroms)
 Number     Number       Type             X           Y           Z
 ---------------------------------------------------------------------
      1          6           0        1.575940   -1.200291    0.071316
      2          1           0        1.170804   -2.153863   -0.280564
      3          1           0        1.692449   -1.266907    1.161462
      4          1           0        2.577943   -1.091286   -0.360079
      5          6           0        0.687332   -0.004695   -0.313782
      6          1           0        0.548764   -0.027894   -1.407076
      7          6           0       -0.724555   -0.086486    0.327848
      8          1           0       -0.585988   -0.063269    1.421141
      9          6           0       -1.613179    1.109092   -0.057270
     10          1           0       -1.729678    1.175697   -1.147418
     11          1           0       -2.615185    1.000073    0.374116
     12          1           0       -1.208065    2.062674    0.294608
     13          6           0        1.415948    1.303901    0.038459
     14          1           0        0.893369    2.188650   -0.337554
     15          1           0        1.521202    1.413270    1.126296
     16          1           0        2.424399    1.312034   -0.391602
     17          6           0       -1.453152   -1.395097   -0.024373
     18          1           0       -1.558415   -1.504478   -1.112209
     19          1           0       -2.461600   -1.403243    0.405698
 ---------------------------------------------------------------------
 Rotational constants (GHZ):      4.3731879      2.8755777      1.9005941
 Leave Link  202 at Sat Nov  7 02:10:32 2015, MaxMem=   805306368 cpu:         0.0
 (Enter /home/hetanjin/apps/g09D01/g09/l301.exe)
 Standard basis: 6-31G(d) (6D, 7F)
 Ernie: Thresh=  0.10000D-02 Tol=  0.10000D-05 Strict=F.
 There are   116 symmetry adapted cartesian basis functions of A   symmetry.
 There are   116 symmetry adapted basis functions of A   symmetry.
   116 basis functions,   220 primitive gaussians,   116 cartesian basis functions
    25 alpha electrons       24 beta electrons
       nuclear repulsion energy       250.9789263552 Hartrees.
 IExCor=  402 DFT=T Ex+Corr=B3LYP ExCW=0 ScaHFX=  0.200000
 ScaDFX=  0.800000  0.720000  1.000000  0.810000 ScalE2=  1.000000  1.000000
 IRadAn=      5 IRanWt=     -1 IRanGd=            0 ICorTp=0 IEmpDi=  4
 NAtoms=   19 NActive=   19 NUniq=   19 SFac= 1.00D+00 NAtFMM=   60 NAOKFM=F Big=F
 Integral buffers will be    131072 words long.
 Raffenetti 2 integral format.
 Two-electron integral symmetry is turned on.
 Leave Link  301 at Sat Nov  7 02:10:32 2015, MaxMem=   805306368 cpu:         0.2
 (Enter /home/hetanjin/apps/g09D01/g09/l302.exe)
 NPDir=0 NMtPBC=     1 NCelOv=     1 NCel=       1 NClECP=     1 NCelD=      1
         NCelK=      1 NCelE2=     1 NClLst=     1 CellRange=     0.0.
 One-electron integrals computed using PRISM.
 NBasis=   116 RedAO= T EigKep=  3.72D-03  NBF=   116
 NBsUse=   116 1.00D-06 EigRej= -1.00D+00 NBFU=   116
 Precomputing XC quadrature grid using
 IXCGrd= 4 IRadAn=           5 IRanWt=          -1 IRanGd=           0 AccXCQ= 0.00D+00.
 Generated NRdTot=       0 NPtTot=           0 NUsed=           0 NTot=          32
 NSgBfM=   116   116   116   116   116 MxSgAt=    19 MxSgA2=    19.
 Leave Link  302 at Sat Nov  7 02:10:33 2015, MaxMem=   805306368 cpu:         1.5
 (Enter /home/hetanjin/apps/g09D01/g09/l303.exe)
 DipDrv:  MaxL=1.
 Leave Link  303 at Sat Nov  7 02:10:33 2015, MaxMem=   805306368 cpu:         0.1
 (Enter /home/hetanjin/apps/g09D01/g09/l401.exe)
 ExpMin= 1.61D-01 ExpMax= 3.05D+03 ExpMxC= 4.57D+02 IAcc=3 IRadAn=         5 AccDes= 0.00D+00
 Harris functional with IExCor=  402 and IRadAn=       5 diagonalized for initial guess.
 HarFok:  IExCor=  402 AccDes= 0.00D+00 IRadAn=         5 IDoV= 1 UseB2=F ITyADJ=14
 ICtDFT=  3500011 ScaDFX=  1.000000  1.000000  1.000000  1.000000
 FoFCou: FMM=F IPFlag=           0 FMFlag=      100000 FMFlg1=           0
         NFxFlg=           0 DoJE=T BraDBF=F KetDBF=T FulRan=T
         wScrn=  0.000000 ICntrl=     500 IOpCl=  0 I1Cent=   200000004 NGrid=           0
         NMat0=    1 NMatS0=      1 NMatT0=    0 NMatD0=    1 NMtDS0=    0 NMtDT0=    0
 Petite list used in FoFCou.
 Harris En= -236.438605195812    
 JPrj=0 DoOrth=F DoCkMO=F.
 Initial guess <Sx>= 0.0000 <Sy>= 0.0000 <Sz>= 0.5000 <S**2>= 0.7500 S= 0.5000
 Leave Link  401 at Sat Nov  7 02:10:35 2015, MaxMem=   805306368 cpu:         8.4
 (Enter /home/hetanjin/apps/g09D01/g09/l502.exe)
 UHF open shell SCF:
 Using DIIS extrapolation, IDIIS=  1040.
 Integral symmetry usage will be decided dynamically.
 Keep R1 and R2 ints in memory in canonical form, NReq=47059932.
 IVT=       60514 IEndB=       60514 NGot=   805306368 MDV=   759189273
 LenX=   759189273 LenY=   759175376
 Requested convergence on RMS density matrix=1.00D-08 within 128 cycles.
 Requested convergence on MAX density matrix=1.00D-06.
 Requested convergence on             energy=1.00D-06.
 No special actions if energy rises.
 FoFCou: FMM=F IPFlag=           0 FMFlag=           0 FMFlg1=           0
         NFxFlg=           0 DoJE=F BraDBF=F KetDBF=F FulRan=T
         wScrn=  0.000000 ICntrl=     600 IOpCl=  0 I1Cent=           0 NGrid=           0
         NMat0=    1 NMatS0=   6786 NMatT0=    0 NMatD0=    1 NMtDS0=    0 NMtDT0=    0
 Symmetry not used in FoFCou.
 Integral accuracy reduced to 1.0D-05 until final iterations.

 Cycle   1  Pass 0  IDiag  1:
 E= -236.150697921267    
 DIIS: error= 4.31D-02 at cycle   1 NSaved=   1.
 NSaved= 1 IEnMin= 1 EnMin= -236.150697921267     IErMin= 1 ErrMin= 4.31D-02
 ErrMax= 4.31D-02  0.00D+00 EMaxC= 1.00D-01 BMatC= 8.87D-01 BMatP= 8.87D-01
 IDIUse=3 WtCom= 5.69D-01 WtEn= 4.31D-01
 Coeff-Com:  0.100D+01
 Coeff-En:   0.100D+01
 Coeff:      0.100D+01
 Gap=     0.284 Goal=   None    Shift=    0.000
 Gap=     0.238 Goal=   None    Shift=    0.000
 GapD=    0.238 DampG=1.000 DampE=0.500 DampFc=0.5000 IDamp=-1.
 Damping current iteration by 5.00D-01
 RMSDP=9.60D-03 MaxDP=1.37D-01              OVMax= 1.82D-01

 Cycle   2  Pass 0  IDiag  1:
 E= -236.261935426081     Delta-E=       -0.111237504814 Rises=F Damp=T
 DIIS: error= 6.96D-03 at cycle   2 NSaved=   2.
 NSaved= 2 IEnMin= 2 EnMin= -236.261935426081     IErMin= 2 ErrMin= 6.96D-03
 ErrMax= 6.96D-03  0.00D+00 EMaxC= 1.00D-01 BMatC= 3.89D-02 BMatP= 8.87D-01
 IDIUse=3 WtCom= 9.30D-01 WtEn= 6.96D-02
 Coeff-Com:  0.712D-01 0.929D+00
 Coeff-En:   0.118D+00 0.882D+00
 Coeff:      0.745D-01 0.925D+00
 Gap=     0.320 Goal=   None    Shift=    0.000
 Gap=     0.269 Goal=   None    Shift=    0.000
 RMSDP=1.67D-03 MaxDP=2.36D-02 DE=-1.11D-01 OVMax= 1.01D-01

 Cycle   3  Pass 0  IDiag  1:
 E= -236.398704340819     Delta-E=       -0.136768914738 Rises=F Damp=F
 DIIS: error= 3.53D-03 at cycle   3 NSaved=   3.
 NSaved= 3 IEnMin= 3 EnMin= -236.398704340819     IErMin= 3 ErrMin= 3.53D-03
 ErrMax= 3.53D-03  0.00D+00 EMaxC= 1.00D-01 BMatC= 6.83D-03 BMatP= 3.89D-02
 IDIUse=3 WtCom= 9.65D-01 WtEn= 3.53D-02
 Coeff-Com: -0.177D-02 0.235D+00 0.766D+00
 Coeff-En:   0.000D+00 0.000D+00 0.100D+01
 Coeff:     -0.171D-02 0.227D+00 0.775D+00
 Gap=     0.318 Goal=   None    Shift=    0.000
 Gap=     0.235 Goal=   None    Shift=    0.000
 RMSDP=6.43D-04 MaxDP=1.48D-02 DE=-1.37D-01 OVMax= 1.39D-02

 Cycle   4  Pass 0  IDiag  1:
 E= -236.399719782456     Delta-E=       -0.001015441636 Rises=F Damp=F
 DIIS: error= 2.30D-03 at cycle   4 NSaved=   4.
 NSaved= 4 IEnMin= 4 EnMin= -236.399719782456     IErMin= 4 ErrMin= 2.30D-03
 ErrMax= 2.30D-03  0.00D+00 EMaxC= 1.00D-01 BMatC= 3.06D-03 BMatP= 6.83D-03
 IDIUse=3 WtCom= 9.77D-01 WtEn= 2.30D-02
 Coeff-Com: -0.607D-02 0.345D-01 0.409D+00 0.562D+00
 Coeff-En:   0.000D+00 0.000D+00 0.293D+00 0.707D+00
 Coeff:     -0.593D-02 0.337D-01 0.407D+00 0.566D+00
 Gap=     0.313 Goal=   None    Shift=    0.000
 Gap=     0.245 Goal=   None    Shift=    0.000
 RMSDP=2.39D-04 MaxDP=4.91D-03 DE=-1.02D-03 OVMax= 6.34D-03

 Cycle   5  Pass 0  IDiag  1:
 E= -236.400468915343     Delta-E=       -0.000749132887 Rises=F Damp=F
 DIIS: error= 2.39D-04 at cycle   5 NSaved=   5.
 NSaved= 5 IEnMin= 5 EnMin= -236.400468915343     IErMin= 5 ErrMin= 2.39D-04
 ErrMax= 2.39D-04  0.00D+00 EMaxC= 1.00D-01 BMatC= 4.75D-05 BMatP= 3.06D-03
 IDIUse=3 WtCom= 9.98D-01 WtEn= 2.39D-03
 Coeff-Com: -0.115D-02-0.356D-02 0.724D-01 0.165D+00 0.768D+00
 Coeff-En:   0.000D+00 0.000D+00 0.000D+00 0.000D+00 0.100D+01
 Coeff:     -0.115D-02-0.355D-02 0.722D-01 0.164D+00 0.768D+00
 Gap=     0.314 Goal=   None    Shift=    0.000
 Gap=     0.244 Goal=   None    Shift=    0.000
 RMSDP=3.53D-05 MaxDP=6.96D-04 DE=-7.49D-04 OVMax= 9.38D-04

 Cycle   6  Pass 0  IDiag  1:
 E= -236.400481666962     Delta-E=       -0.000012751619 Rises=F Damp=F
 DIIS: error= 7.09D-05 at cycle   6 NSaved=   6.
 NSaved= 6 IEnMin= 6 EnMin= -236.400481666962     IErMin= 6 ErrMin= 7.09D-05
 ErrMax= 7.09D-05  0.00D+00 EMaxC= 1.00D-01 BMatC= 3.57D-06 BMatP= 4.75D-05
 IDIUse=1 WtCom= 1.00D+00 WtEn= 0.00D+00
 Coeff-Com: -0.443D-04-0.248D-02-0.303D-02 0.119D-01 0.183D+00 0.811D+00
 Coeff:     -0.443D-04-0.248D-02-0.303D-02 0.119D-01 0.183D+00 0.811D+00
 Gap=     0.314 Goal=   None    Shift=    0.000
 Gap=     0.244 Goal=   None    Shift=    0.000
 RMSDP=1.43D-05 MaxDP=4.20D-04 DE=-1.28D-05 OVMax= 4.49D-04

 Cycle   7  Pass 0  IDiag  1:
 E= -236.400482823651     Delta-E=       -0.000001156689 Rises=F Damp=F
 DIIS: error= 4.87D-05 at cycle   7 NSaved=   7.
 NSaved= 7 IEnMin= 7 EnMin= -236.400482823651     IErMin= 7 ErrMin= 4.87D-05
 ErrMax= 4.87D-05  0.00D+00 EMaxC= 1.00D-01 BMatC= 1.32D-06 BMatP= 3.57D-06
 IDIUse=1 WtCom= 1.00D+00 WtEn= 0.00D+00
 Coeff-Com:  0.242D-03-0.162D-03-0.201D-01-0.369D-01-0.116D+00 0.383D+00
 Coeff-Com:  0.790D+00
 Coeff:      0.242D-03-0.162D-03-0.201D-01-0.369D-01-0.116D+00 0.383D+00
 Coeff:      0.790D+00
 Gap=     0.314 Goal=   None    Shift=    0.000
 Gap=     0.244 Goal=   None    Shift=    0.000
 RMSDP=7.01D-06 MaxDP=2.14D-04 DE=-1.16D-06 OVMax= 2.03D-04

 Initial convergence to 1.0D-05 achieved.  Increase integral accuracy.
 Cycle   8  Pass 1  IDiag  1:
 E= -236.400470342022     Delta-E=        0.000012481629 Rises=F Damp=F
 DIIS: error= 7.11D-06 at cycle   1 NSaved=   1.
 NSaved= 1 IEnMin= 1 EnMin= -236.400470342022     IErMin= 1 ErrMin= 7.11D-06
 ErrMax= 7.11D-06  0.00D+00 EMaxC= 1.00D-01 BMatC= 7.22D-08 BMatP= 7.22D-08
 IDIUse=1 WtCom= 1.00D+00 WtEn= 0.00D+00
 Coeff-Com:  0.100D+01
 Coeff:      0.100D+01
 Gap=     0.314 Goal=   None    Shift=    0.000
 Gap=     0.244 Goal=   None    Shift=    0.000
 RMSDP=7.01D-06 MaxDP=2.14D-04 DE= 1.25D-05 OVMax= 5.63D-05

 Cycle   9  Pass 1  IDiag  1:
 E= -236.400470361555     Delta-E=       -0.000000019532 Rises=F Damp=F
 DIIS: error= 7.22D-06 at cycle   2 NSaved=   2.
 NSaved= 2 IEnMin= 2 EnMin= -236.400470361555     IErMin= 1 ErrMin= 7.11D-06
 ErrMax= 7.22D-06  0.00D+00 EMaxC= 1.00D-01 BMatC= 3.86D-08 BMatP= 7.22D-08
 IDIUse=1 WtCom= 1.00D+00 WtEn= 0.00D+00
 Coeff-Com:  0.395D+00 0.605D+00
 Coeff:      0.395D+00 0.605D+00
 Gap=     0.314 Goal=   None    Shift=    0.000
 Gap=     0.244 Goal=   None    Shift=    0.000
 RMSDP=1.11D-06 MaxDP=2.11D-05 DE=-1.95D-08 OVMax= 3.20D-05

 Cycle  10  Pass 1  IDiag  1:
 E= -236.400470370539     Delta-E=       -0.000000008984 Rises=F Damp=F
 DIIS: error= 3.28D-06 at cycle   3 NSaved=   3.
 NSaved= 3 IEnMin= 3 EnMin= -236.400470370539     IErMin= 3 ErrMin= 3.28D-06
 ErrMax= 3.28D-06  0.00D+00 EMaxC= 1.00D-01 BMatC= 6.31D-09 BMatP= 3.86D-08
 IDIUse=1 WtCom= 1.00D+00 WtEn= 0.00D+00
 Coeff-Com: -0.493D-01 0.250D+00 0.799D+00
 Coeff:     -0.493D-01 0.250D+00 0.799D+00
 Gap=     0.314 Goal=   None    Shift=    0.000
 Gap=     0.244 Goal=   None    Shift=    0.000
 RMSDP=4.42D-07 MaxDP=9.24D-06 DE=-8.98D-09 OVMax= 1.45D-05

 Cycle  11  Pass 1  IDiag  1:
 E= -236.400470372488     Delta-E=       -0.000000001949 Rises=F Damp=F
 DIIS: error= 7.09D-07 at cycle   4 NSaved=   4.
 NSaved= 4 IEnMin= 4 EnMin= -236.400470372488     IErMin= 4 ErrMin= 7.09D-07
 ErrMax= 7.09D-07  0.00D+00 EMaxC= 1.00D-01 BMatC= 4.17D-10 BMatP= 6.31D-09
 IDIUse=1 WtCom= 1.00D+00 WtEn= 0.00D+00
 Coeff-Com: -0.484D-01 0.574D-02 0.201D+00 0.842D+00
 Coeff:     -0.484D-01 0.574D-02 0.201D+00 0.842D+00
 Gap=     0.314 Goal=   None    Shift=    0.000
 Gap=     0.244 Goal=   None    Shift=    0.000
 RMSDP=1.62D-07 MaxDP=4.55D-06 DE=-1.95D-09 OVMax= 4.49D-06

 Cycle  12  Pass 1  IDiag  1:
 E= -236.400470372667     Delta-E=       -0.000000000179 Rises=F Damp=F
 DIIS: error= 3.41D-07 at cycle   5 NSaved=   5.
 NSaved= 5 IEnMin= 5 EnMin= -236.400470372667     IErMin= 5 ErrMin= 3.41D-07
 ErrMax= 3.41D-07  0.00D+00 EMaxC= 1.00D-01 BMatC= 5.75D-11 BMatP= 4.17D-10
 IDIUse=1 WtCom= 1.00D+00 WtEn= 0.00D+00
 Coeff-Com: -0.242D-02-0.435D-01-0.968D-01 0.176D+00 0.967D+00
 Coeff:     -0.242D-02-0.435D-01-0.968D-01 0.176D+00 0.967D+00
 Gap=     0.314 Goal=   None    Shift=    0.000
 Gap=     0.244 Goal=   None    Shift=    0.000
 RMSDP=7.11D-08 MaxDP=2.46D-06 DE=-1.79D-10 OVMax= 2.35D-06

 Cycle  13  Pass 1  IDiag  1:
 E= -236.400470372691     Delta-E=       -0.000000000024 Rises=F Damp=F
 DIIS: error= 1.28D-07 at cycle   6 NSaved=   6.
 NSaved= 6 IEnMin= 6 EnMin= -236.400470372691     IErMin= 6 ErrMin= 1.28D-07
 ErrMax= 1.28D-07  0.00D+00 EMaxC= 1.00D-01 BMatC= 1.23D-11 BMatP= 5.75D-11
 IDIUse=1 WtCom= 1.00D+00 WtEn= 0.00D+00
 Coeff-Com:  0.343D-02-0.206D-01-0.633D-01 0.856D-02 0.457D+00 0.615D+00
 Coeff:      0.343D-02-0.206D-01-0.633D-01 0.856D-02 0.457D+00 0.615D+00
 Gap=     0.314 Goal=   None    Shift=    0.000
 Gap=     0.244 Goal=   None    Shift=    0.000
 RMSDP=1.97D-08 MaxDP=6.75D-07 DE=-2.43D-11 OVMax= 6.41D-07

 Cycle  14  Pass 1  IDiag  1:
 E= -236.400470372695     Delta-E=       -0.000000000004 Rises=F Damp=F
 DIIS: error= 2.27D-08 at cycle   7 NSaved=   7.
 NSaved= 7 IEnMin= 7 EnMin= -236.400470372695     IErMin= 7 ErrMin= 2.27D-08
 ErrMax= 2.27D-08  0.00D+00 EMaxC= 1.00D-01 BMatC= 5.58D-13 BMatP= 1.23D-11
 IDIUse=1 WtCom= 1.00D+00 WtEn= 0.00D+00
 Coeff-Com:  0.129D-02-0.504D-02-0.175D-01-0.793D-02 0.113D+00 0.236D+00
 Coeff-Com:  0.680D+00
 Coeff:      0.129D-02-0.504D-02-0.175D-01-0.793D-02 0.113D+00 0.236D+00
 Coeff:      0.680D+00
 Gap=     0.314 Goal=   None    Shift=    0.000
 Gap=     0.244 Goal=   None    Shift=    0.000
 RMSDP=4.84D-09 MaxDP=8.60D-08 DE=-3.87D-12 OVMax= 1.09D-07

 SCF Done:  E(UB3LYP) =  -236.400470373     A.U. after   14 cycles
            NFock= 14  Conv=0.48D-08     -V/T= 2.0104
 <Sx>= 0.0000 <Sy>= 0.0000 <Sz>= 0.5000 <S**2>= 0.7527 S= 0.5013
 <L.S>= 0.000000000000E+00
 KE= 2.339623829851D+02 PE=-1.047497318410D+03 EE= 3.261555386974D+02
 Annihilation of the first spin contaminant:
 S**2 before annihilation     0.7527,   after     0.7500
 Leave Link  502 at Sat Nov  7 02:11:21 2015, MaxMem=   805306368 cpu:       175.4
 (Enter /home/hetanjin/apps/g09D01/g09/l601.exe)
 Copying SCF densities to generalized density rwf, IOpCl= 1 IROHF=0.

 **********************************************************************

            Population analysis using the SCF density.

 **********************************************************************

 Orbital symmetries:
 Alpha Orbitals:
       Occupied  (A) (A) (A) (A) (A) (A) (A) (A) (A) (A) (A) (A)
                 (A) (A) (A) (A) (A) (A) (A) (A) (A) (A) (A) (A)
                 (A)
       Virtual   (A) (A) (A) (A) (A) (A) (A) (A) (A) (A) (A) (A)
                 (A) (A) (A) (A) (A) (A) (A) (A) (A) (A) (A) (A)
                 (A) (A) (A) (A) (A) (A) (A) (A) (A) (A) (A) (A)
                 (A) (A) (A) (A) (A) (A) (A) (A) (A) (A) (A) (A)
                 (A) (A) (A) (A) (A) (A) (A) (A) (A) (A) (A) (A)
                 (A) (A) (A) (A) (A) (A) (A) (A) (A) (A) (A) (A)
                 (A) (A) (A) (A) (A) (A) (A) (A) (A) (A) (A) (A)
                 (A) (A) (A) (A) (A) (A) (A)
 Beta  Orbitals:
       Occupied  (A) (A) (A) (A) (A) (A) (A) (A) (A) (A) (A) (A)
                 (A) (A) (A) (A) (A) (A) (A) (A) (A) (A) (A) (A)
       Virtual   (A) (A) (A) (A) (A) (A) (A) (A) (A) (A) (A) (A)
                 (A) (A) (A) (A) (A) (A) (A) (A) (A) (A) (A) (A)
                 (A) (A) (A) (A) (A) (A) (A) (A) (A) (A) (A) (A)
                 (A) (A) (A) (A) (A) (A) (A) (A) (A) (A) (A) (A)
                 (A) (A) (A) (A) (A) (A) (A) (A) (A) (A) (A) (A)
                 (A) (A) (A) (A) (A) (A) (A) (A) (A) (A) (A) (A)
                 (A) (A) (A) (A) (A) (A) (A) (A) (A) (A) (A) (A)
                 (A) (A) (A) (A) (A) (A) (A) (A)
 The electronic state is 2-A.
 Alpha  occ. eigenvalues --  -10.19338 -10.18953 -10.18459 -10.17747 -10.16923
 Alpha  occ. eigenvalues --  -10.16660  -0.81468  -0.74519  -0.68383  -0.66157
 Alpha  occ. eigenvalues --   -0.60311  -0.54594  -0.45378  -0.44453  -0.42440
 Alpha  occ. eigenvalues --   -0.41464  -0.39048  -0.38177  -0.37575  -0.35900
 Alpha  occ. eigenvalues --   -0.34319  -0.32289  -0.31687  -0.30577  -0.22702
 Alpha virt. eigenvalues --    0.08700   0.11423   0.12631   0.13604   0.15015
 Alpha virt. eigenvalues --    0.16247   0.16534   0.17744   0.18484   0.18602
 Alpha virt. eigenvalues --    0.19296   0.20351   0.22177   0.23680   0.25245
 Alpha virt. eigenvalues --    0.26670   0.27522   0.27670   0.49409   0.50497
 Alpha virt. eigenvalues --    0.51424   0.51791   0.54639   0.56412   0.59659
 Alpha virt. eigenvalues --    0.62418   0.62902   0.63701   0.68237   0.73738
 Alpha virt. eigenvalues --    0.73989   0.75484   0.80334   0.83802   0.84482
 Alpha virt. eigenvalues --    0.88208   0.88639   0.89485   0.90920   0.91353
 Alpha virt. eigenvalues --    0.92250   0.92788   0.93020   0.95023   0.95691
 Alpha virt. eigenvalues --    0.97334   0.98515   0.99915   1.03779   1.04385
 Alpha virt. eigenvalues --    1.24123   1.36586   1.39468   1.41441   1.49012
 Alpha virt. eigenvalues --    1.56827   1.57352   1.68734   1.73156   1.77547
 Alpha virt. eigenvalues --    1.79988   1.83823   1.90790   1.91599   1.95457
 Alpha virt. eigenvalues --    1.96360   2.00535   2.01696   2.02571   2.09162
 Alpha virt. eigenvalues --    2.12366   2.15613   2.18621   2.24173   2.25317
 Alpha virt. eigenvalues --    2.27155   2.35276   2.38737   2.45567   2.47142
 Alpha virt. eigenvalues --    2.51320   2.58555   2.75361   2.76628   2.77106
 Alpha virt. eigenvalues --    4.11036   4.20810   4.26951   4.29191   4.45631
 Alpha virt. eigenvalues --    4.61866
  Beta  occ. eigenvalues --  -10.18976 -10.18452 -10.17892 -10.17630 -10.16925
  Beta  occ. eigenvalues --  -10.16649  -0.81083  -0.74001  -0.67888  -0.64911
  Beta  occ. eigenvalues --   -0.59494  -0.54300  -0.45151  -0.44079  -0.42142
  Beta  occ. eigenvalues --   -0.41043  -0.38625  -0.37878  -0.37218  -0.35548
  Beta  occ. eigenvalues --   -0.34025  -0.31977  -0.31290  -0.30448
  Beta virt. eigenvalues --   -0.06010   0.08842   0.11616   0.12840   0.14022
  Beta virt. eigenvalues --    0.15145   0.16544   0.16752   0.18026   0.18642
  Beta virt. eigenvalues --    0.18991   0.19448   0.20624   0.22333   0.24089
  Beta virt. eigenvalues --    0.25562   0.27009   0.27907   0.28214   0.49657
  Beta virt. eigenvalues --    0.51182   0.51637   0.53412   0.54817   0.57448
  Beta virt. eigenvalues --    0.61040   0.63162   0.63637   0.64878   0.69601
  Beta virt. eigenvalues --    0.74020   0.74126   0.75798   0.80713   0.84025
  Beta virt. eigenvalues --    0.84861   0.88411   0.88872   0.89656   0.91223
  Beta virt. eigenvalues --    0.91725   0.92546   0.93139   0.93587   0.95221
  Beta virt. eigenvalues --    0.96334   0.97918   0.98665   1.00316   1.04073
  Beta virt. eigenvalues --    1.04714   1.25383   1.36903   1.40102   1.42051
  Beta virt. eigenvalues --    1.49619   1.57047   1.58135   1.69215   1.73841
  Beta virt. eigenvalues --    1.79800   1.80329   1.84557   1.91624   1.92102
  Beta virt. eigenvalues --    1.96216   1.99293   2.01178   2.03439   2.03788
  Beta virt. eigenvalues --    2.09498   2.13131   2.17542   2.19299   2.24965
  Beta virt. eigenvalues --    2.25923   2.27195   2.35963   2.39474   2.46032
  Beta virt. eigenvalues --    2.47780   2.51482   2.59100   2.75868   2.76832
  Beta virt. eigenvalues --    2.77640   4.12363   4.22322   4.27712   4.29224
  Beta virt. eigenvalues --    4.45850   4.61998
          Condensed to atoms (all electrons):
               1          2          3          4          5          6
     1  C    5.111240   0.369847   0.371560   0.367858   0.382048  -0.046276
     2  H    0.369847   0.563056  -0.029971  -0.030621  -0.027233  -0.003664
     3  H    0.371560  -0.029971   0.583406  -0.032359  -0.034739   0.005892
     4  H    0.367858  -0.030621  -0.032359   0.587534  -0.030353  -0.002983
     5  C    0.382048  -0.027233  -0.034739  -0.030353   4.863636   0.370835
     6  H   -0.046276  -0.003664   0.005892  -0.002983   0.370835   0.650183
     7  C   -0.045079  -0.004985  -0.006536   0.004708   0.393835  -0.046927
     8  H   -0.005933  -0.000134   0.005808  -0.000089  -0.046036   0.007166
     9  C    0.004673   0.000066   0.000033  -0.000138  -0.044370  -0.006441
    10  H    0.000030  -0.000005   0.000011   0.000000  -0.006043   0.006017
    11  H   -0.000138  -0.000001   0.000000   0.000002   0.004645  -0.000082
    12  H   -0.000011  -0.000007  -0.000003  -0.000003  -0.004839  -0.000070
    13  C   -0.056446   0.005117  -0.004576  -0.005263   0.374722  -0.047159
    14  H    0.005156  -0.000186  -0.000058   0.000019  -0.027603  -0.003717
    15  H   -0.004461  -0.000060   0.004259  -0.000223  -0.035217   0.005949
    16  H   -0.005297   0.000016  -0.000211   0.005143  -0.028853  -0.002890
    17  C   -0.003372   0.008000  -0.000195   0.000156  -0.043095  -0.006110
    18  H   -0.000699   0.000271   0.000115  -0.000038  -0.007327   0.005885
    19  H    0.000172  -0.000131  -0.000037   0.000001   0.004743  -0.000075
               7          8          9         10         11         12
     1  C   -0.045079  -0.005933   0.004673   0.000030  -0.000138  -0.000011
     2  H   -0.004985  -0.000134   0.000066  -0.000005  -0.000001  -0.000007
     3  H   -0.006536   0.005808   0.000033   0.000011   0.000000  -0.000003
     4  H    0.004708  -0.000089  -0.000138   0.000000   0.000002  -0.000003
     5  C    0.393835  -0.046036  -0.044370  -0.006043   0.004645  -0.004839
     6  H   -0.046927   0.007166  -0.006441   0.006017  -0.000082  -0.000070
     7  C    4.902535   0.366618   0.365103  -0.034822  -0.029939  -0.025909
     8  H    0.366618   0.640041  -0.046020   0.005938  -0.002868  -0.003781
     9  C    0.365103  -0.046020   5.141433   0.369797   0.367669   0.366021
    10  H   -0.034822   0.005938   0.369797   0.579918  -0.031765  -0.031268
    11  H   -0.029939  -0.002868   0.367669  -0.031765   0.578522  -0.029607
    12  H   -0.025909  -0.003781   0.366021  -0.031268  -0.029607   0.564972
    13  C   -0.044195  -0.006272  -0.004691  -0.000787   0.000169   0.001856
    14  H   -0.005090  -0.000077   0.001685   0.000623  -0.000049   0.002485
    15  H   -0.006072   0.005931  -0.000792   0.000131  -0.000041   0.000667
    16  H    0.004618  -0.000083   0.000184  -0.000040  -0.000001  -0.000070
    17  C    0.381256  -0.045921  -0.055442  -0.004102  -0.004700   0.005462
    18  H   -0.044856   0.006016  -0.001963   0.004358  -0.000238  -0.000146
    19  H   -0.038491  -0.004035  -0.002218  -0.000313   0.005463  -0.000083
              13         14         15         16         17         18
     1  C   -0.056446   0.005156  -0.004461  -0.005297  -0.003372  -0.000699
     2  H    0.005117  -0.000186  -0.000060   0.000016   0.008000   0.000271
     3  H   -0.004576  -0.000058   0.004259  -0.000211  -0.000195   0.000115
     4  H   -0.005263   0.000019  -0.000223   0.005143   0.000156  -0.000038
     5  C    0.374722  -0.027603  -0.035217  -0.028853  -0.043095  -0.007327
     6  H   -0.047159  -0.003717   0.005949  -0.002890  -0.006110   0.005885
     7  C   -0.044195  -0.005090  -0.006072   0.004618   0.381256  -0.044856
     8  H   -0.006272  -0.000077   0.005931  -0.000083  -0.045921   0.006016
     9  C   -0.004691   0.001685  -0.000792   0.000184  -0.055442  -0.001963
    10  H   -0.000787   0.000623   0.000131  -0.000040  -0.004102   0.004358
    11  H    0.000169  -0.000049  -0.000041  -0.000001  -0.004700  -0.000238
    12  H    0.001856   0.002485   0.000667  -0.000070   0.005462  -0.000146
    13  C    5.124020   0.369532   0.371349   0.369259   0.004441   0.000025
    14  H    0.369532   0.576736  -0.032282  -0.030315   0.000006  -0.000002
    15  H    0.371349  -0.032282   0.584647  -0.031801   0.000031   0.000011
    16  H    0.369259  -0.030315  -0.031801   0.580394  -0.000126   0.000000
    17  C    0.004441   0.000006   0.000031  -0.000126   5.345516   0.354338
    18  H    0.000025  -0.000002   0.000011   0.000000   0.354338   0.601379
    19  H   -0.000174   0.000000   0.000000   0.000002   0.351093  -0.045981
              19
     1  C    0.000172
     2  H   -0.000131
     3  H   -0.000037
     4  H    0.000001
     5  C    0.004743
     6  H   -0.000075
     7  C   -0.038491
     8  H   -0.004035
     9  C   -0.002218
    10  H   -0.000313
    11  H    0.005463
    12  H   -0.000083
    13  C   -0.000174
    14  H    0.000000
    15  H    0.000000
    16  H    0.000002
    17  C    0.351093
    18  H   -0.045981
    19  H    0.600625
          Atomic-Atomic Spin Densities.
               1          2          3          4          5          6
     1  C    0.011595   0.000288  -0.000123  -0.000974  -0.002715  -0.000127
     2  H    0.000288  -0.003408   0.000234   0.000126   0.000155   0.000017
     3  H   -0.000123   0.000234  -0.000200   0.000057  -0.000160  -0.000017
     4  H   -0.000974   0.000126   0.000057   0.001966  -0.000326  -0.000087
     5  C   -0.002715   0.000155  -0.000160  -0.000326   0.007423   0.000086
     6  H   -0.000127   0.000017  -0.000017  -0.000087   0.000086  -0.000595
     7  C   -0.000059  -0.000530  -0.000046  -0.000061   0.003650   0.000296
     8  H   -0.000631  -0.000083  -0.000069  -0.000035   0.002616   0.000039
     9  C    0.000478   0.000062   0.000014   0.000019  -0.004407  -0.000502
    10  H   -0.000018  -0.000003   0.000000  -0.000001   0.000145   0.000030
    11  H   -0.000001   0.000000   0.000000   0.000000   0.000009   0.000001
    12  H   -0.000089  -0.000003  -0.000002  -0.000003   0.000840   0.000104
    13  C    0.000424  -0.000082   0.000030  -0.000087   0.000577   0.000290
    14  H   -0.000005   0.000002   0.000000   0.000001  -0.000008  -0.000010
    15  H   -0.000022   0.000001  -0.000005  -0.000004  -0.000025  -0.000005
    16  H   -0.000059  -0.000003  -0.000002  -0.000054  -0.000022  -0.000007
    17  C   -0.000974   0.002543   0.000218   0.000196  -0.006115   0.000023
    18  H    0.000071  -0.000233  -0.000005  -0.000013   0.000947   0.000107
    19  H   -0.000034  -0.000021  -0.000003  -0.000001   0.000138   0.000020
               7          8          9         10         11         12
     1  C   -0.000059  -0.000631   0.000478  -0.000018  -0.000001  -0.000089
     2  H   -0.000530  -0.000083   0.000062  -0.000003   0.000000  -0.000003
     3  H   -0.000046  -0.000069   0.000014   0.000000   0.000000  -0.000002
     4  H   -0.000061  -0.000035   0.000019  -0.000001   0.000000  -0.000003
     5  C    0.003650   0.002616  -0.004407   0.000145   0.000009   0.000840
     6  H    0.000296   0.000039  -0.000502   0.000030   0.000001   0.000104
     7  C   -0.037594   0.003802   0.016836  -0.000123   0.000396  -0.002691
     8  H    0.003802   0.010037  -0.006697   0.000098   0.000009   0.001465
     9  C    0.016836  -0.006697   0.083494  -0.003501   0.000354  -0.016219
    10  H   -0.000123   0.000098  -0.003501  -0.001605   0.000308   0.001603
    11  H    0.000396   0.000009   0.000354   0.000308  -0.002019  -0.000062
    12  H   -0.002691   0.001465  -0.016219   0.001603  -0.000062   0.030564
    13  C    0.000490  -0.000207   0.000931  -0.000029   0.000001  -0.000791
    14  H   -0.000018   0.000007  -0.000013   0.000003   0.000002  -0.000022
    15  H    0.000001   0.000027  -0.000024   0.000001   0.000000   0.000028
    16  H   -0.000035  -0.000002  -0.000015   0.000000   0.000000   0.000011
    17  C   -0.029787  -0.003936  -0.030815   0.002019  -0.000081   0.002692
    18  H    0.001079   0.000148  -0.002238   0.000199   0.000025   0.000126
    19  H    0.000728   0.001034  -0.002454   0.000125  -0.000048   0.000170
              13         14         15         16         17         18
     1  C    0.000424  -0.000005  -0.000022  -0.000059  -0.000974   0.000071
     2  H   -0.000082   0.000002   0.000001  -0.000003   0.002543  -0.000233
     3  H    0.000030   0.000000  -0.000005  -0.000002   0.000218  -0.000005
     4  H   -0.000087   0.000001  -0.000004  -0.000054   0.000196  -0.000013
     5  C    0.000577  -0.000008  -0.000025  -0.000022  -0.006115   0.000947
     6  H    0.000290  -0.000010  -0.000005  -0.000007   0.000023   0.000107
     7  C    0.000490  -0.000018   0.000001  -0.000035  -0.029787   0.001079
     8  H   -0.000207   0.000007   0.000027  -0.000002  -0.003936   0.000148
     9  C    0.000931  -0.000013  -0.000024  -0.000015  -0.030815  -0.002238
    10  H   -0.000029   0.000003   0.000001   0.000000   0.002019   0.000199
    11  H    0.000001   0.000002   0.000000   0.000000  -0.000081   0.000025
    12  H   -0.000791  -0.000022   0.000028   0.000011   0.002692   0.000126
    13  C   -0.002848   0.000083   0.000107   0.000389   0.000002  -0.000032
    14  H    0.000083  -0.000093  -0.000025   0.000021   0.000002   0.000001
    15  H    0.000107  -0.000025  -0.000013   0.000008  -0.000002   0.000001
    16  H    0.000389   0.000021   0.000008  -0.000309  -0.000004   0.000000
    17  C    0.000002   0.000002  -0.000002  -0.000004   1.122948  -0.011459
    18  H   -0.000032   0.000001   0.000001   0.000000  -0.011459  -0.024734
    19  H    0.000003   0.000000   0.000000   0.000000  -0.010276   0.006097
              19
     1  C   -0.000034
     2  H   -0.000021
     3  H   -0.000003
     4  H   -0.000001
     5  C    0.000138
     6  H    0.000020
     7  C    0.000728
     8  H    0.001034
     9  C   -0.002454
    10  H    0.000125
    11  H   -0.000048
    12  H    0.000170
    13  C    0.000003
    14  H    0.000000
    15  H    0.000000
    16  H    0.000000
    17  C   -0.010276
    18  H    0.006097
    19  H   -0.026228
 Mulliken charges and spin densities:
               1          2
     1  C   -0.444872   0.007026
     2  H    0.150625  -0.000939
     3  H    0.137601  -0.000079
     4  H    0.136648   0.000720
     5  C   -0.058756   0.002807
     6  H    0.114465  -0.000335
     7  C   -0.085772  -0.043666
     8  H    0.123730   0.007622
     9  C   -0.454589   0.035304
    10  H    0.142322  -0.000751
    11  H    0.142959  -0.001107
    12  H    0.154333   0.017722
    13  C   -0.450928  -0.000748
    14  H    0.143137  -0.000071
    15  H    0.137972   0.000049
    16  H    0.140069  -0.000083
    17  C   -0.287236   1.037194
    18  H    0.128853  -0.029915
    19  H    0.129439  -0.030749
 Sum of Mulliken charges =   0.00000   1.00000
 Mulliken charges and spin densities with hydrogens summed into heavy atoms:
               1          2
     1  C   -0.019998   0.006727
     5  C    0.055709   0.002472
     7  C    0.037958  -0.036044
     9  C   -0.014975   0.051168
    13  C   -0.029749  -0.000854
    17  C   -0.028944   0.976530
 Electronic spatial extent (au):  <R**2>=            725.9107
 Charge=              0.0000 electrons
 Dipole moment (field-independent basis, Debye):
    X=             -0.2076    Y=              0.6428    Z=             -0.1593  Tot=              0.6941
 Quadrupole moment (field-independent basis, Debye-Ang):
   XX=            -40.2544   YY=            -42.7830   ZZ=            -40.3073
   XY=             -0.4366   XZ=             -0.0526   YZ=              0.4698
 Traceless Quadrupole moment (field-independent basis, Debye-Ang):
   XX=              0.8605   YY=             -1.6681   ZZ=              0.8076
   XY=             -0.4366   XZ=             -0.0526   YZ=              0.4698
 Octapole moment (field-independent basis, Debye-Ang**2):
  XXX=             -1.4964  YYY=              5.9227  ZZZ=             -0.0546  XYY=              1.1158
  XXY=              0.0450  XXZ=             -0.2616  XZZ=             -0.0447  YZZ=              0.3387
  YYZ=             -1.0802  XYZ=             -0.4882
 Hexadecapole moment (field-independent basis, Debye-Ang**3):
 XXXX=           -536.0134 YYYY=           -376.6286 ZZZZ=            -92.2416 XXXY=              2.0786
 XXXZ=             -7.3319 YYYX=             -7.3787 YYYZ=              2.6602 ZZZX=              2.8836
 ZZZY=              0.5416 XXYY=           -159.0201 XXZZ=           -105.9979 YYZZ=            -77.4614
 XXYZ=              0.3793 YYXZ=              0.2002 ZZXY=             -0.2652
 N-N= 2.509789263552D+02 E-N=-1.047497321797D+03  KE= 2.339623829851D+02
                          Isotropic Fermi Contact Couplings
        Atom                 a.u.       MegaHertz       Gauss      10(-4) cm-1
     1  C(13)              0.00092       1.03374       0.36886       0.34482
     2  H(1)               0.00111       4.96244       1.77072       1.65529
     3  H(1)              -0.00003      -0.11860      -0.04232      -0.03956
     4  H(1)               0.00027       1.18937       0.42440       0.39673
     5  C(13)              0.00270       3.03394       1.08259       1.01201
     6  H(1)              -0.00017      -0.77152      -0.27530      -0.25735
     7  C(13)             -0.01056     -11.87411      -4.23698      -3.96078
     8  H(1)               0.00492      21.97308       7.84054       7.32943
     9  C(13)              0.05415      60.87971      21.72339      20.30728
    10  H(1)              -0.00064      -2.86122      -1.02096      -0.95440
    11  H(1)               0.00020       0.87484       0.31216       0.29181
    12  H(1)               0.00627      28.04225      10.00617       9.35389
    13  C(13)             -0.00120      -1.35126      -0.48216      -0.45073
    14  H(1)               0.00002       0.10822       0.03861       0.03610
    15  H(1)               0.00007       0.30233       0.10788       0.10085
    16  H(1)               0.00006       0.25925       0.09251       0.08648
    17  C(13)              0.30370     341.42169     121.82775     113.88602
    18  H(1)              -0.00411     -18.39285      -6.56303      -6.13520
    19  H(1)              -0.00418     -18.67641      -6.66421      -6.22978
 --------------------------------------------------------
       Center         ----  Spin Dipole Couplings  ----
                      3XX-RR        3YY-RR        3ZZ-RR
 --------------------------------------------------------
     1   Atom        0.007288      0.002431     -0.009719
     2   Atom        0.015537     -0.006611     -0.008926
     3   Atom        0.006251     -0.003970     -0.002281
     4   Atom        0.004700     -0.002190     -0.002511
     5   Atom        0.006453     -0.000310     -0.006143
     6   Atom        0.001922     -0.000738     -0.001184
     7   Atom       -0.019217      0.042613     -0.023396
     8   Atom       -0.007375      0.004955      0.002421
     9   Atom       -0.020191      0.049914     -0.029723
    10   Atom       -0.007518      0.006106      0.001412
    11   Atom        0.003420      0.005019     -0.008438
    12   Atom       -0.003486      0.007717     -0.004231
    13   Atom        0.001581      0.000451     -0.002032
    14   Atom        0.000348      0.001577     -0.001925
    15   Atom        0.000924      0.000725     -0.001649
    16   Atom        0.001261      0.000111     -0.001372
    17   Atom       -0.110205      0.414477     -0.304272
    18   Atom       -0.045840     -0.024171      0.070011
    19   Atom        0.055017     -0.027458     -0.027558
 --------------------------------------------------------
                        XY            XZ            YZ
 --------------------------------------------------------
     1   Atom        0.007823      0.000545      0.002296
     2   Atom       -0.002164     -0.003405      0.001623
     3   Atom        0.001698      0.003925      0.000715
     4   Atom        0.000993     -0.001286     -0.000020
     5   Atom        0.009765     -0.005275     -0.002475
     6   Atom        0.005136     -0.005624     -0.004423
     7   Atom        0.009538      0.002599     -0.003803
     8   Atom        0.006518      0.007660      0.013683
     9   Atom       -0.029799      0.004622     -0.015191
    10   Atom       -0.001916      0.002905     -0.007613
    11   Atom       -0.008203     -0.003255      0.003110
    12   Atom        0.002304      0.001871      0.002432
    13   Atom        0.002167     -0.000377      0.000012
    14   Atom        0.002362     -0.000432     -0.000465
    15   Atom        0.002383      0.001043      0.000816
    16   Atom        0.001812     -0.000333     -0.000287
    17   Atom       -0.577558      0.254691     -0.397596
    18   Atom       -0.020108      0.014414      0.007684
    19   Atom       -0.011364     -0.041419     -0.019248
 --------------------------------------------------------


 ---------------------------------------------------------------------------------
              Anisotropic Spin Dipole Couplings in Principal Axis System
 ---------------------------------------------------------------------------------

       Atom             a.u.   MegaHertz   Gauss  10(-4) cm-1        Axes

              Baa    -0.0102    -1.368    -0.488    -0.456  0.0676 -0.2189  0.9734
     1 C(13)  Bbb    -0.0030    -0.402    -0.143    -0.134 -0.5985  0.7717  0.2151
              Bcc     0.0132     1.770     0.632     0.591  0.7983  0.5971  0.0788
 
              Baa    -0.0099    -5.306    -1.893    -1.770  0.0896 -0.3882  0.9172
     2 H(1)   Bbb    -0.0063    -3.362    -1.200    -1.122  0.1489  0.9158  0.3731
              Bcc     0.0162     8.669     3.093     2.892  0.9848 -0.1032 -0.1399
 
              Baa    -0.0043    -2.272    -0.811    -0.758 -0.1005  0.9826 -0.1560
     3 H(1)   Bbb    -0.0038    -2.031    -0.725    -0.677 -0.3771  0.1075  0.9199
              Bcc     0.0081     4.302     1.535     1.435  0.9207  0.1513  0.3598
 
              Baa    -0.0028    -1.484    -0.529    -0.495  0.2005 -0.3045  0.9312
     4 H(1)   Bbb    -0.0023    -1.214    -0.433    -0.405 -0.0744  0.9430  0.3244
              Bcc     0.0051     2.697     0.963     0.900  0.9769  0.1343 -0.1664
 
              Baa    -0.0085    -1.142    -0.408    -0.381  0.5247 -0.3975  0.7528
     5 C(13)  Bbb    -0.0065    -0.866    -0.309    -0.289 -0.3093  0.7348  0.6036
              Bcc     0.0150     2.008     0.717     0.670  0.7931  0.5495 -0.2626
 
              Baa    -0.0056    -3.003    -1.072    -1.002  0.3854  0.3626  0.8485
     6 H(1)   Bbb    -0.0047    -2.514    -0.897    -0.838 -0.6338  0.7723 -0.0422
              Bcc     0.0103     5.517     1.968     1.840  0.6706  0.5215 -0.5275
 
              Baa    -0.0256    -3.431    -1.224    -1.144 -0.5259  0.1205  0.8419
     7 C(13)  Bbb    -0.0187    -2.503    -0.893    -0.835  0.8378 -0.0971  0.5373
              Bcc     0.0442     5.934     2.117     1.979  0.1465  0.9879 -0.0499
 
              Baa    -0.0117    -6.265    -2.236    -2.090  0.7710  0.1957 -0.6060
     8 H(1)   Bbb    -0.0092    -4.913    -1.753    -1.639 -0.5430  0.6992 -0.4650
              Bcc     0.0210    11.178     3.989     3.729  0.3328  0.6876  0.6453
 
              Baa    -0.0329    -4.412    -1.574    -1.472  0.3785  0.2971  0.8767
     9 C(13)  Bbb    -0.0307    -4.118    -1.469    -1.374  0.8614  0.2335 -0.4510
              Bcc     0.0636     8.529     3.044     2.845 -0.3387  0.9259 -0.1675
 
              Baa    -0.0084    -4.477    -1.598    -1.494  0.9498 -0.0375 -0.3106
    10 H(1)   Bbb    -0.0039    -2.068    -0.738    -0.690  0.2666  0.6163  0.7410
              Bcc     0.0123     6.545     2.335     2.183 -0.1636  0.7866 -0.5954
 
              Baa    -0.0094    -5.005    -1.786    -1.669  0.1785 -0.1095  0.9778
    11 H(1)   Bbb    -0.0040    -2.137    -0.762    -0.713  0.7289  0.6822 -0.0567
              Bcc     0.0134     7.142     2.548     2.382 -0.6609  0.7229  0.2016
 
              Baa    -0.0058    -3.086    -1.101    -1.029 -0.6071 -0.0394  0.7937
    12 H(1)   Bbb    -0.0030    -1.589    -0.567    -0.530  0.7660 -0.2949  0.5712
              Bcc     0.0088     4.674     1.668     1.559  0.2116  0.9547  0.2092
 
              Baa    -0.0021    -0.283    -0.101    -0.095  0.2003 -0.1739  0.9642
    13 C(13)  Bbb    -0.0012    -0.156    -0.055    -0.052 -0.5769  0.7745  0.2596
              Bcc     0.0033     0.439     0.157     0.146  0.7919  0.6082 -0.0548
 
              Baa    -0.0020    -1.070    -0.382    -0.357  0.1559  0.0252  0.9874
    14 H(1)   Bbb    -0.0015    -0.786    -0.280    -0.262  0.7780 -0.6191 -0.1070
              Bcc     0.0035     1.855     0.662     0.619  0.6086  0.7849 -0.1162
 
              Baa    -0.0020    -1.077    -0.384    -0.359 -0.3571  0.0326  0.9335
    15 H(1)   Bbb    -0.0015    -0.813    -0.290    -0.271 -0.6140  0.7450 -0.2609
              Bcc     0.0035     1.891     0.675     0.631  0.7039  0.6663  0.2460
 
              Baa    -0.0014    -0.761    -0.271    -0.254 -0.0106  0.1960  0.9805
    16 H(1)   Bbb    -0.0012    -0.645    -0.230    -0.215 -0.5977  0.7849 -0.1634
              Bcc     0.0026     1.406     0.502     0.469  0.8017  0.5878 -0.1088
 
              Baa    -0.4827   -64.775   -23.113   -21.607  0.6881  0.6142  0.3865
    17 C(13)  Bbb    -0.4798   -64.381   -22.973   -21.475 -0.5190  0.0443  0.8536
              Bcc     0.9625   129.156    46.086    43.082 -0.5072  0.7879 -0.3493
 
              Baa    -0.0599   -31.957   -11.403   -10.660  0.8530  0.5069 -0.1246
    18 H(1)   Bbb    -0.0122    -6.494    -2.317    -2.166 -0.5099  0.8602  0.0090
              Bcc     0.0721    38.452    13.720    12.826  0.1118  0.0559  0.9922
 
              Baa    -0.0599   -31.956   -11.403   -10.659  0.3287  0.5645  0.7571
    19 H(1)   Bbb    -0.0124    -6.627    -2.365    -2.211 -0.1884  0.8248 -0.5331
              Bcc     0.0723    38.583    13.767    12.870  0.9254 -0.0326 -0.3775
 

 ---------------------------------------------------------------------------------

 No NMR shielding tensors so no spin-rotation constants.
 Leave Link  601 at Sat Nov  7 02:11:22 2015, MaxMem=   805306368 cpu:         0.9
 (Enter /home/hetanjin/apps/g09D01/g09/l701.exe)
 Compute integral first derivatives.
 ... and contract with generalized density number  0.
 Leave Link  701 at Sat Nov  7 02:11:22 2015, MaxMem=   805306368 cpu:         0.9
 (Enter /home/hetanjin/apps/g09D01/g09/l702.exe)
 L702 exits ... SP integral derivatives will be done elsewhere.
 Leave Link  702 at Sat Nov  7 02:11:22 2015, MaxMem=   805306368 cpu:         0.1
 (Enter /home/hetanjin/apps/g09D01/g09/l703.exe)
 Compute integral first derivatives, UseDBF=F ICtDFT=           0.
 Integral derivatives from FoFJK, PRISM(SPDF).
 Calling FoFJK, ICntrl=      2127 FMM=F ISym2X=0 I1Cent= 0 IOpClX= 1 NMat=1 NMatS=1 NMatT=0.
 FoFJK:  IHMeth= 1 ICntrl=    2127 DoSepK=F KAlg= 0 I1Cent=   0 FoldK=F
 IRaf=         0 NMat=   1 IRICut=       1 DoRegI=T DoRafI=F ISym2E= 0.
 FoFCou: FMM=F IPFlag=           0 FMFlag=      100000 FMFlg1=         800
         NFxFlg=           0 DoJE=F BraDBF=F KetDBF=F FulRan=T
         wScrn=  0.000000 ICntrl=    2127 IOpCl=  1 I1Cent=           0 NGrid=           0
         NMat0=    1 NMatS0=      1 NMatT0=    0 NMatD0=    1 NMtDS0=    0 NMtDT0=    0
 Symmetry not used in FoFCou.
 Leave Link  703 at Sat Nov  7 02:11:32 2015, MaxMem=   805306368 cpu:        34.5
 (Enter /home/hetanjin/apps/g09D01/g09/l716.exe)
 Dipole        =-8.16797328D-02 2.52910893D-01-6.26900188D-02
 ***** Axes restored to original set *****
 -------------------------------------------------------------------
 Center     Atomic                   Forces (Hartrees/Bohr)
 Number     Number              X              Y              Z
 -------------------------------------------------------------------
      1        6          -0.000610700   -0.000663050   -0.000066395
      2        1          -0.000527456   -0.002127872    0.000146970
      3        1           0.000221732   -0.000167287    0.000026413
      4        1           0.000115125    0.000135931   -0.000209129
      5        6           0.000349447    0.000901840   -0.000409292
      6        1           0.000041359   -0.000107336   -0.000031966
      7        6          -0.004451200    0.008836395    0.017703432
      8        1          -0.000351571   -0.000101631   -0.001088591
      9        6           0.002328345   -0.005977044    0.000610297
     10        1          -0.000394240    0.000145222    0.000004497
     11        1           0.000067324   -0.000087092   -0.000614845
     12        1          -0.000861027    0.001160180    0.000671376
     13        6           0.000120103   -0.000165596   -0.000088064
     14        1           0.000071564    0.000081864   -0.000249299
     15        1           0.000015337    0.000019744    0.000064953
     16        1          -0.000014689   -0.000103293   -0.000009312
     17        6           0.012258142   -0.012607089   -0.041544406
     18        1          -0.000498313    0.007306048    0.012501449
     19        1          -0.007879283    0.003520066    0.012581911
 -------------------------------------------------------------------
 Cartesian Forces:  Max     0.041544406 RMS     0.007184454
 Leave Link  716 at Sat Nov  7 02:11:32 2015, MaxMem=   805306368 cpu:         0.1
 (Enter /home/hetanjin/apps/g09D01/g09/l103.exe)

 GradGradGradGradGradGradGradGradGradGradGradGradGradGradGradGradGradGrad
 Berny optimization.
 FormGI is forming the generalized inverse of G from B-inverse, IUseBI=4.
 Internal  Forces:  Max     0.014626944 RMS     0.003440281
 Search for a local minimum.
 Step number   1 out of a maximum of  103
 All quantities printed in internal units (Hartrees-Bohrs-Radians)
 RMS Force = .34403D-02 SwitMx=.10000D-02 MixMth= 1
 Mixed Optimization -- RFO/linear search
 Second derivative matrix not updated -- first step.
 ITU=  0
     Eigenvalues ---    0.00230   0.00255   0.00255   0.00255   0.00255
     Eigenvalues ---    0.03324   0.03622   0.03688   0.04612   0.04690
     Eigenvalues ---    0.04914   0.05276   0.05276   0.05276   0.05491
     Eigenvalues ---    0.05491   0.05491   0.05726   0.16000   0.16000
     Eigenvalues ---    0.16000   0.16000   0.16000   0.16000   0.16000
     Eigenvalues ---    0.16000   0.16000   0.16000   0.16000   0.16647
     Eigenvalues ---    0.17030   0.17237   0.18157   0.27398   0.28641
     Eigenvalues ---    0.28641   0.28641   0.28641   0.33431   0.33431
     Eigenvalues ---    0.33862   0.33862   0.33862   0.33862   0.34088
     Eigenvalues ---    0.34088   0.34088   0.34088   0.34333   0.34333
     Eigenvalues ---    0.34333
 RFO step:  Lambda=-1.41064856D-02 EMin= 2.30000000D-03
 Linear search not attempted -- first point.
 Iteration  1 RMS(Cart)=  0.06007687 RMS(Int)=  0.00916083
 Iteration  2 RMS(Cart)=  0.00789455 RMS(Int)=  0.00558375
 Iteration  3 RMS(Cart)=  0.00011763 RMS(Int)=  0.00558305
 Iteration  4 RMS(Cart)=  0.00000244 RMS(Int)=  0.00558305
 Iteration  5 RMS(Cart)=  0.00000007 RMS(Int)=  0.00558305
 ITry= 1 IFail=0 DXMaxC= 3.02D-01 DCOld= 1.00D+10 DXMaxT= 3.00D-01 DXLimC= 3.00D+00 Rises=F
 Variable       Old X    -DE/DX   Delta X   Delta X   Delta X     New X
                                 (Linear)    (Quad)   (Total)
    R1        2.06772   0.00088   0.00000   0.00246   0.00246   2.07018
    R2        2.07563  -0.00024   0.00000  -0.00068  -0.00068   2.07495
    R3        2.07181   0.00018   0.00000   0.00051   0.00051   2.07232
    R4        2.90759  -0.00141   0.00000  -0.00471  -0.00471   2.90288
    R5        2.08302   0.00006   0.00000   0.00017   0.00017   2.08318
    R6        2.93474  -0.00207   0.00000  -0.00717  -0.00717   2.92757
    R7        2.90759   0.00010   0.00000   0.00033   0.00033   2.90792
    R8        2.08302   0.00033   0.00000   0.00095   0.00095   2.08397
    R9        2.90759   0.00225   0.00000   0.00747   0.00747   2.91506
   R10        2.90759  -0.01161   0.00000  -0.03862  -0.03862   2.86897
   R11        2.07563  -0.00041   0.00000  -0.00116  -0.00116   2.07447
   R12        2.07181   0.00002   0.00000   0.00007   0.00007   2.07188
   R13        2.06772   0.00021   0.00000   0.00060   0.00060   2.06832
   R14        2.06772   0.00020   0.00000   0.00055   0.00055   2.06828
   R15        2.07563  -0.00002   0.00000  -0.00005  -0.00005   2.07558
   R16        2.07181  -0.00010   0.00000  -0.00029  -0.00029   2.07153
   R17        2.07563  -0.00046   0.00000  -0.00131  -0.00131   2.07433
   R18        2.07181  -0.00045   0.00000  -0.00126  -0.00126   2.07055
    A1        1.88136   0.00030   0.00000  -0.00294  -0.00300   1.87837
    A2        1.87392   0.00123   0.00000   0.00959   0.00961   1.88353
    A3        1.96369  -0.00196   0.00000  -0.01241  -0.01243   1.95126
    A4        1.87509   0.00009   0.00000   0.00282   0.00281   1.87790
    A5        1.93564   0.00015   0.00000  -0.00058  -0.00061   1.93502
    A6        1.93060   0.00030   0.00000   0.00429   0.00430   1.93490
    A7        1.88020   0.00068   0.00000   0.00150   0.00135   1.88156
    A8        1.96138  -0.00423   0.00000  -0.02622  -0.02627   1.93511
    A9        1.90720   0.00211   0.00000   0.01185   0.01191   1.91911
   A10        1.86961   0.00056   0.00000  -0.00070  -0.00082   1.86880
   A11        1.88020  -0.00101   0.00000   0.00308   0.00303   1.88323
   A12        1.96138   0.00191   0.00000   0.01096   0.01104   1.97242
   A13        1.86961  -0.00052   0.00000   0.00497   0.00493   1.87454
   A14        1.96138   0.00373   0.00000   0.01570   0.01551   1.97689
   A15        1.96138  -0.00167   0.00000  -0.01295  -0.01287   1.94850
   A16        1.88020  -0.00061   0.00000   0.00056   0.00051   1.88071
   A17        1.88020   0.00171   0.00000   0.01152   0.01155   1.89176
   A18        1.90720  -0.00259   0.00000  -0.01862  -0.01857   1.88863
   A19        1.93564   0.00031   0.00000   0.00265   0.00262   1.93826
   A20        1.93060   0.00129   0.00000   0.00841   0.00840   1.93900
   A21        1.96369  -0.00253   0.00000  -0.01645  -0.01645   1.94725
   A22        1.87509  -0.00029   0.00000   0.00211   0.00207   1.87716
   A23        1.88137   0.00092   0.00000   0.00336   0.00334   1.88471
   A24        1.87392   0.00038   0.00000   0.00051   0.00054   1.87445
   A25        1.96369   0.00027   0.00000   0.00174   0.00174   1.96543
   A26        1.93564  -0.00009   0.00000  -0.00049  -0.00049   1.93515
   A27        1.93060  -0.00006   0.00000  -0.00060  -0.00060   1.92999
   A28        1.88137  -0.00003   0.00000   0.00024   0.00024   1.88160
   A29        1.87392  -0.00012   0.00000  -0.00073  -0.00073   1.87319
   A30        1.87509   0.00003   0.00000  -0.00022  -0.00022   1.87487
   A31        1.93564   0.01371   0.00000   0.14346   0.11646   2.05210
   A32        1.93060   0.01463   0.00000   0.14904   0.12205   2.05264
   A33        1.87509  -0.00075   0.00000   0.12132   0.08673   1.96182
    D1       -0.96586  -0.00017   0.00000  -0.01459  -0.01457  -0.98042
    D2        1.08954  -0.00150   0.00000  -0.02965  -0.02959   1.05995
    D3       -3.00391  -0.00048   0.00000  -0.02540  -0.02540  -3.02932
    D4       -3.07463   0.00069   0.00000  -0.00182  -0.00184  -3.07647
    D5       -1.01923  -0.00064   0.00000  -0.01688  -0.01686  -1.03610
    D6        1.17049   0.00038   0.00000  -0.01263  -0.01267   1.15782
    D7        1.12985   0.00029   0.00000  -0.00774  -0.00775   1.12210
    D8       -3.09793  -0.00105   0.00000  -0.02280  -0.02277  -3.12071
    D9       -0.90821  -0.00002   0.00000  -0.01855  -0.01859  -0.92679
   D10        1.07995   0.00082   0.00000   0.01384   0.01376   1.09371
   D11       -3.14157   0.00187   0.00000   0.02660   0.02661  -3.11497
   D12       -0.98172   0.00001   0.00000   0.00399   0.00392  -0.97779
   D13       -3.14158  -0.00041   0.00000   0.00030   0.00030  -3.14128
   D14       -1.07991   0.00063   0.00000   0.01306   0.01314  -1.06677
   D15        1.07995  -0.00122   0.00000  -0.00955  -0.00954   1.07040
   D16       -1.07991  -0.00020   0.00000   0.00986   0.00985  -1.07006
   D17        0.98176   0.00084   0.00000   0.02262   0.02269   1.00446
   D18       -3.14157  -0.00101   0.00000   0.00001   0.00001  -3.14156
   D19        3.00390   0.00127   0.00000   0.00859   0.00858   3.01247
   D20       -1.17051   0.00135   0.00000   0.00975   0.00974  -1.16077
   D21        0.90819   0.00128   0.00000   0.00877   0.00876   0.91695
   D22        0.96584  -0.00010   0.00000  -0.00122  -0.00122   0.96463
   D23        3.07462  -0.00003   0.00000  -0.00006  -0.00006   3.07457
   D24       -1.12986  -0.00009   0.00000  -0.00104  -0.00104  -1.13090
   D25       -1.08956  -0.00126   0.00000  -0.00865  -0.00863  -1.09819
   D26        1.01922  -0.00118   0.00000  -0.00749  -0.00747   1.01175
   D27        3.09792  -0.00124   0.00000  -0.00847  -0.00845   3.08947
   D28        1.01922  -0.00123   0.00000  -0.01845  -0.01849   1.00073
   D29        3.09792  -0.00055   0.00000  -0.00867  -0.00869   3.08923
   D30       -1.08956  -0.00087   0.00000  -0.01326  -0.01331  -1.10287
   D31        3.07462  -0.00010   0.00000  -0.00293  -0.00294   3.07168
   D32       -1.12986   0.00058   0.00000   0.00685   0.00686  -1.12300
   D33        0.96584   0.00026   0.00000   0.00226   0.00224   0.96808
   D34       -1.17051   0.00021   0.00000   0.00110   0.00114  -1.16937
   D35        0.90819   0.00088   0.00000   0.01088   0.01094   0.91913
   D36        3.00390   0.00056   0.00000   0.00629   0.00632   3.01022
   D37       -1.01923   0.00773   0.00000   0.16078   0.16706  -0.85218
   D38       -3.09793  -0.00961   0.00000  -0.17934  -0.18583   2.99942
   D39       -3.07463   0.00825   0.00000   0.15487   0.16124  -2.91340
   D40        1.12985  -0.00909   0.00000  -0.18525  -0.19165   0.93820
   D41        1.17049   0.00942   0.00000   0.15779   0.16430   1.33479
   D42       -0.90821  -0.00792   0.00000  -0.18233  -0.18859  -1.09680
         Item               Value     Threshold  Converged?
 Maximum Force            0.014627     0.000015     NO 
 RMS     Force            0.003440     0.000010     NO 
 Maximum Displacement     0.302139     0.000060     NO 
 RMS     Displacement     0.059207     0.000040     NO 
 Predicted change in Energy=-1.006101D-02
 Lowest energy point so far.  Saving SCF results.
 GradGradGradGradGradGradGradGradGradGradGradGradGradGradGradGradGradGrad

 Leave Link  103 at Sat Nov  7 02:11:33 2015, MaxMem=   805306368 cpu:         3.5
 (Enter /home/hetanjin/apps/g09D01/g09/l202.exe)
                          Input orientation:                          
 ---------------------------------------------------------------------
 Center     Atomic      Atomic             Coordinates (Angstroms)
 Number     Number       Type             X           Y           Z
 ---------------------------------------------------------------------
      1          6           0        0.003497    1.471259    1.253641
      2          1           0        0.343472    0.943725    2.151547
      3          1           0       -1.081165    1.616180    1.343902
      4          1           0        0.471122    2.463167    1.247710
      5          6           0        0.347344    0.696710   -0.027594
      6          1           0        1.435647    0.521255   -0.033605
      7          6           0       -0.337459   -0.692913   -0.033114
      8          1           0       -1.427164   -0.523650   -0.027463
      9          6           0        0.001475   -1.534324   -1.280797
     10          1           0        1.085704   -1.675656   -1.378531
     11          1           0       -0.457678   -2.528268   -1.223135
     12          1           0       -0.361358   -1.058886   -2.197452
     13          6           0       -0.001938    1.544367   -1.263473
     14          1           0        0.343372    1.089358   -2.197082
     15          1           0       -1.087458    1.691671   -1.342976
     16          1           0        0.459615    2.536197   -1.193437
     17          6           0        0.027948   -1.502064    1.198412
     18          1           0        1.090844   -1.572050    1.463496
     19          1           0       -0.506672   -2.444009    1.364107
 ---------------------------------------------------------------------
                    Distance matrix (angstroms):
                    1          2          3          4          5
     1  C    0.000000
     2  H    1.095495   0.000000
     3  H    1.098017   1.770332   0.000000
     4  H    1.096627   1.772546   1.770942   0.000000
     5  C    1.536138   2.193099   2.183360   2.182222   0.000000
     6  H    2.147222   2.479156   3.070949   2.518551   1.102372
     7  C    2.540793   2.813360   2.789477   3.500736   1.549205
     8  H    2.769058   3.168032   2.565001   3.761733   2.153638
     9  C    3.931528   4.247196   4.241088   4.753299   2.582181
    10  H    4.242945   4.457972   4.789901   4.940113   2.828132
    11  H    4.726872   4.907653   4.914759   5.646430   3.532401
    12  H    4.294741   4.839528   4.496141   4.996701   2.879698
    13  C    2.518182   3.484600   2.822817   2.715515   1.538804
    14  H    3.488388   4.351066   3.852974   3.710830   2.204737
    15  H    2.825099   3.849503   2.687945   3.120261   2.186054
    16  H    2.707458   3.706531   3.107817   2.442266   2.180713
    17  C    2.973937   2.643843   3.312815   3.990225   2.537659
    18  H    3.238532   2.713135   3.859628   4.088226   2.814855
    19  H    3.949911   3.580440   4.100681   5.004998   3.539815
                    6          7          8          9         10
     6  H    0.000000
     7  C    2.148978   0.000000
[...]
 4,0.00111474,-0.01481462,-0.02955813,-0.00040488,0.11547841,-0.1103460
 5,-0.24925582,-0.00571248,-0.00814888,-0.01415509,-0.00087990,0.003076
 82,0.00687365,0.00039607,0.12139890,0.27097094,-0.00319747,-0.00458289
 ,-0.04908882,0.01476003,0.02320570,0.00195712,-0.00034442,0.00015643,-
 0.00097085,0.00227544,0.00786603,0.05196080,-0.08864489,0.01421508,0.0
 2248271,0.00128296,-0.00545383,-0.00754966,-0.00944550,0.01785678,0.02
 902875,0.00391265,-0.00830814,-0.01488254,0.57852486,0.01457384,-0.105
 04646,-0.04118074,-0.00569956,0.00979892,0.01515309,0.00194555,-0.0042
 2171,-0.00508512,0.00908545,-0.01510972,-0.02425541,-0.02758963,0.4612
 9791,0.02292824,-0.04360825,-0.14891493,0.00760944,-0.01437626,-0.0214
 0751,0.00067291,-0.00014856,-0.00098419,0.00048611,0.00073074,-0.00114
 449,0.00025628,-0.00451063,0.47584584,-0.00834843,0.00148056,0.0006247
 5,0.00032513,-0.00016964,0.00042510,0.00108123,0.00077767,0.00148649,0
 .00067404,0.00048976,0.00009403,-0.28567379,0.03525666,-0.00239344,0.3
 1334628,0.01783895,-0.00348443,-0.00117043,-0.00066787,0.00055606,0.00
 018562,0.00095628,-0.00128219,-0.00326675,0.00003372,0.00031072,0.0007
 5319,0.03476419,-0.05419221,0.00055023,-0.03786238,0.06328798,0.029251
 79,-0.00555952,-0.00174849,-0.00023948,0.00085603,0.00101174,0.0018044
 2,-0.00322063,-0.00465072,-0.00070695,0.00039732,0.00115414,-0.0024888
 9,0.00035003,-0.04815770,0.00253840,-0.00088269,0.05738112,0.00372323,
 0.00611893,-0.00241851,0.00010615,-0.00033800,-0.00003792,0.00038954,0
 .00189336,0.00077671,-0.00022550,0.00235063,0.00221159,-0.10026545,-0.
 03245508,-0.00148334,-0.01832864,-0.03131063,-0.00069170,0.56967160,-0
 .00761350,-0.02067174,-0.00676385,0.00004469,0.00087569,0.00147695,-0.
 00082664,0.00099796,0.00130848,0.00057438,-0.00043021,-0.00139568,-0.0
 3055467,-0.13494996,0.00080506,0.00041951,0.00058126,0.00006948,-0.017
 00145,0.44337793,-0.01302704,-0.02698473,-0.00101471,-0.00068903,0.000
 26514,0.00054293,-0.00023900,0.00046816,0.00080247,0.00153755,-0.00338
 800,-0.00484052,-0.00244208,-0.00123006,-0.07476703,0.00029507,0.00003
 122,-0.00043450,0.01319257,-0.03302027,0.43161716,0.00044536,0.0011703
 8,0.00052052,-0.00003531,-0.00002665,-0.00001828,0.00067815,-0.0007807
 4,-0.00064723,0.00051774,-0.00010941,0.00001818,-0.01746564,0.00066113
 ,0.00035502,-0.00044006,-0.00317158,0.00001177,-0.28388430,0.03205581,
 0.01141504,0.31206547,-0.00076787,0.00165261,0.00094871,0.00000865,-0.
 00006047,-0.00022764,0.00069728,-0.00018372,-0.00019414,0.00025254,0.0
 0024060,0.00020921,-0.03036304,0.00149887,0.00098277,-0.00325116,-0.00
 515485,-0.00003234,0.03271594,-0.05561576,0.00066440,-0.03542487,0.061
 40717,-0.00108994,0.00011473,0.00008564,-0.00009301,0.00005848,0.00000
 709,0.00015604,-0.00021590,0.00015477,0.00015194,0.00008529,-0.0000915
 6,0.00019772,-0.00001964,-0.00064694,-0.00006660,-0.00001203,0.0002560
 9,0.01011791,0.00112547,-0.04365263,-0.01095045,0.00145819,0.05757154,
 -0.00187160,-0.00247920,0.00045332,-0.00004323,0.00020857,0.00022805,0
 .00045044,-0.00022719,-0.00000850,0.00064125,-0.00077527,-0.00069207,0
 .00348065,-0.00697894,-0.01230336,0.00031315,-0.00055537,-0.00103863,-
 0.07997832,0.00731745,0.01228368,-0.00746585,0.01752183,0.02999472,0.5
 6887959,-0.00305049,-0.00497198,0.00140175,-0.00018078,0.00012175,-0.0
 0035727,0.00004676,-0.00000390,0.00007028,0.00040845,-0.00075295,-0.00
 179601,0.00594556,-0.01906279,-0.02683942,0.00075531,0.00165075,0.0004
 3422,0.00753846,-0.09548291,-0.02632395,0.00150635,-0.00299262,-0.0064
 1269,0.01538713,0.54220251,0.00089685,0.00160524,0.00021644,0.00002238
 ,0.00005944,-0.00009553,-0.00009311,-0.00016754,-0.00005100,0.00005450
 ,0.00073715,0.00048596,-0.00111526,-0.00634593,0.00028837,0.00046887,0
 .00102292,0.00016308,0.02153752,-0.04392298,-0.12733493,0.00133536,-0.
 00415942,-0.00498990,0.02123851,-0.05984520,0.48094196,0.00041452,0.00
 006964,-0.00005452,-0.00001922,-0.00002378,-0.00004377,-0.00001678,-0.
 00016347,-0.00014740,0.00000473,0.00008290,0.00006341,0.00048474,-0.00
 084371,-0.00019703,0.00053019,0.00075270,0.00023217,-0.00589347,0.0014
 1951,0.00164093,0.00118036,0.00044567,0.00131127,-0.30319524,0.0240898
 0,0.03298497,0.32885987,-0.00013771,0.00000071,-0.00009521,0.00001683,
 0.00001208,0.00006108,-0.00017779,0.00008569,0.00009343,-0.00008253,-0
 .00001940,0.00001926,0.00165778,0.00106509,0.00053656,-0.00065939,-0.0
 0004221,-0.00016239,0.01767358,-0.00273286,-0.00285180,0.00072771,-0.0
 0128465,-0.00353166,0.02454934,-0.05152009,-0.00172885,-0.02763150,0.0
 5179104,-0.00011883,0.00012911,-0.00009140,0.00003751,0.00000871,-0.00
 001227,-0.00016683,0.00014364,0.00009471,-0.00010954,-0.00001431,0.000
 02025,0.00070509,0.00133847,0.00131507,-0.00080826,-0.00026287,0.00002
 177,0.02795793,-0.00265352,-0.00517917,0.00118589,-0.00309138,-0.00473
 377,0.03330869,-0.00193756,-0.05357284,-0.03814657,0.00567517,0.056533
 61,0.00048306,0.00021478,0.00015792,-0.00001627,0.00000426,-0.00000801
 ,0.00001079,-0.00006504,-0.00009772,-0.00003056,0.00006801,0.00011113,
 0.00000947,0.00025850,0.00085595,0.00043703,0.00033264,0.00019543,0.00
 227405,0.00720086,-0.00092245,0.00043497,0.00008189,-0.00060322,-0.092
 32304,-0.09701688,0.00653091,-0.01219629,-0.03093030,0.00222132,0.0950
 8378,-0.00078743,-0.00084624,0.00041351,-0.00001191,0.00005088,-0.0000
 9171,0.00006834,-0.00001495,0.00000353,0.00012477,-0.00022013,-0.00038
 300,0.00208144,-0.00009360,-0.00285179,-0.00014348,0.00012043,0.000018
 24,-0.00661460,-0.01440193,0.00050794,0.00043360,0.00031743,0.00029757
 ,-0.09738670,-0.26965589,0.01635816,0.00150059,0.00456535,0.00008068,0
 .10644786,0.29217771,-0.00095749,-0.00168271,0.00054341,-0.00005684,0.
 00004889,0.00002270,0.00007623,0.00000786,-0.00000257,0.00014747,-0.00
 045116,-0.00055789,0.00236288,-0.00119753,-0.00554215,-0.00003248,0.00
 020766,-0.00000252,-0.01296811,-0.02604911,0.00037345,0.00010428,0.000
 78272,0.00099184,0.00690753,0.01686925,-0.04836689,0.00097834,0.004011
 92,-0.00113047,-0.00816247,-0.01577363,0.05367945,0.00008198,-0.000265
 52,0.00010528,-0.00002207,0.00000650,0.00006419,-0.00000657,-0.0000021
 4,-0.00002229,-0.00001444,-0.00002328,-0.00006713,-0.00032615,0.000288
 42,-0.00077893,0.00012740,-0.00003462,-0.00002828,0.00181629,-0.003308
 73,0.00749445,0.00053849,-0.00063864,-0.00024120,-0.09094245,0.0474889
 2,-0.08192186,-0.01130721,0.01574638,-0.02650463,0.00567890,-0.0061181
 7,0.01192988,0.09289407,0.00026389,0.00005638,0.00002859,-0.00000289,0
 .00004330,0.00015477,-0.00000292,-0.00000505,-0.00001551,-0.00000107,0
 .00001928,0.00010196,-0.00048281,0.00069150,0.00048803,0.00002468,-0.0
 0009011,-0.00003246,-0.00692830,0.00808015,-0.01539333,-0.00026973,0.0
 0071749,0.00106896,0.04832902,-0.10495415,0.09764432,0.00011662,-0.001
 81411,0.00112636,0.01328019,-0.01336201,0.02367390,-0.05339874,0.11492
 885,0.00003906,-0.00010130,0.00008237,0.00003602,0.00012976,0.00031770
 ,0.00003765,-0.00000276,-0.00002363,-0.00000344,-0.00017049,0.00006046
 ,0.00012108,0.00111744,-0.00004098,0.00007553,-0.00006617,0.00004717,-
 0.01039721,0.01285958,-0.02133739,0.00039466,0.00026959,0.00133256,-0.
 08252835,0.09716039,-0.21344526,0.00176340,-0.00302811,0.00486630,-0.0
 0011277,0.00087170,-0.00098696,0.08942479,-0.10692580,0.23275619,0.002
 87762,-0.00500863,0.00753640,-0.00003212,0.00072828,0.00265518,0.00050
 941,-0.00047039,0.00115162,-0.00013422,-0.00007903,-0.00075686,-0.0877
 2579,0.01417151,-0.02075834,-0.00768928,0.01878310,-0.02887611,0.00404
 463,-0.00763520,0.01208438,0.00031870,-0.00074659,0.00104789,-0.000894
 26,-0.00034817,-0.00032013,0.00006513,0.00014679,-0.00027135,0.0001745
 2,-0.00032139,0.00043800,0.00083783,-0.00071392,0.00036967,0.56486753,
 -0.00417384,0.00971318,-0.01116428,0.00086137,-0.00193146,-0.00463250,
 -0.00010348,0.00024444,-0.00009720,-0.00016920,0.00033642,-0.00141305,
 0.01375272,-0.10909324,0.04564962,0.00135428,-0.00325497,0.00519363,0.
 00717240,-0.02123626,0.02459105,0.00072835,0.00150981,-0.00030261,-0.0
 0053395,-0.00059519,0.00011556,0.00034394,-0.00012252,-0.00013102,0.00
 012962,0.00029115,0.00061377,0.00000137,-0.00154691,0.00048526,0.01473
 719,0.54429978,-0.00577483,0.01406795,-0.03368216,0.00129245,-0.002293
 35,-0.00403881,-0.00080492,0.00093566,0.00188018,-0.00021004,0.0013360
 3,0.00124347,-0.02077565,0.04286813,-0.14656680,-0.00078842,0.00158827
 ,-0.00288025,0.00271276,0.00485433,0.00090909,-0.00051167,-0.00089095,
 0.00008965,0.00039234,-0.00007431,0.00146290,0.00022584,-0.00011313,0.
 00016791,0.00011264,-0.00014136,-0.00077658,-0.00075048,-0.00008563,-0
 .00037940,-0.02275148,0.05302957,0.51803760,-0.00002497,0.00096239,-0.
 00128760,0.00060643,-0.00001713,-0.00055239,0.00040935,-0.00010566,-0.
 00037540,-0.00002129,0.00030845,0.00019962,0.00192625,-0.00471225,-0.0
 0777024,0.00055402,-0.00067662,0.00014634,-0.00017162,0.00018173,0.000
 60054,0.00009444,-0.00000980,0.00004882,0.00080427,-0.00001820,0.00069
 441,-0.00015965,0.00011691,-0.00002578,-0.00018163,0.00017847,-0.00032
 575,-0.00035888,-0.00061068,-0.00048034,-0.08267528,0.03915169,0.07803
 947,0.08445317,0.00067428,-0.00221650,0.00230750,-0.00004799,0.0007618
 9,0.00103424,-0.00007964,-0.00017706,-0.00001354,0.00027728,0.00028629
 ,0.00020407,-0.00807940,0.00941073,0.01541775,-0.00018689,0.00077909,-
 0.00088358,-0.00049027,0.00081741,-0.00027842,0.00002531,-0.00007545,0
 .00003256,-0.00071810,-0.00152304,0.00002228,0.00013445,-0.00009155,-0
 .00009831,0.00010184,0.00002198,0.00009015,-0.00057900,-0.00235592,0.0
 0020866,0.04008580,-0.09633485,-0.09418253,-0.04369181,0.10479653,-0.0
 0227391,0.00500269,-0.00374914,0.00053234,-0.00097068,-0.00165538,0.00
 010249,0.00010225,0.00031533,-0.00012427,0.00006499,0.00038537,0.00980
 194,-0.01299664,-0.02053382,-0.00050594,-0.00024066,0.00108322,-0.0001
 0096,-0.00099179,-0.00016614,-0.00005153,0.00004945,0.00003129,-0.0004
 5581,-0.00068663,-0.00041231,-0.00021881,0.00027455,-0.00005922,-0.000
 03331,-0.00023365,0.00062889,0.00049638,-0.00037380,0.00107718,0.07791
 167,-0.09282161,-0.23454712,-0.08442358,0.10292460,0.25540162,0.000360
 17,-0.00009162,0.00061432,0.00037913,-0.00003454,-0.00014948,0.0004696
 7,-0.00029659,-0.00071433,-0.00000548,0.00006490,0.00003110,-0.0084222
 6,0.00164930,-0.00098457,0.00118043,0.00082550,-0.00166781,0.00047994,
 -0.00086116,0.00019116,0.00057528,0.00079735,-0.00022499,0.00004273,0.
 00033448,-0.00023064,0.00013771,-0.00019832,0.00006010,0.00006109,0.00
 005456,0.00003795,-0.00015056,0.00012106,0.00022618,-0.30083373,0.0262
 7249,-0.02086451,-0.01037297,0.00029383,-0.00090902,0.32823230,-0.0004
 7967,0.00004930,-0.00094974,-0.00006285,-0.00011636,-0.00009518,-0.000
 27199,0.00042531,0.00009007,-0.00012008,0.00005907,0.00006892,0.019913
 53,-0.00326129,0.00160820,0.00087572,-0.00162520,0.00366005,0.00165016
 ,0.00112811,-0.00060008,-0.00069334,-0.00004546,0.00018921,0.00014353,
 -0.00012012,0.00012166,-0.00018530,0.00019069,0.00005284,-0.00012621,0
 .00001389,-0.00008048,0.00009508,-0.00008754,-0.00027250,0.02636907,-0
 .05201689,0.00135115,0.01461885,-0.00200318,0.00197333,-0.03040880,0.0
 5260278,-0.00132897,0.00011968,0.00175605,0.00045500,0.00002870,0.0002
 3453,0.00079519,-0.00018511,-0.00032087,0.00002434,0.00001109,-0.00010
 219,-0.02815783,0.00255472,-0.00251394,-0.00126836,0.00321997,-0.00433
 597,-0.00057695,-0.00118647,0.00108388,0.00071544,0.00022280,0.0000366
 7,0.00024792,0.00008597,0.00015339,-0.00008164,-0.00003108,-0.00012820
 ,-0.00006819,0.00002341,0.00003842,0.00003722,0.00007773,-0.00009046,-
 0.02110123,0.00143021,-0.05178149,0.02828698,-0.00156836,0.00369300,0.
 02493695,-0.00486459,0.05344781,0.00011373,-0.00014364,0.00012715,-0.0
 0008770,0.00026174,0.00011835,-0.00010943,-0.00018791,-0.00000450,0.00
 027912,0.00003131,0.00022583,0.00287569,0.00820279,0.00077097,0.000426
 42,-0.00002545,0.00068143,0.00000313,0.00054678,-0.00099826,0.00041761
 ,0.00032739,-0.00019458,0.00012323,0.00009011,-0.00021385,0.00005650,-
 0.00012434,0.00006444,0.00001682,0.00002113,-0.00005655,-0.00014785,0.
 00007940,0.00008326,-0.09265231,-0.09659698,-0.00841515,0.00510148,0.0
 1203943,0.00032025,-0.01254482,-0.03097821,-0.00321855,0.09565592,-0.0
 0026297,0.00060088,-0.00163936,0.00037580,0.00031280,-0.00014803,0.000
 01176,0.00004298,0.00010532,0.00010981,0.00092912,0.00067467,-0.007992
 01,-0.01715313,-0.00180794,0.00049384,0.00028833,-0.00031471,0.0025918
 1,-0.00012287,0.00304996,-0.00014034,0.00013420,-0.00000807,-0.0003131
 4,0.00030745,0.00013018,0.00005499,0.00001131,-0.00003211,0.00001887,-
 0.00010237,0.00007152,0.00017990,-0.00002422,0.00019972,-0.09664581,-0
 .26537367,-0.02048577,-0.00548809,-0.01224577,-0.00120567,0.00153347,0
 .00476439,0.00027920,0.10616095,0.28869147,0.00073761,0.00138933,0.001
 09457,-0.00014385,-0.00019852,0.00042046,0.00005456,-0.00010499,-0.000
 09356,-0.00030470,-0.00046541,-0.00055908,0.01272483,0.02544055,0.0013
 0117,-0.00010153,-0.00077738,0.00088978,-0.00247962,0.00184721,-0.0048
 5972,0.00002113,-0.00018327,-0.00002875,-0.00046775,-0.00070333,-0.000
 69616,-0.00003917,0.00008936,0.00005003,0.00007563,-0.00011382,0.00033
 222,0.00035818,-0.00008377,0.00064709,-0.00884350,-0.02141966,-0.04995
 495,-0.01273179,-0.02504519,-0.00166238,-0.00049968,-0.00221927,-0.001
 16610,0.01082451,0.02088321,0.05450249,0.00039565,0.00008405,0.0010525
 9,0.00006777,-0.00004207,-0.00076887,-0.00003394,-0.00007296,-0.000212
 98,0.00002187,-0.00006477,-0.00027941,0.00532537,-0.00736869,0.0145288
 0,0.00048716,-0.00089064,0.00118516,-0.09657246,0.01114409,-0.03910001
 ,-0.00943814,0.01784240,-0.02862042,0.00254704,-0.00389288,-0.00169546
 ,0.00084877,-0.00050751,0.00096094,-0.00004634,0.00044142,-0.00079284,
 0.00117873,0.00030466,0.00127185,-0.00199847,-0.00362305,-0.00125481,0
 .00005785,0.00030464,-0.00017602,0.00043668,-0.00007264,0.00009482,0.0
 0049527,-0.00098009,0.00103356,0.55581702,-0.00002624,-0.00194439,0.00
 007173,0.00033638,-0.00119135,0.00038688,0.00017119,0.00003507,-0.0000
 9071,-0.00004227,-0.00006220,0.00082755,0.00519298,-0.02226930,0.02462
 701,0.00099817,0.00128634,0.00006909,0.01054461,-0.10624609,0.07684251
 ,0.00134688,-0.00098901,0.00354953,-0.00441243,0.00905477,-0.00224826,
 -0.00004307,-0.00041481,-0.00018290,0.00015373,0.00077995,-0.00128807,
 0.00068718,-0.00066429,-0.00336552,-0.00227467,-0.00403882,-0.00125700
 ,-0.00020331,0.00004889,0.00021254,0.00004205,-0.00002077,-0.00014115,
 0.00028472,-0.00072153,0.00133985,0.14331449,0.35820438,-0.00083541,-0
 .00195091,0.00064736,0.00039399,-0.00030179,0.00027143,-0.00005993,0.0
 0032311,-0.00008746,0.00000297,-0.00070019,-0.00001362,0.00334678,0.00
 929400,-0.00441038,-0.00116014,-0.00110810,0.00037589,-0.03989519,0.07
 596692,-0.14832850,-0.00293297,0.00182102,-0.00407315,-0.00766163,0.00
 855305,-0.03680838,-0.00075633,0.00097939,0.00235338,-0.00005110,0.001
 79524,0.00140483,0.00021362,-0.00112243,-0.00485724,-0.00059338,-0.000
 21925,0.00017724,-0.00007947,-0.00011401,0.00027056,0.00008331,0.00011
 965,-0.00016118,-0.00004852,-0.00009608,0.00021357,0.10273820,-0.20669
 286,0.32443308,0.00004763,0.00020447,-0.00043647,-0.00007958,0.0002597
 4,0.00045847,0.00009043,-0.00015284,0.00008401,0.00005235,-0.00003610,
 0.00019694,0.00042794,-0.00120273,-0.00001928,0.00050768,0.00070020,-0
 .00016886,-0.00436269,-0.00074345,0.00129738,0.00032536,0.00063476,-0.
 00187416,-0.00040664,0.00030177,-0.00007473,0.00015577,-0.00011848,-0.
 00026551,0.00003381,0.00006091,0.00011558,0.00011075,-0.00008372,-0.00
 020492,0.00037142,0.00013789,0.00018942,-0.00002302,-0.00002843,0.0000
 5750,-0.00003365,-0.00016980,0.00011181,0.00000484,0.00009637,-0.00007
 653,-0.30821974,-0.02162285,-0.09948667,0.32177753,0.00006679,-0.00015
 799,0.00007257,0.00024884,-0.00062256,-0.00024471,-0.00010455,0.000138
 02,0.00003514,-0.00004374,0.00004039,-0.00015872,0.00200757,0.00145588
 ,-0.00053721,-0.00059681,0.00006883,0.00015375,0.01358842,0.00295730,0
 .00317142,0.00200523,-0.00146038,0.00312832,0.00077513,-0.00086722,0.0
 0050589,-0.00009501,0.00021353,-0.00009845,-0.00009254,0.00007161,-0.0
 0002111,-0.00012407,0.00022204,0.00033154,-0.00017842,-0.00006471,0.00
 001164,0.00001510,0.00003882,-0.00009901,-0.00016460,0.00006834,-0.000
 09235,-0.00005125,-0.00004854,-0.00000397,-0.01681731,-0.03631141,0.01
 900202,0.01962327,0.03165157,0.00020916,0.00022712,0.00003689,0.000025
 06,-0.00037618,0.00010173,0.00007864,-0.00014471,-0.00003386,0.0000090
 5,0.00008422,0.00001563,-0.00085400,-0.00125036,0.00075471,0.00088197,
 0.00035572,-0.00010806,-0.02330614,-0.00132781,-0.00167634,-0.00033769
 ,0.00212347,-0.00323801,0.00008528,0.00007325,0.00103195,0.00053532,-0
 .00022037,-0.00044018,-0.00004845,-0.00007459,-0.00022994,0.00042477,-
 0.00004452,-0.00011220,0.00021790,-0.00008874,-0.00009285,0.00000561,0
 .00001442,-0.00004067,0.00013510,-0.00012152,0.00013301,0.00006714,0.0
 0003257,-0.00000242,-0.09377415,0.01818324,-0.06467619,0.10612369,-0.0
 1799289,0.06262014,0.00003546,0.00005201,-0.00007527,-0.00009675,0.000
 11755,0.00018589,0.00004373,-0.00004634,0.00004467,-0.00001188,0.00001
 925,0.00003261,-0.00028113,0.00075745,-0.00177518,0.00049003,0.0002078
 7,-0.00014020,0.00717389,0.00764000,-0.00461490,0.00113739,-0.00012371
 ,0.00093227,-0.00016172,0.00061430,-0.00009925,0.00004959,-0.00006746,
 -0.00008461,0.00009584,-0.00002941,0.00025439,0.00001175,-0.00002475,-
 0.00011611,0.00056866,0.00055718,-0.00006295,-0.00001796,-0.00003532,0
 .00005059,0.00000833,-0.00009703,0.00009604,-0.00002765,0.00019491,-0.
 00014191,-0.15137009,-0.13444755,0.04678185,-0.01078020,-0.02006205,0.
 00952175,0.15313270,-0.00004674,0.00001329,0.00042003,-0.00014707,0.00
 003430,-0.00009000,0.00010620,-0.00010888,0.00001222,0.00005362,-0.000
 06096,-0.00010224,0.00143591,-0.00076549,0.00328410,-0.00005641,0.0001
 9636,-0.00011350,-0.00869996,-0.00692524,0.00047884,-0.00004408,0.0003
 8417,-0.00060571,0.00014830,-0.00083438,0.00009535,-0.00002495,0.00010
 673,-0.00005257,-0.00006207,0.00028672,0.00016618,-0.00000083,0.000145
 32,0.00029901,-0.00059953,-0.00078531,-0.00051869,-0.00000003,0.000061
 69,0.00001576,0.00006664,-0.00000509,0.00001563,0.00006202,-0.00029085
 ,0.00032910,-0.13910313,-0.19453543,0.09445122,0.00213904,0.00260647,0
 .00054769,0.14477309,0.20047657,0.00015482,-0.00027328,-0.00020067,-0.
 00012375,0.00005387,0.00018872,0.00000503,-0.00003155,0.00006549,0.000
 01406,0.00007301,0.00008584,-0.00276215,-0.00004436,-0.00387428,0.0002
 3496,-0.00012771,-0.00006578,0.01584865,0.01699800,-0.00173740,-0.0006
 2748,-0.00075320,0.00089756,0.00001605,0.00032823,0.00102916,-0.000050
 41,0.00002188,-0.00007551,-0.00015323,-0.00070641,-0.00041924,-0.00023
 397,-0.00028737,0.00008648,0.00085967,0.00118125,0.00073237,0.00003056
 ,-0.00007227,-0.00006029,-0.00007114,-0.00003173,0.00002364,-0.0001333
 6,0.00031136,-0.00042826,0.04380904,0.08915655,-0.06673122,-0.00602767
 ,-0.00716387,0.00595664,-0.05078968,-0.09863242,0.06452677\\0.00000033
 ,0.00000047,-0.00000043,0.00000022,0.00000065,-0.00000014,0.00000041,0
 .00000082,-0.00000048,0.00000059,0.00000045,-0.00000061,-0.00000046,-0
 .00000063,0.00000017,0.00000006,-0.00000021,-0.00000008,-0.00000025,0.
 00000153,-0.00000070,0.00000004,0.00000057,0.00000027,-0.00000049,-0.0
 0000053,0.00000049,-0.00000038,-0.00000070,0.00000063,-0.00000066,-0.0
 0000059,0.00000069,-0.00000007,-0.00000061,0.00000051,0.00000043,-0.00
 000039,-0.00000088,0.00000035,-0.00000072,-0.00000031,0.00000049,-0.00
 000017,-0.00000041,0.00000061,-0.00000034,-0.00000079,0.00000030,-0.00
 000070,0.00000101,-0.00000049,0.00000041,0.00000050,-0.00000101,0.0000
 0069,0.00000056\\\@


 REFRAIN FROM ILLUSIONS, INSIST ON WORK AND NOT WORDS,
 PATIENTLY SEEK DIVINE AND SCIENTIFIC TRUTH.
 LAST WORDS OF MARIA MENDELEEVA TO HER SON DMITRI, C. 1850
 Job cpu time:       0 days  0 hours 29 minutes 14.8 seconds.
 File lengths (MBytes):  RWF=     64 Int=      0 D2E=      0 Chk=      3 Scr=      1
 Normal termination of Gaussian 09 at Sat Nov  7 02:27:28 2015.
