 Entering Gaussian System, Link 0=/home/hetanjin/apps/g09D01/g09/g09
 Input=C6H14_1_r012_C8_2_opt_B3L.gjf
 Output=C6H14_1_r012_C8_2_opt_B3L.log
 Initial command:
 /home/hetanjin/apps/g09D01/g09/l1.exe "/state/partition1/Gau-13665.inp" -scrdir="/state/partition1/"
 Entering Link 1 = /home/hetanjin/apps/g09D01/g09/l1.exe PID=     13666.
  
 Copyright (c) 1988,1990,1992,1993,1995,1998,2003,2009,2013,
            Gaussian, Inc.  All Rights Reserved.
  
 This is part of the Gaussian(R) 09 program.  It is based on
 the Gaussian(R) 03 system (copyright 2003, Gaussian, Inc.),
 the Gaussian(R) 98 system (copyright 1998, Gaussian, Inc.),
 the Gaussian(R) 94 system (copyright 1995, Gaussian, Inc.),
 the Gaussian 92(TM) system (copyright 1992, Gaussian, Inc.),
 the Gaussian 90(TM) system (copyright 1990, Gaussian, Inc.),
 the Gaussian 88(TM) system (copyright 1988, Gaussian, Inc.),
 the Gaussian 86(TM) system (copyright 1986, Carnegie Mellon
 University), and the Gaussian 82(TM) system (copyright 1983,
 Carnegie Mellon University). Gaussian is a federally registered
 trademark of Gaussian, Inc.
  
 This software contains proprietary and confidential information,
 including trade secrets, belonging to Gaussian, Inc.
  
 This software is provided under written license and may be
 used, copied, transmitted, or stored only in accord with that
 written license.
  
 The following legend is applicable only to US Government
 contracts under FAR:
  
                    RESTRICTED RIGHTS LEGEND
  
 Use, reproduction and disclosure by the US Government is
 subject to restrictions as set forth in subparagraphs (a)
 and (c) of the Commercial Computer Software - Restricted
 Rights clause in FAR 52.227-19.
  
 Gaussian, Inc.
 340 Quinnipiac St., Bldg. 40, Wallingford CT 06492
  
  
 ---------------------------------------------------------------
 Warning -- This program may not be used in any manner that
 competes with the business of Gaussian, Inc. or will provide
 assistance to any competitor of Gaussian, Inc.  The licensee
 of this program is prohibited from giving any competitor of
 Gaussian, Inc. access to this program.  By using this program,
 the user acknowledges that Gaussian, Inc. is engaged in the
 business of creating and licensing software in the field of
 computational chemistry and represents and warrants to the
 licensee that it is not a competitor of Gaussian, Inc. and that
 it will not use this program in any manner prohibited above.
 ---------------------------------------------------------------
  

 Cite this work as:
 Gaussian 09, Revision D.01,
 M. J. Frisch, G. W. Trucks, H. B. Schlegel, G. E. Scuseria, 
 M. A. Robb, J. R. Cheeseman, G. Scalmani, V. Barone, B. Mennucci, 
 G. A. Petersson, H. Nakatsuji, M. Caricato, X. Li, H. P. Hratchian, 
 A. F. Izmaylov, J. Bloino, G. Zheng, J. L. Sonnenberg, M. Hada, 
 M. Ehara, K. Toyota, R. Fukuda, J. Hasegawa, M. Ishida, T. Nakajima, 
 Y. Honda, O. Kitao, H. Nakai, T. Vreven, J. A. Montgomery, Jr., 
 J. E. Peralta, F. Ogliaro, M. Bearpark, J. J. Heyd, E. Brothers, 
 K. N. Kudin, V. N. Staroverov, T. Keith, R. Kobayashi, J. Normand, 
 K. Raghavachari, A. Rendell, J. C. Burant, S. S. Iyengar, J. Tomasi, 
 M. Cossi, N. Rega, J. M. Millam, M. Klene, J. E. Knox, J. B. Cross, 
 V. Bakken, C. Adamo, J. Jaramillo, R. Gomperts, R. E. Stratmann, 
 O. Yazyev, A. J. Austin, R. Cammi, C. Pomelli, J. W. Ochterski, 
 R. L. Martin, K. Morokuma, V. G. Zakrzewski, G. A. Voth, 
 P. Salvador, J. J. Dannenberg, S. Dapprich, A. D. Daniels, 
 O. Farkas, J. B. Foresman, J. V. Ortiz, J. Cioslowski, 
 and D. J. Fox, Gaussian, Inc., Wallingford CT, 2013.
 
 ******************************************
 Gaussian 09:  ES64L-G09RevD.01 24-Apr-2013
                 7-Nov-2015 
 ******************************************
 %mem=6GB
 %nprocshared=4
 Will use up to    4 processors via shared memory.
 ----------------------------------------------
 #p B3LYP/6-31G(d) opt=tight int=ultrafine freq
 ----------------------------------------------
 1/7=10,14=-1,18=20,19=15,26=4,38=1/1,3;
 2/9=110,12=2,17=6,18=5,40=1/2;
 3/5=1,6=6,7=1,11=2,16=1,25=1,30=1,71=1,74=-5,75=-5/1,2,3;
 4//1;
 5/5=2,38=5/2;
 6/7=2,8=2,9=2,10=2,28=1/1;
 7//1,2,3,16;
 1/7=10,14=-1,18=20,19=15,26=4/3(2);
 2/9=110/2;
 99//99;
 2/9=110/2;
 3/5=1,6=6,7=1,11=2,16=1,25=1,30=1,71=1,74=-5,75=-5/1,2,3;
 4/5=5,16=3,69=1/1;
 5/5=2,38=5/2;
 7//1,2,3,16;
 1/7=10,14=-1,18=20,19=15,26=4/3(-5);
 2/9=110/2;
 6/7=2,8=2,9=2,10=2,19=2,28=1/1;
 99/9=1/99;
 Leave Link    1 at Sat Nov  7 01:58:18 2015, MaxMem=   805306368 cpu:         0.3
 (Enter /home/hetanjin/apps/g09D01/g09/l101.exe)
 ---------------------------------------------
 using B3LYP/6-31G(d) to do opt and freq calc.
 ---------------------------------------------
 Symbolic Z-matrix:
 Charge =  0 Multiplicity = 2
 C                    -1.41423   2.90508   0. 
 H                    -0.9005    3.3015   -0.8846 
 H                    -0.9005    3.3015    0.8846 
 H                    -2.43424   3.30628   0. 
 C                    -1.41423   1.37295   0. 
 H                    -1.9654    1.00688   0.878 
 H                    -1.9654    1.00688  -0.878 
 C                    -0.00489   0.76692   0. 
 H                     0.54683   1.1341    0.87848 
 C                     0.00489  -0.76692   0. 
 H                    -0.54683  -1.1341   -0.87848 
 H                    -0.54683  -1.1341    0.87848 
 C                     1.41423  -1.37295   0. 
 H                     1.9654   -1.00688   0.878 
 H                     1.9654   -1.00688  -0.878 
 C                     1.41423  -2.90508   0. 
 H                     0.9005   -3.3015   -0.8846 
 H                     2.43424  -3.30628   0. 
 H                     0.9005   -3.3015    0.8846 
 
 NAtoms=     19 NQM=       19 NQMF=       0 NMMI=      0 NMMIF=      0
                NMic=       0 NMicF=      0.
                    Isotopes and Nuclear Properties:
 (Nuclear quadrupole moments (NQMom) in fm**2, nuclear magnetic moments (NMagM)
  in nuclear magnetons)

  Atom         1           2           3           4           5           6           7           8           9          10
 IAtWgt=          12           1           1           1          12           1           1          12           1          12
 AtmWgt=  12.0000000   1.0078250   1.0078250   1.0078250  12.0000000   1.0078250   1.0078250  12.0000000   1.0078250  12.0000000
 NucSpn=           0           1           1           1           0           1           1           0           1           0
 AtZEff=   0.0000000   0.0000000   0.0000000   0.0000000   0.0000000   0.0000000   0.0000000   0.0000000   0.0000000   0.0000000
 NQMom=    0.0000000   0.0000000   0.0000000   0.0000000   0.0000000   0.0000000   0.0000000   0.0000000   0.0000000   0.0000000
 NMagM=    0.0000000   2.7928460   2.7928460   2.7928460   0.0000000   2.7928460   2.7928460   0.0000000   2.7928460   0.0000000
 AtZNuc=   6.0000000   1.0000000   1.0000000   1.0000000   6.0000000   1.0000000   1.0000000   6.0000000   1.0000000   6.0000000

  Atom        11          12          13          14          15          16          17          18          19
 IAtWgt=           1           1          12           1           1          12           1           1           1
 AtmWgt=   1.0078250   1.0078250  12.0000000   1.0078250   1.0078250  12.0000000   1.0078250   1.0078250   1.0078250
 NucSpn=           1           1           0           1           1           0           1           1           1
 AtZEff=   0.0000000   0.0000000   0.0000000   0.0000000   0.0000000   0.0000000   0.0000000   0.0000000   0.0000000
 NQMom=    0.0000000   0.0000000   0.0000000   0.0000000   0.0000000   0.0000000   0.0000000   0.0000000   0.0000000
 NMagM=    2.7928460   2.7928460   0.0000000   2.7928460   2.7928460   0.0000000   2.7928460   2.7928460   2.7928460
 AtZNuc=   1.0000000   1.0000000   6.0000000   1.0000000   1.0000000   6.0000000   1.0000000   1.0000000   1.0000000
 Leave Link  101 at Sat Nov  7 01:58:19 2015, MaxMem=   805306368 cpu:         0.6
 (Enter /home/hetanjin/apps/g09D01/g09/l103.exe)

 GradGradGradGradGradGradGradGradGradGradGradGradGradGradGradGradGradGrad
 Berny optimization.
 Initialization pass.
                           ----------------------------
                           !    Initial Parameters    !
                           ! (Angstroms and Degrees)  !
 --------------------------                            --------------------------
 ! Name  Definition              Value          Derivative Info.                !
 --------------------------------------------------------------------------------
 ! R1    R(1,2)                  1.0971         estimate D2E/DX2                !
 ! R2    R(1,3)                  1.0971         estimate D2E/DX2                !
 ! R3    R(1,4)                  1.0961         estimate D2E/DX2                !
 ! R4    R(1,5)                  1.5321         estimate D2E/DX2                !
 ! R5    R(5,6)                  1.0994         estimate D2E/DX2                !
 ! R6    R(5,7)                  1.0994         estimate D2E/DX2                !
 ! R7    R(5,8)                  1.5341         estimate D2E/DX2                !
 ! R8    R(8,9)                  1.1004         estimate D2E/DX2                !
 ! R9    R(8,10)                 1.5339         estimate D2E/DX2                !
 ! R10   R(10,11)                1.1004         estimate D2E/DX2                !
 ! R11   R(10,12)                1.1004         estimate D2E/DX2                !
 ! R12   R(10,13)                1.5341         estimate D2E/DX2                !
 ! R13   R(13,14)                1.0994         estimate D2E/DX2                !
 ! R14   R(13,15)                1.0994         estimate D2E/DX2                !
 ! R15   R(13,16)                1.5321         estimate D2E/DX2                !
 ! R16   R(16,17)                1.0971         estimate D2E/DX2                !
 ! R17   R(16,18)                1.0961         estimate D2E/DX2                !
 ! R18   R(16,19)                1.0971         estimate D2E/DX2                !
 ! A1    A(2,1,3)              107.4766         estimate D2E/DX2                !
 ! A2    A(2,1,4)              107.6687         estimate D2E/DX2                !
 ! A3    A(2,1,5)              111.1823         estimate D2E/DX2                !
 ! A4    A(3,1,4)              107.6687         estimate D2E/DX2                !
 ! A5    A(3,1,5)              111.1823         estimate D2E/DX2                !
 ! A6    A(4,1,5)              111.4711         estimate D2E/DX2                !
 ! A7    A(1,5,6)              109.4494         estimate D2E/DX2                !
 ! A8    A(1,5,7)              109.4494         estimate D2E/DX2                !
 ! A9    A(1,5,8)              113.2685         estimate D2E/DX2                !
 ! A10   A(6,5,7)              105.9962         estimate D2E/DX2                !
 ! A11   A(6,5,8)              109.2096         estimate D2E/DX2                !
 ! A12   A(7,5,8)              109.2096         estimate D2E/DX2                !
 ! A13   A(5,8,9)              109.1945         estimate D2E/DX2                !
 ! A14   A(5,8,10)             113.634          estimate D2E/DX2                !
 ! A15   A(9,8,10)             109.2971         estimate D2E/DX2                !
 ! A16   A(8,10,11)            109.2971         estimate D2E/DX2                !
 ! A17   A(8,10,12)            109.2971         estimate D2E/DX2                !
 ! A18   A(8,10,13)            113.634          estimate D2E/DX2                !
 ! A19   A(11,10,12)           105.9372         estimate D2E/DX2                !
 ! A20   A(11,10,13)           109.1945         estimate D2E/DX2                !
 ! A21   A(12,10,13)           109.1945         estimate D2E/DX2                !
 ! A22   A(10,13,14)           109.2096         estimate D2E/DX2                !
 ! A23   A(10,13,15)           109.2096         estimate D2E/DX2                !
 ! A24   A(10,13,16)           113.2685         estimate D2E/DX2                !
 ! A25   A(14,13,15)           105.9962         estimate D2E/DX2                !
 ! A26   A(14,13,16)           109.4494         estimate D2E/DX2                !
 ! A27   A(15,13,16)           109.4494         estimate D2E/DX2                !
 ! A28   A(13,16,17)           111.1823         estimate D2E/DX2                !
 ! A29   A(13,16,18)           111.4711         estimate D2E/DX2                !
 ! A30   A(13,16,19)           111.1823         estimate D2E/DX2                !
 ! A31   A(17,16,18)           107.6687         estimate D2E/DX2                !
 ! A32   A(17,16,19)           107.4766         estimate D2E/DX2                !
 ! A33   A(18,16,19)           107.6687         estimate D2E/DX2                !
 ! D1    D(2,1,5,6)           -178.0268         estimate D2E/DX2                !
 ! D2    D(2,1,5,7)            -62.2647         estimate D2E/DX2                !
 ! D3    D(2,1,5,8)             59.8542         estimate D2E/DX2                !
 ! D4    D(3,1,5,6)             62.2647         estimate D2E/DX2                !
 ! D5    D(3,1,5,7)            178.0268         estimate D2E/DX2                !
 ! D6    D(3,1,5,8)            -59.8542         estimate D2E/DX2                !
 ! D7    D(4,1,5,6)            -57.881          estimate D2E/DX2                !
 ! D8    D(4,1,5,7)             57.881          estimate D2E/DX2                !
 ! D9    D(4,1,5,8)            180.0            estimate D2E/DX2                !
 ! D10   D(1,5,8,9)             57.7038         estimate D2E/DX2                !
 ! D11   D(1,5,8,10)           180.0            estimate D2E/DX2                !
 ! D12   D(6,5,8,9)            -64.5489         estimate D2E/DX2                !
 ! D13   D(6,5,8,10)            57.7473         estimate D2E/DX2                !
 ! D14   D(7,5,8,9)            179.9565         estimate D2E/DX2                !
 ! D15   D(7,5,8,10)           -57.7473         estimate D2E/DX2                !
 ! D16   D(5,8,10,11)           57.7606         estimate D2E/DX2                !
 ! D17   D(5,8,10,12)          -57.7606         estimate D2E/DX2                !
 ! D18   D(5,8,10,13)          180.0            estimate D2E/DX2                !
 ! D19   D(9,8,10,11)          180.0            estimate D2E/DX2                !
 ! D20   D(9,8,10,12)           64.4789         estimate D2E/DX2                !
 ! D21   D(9,8,10,13)          -57.7606         estimate D2E/DX2                !
 ! D22   D(8,10,13,14)          57.7473         estimate D2E/DX2                !
 ! D23   D(8,10,13,15)         -57.7473         estimate D2E/DX2                !
 ! D24   D(8,10,13,16)         180.0            estimate D2E/DX2                !
 ! D25   D(11,10,13,14)       -179.9565         estimate D2E/DX2                !
 ! D26   D(11,10,13,15)         64.5489         estimate D2E/DX2                !
 ! D27   D(11,10,13,16)        -57.7038         estimate D2E/DX2                !
 ! D28   D(12,10,13,14)        -64.5489         estimate D2E/DX2                !
 ! D29   D(12,10,13,15)        179.9565         estimate D2E/DX2                !
 ! D30   D(12,10,13,16)         57.7038         estimate D2E/DX2                !
 ! D31   D(10,13,16,17)         59.8542         estimate D2E/DX2                !
 ! D32   D(10,13,16,18)        180.0            estimate D2E/DX2                !
 ! D33   D(10,13,16,19)        -59.8542         estimate D2E/DX2                !
 ! D34   D(14,13,16,17)       -178.0268         estimate D2E/DX2                !
 ! D35   D(14,13,16,18)        -57.881          estimate D2E/DX2                !
 ! D36   D(14,13,16,19)         62.2647         estimate D2E/DX2                !
 ! D37   D(15,13,16,17)        -62.2647         estimate D2E/DX2                !
 ! D38   D(15,13,16,18)         57.881          estimate D2E/DX2                !
 ! D39   D(15,13,16,19)        178.0268         estimate D2E/DX2                !
 --------------------------------------------------------------------------------
 Trust Radius=3.00D-01 FncErr=1.00D-07 GrdErr=1.00D-06
 Number of steps in this run=    100 maximum allowed number of steps=    114.
 GradGradGradGradGradGradGradGradGradGradGradGradGradGradGradGradGradGrad

 Leave Link  103 at Sat Nov  7 01:58:19 2015, MaxMem=   805306368 cpu:         0.0
 (Enter /home/hetanjin/apps/g09D01/g09/l202.exe)
                          Input orientation:                          
 ---------------------------------------------------------------------
 Center     Atomic      Atomic             Coordinates (Angstroms)
 Number     Number       Type             X           Y           Z
 ---------------------------------------------------------------------
      1          6           0       -1.414227    2.905083    0.000000
      2          1           0       -0.900497    3.301499   -0.884602
      3          1           0       -0.900497    3.301499    0.884602
      4          1           0       -2.434236    3.306282    0.000000
      5          6           0       -1.414227    1.372954    0.000000
      6          1           0       -1.965398    1.006883    0.877995
      7          1           0       -1.965398    1.006883   -0.877995
      8          6           0       -0.004893    0.766918    0.000000
      9          1           0        0.546827    1.134100    0.878477
     10          6           0        0.004893   -0.766918    0.000000
     11          1           0       -0.546827   -1.134100   -0.878477
     12          1           0       -0.546827   -1.134100    0.878477
     13          6           0        1.414227   -1.372954    0.000000
     14          1           0        1.965398   -1.006883    0.877995
     15          1           0        1.965398   -1.006883   -0.877995
     16          6           0        1.414227   -2.905083    0.000000
     17          1           0        0.900497   -3.301499   -0.884602
     18          1           0        2.434236   -3.306282    0.000000
     19          1           0        0.900497   -3.301499    0.884602
 ---------------------------------------------------------------------
                    Distance matrix (angstroms):
                    1          2          3          4          5
     1  C    0.000000
     2  H    1.097080   0.000000
     3  H    1.097080   1.769204   0.000000
     4  H    1.096074   1.770565   1.770565   0.000000
     5  C    1.532129   2.183054   2.183054   2.185904   0.000000
     6  H    2.162829   3.083184   2.529688   2.505578   1.099397
     7  H    2.162829   2.529688   3.083184   2.505578   1.099397
     8  C    2.560854   2.829970   2.829970   3.514268   1.534113
     9  H    2.784571   3.146556   2.606224   3.791679   2.162061
    10  C    3.936686   4.260783   4.260783   4.747663   2.567675
    11  H    4.223636   4.449681   4.786237   4.904185   2.794535
    12  H    4.223636   4.786237   4.449681   4.904185   2.794535
    13  C    5.128523   5.290650   5.290650   6.058541   3.942101
    14  H    5.243684   5.466467   5.174510   6.223427   4.225679
    15  H    5.243684   5.174510   5.466467   6.223427   4.225679
    16  C    6.462057   6.682973   6.682973   7.306964   5.128523
    17  H    6.682973   6.844206   7.069176   7.454243   5.290650
    18  H    7.306964   7.454243   7.454243   8.211457   6.058541
    19  H    6.682973   7.069176   6.844206   7.454243   5.290650
                    6          7          8          9         10
     6  H    0.000000
     7  H    1.755990   0.000000
     8  C    2.161490   2.161490   0.000000
     9  H    2.515444   3.068005   1.100427   0.000000
    10  C    2.792721   2.792721   1.533867   2.163165   0.000000
    11  H    3.111486   2.568298   2.163165   3.070456   1.100427
    12  H    2.568298   3.111486   2.163165   2.518097   1.100427
    13  C    4.225679   4.225679   2.567675   2.794535   1.534113
    14  H    4.416606   4.752885   2.792721   2.568298   2.161490
    15  H    4.752885   4.416606   2.792721   3.111486   2.161490
    16  C    5.243684   5.243684   3.936686   4.223636   2.560854
    17  H    5.466467   5.174510   4.260783   4.786237   2.829970
    18  H    6.223427   6.223427   4.747663   4.904185   3.514268
    19  H    5.174510   5.466467   4.260783   4.449681   2.829970
                   11         12         13         14         15
    11  H    0.000000
    12  H    1.756954   0.000000
    13  C    2.162061   2.162061   0.000000
    14  H    3.068005   2.515444   1.099397   0.000000
    15  H    2.515444   3.068005   1.099397   1.755990   0.000000
    16  C    2.784571   2.784571   1.532129   2.162829   2.162829
    17  H    2.606224   3.146556   2.183054   3.083184   2.529688
    18  H    3.791679   3.791679   2.185904   2.505578   2.505578
    19  H    3.146556   2.606224   2.183054   2.529688   3.083184
                   16         17         18         19
    16  C    0.000000
    17  H    1.097080   0.000000
    18  H    1.096074   1.770565   0.000000
    19  H    1.097080   1.769204   1.770565   0.000000
 Stoichiometry    C6H13(2)
 Framework group  C1[X(C6H13)]
 Deg. of freedom    51
 Full point group                 C1      NOp   1
 Largest Abelian subgroup         C1      NOp   1
 Largest concise Abelian subgroup C1      NOp   1
                         Standard orientation:                         
 ---------------------------------------------------------------------
 Center     Atomic      Atomic             Coordinates (Angstroms)
 Number     Number       Type             X           Y           Z
 ---------------------------------------------------------------------
      1          6           0       -3.238109    0.236090   -0.048463
      2          1           0       -3.324223    0.792581   -0.989997
      3          1           0       -3.328616    0.959535    0.771306
      4          1           0       -4.093571   -0.446296    0.014087
      5          6           0       -1.909029   -0.522401    0.026749
      6          1           0       -1.867849   -1.096832    0.963235
      7          1           0       -1.863489   -1.262538   -0.784914
      8          6           0       -0.682196    0.394847   -0.057137
      9          1           0       -0.728428    1.136054    0.754906
     10          6           0        0.653233   -0.356037    0.017369
     11          1           0        0.699465   -1.097244   -0.794674
     12          1           0        0.695103   -0.931446    0.954434
     13          6           0        1.880067    0.561212   -0.066517
     14          1           0        1.834526    1.301349    0.745146
     15          1           0        1.838886    1.135642   -1.003003
     16          6           0        3.209146   -0.197280    0.008695
     17          1           0        3.299653   -0.920724   -0.811074
     18          1           0        4.064609    0.485107   -0.053855
     19          1           0        3.295260   -0.753771    0.950229
 ---------------------------------------------------------------------
 Rotational constants (GHZ):     15.4250412      1.1283813      1.0901576
 Leave Link  202 at Sat Nov  7 01:58:19 2015, MaxMem=   805306368 cpu:         0.0
 (Enter /home/hetanjin/apps/g09D01/g09/l301.exe)
 Standard basis: 6-31G(d) (6D, 7F)
 Ernie: Thresh=  0.10000D-02 Tol=  0.10000D-05 Strict=F.
 There are   116 symmetry adapted cartesian basis functions of A   symmetry.
 There are   116 symmetry adapted basis functions of A   symmetry.
   116 basis functions,   220 primitive gaussians,   116 cartesian basis functions
    25 alpha electrons       24 beta electrons
       nuclear repulsion energy       231.9972528454 Hartrees.
 IExCor=  402 DFT=T Ex+Corr=B3LYP ExCW=0 ScaHFX=  0.200000
 ScaDFX=  0.800000  0.720000  1.000000  0.810000 ScalE2=  1.000000  1.000000
 IRadAn=      5 IRanWt=     -1 IRanGd=            0 ICorTp=0 IEmpDi=  4
 NAtoms=   19 NActive=   19 NUniq=   19 SFac= 1.00D+00 NAtFMM=   60 NAOKFM=F Big=F
 Integral buffers will be    131072 words long.
 Raffenetti 2 integral format.
 Two-electron integral symmetry is turned on.
 Leave Link  301 at Sat Nov  7 01:58:19 2015, MaxMem=   805306368 cpu:         0.4
 (Enter /home/hetanjin/apps/g09D01/g09/l302.exe)
 NPDir=0 NMtPBC=     1 NCelOv=     1 NCel=       1 NClECP=     1 NCelD=      1
         NCelK=      1 NCelE2=     1 NClLst=     1 CellRange=     0.0.
 One-electron integrals computed using PRISM.
 NBasis=   116 RedAO= T EigKep=  3.49D-03  NBF=   116
 NBsUse=   116 1.00D-06 EigRej= -1.00D+00 NBFU=   116
 Precomputing XC quadrature grid using
 IXCGrd= 4 IRadAn=           5 IRanWt=          -1 IRanGd=           0 AccXCQ= 0.00D+00.
 Generated NRdTot=       0 NPtTot=           0 NUsed=           0 NTot=          32
 NSgBfM=   116   116   116   116   116 MxSgAt=    19 MxSgA2=    19.
 Leave Link  302 at Sat Nov  7 01:58:19 2015, MaxMem=   805306368 cpu:         1.8
 (Enter /home/hetanjin/apps/g09D01/g09/l303.exe)
 DipDrv:  MaxL=1.
 Leave Link  303 at Sat Nov  7 01:58:19 2015, MaxMem=   805306368 cpu:         0.2
 (Enter /home/hetanjin/apps/g09D01/g09/l401.exe)
 ExpMin= 1.61D-01 ExpMax= 3.05D+03 ExpMxC= 4.57D+02 IAcc=3 IRadAn=         5 AccDes= 0.00D+00
 Harris functional with IExCor=  402 and IRadAn=       5 diagonalized for initial guess.
 HarFok:  IExCor=  402 AccDes= 0.00D+00 IRadAn=         5 IDoV= 1 UseB2=F ITyADJ=14
 ICtDFT=  3500011 ScaDFX=  1.000000  1.000000  1.000000  1.000000
 FoFCou: FMM=F IPFlag=           0 FMFlag=      100000 FMFlg1=           0
         NFxFlg=           0 DoJE=T BraDBF=F KetDBF=T FulRan=T
         wScrn=  0.000000 ICntrl=     500 IOpCl=  0 I1Cent=   200000004 NGrid=           0
         NMat0=    1 NMatS0=      1 NMatT0=    0 NMatD0=    1 NMtDS0=    0 NMtDT0=    0
 Petite list used in FoFCou.
 Harris En= -236.454690028511    
 JPrj=0 DoOrth=F DoCkMO=F.
 Initial guess <Sx>= 0.0000 <Sy>= 0.0000 <Sz>= 0.5000 <S**2>= 0.7500 S= 0.5000
 Leave Link  401 at Sat Nov  7 01:58:22 2015, MaxMem=   805306368 cpu:         7.9
 (Enter /home/hetanjin/apps/g09D01/g09/l502.exe)
 UHF open shell SCF:
 Using DIIS extrapolation, IDIIS=  1040.
 Integral symmetry usage will be decided dynamically.
 Keep R1 and R2 ints in memory in canonical form, NReq=47059932.
 IVT=       60514 IEndB=       60514 NGot=   805306368 MDV=   759189273
 LenX=   759189273 LenY=   759175376
 Requested convergence on RMS density matrix=1.00D-08 within 128 cycles.
 Requested convergence on MAX density matrix=1.00D-06.
 Requested convergence on             energy=1.00D-06.
 No special actions if energy rises.
 FoFCou: FMM=F IPFlag=           0 FMFlag=           0 FMFlg1=           0
         NFxFlg=           0 DoJE=F BraDBF=F KetDBF=F FulRan=T
         wScrn=  0.000000 ICntrl=     600 IOpCl=  0 I1Cent=           0 NGrid=           0
         NMat0=    1 NMatS0=   6786 NMatT0=    0 NMatD0=    1 NMtDS0=    0 NMtDT0=    0
 Symmetry not used in FoFCou.
 Integral accuracy reduced to 1.0D-05 until final iterations.

 Cycle   1  Pass 0  IDiag  1:
 E= -236.154269427683    
 DIIS: error= 5.19D-02 at cycle   1 NSaved=   1.
 NSaved= 1 IEnMin= 1 EnMin= -236.154269427683     IErMin= 1 ErrMin= 5.19D-02
 ErrMax= 5.19D-02  0.00D+00 EMaxC= 1.00D-01 BMatC= 8.95D-01 BMatP= 8.95D-01
 IDIUse=3 WtCom= 4.81D-01 WtEn= 5.19D-01
 Coeff-Com:  0.100D+01
 Coeff-En:   0.100D+01
 Coeff:      0.100D+01
 Gap=     0.275 Goal=   None    Shift=    0.000
 Gap=     0.256 Goal=   None    Shift=    0.000
 GapD=    0.256 DampG=1.000 DampE=0.500 DampFc=0.5000 IDamp=-1.
 Damping current iteration by 5.00D-01
 RMSDP=9.22D-03 MaxDP=1.41D-01              OVMax= 1.78D-01

 Cycle   2  Pass 0  IDiag  1:
 E= -236.270721938192     Delta-E=       -0.116452510509 Rises=F Damp=T
 DIIS: error= 9.18D-03 at cycle   2 NSaved=   2.
 NSaved= 2 IEnMin= 2 EnMin= -236.270721938192     IErMin= 2 ErrMin= 9.18D-03
 ErrMax= 9.18D-03  0.00D+00 EMaxC= 1.00D-01 BMatC= 3.47D-02 BMatP= 8.95D-01
 IDIUse=3 WtCom= 9.08D-01 WtEn= 9.18D-02
 Coeff-Com:  0.596D-01 0.940D+00
 Coeff-En:   0.898D-01 0.910D+00
 Coeff:      0.624D-01 0.938D+00
 Gap=     0.303 Goal=   None    Shift=    0.000
 Gap=     0.255 Goal=   None    Shift=    0.000
 RMSDP=1.27D-03 MaxDP=1.92D-02 DE=-1.16D-01 OVMax= 9.15D-02

 Cycle   3  Pass 0  IDiag  1:
 E= -236.407909854226     Delta-E=       -0.137187916034 Rises=F Damp=F
 DIIS: error= 1.87D-03 at cycle   3 NSaved=   3.
 NSaved= 3 IEnMin= 3 EnMin= -236.407909854226     IErMin= 3 ErrMin= 1.87D-03
 ErrMax= 1.87D-03  0.00D+00 EMaxC= 1.00D-01 BMatC= 2.19D-03 BMatP= 3.47D-02
 IDIUse=3 WtCom= 9.81D-01 WtEn= 1.87D-02
 Coeff-Com: -0.678D-02 0.130D+00 0.877D+00
 Coeff-En:   0.000D+00 0.000D+00 0.100D+01
 Coeff:     -0.665D-02 0.128D+00 0.879D+00
 Gap=     0.310 Goal=   None    Shift=    0.000
 Gap=     0.249 Goal=   None    Shift=    0.000
 RMSDP=3.18D-04 MaxDP=8.35D-03 DE=-1.37D-01 OVMax= 8.66D-03

 Cycle   4  Pass 0  IDiag  1:
 E= -236.408289983660     Delta-E=       -0.000380129434 Rises=F Damp=F
 DIIS: error= 8.90D-04 at cycle   4 NSaved=   4.
 NSaved= 4 IEnMin= 4 EnMin= -236.408289983660     IErMin= 4 ErrMin= 8.90D-04
 ErrMax= 8.90D-04  0.00D+00 EMaxC= 1.00D-01 BMatC= 7.80D-04 BMatP= 2.19D-03
 IDIUse=3 WtCom= 9.91D-01 WtEn= 8.90D-03
 Coeff-Com: -0.383D-02 0.187D-01 0.382D+00 0.603D+00
 Coeff-En:   0.000D+00 0.000D+00 0.159D+00 0.841D+00
 Coeff:     -0.379D-02 0.185D-01 0.380D+00 0.605D+00
 Gap=     0.306 Goal=   None    Shift=    0.000
 Gap=     0.253 Goal=   None    Shift=    0.000
 RMSDP=1.40D-04 MaxDP=3.41D-03 DE=-3.80D-04 OVMax= 3.47D-03

 Cycle   5  Pass 0  IDiag  1:
 E= -236.408473047955     Delta-E=       -0.000183064295 Rises=F Damp=F
 DIIS: error= 2.99D-04 at cycle   5 NSaved=   5.
 NSaved= 5 IEnMin= 5 EnMin= -236.408473047955     IErMin= 5 ErrMin= 2.99D-04
 ErrMax= 2.99D-04  0.00D+00 EMaxC= 1.00D-01 BMatC= 6.40D-05 BMatP= 7.80D-04
 IDIUse=3 WtCom= 9.97D-01 WtEn= 2.99D-03
 Coeff-Com: -0.834D-03-0.436D-02 0.816D-01 0.262D+00 0.662D+00
 Coeff-En:   0.000D+00 0.000D+00 0.000D+00 0.000D+00 0.100D+01
 Coeff:     -0.831D-03-0.435D-02 0.814D-01 0.261D+00 0.663D+00
 Gap=     0.308 Goal=   None    Shift=    0.000
 Gap=     0.252 Goal=   None    Shift=    0.000
 RMSDP=4.28D-05 MaxDP=1.27D-03 DE=-1.83D-04 OVMax= 1.36D-03

 Cycle   6  Pass 0  IDiag  1:
 E= -236.408490659428     Delta-E=       -0.000017611472 Rises=F Damp=F
 DIIS: error= 5.87D-05 at cycle   6 NSaved=   6.
 NSaved= 6 IEnMin= 6 EnMin= -236.408490659428     IErMin= 6 ErrMin= 5.87D-05
 ErrMax= 5.87D-05  0.00D+00 EMaxC= 1.00D-01 BMatC= 1.78D-06 BMatP= 6.40D-05
 IDIUse=1 WtCom= 1.00D+00 WtEn= 0.00D+00
 Coeff-Com:  0.232D-03-0.170D-02-0.254D-01-0.351D-01 0.260D-01 0.104D+01
 Coeff:      0.232D-03-0.170D-02-0.254D-01-0.351D-01 0.260D-01 0.104D+01
 Gap=     0.308 Goal=   None    Shift=    0.000
 Gap=     0.253 Goal=   None    Shift=    0.000
 RMSDP=1.18D-05 MaxDP=2.91D-04 DE=-1.76D-05 OVMax= 4.05D-04

 Cycle   7  Pass 0  IDiag  1:
 E= -236.408491621161     Delta-E=       -0.000000961733 Rises=F Damp=F
 DIIS: error= 2.21D-05 at cycle   7 NSaved=   7.
 NSaved= 7 IEnMin= 7 EnMin= -236.408491621161     IErMin= 7 ErrMin= 2.21D-05
 ErrMax= 2.21D-05  0.00D+00 EMaxC= 1.00D-01 BMatC= 4.94D-07 BMatP= 1.78D-06
 IDIUse=1 WtCom= 1.00D+00 WtEn= 0.00D+00
 Coeff-Com:  0.157D-03-0.411D-04-0.187D-01-0.439D-01-0.702D-01 0.380D+00
 Coeff-Com:  0.753D+00
 Coeff:      0.157D-03-0.411D-04-0.187D-01-0.439D-01-0.702D-01 0.380D+00
 Coeff:      0.753D+00
 Gap=     0.308 Goal=   None    Shift=    0.000
 Gap=     0.253 Goal=   None    Shift=    0.000
 RMSDP=4.78D-06 MaxDP=1.16D-04 DE=-9.62D-07 OVMax= 1.27D-04

 Initial convergence to 1.0D-05 achieved.  Increase integral accuracy.
 Cycle   8  Pass 1  IDiag  1:
 E= -236.408487188079     Delta-E=        0.000004433082 Rises=F Damp=F
 DIIS: error= 8.77D-06 at cycle   1 NSaved=   1.
 NSaved= 1 IEnMin= 1 EnMin= -236.408487188079     IErMin= 1 ErrMin= 8.77D-06
 ErrMax= 8.77D-06  0.00D+00 EMaxC= 1.00D-01 BMatC= 8.52D-08 BMatP= 8.52D-08
 IDIUse=1 WtCom= 1.00D+00 WtEn= 0.00D+00
 Coeff-Com:  0.100D+01
 Coeff:      0.100D+01
 Gap=     0.308 Goal=   None    Shift=    0.000
 Gap=     0.253 Goal=   None    Shift=    0.000
 RMSDP=4.78D-06 MaxDP=1.16D-04 DE= 4.43D-06 OVMax= 7.33D-05

 Cycle   9  Pass 1  IDiag  1:
 E= -236.408487185782     Delta-E=        0.000000002298 Rises=F Damp=F
 DIIS: error= 1.03D-05 at cycle   2 NSaved=   2.
 NSaved= 2 IEnMin= 1 EnMin= -236.408487188079     IErMin= 1 ErrMin= 8.77D-06
 ErrMax= 1.03D-05  0.00D+00 EMaxC= 1.00D-01 BMatC= 1.17D-07 BMatP= 8.52D-08
 IDIUse=1 WtCom= 1.00D+00 WtEn= 0.00D+00
 Coeff-Com:  0.542D+00 0.458D+00
 Coeff:      0.542D+00 0.458D+00
 Gap=     0.308 Goal=   None    Shift=    0.000
 Gap=     0.253 Goal=   None    Shift=    0.000
 RMSDP=1.42D-06 MaxDP=3.66D-05 DE= 2.30D-09 OVMax= 3.66D-05

 Cycle  10  Pass 1  IDiag  1:
 E= -236.408487215124     Delta-E=       -0.000000029343 Rises=F Damp=F
 DIIS: error= 1.39D-06 at cycle   3 NSaved=   3.
 NSaved= 3 IEnMin= 3 EnMin= -236.408487215124     IErMin= 3 ErrMin= 1.39D-06
 ErrMax= 1.39D-06  0.00D+00 EMaxC= 1.00D-01 BMatC= 1.26D-09 BMatP= 8.52D-08
 IDIUse=1 WtCom= 1.00D+00 WtEn= 0.00D+00
 Coeff-Com: -0.124D+00-0.508D-01 0.117D+01
 Coeff:     -0.124D+00-0.508D-01 0.117D+01
 Gap=     0.308 Goal=   None    Shift=    0.000
 Gap=     0.253 Goal=   None    Shift=    0.000
 RMSDP=3.60D-07 MaxDP=8.82D-06 DE=-2.93D-08 OVMax= 1.09D-05

 Cycle  11  Pass 1  IDiag  1:
 E= -236.408487215888     Delta-E=       -0.000000000764 Rises=F Damp=F
 DIIS: error= 6.36D-07 at cycle   4 NSaved=   4.
 NSaved= 4 IEnMin= 4 EnMin= -236.408487215888     IErMin= 4 ErrMin= 6.36D-07
 ErrMax= 6.36D-07  0.00D+00 EMaxC= 1.00D-01 BMatC= 4.07D-10 BMatP= 1.26D-09
 IDIUse=1 WtCom= 1.00D+00 WtEn= 0.00D+00
 Coeff-Com: -0.136D+00-0.931D-01 0.474D+00 0.755D+00
 Coeff:     -0.136D+00-0.931D-01 0.474D+00 0.755D+00
 Gap=     0.308 Goal=   None    Shift=    0.000
 Gap=     0.253 Goal=   None    Shift=    0.000
 RMSDP=1.46D-07 MaxDP=3.24D-06 DE=-7.64D-10 OVMax= 4.02D-06

 Cycle  12  Pass 1  IDiag  1:
 E= -236.408487216027     Delta-E=       -0.000000000138 Rises=F Damp=F
 DIIS: error= 2.54D-07 at cycle   5 NSaved=   5.
 NSaved= 5 IEnMin= 5 EnMin= -236.408487216027     IErMin= 5 ErrMin= 2.54D-07
 ErrMax= 2.54D-07  0.00D+00 EMaxC= 1.00D-01 BMatC= 5.65D-11 BMatP= 4.07D-10
 IDIUse=1 WtCom= 1.00D+00 WtEn= 0.00D+00
 Coeff-Com: -0.522D-01-0.390D-01 0.108D+00 0.351D+00 0.632D+00
 Coeff:     -0.522D-01-0.390D-01 0.108D+00 0.351D+00 0.632D+00
 Gap=     0.308 Goal=   None    Shift=    0.000
 Gap=     0.253 Goal=   None    Shift=    0.000
 RMSDP=3.76D-08 MaxDP=7.98D-07 DE=-1.38D-10 OVMax= 1.07D-06

 Cycle  13  Pass 1  IDiag  1:
 E= -236.408487216041     Delta-E=       -0.000000000014 Rises=F Damp=F
 DIIS: error= 3.74D-08 at cycle   6 NSaved=   6.
 NSaved= 6 IEnMin= 6 EnMin= -236.408487216041     IErMin= 6 ErrMin= 3.74D-08
 ErrMax= 3.74D-08  0.00D+00 EMaxC= 1.00D-01 BMatC= 1.74D-12 BMatP= 5.65D-11
 IDIUse=1 WtCom= 1.00D+00 WtEn= 0.00D+00
 Coeff-Com:  0.620D-02 0.374D-02-0.347D-01-0.235D-01 0.117D+00 0.931D+00
 Coeff:      0.620D-02 0.374D-02-0.347D-01-0.235D-01 0.117D+00 0.931D+00
 Gap=     0.308 Goal=   None    Shift=    0.000
 Gap=     0.253 Goal=   None    Shift=    0.000
 RMSDP=9.18D-09 MaxDP=2.06D-07 DE=-1.41D-11 OVMax= 2.06D-07

 SCF Done:  E(UB3LYP) =  -236.408487216     A.U. after   13 cycles
            NFock= 13  Conv=0.92D-08     -V/T= 2.0105
 <Sx>= 0.0000 <Sy>= 0.0000 <Sz>= 0.5000 <S**2>= 0.7528 S= 0.5014
 <L.S>= 0.000000000000E+00
 KE= 2.339476284189D+02 PE=-1.009583025626D+03 EE= 3.072296571454D+02
 Annihilation of the first spin contaminant:
 S**2 before annihilation     0.7528,   after     0.7500
 Leave Link  502 at Sat Nov  7 01:58:55 2015, MaxMem=   805306368 cpu:       126.9
 (Enter /home/hetanjin/apps/g09D01/g09/l601.exe)
 Copying SCF densities to generalized density rwf, IOpCl= 1 IROHF=0.

 **********************************************************************

            Population analysis using the SCF density.

 **********************************************************************

 Orbital symmetries:
 Alpha Orbitals:
       Occupied  (A) (A) (A) (A) (A) (A) (A) (A) (A) (A) (A) (A)
                 (A) (A) (A) (A) (A) (A) (A) (A) (A) (A) (A) (A)
                 (A)
       Virtual   (A) (A) (A) (A) (A) (A) (A) (A) (A) (A) (A) (A)
                 (A) (A) (A) (A) (A) (A) (A) (A) (A) (A) (A) (A)
                 (A) (A) (A) (A) (A) (A) (A) (A) (A) (A) (A) (A)
                 (A) (A) (A) (A) (A) (A) (A) (A) (A) (A) (A) (A)
                 (A) (A) (A) (A) (A) (A) (A) (A) (A) (A) (A) (A)
                 (A) (A) (A) (A) (A) (A) (A) (A) (A) (A) (A) (A)
                 (A) (A) (A) (A) (A) (A) (A) (A) (A) (A) (A) (A)
                 (A) (A) (A) (A) (A) (A) (A)
 Beta  Orbitals:
       Occupied  (A) (A) (A) (A) (A) (A) (A) (A) (A) (A) (A) (A)
                 (A) (A) (A) (A) (A) (A) (A) (A) (A) (A) (A) (A)
       Virtual   (A) (A) (A) (A) (A) (A) (A) (A) (A) (A) (A) (A)
                 (A) (A) (A) (A) (A) (A) (A) (A) (A) (A) (A) (A)
                 (A) (A) (A) (A) (A) (A) (A) (A) (A) (A) (A) (A)
                 (A) (A) (A) (A) (A) (A) (A) (A) (A) (A) (A) (A)
                 (A) (A) (A) (A) (A) (A) (A) (A) (A) (A) (A) (A)
                 (A) (A) (A) (A) (A) (A) (A) (A) (A) (A) (A) (A)
                 (A) (A) (A) (A) (A) (A) (A) (A) (A) (A) (A) (A)
                 (A) (A) (A) (A) (A) (A) (A) (A)
 The electronic state is 2-A.
 Alpha  occ. eigenvalues --  -10.19343 -10.18175 -10.17941 -10.17685 -10.17086
 Alpha  occ. eigenvalues --  -10.17071  -0.79961  -0.76311  -0.70342  -0.63408
 Alpha  occ. eigenvalues --   -0.57952  -0.56030  -0.46667  -0.44101  -0.43095
 Alpha  occ. eigenvalues --   -0.41527  -0.39156  -0.37821  -0.37142  -0.34868
 Alpha  occ. eigenvalues --   -0.33810  -0.32589  -0.32264  -0.30829  -0.21159
 Alpha virt. eigenvalues --    0.09626   0.10511   0.12507   0.13400   0.14979
 Alpha virt. eigenvalues --    0.16241   0.16739   0.17065   0.18777   0.19215
 Alpha virt. eigenvalues --    0.19260   0.20247   0.20472   0.22522   0.24127
 Alpha virt. eigenvalues --    0.26434   0.28049   0.29044   0.49594   0.49952
 Alpha virt. eigenvalues --    0.51094   0.54914   0.55664   0.57598   0.58442
 Alpha virt. eigenvalues --    0.60630   0.61625   0.65129   0.66517   0.68955
 Alpha virt. eigenvalues --    0.72809   0.75116   0.77682   0.79736   0.82677
 Alpha virt. eigenvalues --    0.84517   0.87700   0.88604   0.89896   0.90541
 Alpha virt. eigenvalues --    0.92275   0.93304   0.94735   0.95128   0.95375
 Alpha virt. eigenvalues --    0.96767   0.97041   0.98498   1.01966   1.05175
 Alpha virt. eigenvalues --    1.24526   1.30071   1.40319   1.42946   1.45385
 Alpha virt. eigenvalues --    1.52093   1.53489   1.63152   1.64659   1.79298
 Alpha virt. eigenvalues --    1.82507   1.87178   1.89623   1.92190   1.94182
 Alpha virt. eigenvalues --    1.95212   1.98938   2.00906   2.02479   2.06734
 Alpha virt. eigenvalues --    2.10091   2.16888   2.22539   2.24534   2.32495
 Alpha virt. eigenvalues --    2.33278   2.33415   2.37338   2.42402   2.44799
 Alpha virt. eigenvalues --    2.56210   2.60255   2.62970   2.77368   2.81857
 Alpha virt. eigenvalues --    4.09147   4.18332   4.24038   4.34099   4.43633
 Alpha virt. eigenvalues --    4.53982
  Beta  occ. eigenvalues --  -10.18208 -10.17975 -10.17923 -10.17669 -10.17072
  Beta  occ. eigenvalues --  -10.17069  -0.79147  -0.76057  -0.69782  -0.62960
  Beta  occ. eigenvalues --   -0.57808  -0.54510  -0.45975  -0.43802  -0.42746
  Beta  occ. eigenvalues --   -0.41227  -0.38655  -0.37636  -0.36878  -0.34469
  Beta  occ. eigenvalues --   -0.33633  -0.32365  -0.31895  -0.30393
  Beta virt. eigenvalues --   -0.05139   0.09904   0.10714   0.12733   0.13510
  Beta virt. eigenvalues --    0.15107   0.16319   0.16855   0.17209   0.19038
  Beta virt. eigenvalues --    0.19270   0.19577   0.20471   0.20938   0.22976
  Beta virt. eigenvalues --    0.24540   0.27283   0.28784   0.29719   0.49845
  Beta virt. eigenvalues --    0.50386   0.51672   0.55166   0.56181   0.58710
  Beta virt. eigenvalues --    0.60198   0.61428   0.62119   0.66900   0.67112
  Beta virt. eigenvalues --    0.69049   0.73182   0.76421   0.78022   0.80127
  Beta virt. eigenvalues --    0.83054   0.85062   0.87996   0.88716   0.89949
  Beta virt. eigenvalues --    0.90669   0.92458   0.93690   0.94979   0.95316
  Beta virt. eigenvalues --    0.96110   0.96889   0.97775   0.98723   1.02367
  Beta virt. eigenvalues --    1.05810   1.25498   1.30342   1.41159   1.43115
  Beta virt. eigenvalues --    1.46274   1.52470   1.53714   1.64120   1.65779
  Beta virt. eigenvalues --    1.80514   1.83038   1.87839   1.90491   1.93644
  Beta virt. eigenvalues --    1.95010   1.95486   2.00247   2.01347   2.03647
  Beta virt. eigenvalues --    2.07024   2.11322   2.19609   2.22796   2.24856
  Beta virt. eigenvalues --    2.32587   2.33408   2.33826   2.38702   2.43086
  Beta virt. eigenvalues --    2.45080   2.56755   2.61608   2.63311   2.78027
  Beta virt. eigenvalues --    2.82949   4.10285   4.18471   4.25168   4.34497
  Beta virt. eigenvalues --    4.43864   4.54694
          Condensed to atoms (all electrons):
               1          2          3          4          5          6
     1  C    5.066741   0.378782   0.378035   0.368745   0.366435  -0.039761
     2  H    0.378782   0.569984  -0.031961  -0.031036  -0.034409   0.005315
     3  H    0.378035  -0.031961   0.579457  -0.031913  -0.035040  -0.004425
     4  H    0.368745  -0.031036  -0.031913   0.583810  -0.027666  -0.002212
     5  C    0.366435  -0.034409  -0.035040  -0.027666   5.001988   0.365231
     6  H   -0.039761   0.005315  -0.004425  -0.002212   0.365231   0.615308
     7  H   -0.037600  -0.004446   0.005173  -0.002898   0.372475  -0.040265
     8  C   -0.041235  -0.000546  -0.004810   0.004005   0.370966  -0.039921
     9  H   -0.003187  -0.000264   0.004878  -0.000054  -0.055666  -0.002849
    10  C    0.003557   0.000049   0.000038  -0.000145  -0.041258  -0.002268
    11  H    0.000034   0.000002   0.000006   0.000000  -0.004803  -0.000348
    12  H    0.000011   0.000007   0.000002   0.000007  -0.002317   0.004745
    13  C   -0.000114   0.000000   0.000001   0.000001   0.003361   0.000001
    14  H    0.000002   0.000000  -0.000002   0.000000   0.000027   0.000005
    15  H    0.000001  -0.000001   0.000000   0.000000   0.000040   0.000007
    16  C    0.000001   0.000000   0.000000   0.000000  -0.000136   0.000006
    17  H    0.000000   0.000000   0.000000   0.000000   0.000001   0.000000
    18  H    0.000000   0.000000   0.000000   0.000000   0.000001   0.000000
    19  H    0.000000   0.000000   0.000000   0.000000   0.000000  -0.000001
               7          8          9         10         11         12
     1  C   -0.037600  -0.041235  -0.003187   0.003557   0.000034   0.000011
     2  H   -0.004446  -0.000546  -0.000264   0.000049   0.000002   0.000007
     3  H    0.005173  -0.004810   0.004878   0.000038   0.000006   0.000002
     4  H   -0.002898   0.004005  -0.000054  -0.000145   0.000000   0.000007
     5  C    0.372475   0.370966  -0.055666  -0.041258  -0.004803  -0.002317
     6  H   -0.040265  -0.039921  -0.002849  -0.002268  -0.000348   0.004745
     7  H    0.605545  -0.041276   0.006049  -0.004790   0.005172  -0.000354
     8  C   -0.041276   5.237003   0.353493   0.371172  -0.040226  -0.039229
     9  H    0.006049   0.353493   0.634159  -0.054547   0.006004  -0.002798
    10  C   -0.004790   0.371172  -0.054547   5.023639   0.368215   0.361277
    11  H    0.005172  -0.040226   0.006004   0.368215   0.611100  -0.040950
    12  H   -0.000354  -0.039229  -0.002798   0.361277  -0.040950   0.620995
    13  C    0.000018  -0.035567  -0.003866   0.381247  -0.039380  -0.041820
    14  H    0.000006  -0.003860   0.005143  -0.040756   0.005886  -0.005405
    15  H    0.000003   0.000653  -0.000341  -0.039851  -0.005422   0.006064
    16  C    0.000000   0.003593   0.000026  -0.042400  -0.003054  -0.002363
    17  H   -0.000001   0.000027   0.000007  -0.004522   0.004877  -0.000407
    18  H    0.000000  -0.000113   0.000002   0.004071  -0.000040  -0.000039
    19  H    0.000000   0.000012   0.000003  -0.004437  -0.000383   0.005028
              13         14         15         16         17         18
     1  C   -0.000114   0.000002   0.000001   0.000001   0.000000   0.000000
     2  H    0.000000   0.000000  -0.000001   0.000000   0.000000   0.000000
     3  H    0.000001  -0.000002   0.000000   0.000000   0.000000   0.000000
     4  H    0.000001   0.000000   0.000000   0.000000   0.000000   0.000000
     5  C    0.003361   0.000027   0.000040  -0.000136   0.000001   0.000001
     6  H    0.000001   0.000005   0.000007   0.000006   0.000000   0.000000
     7  H    0.000018   0.000006   0.000003   0.000000  -0.000001   0.000000
     8  C   -0.035567  -0.003860   0.000653   0.003593   0.000027  -0.000113
     9  H   -0.003866   0.005143  -0.000341   0.000026   0.000007   0.000002
    10  C    0.381247  -0.040756  -0.039851  -0.042400  -0.004522   0.004071
    11  H   -0.039380   0.005886  -0.005422  -0.003054   0.004877  -0.000040
    12  H   -0.041820  -0.005405   0.006064  -0.002363  -0.000407  -0.000039
    13  C    4.959120   0.377288   0.378225   0.365343  -0.034656  -0.026909
    14  H    0.377288   0.612459  -0.039154  -0.039096   0.005270  -0.002749
    15  H    0.378225  -0.039154   0.602606  -0.038517  -0.004487  -0.002631
    16  C    0.365343  -0.039096  -0.038517   5.072796   0.377437   0.371899
    17  H   -0.034656   0.005270  -0.004487   0.377437   0.579383  -0.031231
    18  H   -0.026909  -0.002749  -0.002631   0.371899  -0.031231   0.576857
    19  H   -0.034925  -0.004462   0.005223   0.376751  -0.033096  -0.031278
              19
     1  C    0.000000
     2  H    0.000000
     3  H    0.000000
     4  H    0.000000
     5  C    0.000000
     6  H   -0.000001
     7  H    0.000000
     8  C    0.000012
     9  H    0.000003
    10  C   -0.004437
    11  H   -0.000383
    12  H    0.005028
    13  C   -0.034925
    14  H   -0.004462
    15  H    0.005223
    16  C    0.376751
    17  H   -0.033096
    18  H   -0.031278
    19  H    0.582058
          Atomic-Atomic Spin Densities.
               1          2          3          4          5          6
     1  C    0.012328  -0.004876   0.000306  -0.001755   0.007864  -0.005087
     2  H   -0.004876   0.003246  -0.000362   0.001129  -0.001376   0.000895
     3  H    0.000306  -0.000362  -0.000596  -0.000027   0.000805  -0.000666
     4  H   -0.001755   0.001129  -0.000027  -0.000770   0.000066   0.001282
     5  C    0.007864  -0.001376   0.000805   0.000066  -0.044461  -0.000685
     6  H   -0.005087   0.000895  -0.000666   0.001282  -0.000685   0.088699
     7  H    0.003034  -0.000861   0.000059  -0.000366   0.006070  -0.009155
     8  C   -0.007485   0.004477  -0.000286   0.000245  -0.027171  -0.023330
     9  H    0.000725  -0.000361   0.000137  -0.000061   0.007119  -0.003555
    10  C    0.000104  -0.000055   0.000017  -0.000003   0.002447  -0.001847
    11  H    0.000039  -0.000015   0.000001  -0.000002   0.001217  -0.000917
    12  H   -0.000055   0.000017  -0.000010   0.000006  -0.001970   0.006529
    13  C    0.000002  -0.000002   0.000000   0.000000   0.000144  -0.000075
    14  H    0.000000   0.000000   0.000000   0.000000   0.000018  -0.000009
    15  H   -0.000001   0.000002   0.000000   0.000000  -0.000061   0.000018
    16  C    0.000000   0.000000   0.000000   0.000000  -0.000004   0.000006
    17  H    0.000000   0.000000   0.000000   0.000000   0.000000   0.000000
    18  H    0.000000   0.000000   0.000000   0.000000   0.000000   0.000000
    19  H    0.000000   0.000000   0.000000   0.000000   0.000000   0.000000
               7          8          9         10         11         12
     1  C    0.003034  -0.007485   0.000725   0.000104   0.000039  -0.000055
     2  H   -0.000861   0.004477  -0.000361  -0.000055  -0.000015   0.000017
     3  H    0.000059  -0.000286   0.000137   0.000017   0.000001  -0.000010
     4  H   -0.000366   0.000245  -0.000061  -0.000003  -0.000002   0.000006
     5  C    0.006070  -0.027171   0.007119   0.002447   0.001217  -0.001970
     6  H   -0.009155  -0.023330  -0.003555  -0.001847  -0.000917   0.006529
     7  H    0.012935  -0.006197   0.000311   0.001228   0.000790  -0.000933
     8  C   -0.006197   1.133175  -0.016729  -0.027080  -0.005812  -0.023407
     9  H    0.000311  -0.016729  -0.018673   0.006508   0.000298  -0.003496
    10  C    0.001228  -0.027080   0.006508  -0.044797   0.005484   0.000676
    11  H    0.000790  -0.005812   0.000298   0.005484   0.012391  -0.008799
    12  H   -0.000933  -0.023407  -0.003496   0.000676  -0.008799   0.087097
    13  C    0.000049  -0.007382   0.000813   0.007103   0.003503  -0.006114
    14  H    0.000001  -0.000211   0.000107   0.000683   0.000045  -0.000569
    15  H   -0.000016   0.004480  -0.000369  -0.001281  -0.000803   0.000872
    16  C   -0.000003   0.000247  -0.000071   0.000318  -0.000569   0.001410
    17  H    0.000000   0.000003   0.000000  -0.000002  -0.000053   0.000036
    18  H    0.000000  -0.000004  -0.000001  -0.000036  -0.000009   0.000007
    19  H    0.000000  -0.000001  -0.000001  -0.000036  -0.000008   0.000068
              13         14         15         16         17         18
     1  C    0.000002   0.000000  -0.000001   0.000000   0.000000   0.000000
     2  H   -0.000002   0.000000   0.000002   0.000000   0.000000   0.000000
     3  H    0.000000   0.000000   0.000000   0.000000   0.000000   0.000000
     4  H    0.000000   0.000000   0.000000   0.000000   0.000000   0.000000
     5  C    0.000144   0.000018  -0.000061  -0.000004   0.000000   0.000000
     6  H   -0.000075  -0.000009   0.000018   0.000006   0.000000   0.000000
     7  H    0.000049   0.000001  -0.000016  -0.000003   0.000000   0.000000
     8  C   -0.007382  -0.000211   0.004480   0.000247   0.000003  -0.000004
     9  H    0.000813   0.000107  -0.000369  -0.000071   0.000000  -0.000001
    10  C    0.007103   0.000683  -0.001281   0.000318  -0.000002  -0.000036
    11  H    0.003503   0.000045  -0.000803  -0.000569  -0.000053  -0.000009
    12  H   -0.006114  -0.000569   0.000872   0.001410   0.000036   0.000007
    13  C    0.015270   0.000258  -0.004987  -0.002705  -0.000239  -0.000053
    14  H    0.000258  -0.000760  -0.000185   0.000030  -0.000012  -0.000029
    15  H   -0.004987  -0.000185   0.002368   0.001408   0.000060  -0.000006
    16  C   -0.002705   0.000030   0.001408  -0.000012   0.000213   0.000380
    17  H   -0.000239  -0.000012   0.000060   0.000213   0.000044  -0.000010
    18  H   -0.000053  -0.000029  -0.000006   0.000380  -0.000010  -0.000556
    19  H    0.000103   0.000009  -0.000010   0.000053   0.000020  -0.000027
              19
     1  C    0.000000
     2  H    0.000000
     3  H    0.000000
     4  H    0.000000
     5  C    0.000000
     6  H    0.000000
     7  H    0.000000
     8  C   -0.000001
     9  H   -0.000001
    10  C   -0.000036
    11  H   -0.000008
    12  H    0.000068
    13  C    0.000103
    14  H    0.000009
    15  H   -0.000010
    16  C    0.000053
    17  H    0.000020
    18  H   -0.000027
    19  H   -0.000147
 Mulliken charges and spin densities:
               1          2
     1  C   -0.440446   0.005144
     2  H    0.148521   0.001857
     3  H    0.140560  -0.000622
     4  H    0.139357  -0.000256
     5  C   -0.279229  -0.049977
     6  H    0.141432   0.052104
     7  H    0.137188   0.006946
     8  C   -0.094139   0.997531
     9  H    0.113808  -0.027299
    10  C   -0.278292  -0.050568
    11  H    0.133308   0.006783
    12  H    0.137545   0.051365
    13  C   -0.247368   0.005689
    14  H    0.129398  -0.000626
    15  H    0.137579   0.001490
    16  C   -0.442288   0.000702
    17  H    0.141398   0.000059
    18  H    0.142160  -0.000343
    19  H    0.139507   0.000023
 Sum of Mulliken charges =   0.00000   1.00000
 Mulliken charges and spin densities with hydrogens summed into heavy atoms:
               1          2
     1  C   -0.012007   0.006123
     5  C   -0.000609   0.009073
     8  C    0.019669   0.970232
    10  C   -0.007439   0.007580
    13  C    0.019609   0.006552
    16  C   -0.019224   0.000440
 Electronic spatial extent (au):  <R**2>=           1134.6904
 Charge=              0.0000 electrons
 Dipole moment (field-independent basis, Debye):
    X=              0.0354    Y=             -0.3594    Z=              0.4032  Tot=              0.5413
 Quadrupole moment (field-independent basis, Debye-Ang):
   XX=            -41.1872   YY=            -41.0225   ZZ=            -40.2362
   XY=              0.6430   XZ=             -0.3518   YZ=              0.4375
 Traceless Quadrupole moment (field-independent basis, Debye-Ang):
   XX=             -0.3719   YY=             -0.2072   ZZ=              0.5791
   XY=              0.6430   XZ=             -0.3518   YZ=              0.4375
 Octapole moment (field-independent basis, Debye-Ang**2):
  XXX=             -0.3635  YYY=             -0.7410  ZZZ=              0.5539  XYY=              0.1635
  XXY=             -0.0648  XXZ=             -0.0403  XZZ=              0.2076  YZZ=             -0.5271
  YYZ=              0.4804  XYZ=             -0.2611
 Hexadecapole moment (field-independent basis, Debye-Ang**3):
 XXXX=          -1380.4791 YYYY=           -133.7394 ZZZZ=            -79.1839 XXXY=             14.4154
 XXXZ=             -1.3377 YYYX=              1.4288 YYYZ=              1.6050 ZZZX=              0.1026
 ZZZY=             -0.1336 XXYY=           -247.5543 XXZZ=           -238.7642 YYZZ=            -32.5672
 XXYZ=              0.0023 YYXZ=             -0.9050 ZZXY=             -1.6101
 N-N= 2.319972528454D+02 E-N=-1.009583023170D+03  KE= 2.339476284189D+02
                          Isotropic Fermi Contact Couplings
        Atom                 a.u.       MegaHertz       Gauss      10(-4) cm-1
     1  C(13)              0.00810       9.10750       3.24978       3.03793
     2  H(1)              -0.00028      -1.24132      -0.44293      -0.41406
     3  H(1)              -0.00023      -1.04569      -0.37313      -0.34880
     4  H(1)              -0.00043      -1.91486      -0.68327      -0.63873
     5  C(13)             -0.00816      -9.17640      -3.27437      -3.06092
     6  H(1)               0.02251     100.60451      35.89819      33.55805
     7  H(1)               0.00431      19.27892       6.87920       6.43075
     8  C(13)              0.29566     332.37921     118.60116     110.86977
     9  H(1)              -0.00253     -11.29368      -4.02986      -3.76717
    10  C(13)             -0.00801      -9.00761      -3.21414      -3.00461
    11  H(1)               0.00425      19.01156       6.78380       6.34157
    12  H(1)               0.02237      99.98151      35.67589      33.35024
    13  C(13)              0.00797       8.96195       3.19785       2.98938
    14  H(1)              -0.00023      -1.03934      -0.37086      -0.34668
    15  H(1)              -0.00030      -1.34980      -0.48164      -0.45025
    16  C(13)             -0.00131      -1.47442      -0.52611      -0.49181
    17  H(1)               0.00007       0.29243       0.10435       0.09755
    18  H(1)              -0.00011      -0.49768      -0.17758      -0.16601
    19  H(1)               0.00021       0.92094       0.32861       0.30719
 --------------------------------------------------------
       Center         ----  Spin Dipole Couplings  ----
                      3XX-RR        3YY-RR        3ZZ-RR
 --------------------------------------------------------
     1   Atom        0.016811     -0.008353     -0.008458
     2   Atom        0.011385     -0.005997     -0.005388
     3   Atom        0.007481     -0.004404     -0.003077
     4   Atom        0.005747     -0.002718     -0.003029
     5   Atom        0.006998      0.003689     -0.010687
     6   Atom        0.000180      0.001335     -0.001515
     7   Atom       -0.002550      0.009783     -0.007232
     8   Atom       -0.477560     -0.136942      0.614502
     9   Atom       -0.057955      0.021635      0.036321
    10   Atom        0.013721     -0.002866     -0.010855
    11   Atom        0.000903      0.006250     -0.007153
    12   Atom        0.002399     -0.000840     -0.001559
    13   Atom        0.016660     -0.008521     -0.008139
    14   Atom        0.006807     -0.003613     -0.003194
    15   Atom        0.010944     -0.005432     -0.005512
    16   Atom        0.003379     -0.002152     -0.001227
    17   Atom        0.002875     -0.001293     -0.001582
    18   Atom        0.002589     -0.001287     -0.001302
    19   Atom        0.003206     -0.001679     -0.001526
 --------------------------------------------------------
                        XY            XZ            YZ
 --------------------------------------------------------
     1   Atom       -0.000403     -0.004886      0.000294
     2   Atom       -0.001479      0.004258     -0.001216
     3   Atom       -0.002732     -0.005230      0.000745
     4   Atom        0.002084     -0.000373     -0.000503
     5   Atom        0.024956     -0.013079     -0.013625
     6   Atom        0.008544     -0.003009     -0.008194
     7   Atom        0.012962      0.004307      0.005408
     8   Atom       -0.024525      0.043628     -0.607731
     9   Atom       -0.005131     -0.002412      0.041251
    10   Atom       -0.024133      0.014824     -0.011567
    11   Atom       -0.014041     -0.005018      0.004904
    12   Atom       -0.008434      0.003991     -0.007696
    13   Atom        0.003578      0.005517      0.001098
    14   Atom        0.004313      0.005178      0.001480
    15   Atom        0.003847     -0.004348     -0.002019
    16   Atom       -0.000723      0.000866     -0.000957
    17   Atom       -0.001568     -0.000850      0.000146
    18   Atom        0.000139      0.000120     -0.000126
    19   Atom       -0.000966      0.000970     -0.000545
 --------------------------------------------------------


 ---------------------------------------------------------------------------------
              Anisotropic Spin Dipole Couplings in Principal Axis System
 ---------------------------------------------------------------------------------

       Atom             a.u.   MegaHertz   Gauss  10(-4) cm-1        Axes

              Baa    -0.0094    -1.263    -0.451    -0.421  0.1765 -0.1999  0.9638
     1 C(13)  Bbb    -0.0083    -1.116    -0.398    -0.372  0.0533  0.9797  0.1934
              Bcc     0.0177     2.379     0.849     0.794  0.9829 -0.0173 -0.1836
 
              Baa    -0.0071    -3.802    -1.357    -1.268 -0.1206  0.6500  0.7503
     2 H(1)   Bbb    -0.0054    -2.901    -1.035    -0.968  0.2227  0.7542 -0.6177
              Bcc     0.0126     6.704     2.392     2.236  0.9674 -0.0926  0.2357
 
              Baa    -0.0055    -2.913    -1.039    -0.972  0.4104  0.5469  0.7297
     3 H(1)   Bbb    -0.0047    -2.516    -0.898    -0.839 -0.0640  0.8155 -0.5752
              Bcc     0.0102     5.429     1.937     1.811  0.9097 -0.1894 -0.3697
 
              Baa    -0.0035    -1.889    -0.674    -0.630 -0.1440  0.7561  0.6385
     4 H(1)   Bbb    -0.0027    -1.450    -0.517    -0.484  0.1848 -0.6133  0.7679
              Bcc     0.0063     3.338     1.191     1.114  0.9722  0.2286 -0.0514
 
              Baa    -0.0201    -2.697    -0.962    -0.900 -0.5153  0.7635  0.3893
     5 C(13)  Bbb    -0.0176    -2.363    -0.843    -0.788  0.5270 -0.0760  0.8465
              Bcc     0.0377     5.060     1.805     1.688  0.6759  0.6413 -0.3632
 
              Baa    -0.0100    -5.354    -1.910    -1.786 -0.4439  0.7190  0.5347
     6 H(1)   Bbb    -0.0037    -1.967    -0.702    -0.656  0.7134 -0.0775  0.6964
              Bcc     0.0137     7.320     2.612     2.442  0.5422  0.6907 -0.4786
 
              Baa    -0.0110    -5.870    -2.095    -1.958  0.8370 -0.4359 -0.3308
     7 H(1)   Bbb    -0.0087    -4.653    -1.660    -1.552  0.1622 -0.3798  0.9107
              Bcc     0.0197    10.523     3.755     3.510  0.5226  0.8159  0.2472
 
              Baa    -0.4793   -64.320   -22.951   -21.455  0.9982  0.0602 -0.0064
     8 C(13)  Bbb    -0.4757   -63.835   -22.778   -21.293 -0.0495  0.8715  0.4878
              Bcc     0.9550   128.155    45.729    42.748  0.0349 -0.4866  0.8729
 
              Baa    -0.0583   -31.098   -11.097   -10.373  0.9978  0.0657 -0.0032
     9 H(1)   Bbb    -0.0128    -6.828    -2.436    -2.277 -0.0524  0.7634 -0.6437
              Bcc     0.0711    37.926    13.533    12.651 -0.0399  0.6425  0.7652
 
              Baa    -0.0203    -2.729    -0.974    -0.910  0.4645  0.8357  0.2931
    10 C(13)  Bbb    -0.0178    -2.390    -0.853    -0.797 -0.4593 -0.0556  0.8865
              Bcc     0.0381     5.119     1.827     1.708  0.7571 -0.5464  0.3580
 
              Baa    -0.0110    -5.855    -2.089    -1.953  0.7760  0.5396  0.3265
    11 H(1)   Bbb    -0.0087    -4.648    -1.659    -1.551 -0.1063 -0.3984  0.9110
              Bcc     0.0197    10.503     3.748     3.504 -0.6217  0.7417  0.2518
 
              Baa    -0.0100    -5.350    -1.909    -1.784  0.3507  0.7693  0.5340
    12 H(1)   Bbb    -0.0037    -1.956    -0.698    -0.653 -0.6947 -0.1687  0.6993
              Bcc     0.0137     7.306     2.607     2.437  0.6281 -0.6162  0.4753
 
              Baa    -0.0095    -1.279    -0.456    -0.427 -0.0998 -0.5490  0.8299
    13 C(13)  Bbb    -0.0088    -1.184    -0.422    -0.395 -0.2279  0.8245  0.5180
              Bcc     0.0183     2.462     0.879     0.821  0.9686  0.1374  0.2074
 
              Baa    -0.0056    -2.978    -1.062    -0.993 -0.4764  0.4999  0.7233
    14 H(1)   Bbb    -0.0049    -2.611    -0.932    -0.871 -0.0393  0.8097 -0.5856
              Bcc     0.0105     5.588     1.994     1.864  0.8784  0.3074  0.3660
 
              Baa    -0.0075    -4.006    -1.430    -1.336  0.0403  0.6573  0.7526
    15 H(1)   Bbb    -0.0055    -2.926    -1.044    -0.976 -0.3302  0.7196 -0.6108
              Bcc     0.0130     6.932     2.473     2.312  0.9431  0.2239 -0.2460
 
              Baa    -0.0028    -0.370    -0.132    -0.123  0.0273  0.8543  0.5191
    16 C(13)  Bbb    -0.0009    -0.123    -0.044    -0.041 -0.2512 -0.4967  0.8308
              Bcc     0.0037     0.493     0.176     0.164  0.9676 -0.1531  0.2010
 
              Baa    -0.0019    -1.018    -0.363    -0.339  0.3458  0.7477  0.5668
    17 H(1)   Bbb    -0.0016    -0.872    -0.311    -0.291 -0.0522 -0.5878  0.8073
              Bcc     0.0035     1.889     0.674     0.630  0.9368 -0.3088 -0.1642
 
              Baa    -0.0014    -0.762    -0.272    -0.254 -0.0453  0.6874  0.7249
    18 H(1)   Bbb    -0.0012    -0.624    -0.223    -0.208 -0.0048  0.7255 -0.6883
              Bcc     0.0026     1.386     0.495     0.462  0.9990  0.0347  0.0295
 
              Baa    -0.0022    -1.150    -0.410    -0.384  0.0252  0.7746  0.6320
    19 H(1)   Bbb    -0.0015    -0.775    -0.276    -0.258 -0.2806 -0.6013  0.7481
              Bcc     0.0036     1.925     0.687     0.642  0.9595 -0.1962  0.2022
 

 ---------------------------------------------------------------------------------

 No NMR shielding tensors so no spin-rotation constants.
 Leave Link  601 at Sat Nov  7 01:58:56 2015, MaxMem=   805306368 cpu:         1.1
 (Enter /home/hetanjin/apps/g09D01/g09/l701.exe)
 Compute integral first derivatives.
 ... and contract with generalized density number  0.
 Leave Link  701 at Sat Nov  7 01:58:56 2015, MaxMem=   805306368 cpu:         0.6
 (Enter /home/hetanjin/apps/g09D01/g09/l702.exe)
 L702 exits ... SP integral derivatives will be done elsewhere.
 Leave Link  702 at Sat Nov  7 01:58:56 2015, MaxMem=   805306368 cpu:         0.1
 (Enter /home/hetanjin/apps/g09D01/g09/l703.exe)
 Compute integral first derivatives, UseDBF=F ICtDFT=           0.
 Integral derivatives from FoFJK, PRISM(SPDF).
 Calling FoFJK, ICntrl=      2127 FMM=F ISym2X=0 I1Cent= 0 IOpClX= 1 NMat=1 NMatS=1 NMatT=0.
 FoFJK:  IHMeth= 1 ICntrl=    2127 DoSepK=F KAlg= 0 I1Cent=   0 FoldK=F
 IRaf=         0 NMat=   1 IRICut=       1 DoRegI=T DoRafI=F ISym2E= 0.
 FoFCou: FMM=F IPFlag=           0 FMFlag=      100000 FMFlg1=         800
         NFxFlg=           0 DoJE=F BraDBF=F KetDBF=F FulRan=T
         wScrn=  0.000000 ICntrl=    2127 IOpCl=  1 I1Cent=           0 NGrid=           0
         NMat0=    1 NMatS0=      1 NMatT0=    0 NMatD0=    1 NMtDS0=    0 NMtDT0=    0
 Symmetry not used in FoFCou.
 Leave Link  703 at Sat Nov  7 01:59:02 2015, MaxMem=   805306368 cpu:        24.4
 (Enter /home/hetanjin/apps/g09D01/g09/l716.exe)
 Dipole        = 1.39095986D-02-1.41413736D-01 1.58635979D-01
 ***** Axes restored to original set *****
 -------------------------------------------------------------------
 Center     Atomic                   Forces (Hartrees/Bohr)
 Number     Number              X              Y              Z
 -------------------------------------------------------------------
      1        6          -0.000547729    0.001913512   -0.000194901
      2        1          -0.000244952   -0.000681717    0.000606438
      3        1           0.000008571   -0.000100608    0.000001230
      4        1          -0.000142196   -0.000024349    0.000298858
      5        6           0.014465689    0.003845471   -0.016336356
      6        1           0.000500790   -0.002063810    0.002496522
      7        1          -0.001323797   -0.000202402    0.000380320
      8        6          -0.030214850   -0.020157871    0.035433884
      9        1           0.010207939    0.006764739   -0.009990211
     10        6           0.008988370    0.011734196   -0.016229275
     11        1          -0.000696415   -0.001128763    0.000395753
     12        1          -0.001720629    0.001194857    0.002497230
     13        6           0.001752201   -0.001129648   -0.000309021
     14        1          -0.000094083    0.000065875    0.000007376
     15        1          -0.000709048    0.000033266    0.000623775
     16        6          -0.000125708    0.000075697    0.000184102
     17        1           0.000014790   -0.000006464   -0.000008984
     18        1          -0.000049243    0.000059066    0.000023710
     19        1          -0.000069699   -0.000191048    0.000119551
 -------------------------------------------------------------------
 Cartesian Forces:  Max     0.035433884 RMS     0.008200445
 Leave Link  716 at Sat Nov  7 01:59:02 2015, MaxMem=   805306368 cpu:         0.1
 (Enter /home/hetanjin/apps/g09D01/g09/l103.exe)

 GradGradGradGradGradGradGradGradGradGradGradGradGradGradGradGradGradGrad
 Berny optimization.
 FormGI is forming the generalized inverse of G from B-inverse, IUseBI=4.
 Internal  Forces:  Max     0.013250374 RMS     0.003061624
 Search for a local minimum.
 Step number   1 out of a maximum of  100
 All quantities printed in internal units (Hartrees-Bohrs-Radians)
 RMS Force = .30616D-02 SwitMx=.10000D-02 MixMth= 1
 Mixed Optimization -- RFO/linear search
 Second derivative matrix not updated -- first step.
 ITU=  0
     Eigenvalues ---    0.00315   0.00315   0.00318   0.00341   0.00341
     Eigenvalues ---    0.02268   0.03425   0.03848   0.03895   0.04780
     Eigenvalues ---    0.05304   0.05311   0.05434   0.05434   0.05477
     Eigenvalues ---    0.05477   0.08440   0.09403   0.09446   0.11069
     Eigenvalues ---    0.12286   0.12889   0.12925   0.16000   0.16000
     Eigenvalues ---    0.16000   0.16000   0.16000   0.16000   0.21899
     Eigenvalues ---    0.21928   0.21935   0.23381   0.29047   0.29047
     Eigenvalues ---    0.29069   0.29228   0.29228   0.33635   0.33635
     Eigenvalues ---    0.33635   0.33749   0.33749   0.33749   0.33749
     Eigenvalues ---    0.34007   0.34007   0.34007   0.34007   0.34120
     Eigenvalues ---    0.34120
 RFO step:  Lambda=-1.31414972D-02 EMin= 3.14701035D-03
 Linear search not attempted -- first point.
 Iteration  1 RMS(Cart)=  0.08379545 RMS(Int)=  0.00575080
 Iteration  2 RMS(Cart)=  0.00914122 RMS(Int)=  0.00406496
 Iteration  3 RMS(Cart)=  0.00001031 RMS(Int)=  0.00406496
 Iteration  4 RMS(Cart)=  0.00000014 RMS(Int)=  0.00406496
 ITry= 1 IFail=0 DXMaxC= 3.09D-01 DCOld= 1.00D+10 DXMaxT= 3.00D-01 DXLimC= 3.00D+00 Rises=F
 Variable       Old X    -DE/DX   Delta X   Delta X   Delta X     New X
                                 (Linear)    (Quad)   (Total)
    R1        2.07318  -0.00085   0.00000  -0.00241  -0.00241   2.07077
    R2        2.07318  -0.00003   0.00000  -0.00009  -0.00009   2.07309
    R3        2.07128   0.00012   0.00000   0.00035   0.00035   2.07163
    R4        2.89530   0.00111   0.00000   0.00362   0.00362   2.89893
    R5        2.07756   0.00243   0.00000   0.00693   0.00693   2.08449
    R6        2.07756   0.00043   0.00000   0.00122   0.00122   2.07878
    R7        2.89905  -0.01062   0.00000  -0.03498  -0.03498   2.86407
    R8        2.07951  -0.00060   0.00000  -0.00172  -0.00172   2.07779
    R9        2.89859  -0.01066   0.00000  -0.03508  -0.03508   2.86350
   R10        2.07951   0.00041   0.00000   0.00117   0.00117   2.08068
   R11        2.07951   0.00246   0.00000   0.00703   0.00703   2.08654
   R12        2.89905   0.00109   0.00000   0.00360   0.00360   2.90265
   R13        2.07756  -0.00002   0.00000  -0.00006  -0.00006   2.07750
   R14        2.07756  -0.00084   0.00000  -0.00240  -0.00240   2.07516
   R15        2.89530   0.00006   0.00000   0.00021   0.00021   2.89551
   R16        2.07318   0.00000   0.00000   0.00001   0.00001   2.07319
   R17        2.07128  -0.00007   0.00000  -0.00019  -0.00019   2.07109
   R18        2.07318   0.00020   0.00000   0.00056   0.00056   2.07374
    A1        1.87582   0.00024   0.00000   0.00083   0.00083   1.87665
    A2        1.87917   0.00036   0.00000   0.00276   0.00276   1.88194
    A3        1.94050  -0.00052   0.00000  -0.00289  -0.00289   1.93761
    A4        1.87917   0.00000   0.00000  -0.00018  -0.00018   1.87899
    A5        1.94050  -0.00008   0.00000  -0.00081  -0.00081   1.93969
    A6        1.94554   0.00003   0.00000   0.00048   0.00048   1.94602
    A7        1.91025   0.00051   0.00000  -0.00016  -0.00014   1.91011
    A8        1.91025  -0.00070   0.00000   0.00508   0.00489   1.91514
    A9        1.97691   0.00219   0.00000   0.01026   0.01014   1.98705
   A10        1.84998   0.00012   0.00000  -0.00262  -0.00256   1.84743
   A11        1.90607  -0.00280   0.00000  -0.02616  -0.02611   1.87995
   A12        1.90607   0.00054   0.00000   0.01272   0.01258   1.91864
   A13        1.90580   0.00106   0.00000   0.11685   0.09410   1.99990
   A14        1.98329   0.01325   0.00000   0.09985   0.08028   2.06357
   A15        1.90759   0.00106   0.00000   0.11685   0.09410   2.00170
   A16        1.90759   0.00061   0.00000   0.01284   0.01271   1.92031
   A17        1.90759  -0.00266   0.00000  -0.02535  -0.02531   1.88228
   A18        1.98329   0.00190   0.00000   0.00899   0.00888   1.99217
   A19        1.84895   0.00008   0.00000  -0.00262  -0.00256   1.84639
   A20        1.90580  -0.00063   0.00000   0.00519   0.00502   1.91082
   A21        1.90580   0.00058   0.00000   0.00016   0.00017   1.90597
   A22        1.90607  -0.00001   0.00000  -0.00093  -0.00093   1.90514
   A23        1.90607  -0.00029   0.00000  -0.00239  -0.00239   1.90368
   A24        1.97691  -0.00006   0.00000  -0.00040  -0.00040   1.97650
   A25        1.84998   0.00002   0.00000   0.00054   0.00053   1.85052
   A26        1.91025  -0.00002   0.00000  -0.00006  -0.00006   1.91019
   A27        1.91025   0.00036   0.00000   0.00330   0.00330   1.91355
   A28        1.94050  -0.00001   0.00000  -0.00008  -0.00008   1.94042
   A29        1.94554  -0.00009   0.00000  -0.00065  -0.00065   1.94489
   A30        1.94050   0.00020   0.00000   0.00128   0.00128   1.94177
   A31        1.87917   0.00002   0.00000  -0.00009  -0.00009   1.87908
   A32        1.87582  -0.00007   0.00000  -0.00018  -0.00018   1.87564
   A33        1.87917  -0.00006   0.00000  -0.00031  -0.00031   1.87887
    D1       -3.10715  -0.00062   0.00000  -0.00712  -0.00712  -3.11427
    D2       -1.08672  -0.00058   0.00000  -0.00750  -0.00752  -1.09424
    D3        1.04465   0.00111   0.00000   0.01963   0.01965   1.06431
    D4        1.08672  -0.00052   0.00000  -0.00570  -0.00571   1.08102
    D5        3.10715  -0.00048   0.00000  -0.00608  -0.00611   3.10105
    D6       -1.04465   0.00121   0.00000   0.02104   0.02106  -1.02359
    D7       -1.01021  -0.00049   0.00000  -0.00525  -0.00525  -1.01547
    D8        1.01021  -0.00045   0.00000  -0.00563  -0.00565   1.00456
    D9        3.14159   0.00124   0.00000   0.02149   0.02152  -3.12007
   D10        1.00712  -0.00595   0.00000  -0.16553  -0.16799   0.83913
   D11        3.14159   0.00533   0.00000   0.14020   0.14255  -2.99905
   D12       -1.12659  -0.00606   0.00000  -0.15329  -0.15571  -1.28230
   D13        1.00788   0.00522   0.00000   0.15245   0.15483   1.16271
   D14        3.14083  -0.00496   0.00000  -0.14273  -0.14506   2.99578
   D15       -1.00788   0.00632   0.00000   0.16300   0.16549  -0.84240
   D16        1.00811  -0.00631   0.00000  -0.16335  -0.16583   0.84228
   D17       -1.00811  -0.00526   0.00000  -0.15326  -0.15564  -1.16375
   D18        3.14159  -0.00535   0.00000  -0.14096  -0.14332   2.99827
   D19        3.14159   0.00499   0.00000   0.14269   0.14501  -2.99658
   D20        1.12537   0.00604   0.00000   0.15277   0.15521   1.28057
   D21       -1.00811   0.00594   0.00000   0.16507   0.16752  -0.84059
   D22        1.00788  -0.00118   0.00000  -0.02054  -0.02057   0.98731
   D23       -1.00788  -0.00104   0.00000  -0.01935  -0.01938  -1.02726
   D24        3.14159  -0.00125   0.00000  -0.02158  -0.02160   3.11999
   D25       -3.14083   0.00045   0.00000   0.00604   0.00606  -3.13477
   D26        1.12659   0.00059   0.00000   0.00724   0.00726   1.13385
   D27       -1.00712   0.00039   0.00000   0.00501   0.00503  -1.00209
   D28       -1.12659   0.00052   0.00000   0.00586   0.00587  -1.12072
   D29        3.14083   0.00066   0.00000   0.00706   0.00706  -3.13529
   D30        1.00712   0.00045   0.00000   0.00483   0.00483   1.01196
   D31        1.04465   0.00000   0.00000   0.00111   0.00111   1.04576
   D32        3.14159  -0.00004   0.00000   0.00050   0.00050  -3.14110
   D33       -1.04465  -0.00003   0.00000   0.00054   0.00054  -1.04412
   D34       -3.10715  -0.00006   0.00000  -0.00041  -0.00041  -3.10757
   D35       -1.01021  -0.00010   0.00000  -0.00102  -0.00102  -1.01124
   D36        1.08672  -0.00010   0.00000  -0.00098  -0.00098   1.08574
   D37       -1.08672   0.00016   0.00000   0.00205   0.00205  -1.08467
   D38        1.01021   0.00012   0.00000   0.00144   0.00144   1.01166
   D39        3.10715   0.00012   0.00000   0.00148   0.00148   3.10864
         Item               Value     Threshold  Converged?
 Maximum Force            0.013250     0.000015     NO 
 RMS     Force            0.003062     0.000010     NO 
 Maximum Displacement     0.308641     0.000060     NO 
 RMS     Displacement     0.081773     0.000040     NO 
 Predicted change in Energy=-9.767702D-03
 Lowest energy point so far.  Saving SCF results.
 GradGradGradGradGradGradGradGradGradGradGradGradGradGradGradGradGradGrad

 Leave Link  103 at Sat Nov  7 01:59:02 2015, MaxMem=   805306368 cpu:         0.1
 (Enter /home/hetanjin/apps/g09D01/g09/l202.exe)
                          Input orientation:                          
 ---------------------------------------------------------------------
 Center     Atomic      Atomic             Coordinates (Angstroms)
 Number     Number       Type             X           Y           Z
 ---------------------------------------------------------------------
      1          6           0       -1.378421    2.908691   -0.054142
      2          1           0       -0.804672    3.228159   -0.931378
      3          1           0       -0.890119    3.332384    0.832158
      4          1           0       -2.378147    3.352543   -0.127133
      5          6           0       -1.447473    1.378549    0.030705
      6          1           0       -2.053047    1.086284    0.905126
      7          1           0       -1.977142    0.981434   -0.847839
      8          6           0       -0.093566    0.710425    0.163326
      9          1           0        0.560616    1.150478    0.929707
     10          6           0       -0.027076   -0.800283    0.065959
     11          1           0       -0.591378   -1.146607   -0.813774
     12          1           0       -0.550923   -1.219287    0.942978
     13          6           0        1.400704   -1.364209    0.013261
     14          1           0        1.956979   -1.021018    0.897221
     15          1           0        1.921733   -0.941190   -0.855912
     16          6           0        1.444426   -2.894319   -0.054607
     17          1           0        0.925933   -3.266445   -0.946954
     18          1           0        2.475429   -3.264320   -0.090523
     19          1           0        0.959317   -3.345368    0.820298
 ---------------------------------------------------------------------
                    Distance matrix (angstroms):
                    1          2          3          4          5
     1  C    0.000000
     2  H    1.095806   0.000000
     3  H    1.097034   1.768679   0.000000
     4  H    1.096259   1.771470   1.770557   0.000000
     5  C    1.534047   2.181709   2.184134   2.188085   0.000000
     6  H    2.167137   3.085258   2.530354   2.511409   1.103064
     7  H    2.168580   2.535633   3.087228   2.510453   1.100041
     8  C    2.555488   2.836024   2.820728   3.504920   1.515600
     9  H    2.796272   3.105544   2.621996   3.821299   2.211932
    10  C    3.949309   4.222284   4.290785   4.776063   2.601169
    11  H    4.200228   4.381541   4.781181   4.889413   2.796865
    12  H    4.326569   4.832947   4.565637   5.038403   2.895651
    13  C    5.097622   5.181299   5.289276   6.045425   3.954129
    14  H    5.241431   5.387578   5.202145   6.242648   4.254300
    15  H    5.133755   4.982213   5.386978   6.120149   4.185550
    16  C    6.453168   6.581178   6.708821   7.323974   5.160209
    17  H    6.651275   6.721244   7.071621   7.443121   5.307056
    18  H    7.277331   7.322457   7.462892   8.206181   6.079481
    19  H    6.733715   7.027893   6.929136   7.543096   5.360176
                    6          7          8          9         10
     6  H    0.000000
     7  H    1.757738   0.000000
     8  C    2.128639   2.154939   0.000000
     9  H    2.614567   3.102976   1.099518   0.000000
    10  C    2.892731   2.795049   1.515301   2.212896   0.000000
    11  H    3.174412   2.539697   2.156642   3.105384   1.101048
    12  H    2.751993   3.175579   2.130920   2.617533   1.104148
    13  C    4.327670   4.201592   2.561145   2.805221   1.536016
    14  H    4.530021   4.746827   2.782307   2.581914   2.162452
    15  H    4.796956   4.347158   2.797875   3.068574   2.160454
    16  C    5.385035   5.230469   3.925186   4.255628   2.562194
    17  H    5.590239   5.146081   4.252951   4.812953   2.831285
    18  H    6.358157   6.198818   4.739490   4.919127   3.515465
    19  H    5.359204   5.488779   4.241419   4.514816   2.831865
                   11         12         13         14         15
    11  H    0.000000
    12  H    1.758720   0.000000
    13  C    2.167885   2.166616   0.000000
    14  H    3.072035   2.516144   1.099367   0.000000
    15  H    2.521844   3.070403   1.098125   1.755304   0.000000
    16  C    2.788428   2.789682   1.532238   2.162855   2.164399
    17  H    2.610304   3.153380   2.183099   3.083177   2.531149
    18  H    3.796459   3.795931   2.185458   2.505361   2.507854
[...]
 9956109,0.09038088,0.24318562,-0.25770758,0.10329061,-0.03221152,-0.01
 622837,0.00756760,-0.00359317,-0.01168907,0.00522517,-0.00100653,0.277
 69055,0.10209866,-0.09938173,0.01600396,-0.00653966,0.00291383,-0.0022
 2966,-0.01224513,0.00608068,-0.00055484,-0.11264003,0.10875584,-0.0316
 5883,0.01607280,-0.05519827,0.02373129,-0.01270397,0.00503350,-0.02487
 790,0.01323308,-0.00308990,0.03540707,-0.01812865,0.05363334,-0.080978
 11,-0.01774670,-0.00088816,-0.00187149,-0.01984032,0.00057406,-0.00225
 047,-0.01442638,0.00230645,0.00583238,0.03077293,-0.00309795,0.4974841
 0,-0.01518267,-0.18717100,0.01104739,-0.00104987,-0.00798526,0.0005261
 4,-0.00187684,-0.01444560,0.00174539,-0.00381338,-0.01394385,0.0007651
 7,0.01762591,0.48064037,-0.00271918,0.01185566,-0.08165034,0.00203746,
 0.02750119,-0.00136723,-0.00303262,-0.02902337,0.00412090,0.00138561,0
 .00532529,-0.00129026,0.02277735,0.02443394,0.52797465,-0.00186091,-0.
 00139168,0.00331625,0.00082583,-0.00052941,-0.00014062,-0.00029991,0.0
 0013140,-0.00003458,0.00059167,-0.00025058,-0.00026892,-0.13237776,-0.
 02970443,0.11427125,0.15126576,-0.02190631,-0.00927530,0.02754356,-0.0
 0095259,-0.00715316,0.00043827,0.00000774,0.00157030,-0.00059658,0.000
 55413,0.00161243,-0.00000787,-0.02173477,-0.05163368,0.02621633,0.0262
 9788,0.06008568,0.00204514,0.00050785,-0.00271054,-0.00022057,0.000875
 90,0.00142769,-0.00015511,0.00021126,0.00090507,-0.00028605,0.00026150
 ,-0.00019729,0.10246981,0.03213639,-0.17831174,-0.12178666,-0.03427763
 ,0.19558624,-0.00174593,-0.00114438,-0.00229699,-0.00034300,0.00003631
 ,-0.00022300,0.00074922,-0.00047157,0.00008899,0.00041297,-0.00000386,
 0.00043596,-0.09285844,-0.04024740,-0.09020573,0.00936615,0.00732601,0
 .01717575,0.10657455,-0.01432214,-0.01338735,-0.02809002,-0.00012090,0
 .00161206,0.00042969,-0.00081636,-0.00678795,0.00127600,0.00062030,0.0
 0113784,-0.00011785,-0.03822247,-0.08337482,-0.07193551,0.00210028,0.0
 0240852,0.00434410,0.04228776,0.09159580,0.00270697,0.00181756,0.00443
 312,-0.00004360,-0.00039198,0.00081352,0.00047289,0.00138911,0.0014352
 9,0.00026210,-0.00071254,0.00013491,-0.08917380,-0.07418921,-0.2134488
 6,-0.00997222,-0.00981188,-0.02413896,0.09883198,0.08175697,0.23179561
 ,0.00323528,0.00573952,0.00071513,0.00055259,-0.00132127,0.00025130,0.
 00062422,-0.00199676,-0.00024601,0.00031006,-0.00301438,0.00018193,-0.
 18380353,0.05784477,-0.03120412,-0.02784204,0.01136551,-0.00033953,-0.
 01994889,0.00613967,-0.00401182,0.50675013,0.03264941,-0.02217223,0.00
 510350,0.00052593,0.00201100,-0.00037721,0.00084159,0.00169574,0.00016
 599,-0.00047194,-0.00663720,0.00091431,0.05415420,-0.11560777,0.002015
 35,0.00181065,0.00256481,-0.00359833,-0.01024535,0.00684338,-0.0015037
 1,0.00046493,0.51890151,-0.00092340,0.00214857,-0.00032857,-0.00056497
 ,-0.00056902,0.00052155,0.00075433,-0.00068083,0.00026389,-0.00010440,
 -0.00064154,0.00071758,-0.03320446,0.00331438,-0.06063919,0.01657118,-
 0.01078016,0.00846735,-0.02305596,0.01152631,-0.00139147,0.16651109,0.
 09427934,0.19246040,0.00114762,-0.00170460,0.00012487,0.00006733,0.000
 31038,-0.00014306,0.00019886,0.00114537,0.00053143,0.00027527,0.000016
 90,0.00035789,-0.01366097,-0.01291653,-0.01576267,-0.00041594,0.000036
 01,0.00053580,-0.00371757,0.00225065,0.00037550,-0.19176028,-0.0906690
 1,-0.11109383,0.20246659,0.00033756,0.00181768,0.00086029,-0.00013830,
 -0.00003943,0.00013396,-0.00015449,0.00009295,-0.00042827,-0.00016683,
 0.00015168,-0.00007548,0.01100188,0.00721136,0.00672134,0.00068943,-0.
 00009995,0.00001220,0.00308766,-0.00082883,0.00105645,-0.09112733,-0.1
 1598750,-0.07191280,0.09694718,0.12173830,0.00009989,-0.00106833,0.000
 31047,0.00001859,0.00031056,-0.00036705,-0.00008322,0.00036339,0.00010
 959,0.00033585,0.00018959,-0.00002131,-0.00107500,-0.00205629,0.001991
 60,-0.00081531,0.00003129,-0.00106676,-0.00193605,-0.00001800,-0.00034
 250,-0.11784045,-0.07619670,-0.08969941,0.12363830,0.07971539,0.087518
 67,-0.00558660,0.00065907,-0.00068833,0.00011252,0.00005487,-0.0002340
 2,0.00007944,0.00024696,0.00036875,0.00046771,0.00195561,-0.00019810,0
 .00441409,0.02969705,0.00017778,0.00060956,-0.00108576,0.00041218,0.00
 057081,0.00006484,0.00027199,-0.08464382,0.01065600,-0.01285213,0.0029
 5011,-0.02011391,-0.00108709,0.48856857,0.00084106,0.00017415,-0.00046
 388,0.00004698,-0.00012640,0.00004863,0.00002164,-0.00015697,0.0000721
 5,-0.00033325,0.00008440,-0.00004571,0.00302630,-0.01138073,0.00024325
 ,-0.00141624,0.00061502,-0.00007291,-0.00184119,0.00095703,-0.00075639
 ,0.00912352,-0.21691150,-0.02292610,0.00301749,-0.00991009,0.00050480,
 0.02048203,0.48739567,-0.00108859,0.00059950,-0.00035492,0.00002962,-0
 .00003723,0.00002393,0.00012263,0.00004440,0.00023368,-0.00019040,0.00
 056230,0.00030670,0.00005087,0.00146438,0.00219162,-0.00069222,0.00093
 643,0.00016935,-0.00016790,0.00137529,0.00007421,-0.01253759,-0.020834
 53,-0.05843751,-0.00068943,-0.01716745,0.00268737,0.03183990,0.0137376
 2,0.52601223,0.00013321,0.00011370,0.00018809,-0.00001871,-0.00004107,
 -0.00000640,-0.00007957,0.00009882,-0.00003618,-0.00000320,-0.00004868
 ,0.00000638,0.00018082,0.00029102,0.00111686,-0.00004917,0.00023760,0.
 00001396,0.00048454,-0.00015673,-0.00006643,0.00061789,-0.00303588,0.0
 0108176,0.00067367,0.00022620,-0.00085542,-0.11215736,-0.03237978,-0.0
 9961360,0.12354762,-0.00001275,-0.00002399,0.00027679,-0.00004077,0.00
 000934,-0.00003300,0.00007273,0.00028830,0.00014974,0.00007655,0.00003
 204,0.00005441,-0.00160100,0.00132183,-0.00086286,0.00022542,-0.000018
 55,0.00016893,0.00107918,0.00004877,0.00089744,-0.01956663,-0.01465205
 ,-0.02525660,0.00107433,-0.00533798,-0.00145086,-0.03423581,-0.0670096
 6,-0.05900269,0.03836652,0.07784242,0.00035143,0.00008510,0.00039997,-
 0.00003077,0.00004444,-0.00002535,-0.00001792,0.00022935,-0.00002836,0
 .00002800,-0.00010059,-0.00000487,-0.00044479,0.00055490,0.00009895,0.
 00017167,-0.00014862,-0.00013922,0.00071065,-0.00042335,0.00039281,-0.
 00202237,-0.00210502,-0.00005449,0.00099251,0.00014878,-0.00018479,-0.
 10081300,-0.05742867,-0.20851389,0.11202573,0.06365498,0.22677773,0.00
 019697,-0.00003590,0.00003969,-0.00004374,0.00002967,-0.00000056,-0.00
 001266,-0.00000412,-0.00000073,0.00000153,-0.00005448,-0.00000199,-0.0
 0038660,-0.00061437,0.00057149,0.00002956,-0.00005964,0.00017690,0.000
 17953,0.00014081,-0.00003126,0.00225071,-0.00248383,-0.00281122,0.0001
 4466,-0.00021093,-0.00029597,-0.08586577,-0.03971254,0.07385191,0.0071
 5063,0.00743178,-0.01324497,0.09706356,0.00030976,-0.00011883,-0.00019
 679,-0.00002172,0.00023473,-0.00010462,-0.00005533,0.00005276,0.000000
 41,0.00018042,-0.00014806,-0.00005654,-0.00096805,0.00142618,-0.001020
 97,0.00158987,-0.00064720,-0.00033721,0.00011627,-0.00021103,0.0002051
 7,-0.01236267,-0.02598910,0.02123027,0.00046715,-0.00054642,-0.0007962
 6,-0.04758565,-0.08893800,0.08661935,0.00366158,0.00487662,-0.00646873
 ,0.04782495,0.10481434,-0.00025401,0.00010299,0.00011187,0.00000183,-0
 .00010151,0.00000505,0.00001357,-0.00000697,0.00000767,-0.00000878,0.0
 0009142,-0.00002185,0.00020105,0.00033020,0.00016954,-0.00030752,0.000
 31046,-0.00007943,0.00017204,-0.00007475,-0.00012553,-0.00270974,0.002
 98766,0.00713583,0.00024653,0.00049685,-0.00098496,0.07446923,0.073424
 52,-0.18452769,0.01132109,0.01225924,-0.02438207,-0.08504339,-0.090395
 96,0.20273499,0.00086356,-0.00025420,0.00018901,-0.00007593,-0.0000085
 5,0.00005637,-0.00004139,0.00002466,-0.00004969,0.00005357,-0.00038801
 ,0.00004612,-0.00059370,-0.00240390,0.00005607,0.00004632,0.00001204,-
 0.00002808,-0.00000948,0.00020926,0.00021508,-0.00162732,0.00930798,0.
 00131712,0.00104685,-0.00210204,-0.00102806,-0.17428878,0.02233925,0.0
 0604920,-0.01741685,0.00527278,0.00170508,-0.01769060,0.00490310,0.001
 30220,0.49868950,0.00164322,-0.00002739,0.00017359,-0.00006150,-0.0000
 0201,0.00007013,-0.00004087,0.00001773,-0.00007572,-0.00007960,-0.0006
 0667,0.00009158,-0.00164859,-0.00480857,-0.00126041,0.00040912,0.00002
 668,-0.00025392,0.00003302,0.00007912,0.00029631,0.03479851,-0.0159682
 2,-0.00031622,0.00042421,0.00156216,0.00049741,0.02747315,-0.08416854,
 -0.00613329,-0.00840758,0.00199815,0.00115290,-0.01332819,0.00422411,0
 .00169188,0.04107438,0.49522700,0.00009181,0.00008632,0.00056445,0.000
 00618,-0.00000911,-0.00003807,0.00001499,0.00008064,-0.00005310,-0.000
 00642,-0.00003077,-0.00002828,-0.00056695,-0.00005496,-0.00036098,-0.0
 0017592,0.00009022,0.00008781,0.00027467,0.00006056,0.00039525,0.00273
 687,-0.00031702,-0.00087101,0.00079806,-0.00049390,0.00028777,0.006275
 21,-0.00418884,-0.08102362,-0.02691143,0.00898349,0.00259691,0.0277067
 8,-0.00774084,-0.00293993,0.00619125,-0.01131835,0.59390898,-0.0000002
 8,0.00001922,0.00007221,0.00000022,0.00000891,-0.00000806,0.00000413,0
 .00007305,0.00001153,-0.00000597,0.00001516,-0.00000348,0.00000774,0.0
 0032031,0.00007327,0.00002736,-0.00002994,-0.00000785,0.00028168,-0.00
 005783,0.00022253,0.00082110,-0.00225066,-0.00022597,0.00050925,0.0010
 3905,0.00029053,-0.01929929,-0.00806709,-0.02755745,-0.00602174,0.0024
 2401,0.00096815,0.00139271,-0.00058040,0.00018871,-0.11293741,-0.03814
 911,-0.10174724,0.12477511,-0.00004788,-0.00000757,-0.00002836,0.00000
 750,-0.00000139,0.00000510,0.00000033,-0.00002656,-0.00001086,-0.00000
 369,0.00001310,-0.00000761,0.00002581,0.00000682,0.00014264,-0.0000506
 6,0.00001539,0.00000724,-0.00006264,-0.00009710,-0.00009776,0.00067580
 ,0.00116148,0.00085848,-0.00024927,-0.00016565,-0.00020629,0.00569220,
 0.00238419,0.00885303,0.00228022,-0.00040298,-0.00031106,-0.00062877,0
 .00003632,-0.00029476,-0.03814085,-0.07042445,-0.05848224,0.03909529,0
 .07921936,-0.00008533,0.00000411,-0.00005194,-0.00000581,-0.00000505,-
 0.00001189,-0.00000974,0.00001998,0.00002698,0.00000901,0.00003294,0.0
 0000231,0.00021250,0.00037224,0.00023689,0.00001588,-0.00000889,0.0000
 0713,0.00015068,-0.00009847,-0.00000322,-0.00004781,-0.00050686,0.0002
 2496,-0.00009770,0.00074502,0.00014836,0.00173099,0.00106198,0.0022414
 3,0.00081371,-0.00022201,0.00158003,-0.00049377,0.00020903,0.00097242,
 -0.10224173,-0.05872617,-0.21763236,0.11314827,0.06661865,0.23343620,-
 0.00003631,-0.00000188,-0.00001945,0.00002073,0.00006470,-0.00002913,0
 .00000546,0.00000527,-0.00000605,0.00000288,0.00002569,-0.00001333,-0.
 00006062,0.00015705,-0.00002390,0.00020730,-0.00007438,-0.00008732,-0.
 00003097,-0.00003735,0.00003278,0.00120268,-0.00179344,-0.00063925,0.0
 0002646,0.00032097,0.00028366,-0.01607955,-0.01208808,0.02659186,0.001
 29955,-0.00066377,-0.00035518,-0.00628524,0.00246224,0.00071073,-0.095
 55640,-0.04781692,0.08453411,0.00776280,0.00796375,-0.01343267,0.10526
 667,-0.00005563,-0.00001582,0.00000872,0.00000809,-0.00000892,0.000004
 49,0.00000684,-0.00000722,-0.00000268,-0.00000887,0.00002500,0.0000023
 7,0.00008895,0.00003709,-0.00000527,-0.00009603,-0.00001457,0.00003492
 ,-0.00003284,0.00001049,-0.00003683,0.00020007,0.00094265,-0.00027828,
 -0.00014454,-0.00001541,-0.00010621,0.00521819,0.00449675,-0.00921009,
 -0.00072473,0.00000427,0.00024489,0.00231102,-0.00044732,-0.00023129,-
 0.04802612,-0.09627583,0.08654907,0.00494265,0.00443310,-0.00782140,0.
 04983998,0.10735298,0.00009082,0.00000467,-0.00003276,-0.00000699,-0.0
 0003092,0.00003941,0.00000096,-0.00000858,-0.00000967,-0.00001413,-0.0
 0003577,0.00001353,-0.00006249,-0.00026065,0.00004471,-0.00009978,0.00
 004652,-0.00000026,-0.00002215,0.00000755,-0.00002732,-0.00015174,0.00
 038941,0.00062478,0.00007243,-0.00018259,-0.00036615,0.00062396,0.0001
 9587,-0.00149145,0.00035671,-0.00031160,0.00091378,0.00029403,-0.00037
 330,0.00153336,0.08516546,0.08658567,-0.21242414,0.01161321,0.01166191
 ,-0.02206862,-0.09492957,-0.09541996,0.22708522,-0.00071170,0.00005083
 ,-0.00008419,0.00004514,0.00001501,-0.00003839,0.00002476,0.00000495,0
 .00003364,-0.00000454,0.00029314,-0.00004490,0.00086961,0.00192072,0.0
 0043245,-0.00008749,-0.00002052,0.00007961,0.00004213,-0.00007667,-0.0
 0007288,-0.00670316,0.00061312,-0.00081525,0.00016972,0.00028949,0.000
 36720,-0.00281466,0.03551300,0.00404349,0.00110148,0.00032199,0.000158
 34,0.00136729,0.00032629,-0.00042627,-0.08139993,0.00357062,0.00067974
 ,0.00142329,-0.01724054,-0.00063295,0.00111362,-0.01427167,-0.00219612
 ,0.57953298,-0.00002869,-0.00002168,0.00000409,0.00000806,0.00000205,0
 .00000282,0.00000773,0.00000581,-0.00000126,-0.00002010,0.00003426,-0.
 00000380,-0.00020908,0.00022001,-0.00032104,0.00005801,-0.00003860,0.0
 0003546,0.00000073,0.00001028,0.00001809,0.00076684,-0.00034495,0.0000
 5201,0.00000012,0.00003416,0.00014940,0.00614338,-0.01349407,-0.001444
 50,-0.00149307,0.00096602,0.00008500,-0.00165388,0.00103562,0.00039305
 ,0.00527110,-0.19463083,-0.00997473,0.00089623,-0.01201854,-0.00061624
 ,0.00127107,-0.01649377,-0.00210605,0.00339842,0.47838470,0.00004197,-
 0.00001936,-0.00003872,0.00000464,-0.00001207,0.00001231,-0.00000997,-
 0.00000176,0.00000293,-0.00001055,-0.00001323,0.00001291,-0.00004172,-
 0.00004613,0.00034649,-0.00007082,0.00002833,-0.00001862,0.00004308,-0
 .00000427,-0.00002691,0.00034338,-0.00026726,0.00019296,0.00015278,0.0
 0021505,-0.00000109,0.00033032,-0.00306224,-0.00007883,-0.00058135,0.0
 0105154,0.00014750,0.00031746,-0.00096141,-0.00006146,0.00071573,-0.00
 937445,-0.08283463,0.00269688,-0.02908367,-0.00163560,-0.00255930,0.02
 779767,0.00363925,-0.00027358,-0.00776417,0.57067911,0.00003569,0.0000
 0287,-0.00000819,-0.00000850,-0.00000451,0.00000365,-0.00000455,-0.000
 00360,0.00000156,0.00000809,-0.00002048,0.00000339,-0.00004529,-0.0000
 6786,-0.00000292,0.00000704,0.00000006,-0.00000278,-0.00000245,0.00000
 029,-0.00000999,0.00011549,0.00014831,0.00010900,-0.00010041,0.0000168
 3,-0.00004868,0.00087540,0.00013925,0.00098087,0.00031049,-0.00006759,
 -0.00025589,-0.00000642,-0.00000691,0.00004242,0.00047861,0.00031701,0
 .00235564,0.00089843,0.00057658,0.00046430,-0.00013067,-0.00034728,-0.
 00009187,-0.11032637,-0.03882519,-0.10186738,0.11495703,-0.00000269,0.
 00000783,-0.00000589,-0.00000756,-0.00000348,-0.00000379,-0.00000442,0
 .00001141,0.00000862,0.00000466,-0.00000189,-0.00000002,0.00004199,0.0
 0007441,0.00006574,0.00001216,-0.00000038,0.00000030,0.00007125,-0.000
 02638,0.00002607,-0.00002999,-0.00017005,0.00020443,0.00008760,0.00028
 163,0.00011935,-0.00169977,0.00158018,-0.00046366,0.00100793,0.0000270
 0,0.00058392,0.00017565,-0.00004879,0.00003753,-0.01696609,-0.01133170
 ,-0.02958099,0.00093697,-0.00703287,-0.00033253,-0.00022790,0.00150955
 ,0.00050162,-0.03862352,-0.07378053,-0.06558050,0.04288241,0.08149704,
 0.00002191,-0.00000038,0.00000606,-0.00000478,0.00000207,-0.00000255,-
 0.00000010,0.00000799,0.00000364,0.00000485,-0.00001265,-0.00000041,-0
 .00002948,-0.00004647,-0.00002856,0.00001375,-0.00000428,-0.00000783,0
 .00002364,-0.00001185,0.00002892,0.00033877,0.00002203,0.00022675,-0.0
 0004842,0.00017292,0.00001039,-0.00027873,0.00043766,0.00000703,0.0006
 2867,-0.00038202,0.00023986,-0.00005672,-0.00007652,-0.00007128,-0.000
 67748,-0.00091588,-0.00156960,0.00013487,-0.00032302,0.00165406,0.0002
 5702,-0.00039793,0.00084525,-0.10180099,-0.06588911,-0.22446801,0.1133
 6895,0.07371041,0.24128517,-0.00008382,-0.00002735,-0.00000284,0.00001
 503,0.00000150,-0.00000792,0.00001133,0.00000205,0.00000726,-0.0000155
 0,0.00004366,-0.00000763,0.00012264,0.00007106,0.00007684,-0.00004771,
 0.00002279,0.00000547,-0.00000409,-0.00000501,-0.00000556,-0.00013470,
 -0.00029638,-0.00007663,-0.00000898,0.00010874,0.00003304,0.00131443,0
 .00090467,0.00002006,0.00025539,-0.00019060,0.00010776,0.00022564,-0.0
 0014599,-0.00016314,0.00027467,-0.00083673,-0.00012733,0.00050941,0.00
 041510,0.00038361,0.00041835,0.00048771,-0.00033426,-0.29048323,0.0714
 6649,0.01720763,-0.01437570,0.00374149,0.00157966,0.31392934,0.0002823
 5,0.00001557,0.00002685,-0.00002511,-0.00000399,0.00001645,-0.00001720
 ,-0.00000487,-0.00001629,0.00001080,-0.00012526,0.00001743,-0.00034958
 ,-0.00064800,-0.00014285,0.00007000,-0.00000799,-0.00003751,-0.0000004
 3,0.00001957,0.00003275,0.00225993,0.00016537,0.00026546,-0.00006982,-
 0.00004487,-0.00010017,-0.00213126,-0.00706480,-0.00073887,-0.00015179
 ,0.00006234,0.00026938,-0.00020179,0.00020248,-0.00026779,0.03418168,-
 0.00855329,-0.00229835,-0.00039656,0.00141136,-0.00035680,-0.00030758,
 0.00128501,0.00062741,0.07080058,-0.06951873,-0.00493532,-0.01027862,0
 .00263530,0.00195002,-0.07879228,0.07587786,0.00003366,-0.00000346,0.0
 0000284,-0.00000260,0.00000017,0.00000069,-0.00000155,-0.00000169,-0.0
 0000327,0.00000179,-0.00001568,-0.00000007,-0.00003375,-0.00008924,-0.
 00004003,0.00001027,-0.00000543,-0.00000028,-0.00000553,-0.00000148,0.
 00000369,0.00030864,-0.00003173,0.00047160,-0.00001423,0.00002458,-0.0
 0000934,-0.00025459,-0.00062845,0.00027063,0.00044465,-0.00005855,0.00
 024228,-0.00048465,-0.00004099,0.00027922,0.00282378,-0.00053030,-0.00
 156132,0.00034125,0.00016106,-0.00000612,-0.00042028,0.00002383,0.0001
 3117,0.01708127,-0.00495644,-0.05106993,-0.02706860,0.00873064,0.00294
 979,-0.01896778,0.00604632,0.04947310,0.00002500,0.00000526,0.00000805
 ,-0.00000503,-0.00000192,-0.00000029,-0.00000516,-0.00000375,-0.000003
 18,0.00000754,-0.00001649,0.00000299,-0.00002438,-0.00005064,-0.000025
 28,0.00000440,0.00000413,-0.00000068,-0.00000075,0.00000161,-0.0000042
 5,-0.00001640,0.00007436,0.00002299,-0.00001224,-0.00005115,-0.0000018
 1,0.00077318,0.00038299,-0.00104322,-0.00000870,0.00003365,-0.00003442
 ,0.00028824,-0.00011490,0.00024343,0.00018471,0.00062587,-0.00213001,-
 0.00014853,-0.00030826,0.00011858,0.00085326,0.00060421,-0.00030848,-0
 .09315894,-0.04705816,0.08356082,0.00731407,0.00859981,-0.01347541,-0.
 01192251,-0.01488330,0.02620824,0.09585225,-0.00001800,0.00001017,0.00
 000894,0.00000048,0.00001508,-0.00001448,-0.00000448,-0.00000099,0.000
 00062,0.00000746,0.00000356,-0.00000366,0.00000898,0.00006120,0.000051
 55,0.00004483,-0.00000946,-0.00001853,0.00001148,-0.00000940,0.0000043
 7,0.00003998,0.00015465,-0.00051772,-0.00002362,0.00008621,0.00011794,
 -0.00149118,0.00147337,0.00083999,0.00015572,-0.00003189,-0.00006759,0
 .00107457,0.00019158,-0.00075276,-0.01430648,-0.01633745,0.02863979,-0
 .00023925,0.00149598,-0.00036954,0.00090058,-0.00681802,-0.00129121,-0
 .04688525,-0.10035122,0.09203324,0.00553844,0.00477170,-0.00824300,0.0
 0302908,0.00429694,-0.00862316,0.05215666,0.11099797,-0.00001392,0.000
 00183,-0.00000138,-0.00000288,-0.00000733,0.00000431,0.00000284,0.0000
 0045,0.00000140,-0.00000235,0.00000892,-0.00000225,0.00002644,0.000052
 45,-0.00003818,-0.00000568,-0.00000006,0.00002030,0.00000588,-0.000000
 92,-0.00000256,-0.00027591,-0.00013922,0.00011402,0.00002326,-0.000042
 34,-0.00002086,-0.00009432,-0.00015329,0.00020972,0.00007318,0.0000836
 3,-0.00005679,-0.00049300,0.00030587,0.00024422,-0.00180741,-0.0016547
 6,0.00349587,-0.00021136,0.00053754,0.00087897,0.00010527,-0.00115604,
 0.00154991,0.08350978,0.09233744,-0.21479965,0.01202652,0.01197875,-0.
 02110869,0.00027175,-0.00035813,-0.00113466,-0.09313806,-0.10179479,0.
 23064630\\0.00000024,0.00000015,0.00000020,0.00000027,0.00000007,0.000
 00017,0.00000024,0.00000002,0.00000017,0.00000029,0.00000022,0.0000001
 6,0.00000010,0.00000011,-0.00000002,0.00000007,0.00000008,0.00000006,0
 .00000010,0.00000020,0.00000006,0.00000013,0.00000014,0.,0.00000007,-0
 .00000013,0.00000010,-0.00000017,-0.00000007,-0.00000007,-0.00000008,0
 .00000010,-0.00000005,-0.00000008,-0.00000002,-0.00000009,0.,-0.000000
 28,-0.00000003,-0.00000008,-0.00000019,0.,-0.00000012,-0.00000007,-0.0
 0000002,-0.00000022,0.00000003,-0.00000014,-0.00000023,-0.00000004,-0.
 00000017,-0.00000023,-0.00000018,-0.00000014,-0.00000027,-0.00000014,-
 0.00000018\\\@


 DEPRESSION IS WAITING FOR YOUR SHIP TO COME IN,
 AND FINDING OUT IT'S THE TITANIC.
 Job cpu time:       0 days  0 hours 23 minutes  9.6 seconds.
 File lengths (MBytes):  RWF=     64 Int=      0 D2E=      0 Chk=      3 Scr=      1
 Normal termination of Gaussian 09 at Sat Nov  7 02:12:24 2015.
