 Entering Gaussian System, Link 0=/home/hetanjin/apps/g09D01/g09/g09
 Input=C6H14_5_r006_C9_2_opt_B3L.gjf
 Output=C6H14_5_r006_C9_2_opt_B3L.log
 Initial command:
 /home/hetanjin/apps/g09D01/g09/l1.exe "/state/partition1/Gau-4495.inp" -scrdir="/state/partition1/"
 Entering Link 1 = /home/hetanjin/apps/g09D01/g09/l1.exe PID=      4496.
  
 Copyright (c) 1988,1990,1992,1993,1995,1998,2003,2009,2013,
            Gaussian, Inc.  All Rights Reserved.
  
 This is part of the Gaussian(R) 09 program.  It is based on
 the Gaussian(R) 03 system (copyright 2003, Gaussian, Inc.),
 the Gaussian(R) 98 system (copyright 1998, Gaussian, Inc.),
 the Gaussian(R) 94 system (copyright 1995, Gaussian, Inc.),
 the Gaussian 92(TM) system (copyright 1992, Gaussian, Inc.),
 the Gaussian 90(TM) system (copyright 1990, Gaussian, Inc.),
 the Gaussian 88(TM) system (copyright 1988, Gaussian, Inc.),
 the Gaussian 86(TM) system (copyright 1986, Carnegie Mellon
 University), and the Gaussian 82(TM) system (copyright 1983,
 Carnegie Mellon University). Gaussian is a federally registered
 trademark of Gaussian, Inc.
  
 This software contains proprietary and confidential information,
 including trade secrets, belonging to Gaussian, Inc.
  
 This software is provided under written license and may be
 used, copied, transmitted, or stored only in accord with that
 written license.
  
 The following legend is applicable only to US Government
 contracts under FAR:
  
                    RESTRICTED RIGHTS LEGEND
  
 Use, reproduction and disclosure by the US Government is
 subject to restrictions as set forth in subparagraphs (a)
 and (c) of the Commercial Computer Software - Restricted
 Rights clause in FAR 52.227-19.
  
 Gaussian, Inc.
 340 Quinnipiac St., Bldg. 40, Wallingford CT 06492
  
  
 ---------------------------------------------------------------
 Warning -- This program may not be used in any manner that
 competes with the business of Gaussian, Inc. or will provide
 assistance to any competitor of Gaussian, Inc.  The licensee
 of this program is prohibited from giving any competitor of
 Gaussian, Inc. access to this program.  By using this program,
 the user acknowledges that Gaussian, Inc. is engaged in the
 business of creating and licensing software in the field of
 computational chemistry and represents and warrants to the
 licensee that it is not a competitor of Gaussian, Inc. and that
 it will not use this program in any manner prohibited above.
 ---------------------------------------------------------------
  

 Cite this work as:
 Gaussian 09, Revision D.01,
 M. J. Frisch, G. W. Trucks, H. B. Schlegel, G. E. Scuseria, 
 M. A. Robb, J. R. Cheeseman, G. Scalmani, V. Barone, B. Mennucci, 
 G. A. Petersson, H. Nakatsuji, M. Caricato, X. Li, H. P. Hratchian, 
 A. F. Izmaylov, J. Bloino, G. Zheng, J. L. Sonnenberg, M. Hada, 
 M. Ehara, K. Toyota, R. Fukuda, J. Hasegawa, M. Ishida, T. Nakajima, 
 Y. Honda, O. Kitao, H. Nakai, T. Vreven, J. A. Montgomery, Jr., 
 J. E. Peralta, F. Ogliaro, M. Bearpark, J. J. Heyd, E. Brothers, 
 K. N. Kudin, V. N. Staroverov, T. Keith, R. Kobayashi, J. Normand, 
 K. Raghavachari, A. Rendell, J. C. Burant, S. S. Iyengar, J. Tomasi, 
 M. Cossi, N. Rega, J. M. Millam, M. Klene, J. E. Knox, J. B. Cross, 
 V. Bakken, C. Adamo, J. Jaramillo, R. Gomperts, R. E. Stratmann, 
 O. Yazyev, A. J. Austin, R. Cammi, C. Pomelli, J. W. Ochterski, 
 R. L. Martin, K. Morokuma, V. G. Zakrzewski, G. A. Voth, 
 P. Salvador, J. J. Dannenberg, S. Dapprich, A. D. Daniels, 
 O. Farkas, J. B. Foresman, J. V. Ortiz, J. Cioslowski, 
 and D. J. Fox, Gaussian, Inc., Wallingford CT, 2013.
 
 ******************************************
 Gaussian 09:  ES64L-G09RevD.01 24-Apr-2013
                 7-Nov-2015 
 ******************************************
 %mem=6GB
 %nprocshared=4
 Will use up to    4 processors via shared memory.
 ----------------------------------------------
 #p B3LYP/6-31G(d) opt=tight int=ultrafine freq
 ----------------------------------------------
 1/7=10,14=-1,18=20,19=15,26=4,38=1/1,3;
 2/9=110,12=2,17=6,18=5,40=1/2;
 3/5=1,6=6,7=1,11=2,16=1,25=1,30=1,71=1,74=-5,75=-5/1,2,3;
 4//1;
 5/5=2,38=5/2;
 6/7=2,8=2,9=2,10=2,28=1/1;
 7//1,2,3,16;
 1/7=10,14=-1,18=20,19=15,26=4/3(2);
 2/9=110/2;
 99//99;
 2/9=110/2;
 3/5=1,6=6,7=1,11=2,16=1,25=1,30=1,71=1,74=-5,75=-5/1,2,3;
 4/5=5,16=3,69=1/1;
 5/5=2,38=5/2;
 7//1,2,3,16;
 1/7=10,14=-1,18=20,19=15,26=4/3(-5);
 2/9=110/2;
 6/7=2,8=2,9=2,10=2,19=2,28=1/1;
 99/9=1/99;
 Leave Link    1 at Sat Nov  7 02:12:47 2015, MaxMem=   805306368 cpu:         0.1
 (Enter /home/hetanjin/apps/g09D01/g09/l101.exe)
 ---------------------------------------------
 using B3LYP/6-31G(d) to do opt and freq calc.
 ---------------------------------------------
 Symbolic Z-matrix:
 Charge =  0 Multiplicity = 2
 C                     1.61803   0.98966  -0.00005 
 H                     1.59367   1.63643   0.88596 
 H                     1.59367   1.63635  -0.88611 
 H                     2.57832   0.45929  -0.00002 
 C                     0.43635  -0.0005    0. 
 C                    -0.87859   0.82391  -0.00003 
 H                    -0.86571   1.48649  -0.87756 
 H                    -0.86571   1.48655   0.87745 
 C                    -2.19348   0.03388  0. 
 H                    -2.28903  -0.60502   0.88496 
 H                    -2.28904  -0.60506  -0.88493 
 C                     0.5289   -0.88501  -1.25865 
 H                    -0.26244  -1.64248  -1.28525 
 H                     0.44851  -0.28292  -2.17262 
 H                     1.4897   -1.41334  -1.29204 
 C                     0.52891  -0.8849    1.25873 
 H                     1.4897   -1.41324   1.29215 
 H                     0.44854  -0.28273   2.17265 
 H                    -0.26244  -1.64236   1.2854 
 
 NAtoms=     19 NQM=       19 NQMF=       0 NMMI=      0 NMMIF=      0
                NMic=       0 NMicF=      0.
                    Isotopes and Nuclear Properties:
 (Nuclear quadrupole moments (NQMom) in fm**2, nuclear magnetic moments (NMagM)
  in nuclear magnetons)

  Atom         1           2           3           4           5           6           7           8           9          10
 IAtWgt=          12           1           1           1          12          12           1           1          12           1
 AtmWgt=  12.0000000   1.0078250   1.0078250   1.0078250  12.0000000  12.0000000   1.0078250   1.0078250  12.0000000   1.0078250
 NucSpn=           0           1           1           1           0           0           1           1           0           1
 AtZEff=   0.0000000   0.0000000   0.0000000   0.0000000   0.0000000   0.0000000   0.0000000   0.0000000   0.0000000   0.0000000
 NQMom=    0.0000000   0.0000000   0.0000000   0.0000000   0.0000000   0.0000000   0.0000000   0.0000000   0.0000000   0.0000000
 NMagM=    0.0000000   2.7928460   2.7928460   2.7928460   0.0000000   0.0000000   2.7928460   2.7928460   0.0000000   2.7928460
 AtZNuc=   6.0000000   1.0000000   1.0000000   1.0000000   6.0000000   6.0000000   1.0000000   1.0000000   6.0000000   1.0000000

  Atom        11          12          13          14          15          16          17          18          19
 IAtWgt=           1          12           1           1           1          12           1           1           1
 AtmWgt=   1.0078250  12.0000000   1.0078250   1.0078250   1.0078250  12.0000000   1.0078250   1.0078250   1.0078250
 NucSpn=           1           0           1           1           1           0           1           1           1
 AtZEff=   0.0000000   0.0000000   0.0000000   0.0000000   0.0000000   0.0000000   0.0000000   0.0000000   0.0000000
 NQMom=    0.0000000   0.0000000   0.0000000   0.0000000   0.0000000   0.0000000   0.0000000   0.0000000   0.0000000
 NMagM=    2.7928460   0.0000000   2.7928460   2.7928460   2.7928460   0.0000000   2.7928460   2.7928460   2.7928460
 AtZNuc=   1.0000000   6.0000000   1.0000000   1.0000000   1.0000000   6.0000000   1.0000000   1.0000000   1.0000000
 Leave Link  101 at Sat Nov  7 02:12:47 2015, MaxMem=   805306368 cpu:         0.8
 (Enter /home/hetanjin/apps/g09D01/g09/l103.exe)

 GradGradGradGradGradGradGradGradGradGradGradGradGradGradGradGradGradGrad
 Berny optimization.
 Initialization pass.
                           ----------------------------
                           !    Initial Parameters    !
                           ! (Angstroms and Degrees)  !
 --------------------------                            --------------------------
 ! Name  Definition              Value          Derivative Info.                !
 --------------------------------------------------------------------------------
 ! R1    R(1,2)                  1.0972         estimate D2E/DX2                !
 ! R2    R(1,3)                  1.0972         estimate D2E/DX2                !
 ! R3    R(1,4)                  1.097          estimate D2E/DX2                !
 ! R4    R(1,5)                  1.5417         estimate D2E/DX2                !
 ! R5    R(5,6)                  1.552          estimate D2E/DX2                !
 ! R6    R(5,12)                 1.5411         estimate D2E/DX2                !
 ! R7    R(5,16)                 1.5411         estimate D2E/DX2                !
 ! R8    R(6,7)                  1.0996         estimate D2E/DX2                !
 ! R9    R(6,8)                  1.0996         estimate D2E/DX2                !
 ! R10   R(6,9)                  1.534          estimate D2E/DX2                !
 ! R11   R(9,10)                 1.0957         estimate D2E/DX2                !
 ! R12   R(9,11)                 1.0957         estimate D2E/DX2                !
 ! R13   R(12,13)                1.0958         estimate D2E/DX2                !
 ! R14   R(12,14)                1.0974         estimate D2E/DX2                !
 ! R15   R(12,15)                1.097          estimate D2E/DX2                !
 ! R16   R(16,17)                1.097          estimate D2E/DX2                !
 ! R17   R(16,18)                1.0974         estimate D2E/DX2                !
 ! R18   R(16,19)                1.0958         estimate D2E/DX2                !
 ! A1    A(2,1,3)              107.7092         estimate D2E/DX2                !
 ! A2    A(2,1,4)              107.7219         estimate D2E/DX2                !
 ! A3    A(2,1,5)              111.195          estimate D2E/DX2                !
 ! A4    A(3,1,4)              107.722          estimate D2E/DX2                !
 ! A5    A(3,1,5)              111.195          estimate D2E/DX2                !
 ! A6    A(4,1,5)              111.1274         estimate D2E/DX2                !
 ! A7    A(1,5,6)              107.9534         estimate D2E/DX2                !
 ! A8    A(1,5,12)             108.8179         estimate D2E/DX2                !
 ! A9    A(1,5,16)             108.8179         estimate D2E/DX2                !
 ! A10   A(6,5,12)             110.8381         estimate D2E/DX2                !
 ! A11   A(6,5,16)             110.8381         estimate D2E/DX2                !
 ! A12   A(12,5,16)            109.5162         estimate D2E/DX2                !
 ! A13   A(5,6,7)              108.0687         estimate D2E/DX2                !
 ! A14   A(5,6,8)              108.0687         estimate D2E/DX2                !
 ! A15   A(5,6,9)              116.915          estimate D2E/DX2                !
 ! A16   A(7,6,8)              105.8765         estimate D2E/DX2                !
 ! A17   A(7,6,9)              108.6851         estimate D2E/DX2                !
 ! A18   A(8,6,9)              108.6852         estimate D2E/DX2                !
 ! A19   A(6,9,10)             112.0296         estimate D2E/DX2                !
 ! A20   A(6,9,11)             112.0296         estimate D2E/DX2                !
 ! A21   A(10,9,11)            107.7399         estimate D2E/DX2                !
 ! A22   A(5,12,13)            111.913          estimate D2E/DX2                !
 ! A23   A(5,12,14)            111.1551         estimate D2E/DX2                !
 ! A24   A(5,12,15)            110.724          estimate D2E/DX2                !
 ! A25   A(13,12,14)           107.8276         estimate D2E/DX2                !
 ! A26   A(13,12,15)           107.389          estimate D2E/DX2                !
 ! A27   A(14,12,15)           107.6407         estimate D2E/DX2                !
 ! A28   A(5,16,17)            110.7241         estimate D2E/DX2                !
 ! A29   A(5,16,18)            111.155          estimate D2E/DX2                !
 ! A30   A(5,16,19)            111.913          estimate D2E/DX2                !
 ! A31   A(17,16,18)           107.6408         estimate D2E/DX2                !
 ! A32   A(17,16,19)           107.3889         estimate D2E/DX2                !
 ! A33   A(18,16,19)           107.8276         estimate D2E/DX2                !
 ! D1    D(2,1,5,6)             60.0094         estimate D2E/DX2                !
 ! D2    D(2,1,5,12)          -179.6279         estimate D2E/DX2                !
 ! D3    D(2,1,5,16)           -60.3531         estimate D2E/DX2                !
 ! D4    D(3,1,5,6)            -60.01           estimate D2E/DX2                !
 ! D5    D(3,1,5,12)            60.3526         estimate D2E/DX2                !
 ! D6    D(3,1,5,16)           179.6274         estimate D2E/DX2                !
 ! D7    D(4,1,5,6)            179.9997         estimate D2E/DX2                !
 ! D8    D(4,1,5,12)           -59.6377         estimate D2E/DX2                !
 ! D9    D(4,1,5,16)            59.6371         estimate D2E/DX2                !
 ! D10   D(1,5,6,7)             57.0744         estimate D2E/DX2                !
 ! D11   D(1,5,6,8)            -57.0751         estimate D2E/DX2                !
 ! D12   D(1,5,6,9)            179.9996         estimate D2E/DX2                !
 ! D13   D(12,5,6,7)           -62.0124         estimate D2E/DX2                !
 ! D14   D(12,5,6,8)          -176.1619         estimate D2E/DX2                !
 ! D15   D(12,5,6,9)            60.9128         estimate D2E/DX2                !
 ! D16   D(16,5,6,7)           176.1612         estimate D2E/DX2                !
 ! D17   D(16,5,6,8)            62.0117         estimate D2E/DX2                !
 ! D18   D(16,5,6,9)           -60.9136         estimate D2E/DX2                !
 ! D19   D(1,5,12,13)          177.2395         estimate D2E/DX2                !
 ! D20   D(1,5,12,14)          -62.1296         estimate D2E/DX2                !
 ! D21   D(1,5,12,15)           57.4635         estimate D2E/DX2                !
 ! D22   D(6,5,12,13)          -64.1959         estimate D2E/DX2                !
 ! D23   D(6,5,12,14)           56.435          estimate D2E/DX2                !
 ! D24   D(6,5,12,15)          176.0282         estimate D2E/DX2                !
 ! D25   D(16,5,12,13)          58.4016         estimate D2E/DX2                !
 ! D26   D(16,5,12,14)         179.0325         estimate D2E/DX2                !
 ! D27   D(16,5,12,15)         -61.3744         estimate D2E/DX2                !
 ! D28   D(1,5,16,17)          -57.4641         estimate D2E/DX2                !
 ! D29   D(1,5,16,18)           62.129          estimate D2E/DX2                !
 ! D30   D(1,5,16,19)         -177.2401         estimate D2E/DX2                !
 ! D31   D(6,5,16,17)         -176.0287         estimate D2E/DX2                !
 ! D32   D(6,5,16,18)          -56.4356         estimate D2E/DX2                !
 ! D33   D(6,5,16,19)           64.1953         estimate D2E/DX2                !
 ! D34   D(12,5,16,17)          61.3738         estimate D2E/DX2                !
 ! D35   D(12,5,16,18)        -179.0331         estimate D2E/DX2                !
 ! D36   D(12,5,16,19)         -58.4022         estimate D2E/DX2                !
 ! D37   D(5,6,9,10)            60.6085         estimate D2E/DX2                !
 ! D38   D(5,6,9,11)           -60.6101         estimate D2E/DX2                !
 ! D39   D(7,6,9,10)          -176.7844         estimate D2E/DX2                !
 ! D40   D(7,6,9,11)            61.9969         estimate D2E/DX2                !
 ! D41   D(8,6,9,10)           -61.9986         estimate D2E/DX2                !
 ! D42   D(8,6,9,11)           176.7828         estimate D2E/DX2                !
 --------------------------------------------------------------------------------
 Trust Radius=3.00D-01 FncErr=1.00D-07 GrdErr=1.00D-06
 Number of steps in this run=    103 maximum allowed number of steps=    114.
 GradGradGradGradGradGradGradGradGradGradGradGradGradGradGradGradGradGrad

 Leave Link  103 at Sat Nov  7 02:12:47 2015, MaxMem=   805306368 cpu:         0.0
 (Enter /home/hetanjin/apps/g09D01/g09/l202.exe)
                          Input orientation:                          
 ---------------------------------------------------------------------
 Center     Atomic      Atomic             Coordinates (Angstroms)
 Number     Number       Type             X           Y           Z
 ---------------------------------------------------------------------
      1          6           0        1.618032    0.989661   -0.000046
      2          1           0        1.593672    1.636429    0.885962
      3          1           0        1.593672    1.636347   -0.886113
      4          1           0        2.578316    0.459293   -0.000021
      5          6           0        0.436353   -0.000500    0.000000
      6          6           0       -0.878586    0.823914   -0.000030
      7          1           0       -0.865713    1.486486   -0.877558
      8          1           0       -0.865712    1.486551    0.877447
      9          6           0       -2.193477    0.033880   -0.000001
     10          1           0       -2.289029   -0.605019    0.884964
     11          1           0       -2.289041   -0.605062   -0.884933
     12          6           0        0.528897   -0.885012   -1.258652
     13          1           0       -0.262439   -1.642476   -1.285245
     14          1           0        0.448512   -0.282917   -2.172624
     15          1           0        1.489696   -1.413344   -1.292039
     16          6           0        0.528906   -0.884904    1.258727
     17          1           0        1.489700   -1.413241    1.292148
     18          1           0        0.448537   -0.282728    2.172647
     19          1           0       -0.262436   -1.642360    1.285396
 ---------------------------------------------------------------------
                    Distance matrix (angstroms):
                    1          2          3          4          5
     1  C    0.000000
     2  H    1.097229   0.000000
     3  H    1.097229   1.772075   0.000000
     4  H    1.097012   1.772044   1.772044   0.000000
     5  C    1.541682   2.191769   2.191769   2.190757   0.000000
     6  C    2.502114   2.749040   2.749045   3.476078   1.552006
     7  H    2.680644   3.030026   2.463961   3.699531   2.162547
     8  H    2.680649   2.463961   3.030042   3.699532   2.162546
     9  C    3.929519   4.206613   4.206613   4.790719   2.630055
    10  H    4.311771   4.483242   4.820353   5.060337   2.928534
    11  H    4.311773   4.820354   4.483233   5.060344   2.928545
    12  C    2.506931   3.477180   2.762206   2.755254   1.541146
    13  H    3.480812   4.348621   3.788817   3.760202   2.199148
    14  H    2.776207   3.788170   2.578774   3.131636   2.190936
    15  H    2.731327   3.749082   3.078344   2.522137   2.185183
    16  C    2.506930   2.762209   3.477179   2.755248   1.541146
    17  H    2.731332   3.078357   3.749082   2.522136   2.185183
    18  H    2.776200   2.578770   3.788165   3.131619   2.190935
    19  H    3.480812   3.788818   4.348621   3.760201   2.199148
                    6          7          8          9         10
     6  C    0.000000
     7  H    1.099647   0.000000
     8  H    1.099645   1.755005   0.000000
     9  C    1.533979   2.154792   2.154792   0.000000
    10  H    2.194177   3.083295   2.529931   1.095667   0.000000
    11  H    2.194176   2.529919   3.083293   1.095666   1.769897
    12  C    2.546677   2.777440   3.483126   3.136859   3.551646
    13  H    2.848595   3.212562   3.851232   2.861980   3.145344
    14  H    2.776046   2.556398   3.763128   3.435223   4.116640
    15  H    3.504764   3.758824   4.320186   4.162882   4.435256
    16  C    2.546677   3.483126   2.777433   3.136866   2.856360
    17  H    3.504763   4.320186   3.758821   4.162884   3.885591
    18  H    2.776047   3.763127   2.556392   3.435241   3.042411
    19  H    2.848591   3.851232   3.212545   2.861983   2.311601
                   11         12         13         14         15
    11  H    0.000000
    12  C    2.856364   0.000000
    13  H    2.311621   1.095752   0.000000
    14  H    3.042388   1.097417   1.772369   0.000000
    15  H    3.885603   1.096989   1.767067   1.771259   0.000000
    16  C    3.551678   2.517379   2.769826   3.484684   2.776468
    17  H    4.435281   2.776463   3.124979   3.790297   2.584187
    18  H    4.116677   3.484683   3.783044   4.345271   3.790297
    19  H    3.145384   2.769831   2.570641   3.783046   3.124994
                   16         17         18         19
    16  C    0.000000
    17  H    1.096988   0.000000
    18  H    1.097417   1.771259   0.000000
    19  H    1.095752   1.767066   1.772370   0.000000
 Stoichiometry    C6H13(2)
 Framework group  C1[X(C6H13)]
 Deg. of freedom    51
 Full point group                 C1      NOp   1
 Largest Abelian subgroup         C1      NOp   1
 Largest concise Abelian subgroup C1      NOp   1
                         Standard orientation:                         
 ---------------------------------------------------------------------
 Center     Atomic      Atomic             Coordinates (Angstroms)
 Number     Number       Type             X           Y           Z
 ---------------------------------------------------------------------
      1          6           0       -1.606270   -0.000015    0.921514
      2          1           0       -1.615806    0.886015    1.568641
      3          1           0       -1.615803   -0.886060    1.568618
      4          1           0       -2.537468   -0.000008    0.341596
      5          6           0       -0.374369    0.000000   -0.005419
      6          6           0        0.895602   -0.000002    0.886712
      7          1           0        0.848056   -0.877508    1.547730
      8          1           0        0.848052    0.877497    1.547737
      9          6           0        2.250054    0.000002    0.166606
     10          1           0        2.378927    0.884946   -0.466443
     11          1           0        2.378940   -0.884951   -0.466427
     12          6           0       -0.420476   -1.258682   -0.893521
     13          1           0        0.409434   -1.285299   -1.608513
     14          1           0       -0.371726   -2.172634   -0.288013
     15          1           0       -1.352295   -1.292087   -1.471432
     16          6           0       -0.420489    1.258697   -0.893497
     17          1           0       -1.352302    1.292100   -1.471415
     18          1           0       -0.371758    2.172637   -0.287969
     19          1           0        0.409427    1.285342   -1.608482
 ---------------------------------------------------------------------
 Rotational constants (GHZ):      4.2809277      2.5894837      2.5873370
 Leave Link  202 at Sat Nov  7 02:12:47 2015, MaxMem=   805306368 cpu:         0.0
 (Enter /home/hetanjin/apps/g09D01/g09/l301.exe)
 Standard basis: 6-31G(d) (6D, 7F)
 Ernie: Thresh=  0.10000D-02 Tol=  0.10000D-05 Strict=F.
 There are   116 symmetry adapted cartesian basis functions of A   symmetry.
 There are   116 symmetry adapted basis functions of A   symmetry.
   116 basis functions,   220 primitive gaussians,   116 cartesian basis functions
    25 alpha electrons       24 beta electrons
       nuclear repulsion energy       255.3303295486 Hartrees.
 IExCor=  402 DFT=T Ex+Corr=B3LYP ExCW=0 ScaHFX=  0.200000
 ScaDFX=  0.800000  0.720000  1.000000  0.810000 ScalE2=  1.000000  1.000000
 IRadAn=      5 IRanWt=     -1 IRanGd=            0 ICorTp=0 IEmpDi=  4
 NAtoms=   19 NActive=   19 NUniq=   19 SFac= 1.00D+00 NAtFMM=   60 NAOKFM=F Big=F
 Integral buffers will be    131072 words long.
 Raffenetti 2 integral format.
 Two-electron integral symmetry is turned on.
 Leave Link  301 at Sat Nov  7 02:12:47 2015, MaxMem=   805306368 cpu:         0.2
 (Enter /home/hetanjin/apps/g09D01/g09/l302.exe)
 NPDir=0 NMtPBC=     1 NCelOv=     1 NCel=       1 NClECP=     1 NCelD=      1
         NCelK=      1 NCelE2=     1 NClLst=     1 CellRange=     0.0.
 One-electron integrals computed using PRISM.
 NBasis=   116 RedAO= T EigKep=  3.83D-03  NBF=   116
 NBsUse=   116 1.00D-06 EigRej= -1.00D+00 NBFU=   116
 Precomputing XC quadrature grid using
 IXCGrd= 4 IRadAn=           5 IRanWt=          -1 IRanGd=           0 AccXCQ= 0.00D+00.
 Generated NRdTot=       0 NPtTot=           0 NUsed=           0 NTot=          32
 NSgBfM=   116   116   116   116   116 MxSgAt=    19 MxSgA2=    19.
 Leave Link  302 at Sat Nov  7 02:12:48 2015, MaxMem=   805306368 cpu:         1.5
 (Enter /home/hetanjin/apps/g09D01/g09/l303.exe)
 DipDrv:  MaxL=1.
 Leave Link  303 at Sat Nov  7 02:12:48 2015, MaxMem=   805306368 cpu:         0.1
 (Enter /home/hetanjin/apps/g09D01/g09/l401.exe)
 ExpMin= 1.61D-01 ExpMax= 3.05D+03 ExpMxC= 4.57D+02 IAcc=3 IRadAn=         5 AccDes= 0.00D+00
 Harris functional with IExCor=  402 and IRadAn=       5 diagonalized for initial guess.
 HarFok:  IExCor=  402 AccDes= 0.00D+00 IRadAn=         5 IDoV= 1 UseB2=F ITyADJ=14
 ICtDFT=  3500011 ScaDFX=  1.000000  1.000000  1.000000  1.000000
 FoFCou: FMM=F IPFlag=           0 FMFlag=      100000 FMFlg1=           0
         NFxFlg=           0 DoJE=T BraDBF=F KetDBF=T FulRan=T
         wScrn=  0.000000 ICntrl=     500 IOpCl=  0 I1Cent=   200000004 NGrid=           0
         NMat0=    1 NMatS0=      1 NMatT0=    0 NMatD0=    1 NMtDS0=    0 NMtDT0=    0
 Petite list used in FoFCou.
 Harris En= -236.440556464750    
 JPrj=0 DoOrth=F DoCkMO=F.
 Initial guess <Sx>= 0.0000 <Sy>= 0.0000 <Sz>= 0.5000 <S**2>= 0.7500 S= 0.5000
 Leave Link  401 at Sat Nov  7 02:12:50 2015, MaxMem=   805306368 cpu:         9.0
 (Enter /home/hetanjin/apps/g09D01/g09/l502.exe)
 UHF open shell SCF:
 Using DIIS extrapolation, IDIIS=  1040.
 Integral symmetry usage will be decided dynamically.
 Keep R1 and R2 ints in memory in canonical form, NReq=47059932.
 IVT=       60514 IEndB=       60514 NGot=   805306368 MDV=   759189273
 LenX=   759189273 LenY=   759175376
 Requested convergence on RMS density matrix=1.00D-08 within 128 cycles.
 Requested convergence on MAX density matrix=1.00D-06.
 Requested convergence on             energy=1.00D-06.
 No special actions if energy rises.
 FoFCou: FMM=F IPFlag=           0 FMFlag=           0 FMFlg1=           0
         NFxFlg=           0 DoJE=F BraDBF=F KetDBF=F FulRan=T
         wScrn=  0.000000 ICntrl=     600 IOpCl=  0 I1Cent=           0 NGrid=           0
         NMat0=    1 NMatS0=   6786 NMatT0=    0 NMatD0=    1 NMtDS0=    0 NMtDT0=    0
 Symmetry not used in FoFCou.
 Integral accuracy reduced to 1.0D-05 until final iterations.

 Cycle   1  Pass 0  IDiag  1:
 E= -236.145695474153    
 DIIS: error= 5.26D-02 at cycle   1 NSaved=   1.
 NSaved= 1 IEnMin= 1 EnMin= -236.145695474153     IErMin= 1 ErrMin= 5.26D-02
 ErrMax= 5.26D-02  0.00D+00 EMaxC= 1.00D-01 BMatC= 9.18D-01 BMatP= 9.18D-01
 IDIUse=3 WtCom= 4.74D-01 WtEn= 5.26D-01
 Coeff-Com:  0.100D+01
 Coeff-En:   0.100D+01
 Coeff:      0.100D+01
 Gap=     0.275 Goal=   None    Shift=    0.000
 Gap=     0.240 Goal=   None    Shift=    0.000
 GapD=    0.240 DampG=1.000 DampE=0.500 DampFc=0.5000 IDamp=-1.
 Damping current iteration by 5.00D-01
 RMSDP=9.73D-03 MaxDP=1.38D-01              OVMax= 1.78D-01

 Cycle   2  Pass 0  IDiag  1:
 E= -236.258581187139     Delta-E=       -0.112885712987 Rises=F Damp=T
 DIIS: error= 9.05D-03 at cycle   2 NSaved=   2.
 NSaved= 2 IEnMin= 2 EnMin= -236.258581187139     IErMin= 2 ErrMin= 9.05D-03
 ErrMax= 9.05D-03  0.00D+00 EMaxC= 1.00D-01 BMatC= 4.00D-02 BMatP= 9.18D-01
 IDIUse=3 WtCom= 9.09D-01 WtEn= 9.05D-02
 Coeff-Com:  0.762D-01 0.924D+00
 Coeff-En:   0.130D+00 0.870D+00
 Coeff:      0.810D-01 0.919D+00
 Gap=     0.305 Goal=   None    Shift=    0.000
 Gap=     0.262 Goal=   None    Shift=    0.000
 RMSDP=1.74D-03 MaxDP=2.60D-02 DE=-1.13D-01 OVMax= 1.10D-01

 Cycle   3  Pass 0  IDiag  1:
 E= -236.399199915915     Delta-E=       -0.140618728776 Rises=F Damp=F
 DIIS: error= 3.85D-03 at cycle   3 NSaved=   3.
 NSaved= 3 IEnMin= 3 EnMin= -236.399199915915     IErMin= 3 ErrMin= 3.85D-03
 ErrMax= 3.85D-03  0.00D+00 EMaxC= 1.00D-01 BMatC= 8.92D-03 BMatP= 4.00D-02
 IDIUse=3 WtCom= 9.62D-01 WtEn= 3.85D-02
 Coeff-Com:  0.419D-02 0.264D+00 0.732D+00
 Coeff-En:   0.000D+00 0.000D+00 0.100D+01
 Coeff:      0.403D-02 0.253D+00 0.742D+00
 Gap=     0.307 Goal=   None    Shift=    0.000
 Gap=     0.242 Goal=   None    Shift=    0.000
 RMSDP=7.48D-04 MaxDP=2.19D-02 DE=-1.41D-01 OVMax= 1.98D-02

 Cycle   4  Pass 0  IDiag  1:
 E= -236.400388894090     Delta-E=       -0.001188978175 Rises=F Damp=F
 DIIS: error= 2.95D-03 at cycle   4 NSaved=   4.
 NSaved= 4 IEnMin= 4 EnMin= -236.400388894090     IErMin= 4 ErrMin= 2.95D-03
 ErrMax= 2.95D-03  0.00D+00 EMaxC= 1.00D-01 BMatC= 4.43D-03 BMatP= 8.92D-03
 IDIUse=3 WtCom= 9.71D-01 WtEn= 2.95D-02
 Coeff-Com: -0.561D-02 0.312D-01 0.417D+00 0.557D+00
 Coeff-En:   0.000D+00 0.000D+00 0.332D+00 0.668D+00
 Coeff:     -0.544D-02 0.303D-01 0.415D+00 0.560D+00
 Gap=     0.303 Goal=   None    Shift=    0.000
 Gap=     0.250 Goal=   None    Shift=    0.000
 RMSDP=2.83D-04 MaxDP=6.57D-03 DE=-1.19D-03 OVMax= 1.25D-02

 Cycle   5  Pass 0  IDiag  1:
 E= -236.401478240146     Delta-E=       -0.001089346056 Rises=F Damp=F
 DIIS: error= 2.26D-04 at cycle   5 NSaved=   5.
 NSaved= 5 IEnMin= 5 EnMin= -236.401478240146     IErMin= 5 ErrMin= 2.26D-04
 ErrMax= 2.26D-04  0.00D+00 EMaxC= 1.00D-01 BMatC= 4.02D-05 BMatP= 4.43D-03
 IDIUse=3 WtCom= 9.98D-01 WtEn= 2.26D-03
 Coeff-Com: -0.914D-03-0.452D-02 0.648D-01 0.139D+00 0.802D+00
 Coeff-En:   0.000D+00 0.000D+00 0.000D+00 0.000D+00 0.100D+01
 Coeff:     -0.912D-03-0.451D-02 0.647D-01 0.139D+00 0.802D+00
 Gap=     0.303 Goal=   None    Shift=    0.000
 Gap=     0.250 Goal=   None    Shift=    0.000
 RMSDP=3.31D-05 MaxDP=7.71D-04 DE=-1.09D-03 OVMax= 7.85D-04

 Cycle   6  Pass 0  IDiag  1:
 E= -236.401489421862     Delta-E=       -0.000011181717 Rises=F Damp=F
 DIIS: error= 8.54D-05 at cycle   6 NSaved=   6.
 NSaved= 6 IEnMin= 6 EnMin= -236.401489421862     IErMin= 6 ErrMin= 8.54D-05
 ErrMax= 8.54D-05  0.00D+00 EMaxC= 1.00D-01 BMatC= 3.15D-06 BMatP= 4.02D-05
 IDIUse=1 WtCom= 1.00D+00 WtEn= 0.00D+00
 Coeff-Com:  0.584D-04-0.246D-02-0.937D-02-0.458D-03 0.151D+00 0.862D+00
 Coeff:      0.584D-04-0.246D-02-0.937D-02-0.458D-03 0.151D+00 0.862D+00
 Gap=     0.304 Goal=   None    Shift=    0.000
 Gap=     0.250 Goal=   None    Shift=    0.000
 RMSDP=1.49D-05 MaxDP=4.66D-04 DE=-1.12D-05 OVMax= 4.90D-04

 Cycle   7  Pass 0  IDiag  1:
 E= -236.401490530970     Delta-E=       -0.000001109108 Rises=F Damp=F
 DIIS: error= 4.32D-05 at cycle   7 NSaved=   7.
 NSaved= 7 IEnMin= 7 EnMin= -236.401490530970     IErMin= 7 ErrMin= 4.32D-05
 ErrMax= 4.32D-05  0.00D+00 EMaxC= 1.00D-01 BMatC= 1.28D-06 BMatP= 3.15D-06
 IDIUse=1 WtCom= 1.00D+00 WtEn= 0.00D+00
 Coeff-Com:  0.200D-03-0.625D-04-0.189D-01-0.309D-01-0.112D+00 0.408D+00
 Coeff-Com:  0.754D+00
 Coeff:      0.200D-03-0.625D-04-0.189D-01-0.309D-01-0.112D+00 0.408D+00
 Coeff:      0.754D+00
 Gap=     0.304 Goal=   None    Shift=    0.000
 Gap=     0.250 Goal=   None    Shift=    0.000
 RMSDP=6.55D-06 MaxDP=2.37D-04 DE=-1.11D-06 OVMax= 2.21D-04

 Initial convergence to 1.0D-05 achieved.  Increase integral accuracy.
 Cycle   8  Pass 1  IDiag  1:
 E= -236.401475961204     Delta-E=        0.000014569766 Rises=F Damp=F
 DIIS: error= 1.06D-05 at cycle   1 NSaved=   1.
 NSaved= 1 IEnMin= 1 EnMin= -236.401475961204     IErMin= 1 ErrMin= 1.06D-05
 ErrMax= 1.06D-05  0.00D+00 EMaxC= 1.00D-01 BMatC= 6.41D-08 BMatP= 6.41D-08
 IDIUse=1 WtCom= 1.00D+00 WtEn= 0.00D+00
 Coeff-Com:  0.100D+01
 Coeff:      0.100D+01
 Gap=     0.304 Goal=   None    Shift=    0.000
 Gap=     0.250 Goal=   None    Shift=    0.000
 RMSDP=6.55D-06 MaxDP=2.37D-04 DE= 1.46D-05 OVMax= 4.72D-05

 Cycle   9  Pass 1  IDiag  1:
 E= -236.401475974018     Delta-E=       -0.000000012814 Rises=F Damp=F
 DIIS: error= 1.03D-05 at cycle   2 NSaved=   2.
 NSaved= 2 IEnMin= 2 EnMin= -236.401475974018     IErMin= 2 ErrMin= 1.03D-05
 ErrMax= 1.03D-05  0.00D+00 EMaxC= 1.00D-01 BMatC= 4.57D-08 BMatP= 6.41D-08
 IDIUse=1 WtCom= 1.00D+00 WtEn= 0.00D+00
 Coeff-Com:  0.448D+00 0.552D+00
 Coeff:      0.448D+00 0.552D+00
 Gap=     0.304 Goal=   None    Shift=    0.000
 Gap=     0.250 Goal=   None    Shift=    0.000
 RMSDP=9.40D-07 MaxDP=1.78D-05 DE=-1.28D-08 OVMax= 2.16D-05

 Cycle  10  Pass 1  IDiag  1:
 E= -236.401475985243     Delta-E=       -0.000000011225 Rises=F Damp=F
 DIIS: error= 2.62D-06 at cycle   3 NSaved=   3.
 NSaved= 3 IEnMin= 3 EnMin= -236.401475985243     IErMin= 3 ErrMin= 2.62D-06
 ErrMax= 2.62D-06  0.00D+00 EMaxC= 1.00D-01 BMatC= 3.33D-09 BMatP= 4.57D-08
 IDIUse=1 WtCom= 1.00D+00 WtEn= 0.00D+00
 Coeff-Com: -0.475D-01 0.143D+00 0.905D+00
 Coeff:     -0.475D-01 0.143D+00 0.905D+00
 Gap=     0.304 Goal=   None    Shift=    0.000
 Gap=     0.250 Goal=   None    Shift=    0.000
 RMSDP=4.00D-07 MaxDP=9.99D-06 DE=-1.12D-08 OVMax= 1.08D-05

 Cycle  11  Pass 1  IDiag  1:
 E= -236.401475986505     Delta-E=       -0.000000001262 Rises=F Damp=F
 DIIS: error= 9.93D-07 at cycle   4 NSaved=   4.
 NSaved= 4 IEnMin= 4 EnMin= -236.401475986505     IErMin= 4 ErrMin= 9.93D-07
 ErrMax= 9.93D-07  0.00D+00 EMaxC= 1.00D-01 BMatC= 4.45D-10 BMatP= 3.33D-09
 IDIUse=1 WtCom= 1.00D+00 WtEn= 0.00D+00
 Coeff-Com: -0.828D-01-0.461D-01 0.255D+00 0.874D+00
 Coeff:     -0.828D-01-0.461D-01 0.255D+00 0.874D+00
 Gap=     0.304 Goal=   None    Shift=    0.000
 Gap=     0.250 Goal=   None    Shift=    0.000
 RMSDP=1.82D-07 MaxDP=4.35D-06 DE=-1.26D-09 OVMax= 5.15D-06

 Cycle  12  Pass 1  IDiag  1:
 E= -236.401475986707     Delta-E=       -0.000000000202 Rises=F Damp=F
 DIIS: error= 2.19D-07 at cycle   5 NSaved=   5.
 NSaved= 5 IEnMin= 5 EnMin= -236.401475986707     IErMin= 5 ErrMin= 2.19D-07
 ErrMax= 2.19D-07  0.00D+00 EMaxC= 1.00D-01 BMatC= 2.47D-11 BMatP= 4.45D-10
 IDIUse=1 WtCom= 1.00D+00 WtEn= 0.00D+00
 Coeff-Com: -0.447D-02-0.205D-01-0.653D-01 0.103D+00 0.987D+00
 Coeff:     -0.447D-02-0.205D-01-0.653D-01 0.103D+00 0.987D+00
 Gap=     0.304 Goal=   None    Shift=    0.000
 Gap=     0.250 Goal=   None    Shift=    0.000
 RMSDP=4.85D-08 MaxDP=1.60D-06 DE=-2.02D-10 OVMax= 1.37D-06

 Cycle  13  Pass 1  IDiag  1:
 E= -236.401475986717     Delta-E=       -0.000000000010 Rises=F Damp=F
 DIIS: error= 1.01D-07 at cycle   6 NSaved=   6.
 NSaved= 6 IEnMin= 6 EnMin= -236.401475986717     IErMin= 6 ErrMin= 1.01D-07
 ErrMax= 1.01D-07  0.00D+00 EMaxC= 1.00D-01 BMatC= 6.82D-12 BMatP= 2.47D-11
 IDIUse=1 WtCom= 1.00D+00 WtEn= 0.00D+00
 Coeff-Com:  0.266D-02-0.725D-02-0.460D-01-0.358D-02 0.472D+00 0.582D+00
 Coeff:      0.266D-02-0.725D-02-0.460D-01-0.358D-02 0.472D+00 0.582D+00
 Gap=     0.304 Goal=   None    Shift=    0.000
 Gap=     0.250 Goal=   None    Shift=    0.000
 RMSDP=1.41D-08 MaxDP=3.22D-07 DE=-1.03D-11 OVMax= 3.39D-07

 Cycle  14  Pass 1  IDiag  1:
 E= -236.401475986721     Delta-E=       -0.000000000004 Rises=F Damp=F
 DIIS: error= 3.02D-08 at cycle   7 NSaved=   7.
 NSaved= 7 IEnMin= 7 EnMin= -236.401475986721     IErMin= 7 ErrMin= 3.02D-08
 ErrMax= 3.02D-08  0.00D+00 EMaxC= 1.00D-01 BMatC= 3.40D-13 BMatP= 6.82D-12
 IDIUse=1 WtCom= 1.00D+00 WtEn= 0.00D+00
 Coeff-Com:  0.143D-02-0.997D-03-0.115D-01-0.105D-01 0.902D-01 0.214D+00
 Coeff-Com:  0.717D+00
 Coeff:      0.143D-02-0.997D-03-0.115D-01-0.105D-01 0.902D-01 0.214D+00
 Coeff:      0.717D+00
 Gap=     0.304 Goal=   None    Shift=    0.000
 Gap=     0.250 Goal=   None    Shift=    0.000
 RMSDP=3.66D-09 MaxDP=8.56D-08 DE=-4.32D-12 OVMax= 9.93D-08

 SCF Done:  E(UB3LYP) =  -236.401475987     A.U. after   14 cycles
            NFock= 14  Conv=0.37D-08     -V/T= 2.0104
 <Sx>= 0.0000 <Sy>= 0.0000 <Sz>= 0.5000 <S**2>= 0.7528 S= 0.5014
 <L.S>= 0.000000000000E+00
 KE= 2.339760380185D+02 PE=-1.056132391901D+03 EE= 3.304245483468D+02
 Annihilation of the first spin contaminant:
 S**2 before annihilation     0.7528,   after     0.7500
 Leave Link  502 at Sat Nov  7 02:13:38 2015, MaxMem=   805306368 cpu:       179.3
 (Enter /home/hetanjin/apps/g09D01/g09/l601.exe)
 Copying SCF densities to generalized density rwf, IOpCl= 1 IROHF=0.

 **********************************************************************

            Population analysis using the SCF density.

 **********************************************************************

 Orbital symmetries:
 Alpha Orbitals:
       Occupied  (A) (A) (A) (A) (A) (A) (A) (A) (A) (A) (A) (A)
                 (A) (A) (A) (A) (A) (A) (A) (A) (A) (A) (A) (A)
                 (A)
       Virtual   (A) (A) (A) (A) (A) (A) (A) (A) (A) (A) (A) (A)
                 (A) (A) (A) (A) (A) (A) (A) (A) (A) (A) (A) (A)
                 (A) (A) (A) (A) (A) (A) (A) (A) (A) (A) (A) (A)
                 (A) (A) (A) (A) (A) (A) (A) (A) (A) (A) (A) (A)
                 (A) (A) (A) (A) (A) (A) (A) (A) (A) (A) (A) (A)
                 (A) (A) (A) (A) (A) (A) (A) (A) (A) (A) (A) (A)
                 (A) (A) (A) (A) (A) (A) (A) (A) (A) (A) (A) (A)
                 (A) (A) (A) (A) (A) (A) (A)
 Beta  Orbitals:
       Occupied  (A) (A) (A) (A) (A) (A) (A) (A) (A) (A) (A) (A)
                 (A) (A) (A) (A) (A) (A) (A) (A) (A) (A) (A) (A)
       Virtual   (A) (A) (A) (A) (A) (A) (A) (A) (A) (A) (A) (A)
                 (A) (A) (A) (A) (A) (A) (A) (A) (A) (A) (A) (A)
                 (A) (A) (A) (A) (A) (A) (A) (A) (A) (A) (A) (A)
                 (A) (A) (A) (A) (A) (A) (A) (A) (A) (A) (A) (A)
                 (A) (A) (A) (A) (A) (A) (A) (A) (A) (A) (A) (A)
                 (A) (A) (A) (A) (A) (A) (A) (A) (A) (A) (A) (A)
                 (A) (A) (A) (A) (A) (A) (A) (A) (A) (A) (A) (A)
                 (A) (A) (A) (A) (A) (A) (A) (A)
 The electronic state is 2-A.
 Alpha  occ. eigenvalues --  -10.20005 -10.19417 -10.18041 -10.17185 -10.17141
 Alpha  occ. eigenvalues --  -10.17141  -0.82264  -0.72875  -0.68214  -0.68204
 Alpha  occ. eigenvalues --   -0.61297  -0.52736  -0.45633  -0.45161  -0.43268
 Alpha  occ. eigenvalues --   -0.42304  -0.39287  -0.37638  -0.36262  -0.35839
 Alpha  occ. eigenvalues --   -0.34453  -0.33448  -0.31633  -0.31511  -0.22657
 Alpha virt. eigenvalues --    0.07728   0.12320   0.13143   0.13481   0.13967
 Alpha virt. eigenvalues --    0.14757   0.16414   0.17435   0.19190   0.20145
 Alpha virt. eigenvalues --    0.20258   0.22287   0.22333   0.24171   0.24182
 Alpha virt. eigenvalues --    0.25840   0.25870   0.27600   0.49801   0.50438
 Alpha virt. eigenvalues --    0.51142   0.51682   0.52232   0.57952   0.60808
 Alpha virt. eigenvalues --    0.61951   0.62520   0.65184   0.70117   0.71186
 Alpha virt. eigenvalues --    0.71416   0.74529   0.77499   0.85924   0.86986
 Alpha virt. eigenvalues --    0.87813   0.89953   0.90123   0.90792   0.91097
 Alpha virt. eigenvalues --    0.92545   0.92931   0.94105   0.95855   0.96292
 Alpha virt. eigenvalues --    0.96422   0.98970   0.99692   1.00853   1.04187
 Alpha virt. eigenvalues --    1.20543   1.39054   1.39852   1.48365   1.50482
 Alpha virt. eigenvalues --    1.53626   1.62019   1.67754   1.69841   1.72779
 Alpha virt. eigenvalues --    1.79363   1.86710   1.87580   1.92597   1.92989
 Alpha virt. eigenvalues --    1.95758   1.97208   2.08618   2.09834   2.09937
 Alpha virt. eigenvalues --    2.11565   2.19853   2.24746   2.25028   2.26913
 Alpha virt. eigenvalues --    2.26969   2.28853   2.30348   2.35803   2.48523
 Alpha virt. eigenvalues --    2.57804   2.68550   2.71128   2.73288   2.75445
 Alpha virt. eigenvalues --    4.08596   4.22015   4.30990   4.31011   4.42246
 Alpha virt. eigenvalues --    4.66686
  Beta  occ. eigenvalues --  -10.19873 -10.18082 -10.17975 -10.17179 -10.17140
  Beta  occ. eigenvalues --  -10.17140  -0.81953  -0.71445  -0.68184  -0.68179
  Beta  occ. eigenvalues --   -0.59458  -0.52456  -0.45384  -0.44806  -0.43084
  Beta  occ. eigenvalues --   -0.41948  -0.39090  -0.37453  -0.36250  -0.35443
  Beta  occ. eigenvalues --   -0.34104  -0.32389  -0.31510  -0.31223
  Beta virt. eigenvalues --   -0.06186   0.07949   0.12802   0.13259   0.13539
  Beta virt. eigenvalues --    0.14282   0.14885   0.16481   0.17458   0.19496
  Beta virt. eigenvalues --    0.20564   0.20571   0.22367   0.22437   0.24370
  Beta virt. eigenvalues --    0.24662   0.25994   0.26862   0.28511   0.50584
  Beta virt. eigenvalues --    0.50852   0.51172   0.51867   0.52976   0.60614
  Beta virt. eigenvalues --    0.61311   0.62098   0.63652   0.67900   0.70655
  Beta virt. eigenvalues --    0.71522   0.72062   0.74635   0.77801   0.86137
  Beta virt. eigenvalues --    0.87167   0.87852   0.90103   0.90445   0.90853
  Beta virt. eigenvalues --    0.91471   0.92633   0.93060   0.94453   0.95917
  Beta virt. eigenvalues --    0.96415   0.96761   0.99414   1.00101   1.01351
  Beta virt. eigenvalues --    1.04924   1.21966   1.39728   1.40238   1.48391
  Beta virt. eigenvalues --    1.50608   1.54819   1.63589   1.68392   1.70440
  Beta virt. eigenvalues --    1.72796   1.80532   1.86823   1.87768   1.94003
  Beta virt. eigenvalues --    1.95692   1.97844   2.01024   2.08888   2.09886
  Beta virt. eigenvalues --    2.11014   2.11632   2.21012   2.24782   2.25061
  Beta virt. eigenvalues --    2.26944   2.27024   2.30487   2.30612   2.37408
  Beta virt. eigenvalues --    2.49442   2.57935   2.69038   2.71266   2.73734
  Beta virt. eigenvalues --    2.76165   4.10389   4.23324   4.31019   4.31026
  Beta virt. eigenvalues --    4.42928   4.66863
          Condensed to atoms (all electrons):
               1          2          3          4          5          6
     1  C    5.152796   0.366168   0.366168   0.364754   0.385527  -0.056088
     2  H    0.366168   0.580684  -0.030529  -0.030441  -0.029646  -0.005019
     3  H    0.366168  -0.030529   0.580683  -0.030441  -0.029646  -0.005019
     4  H    0.364754  -0.030441  -0.030441   0.580692  -0.027773   0.005154
     5  C    0.385527  -0.029646  -0.029646  -0.027773   4.741869   0.377923
     6  C   -0.056088  -0.005019  -0.005019   0.005154   0.377923   5.054497
     7  H   -0.005715  -0.000258   0.005354  -0.000034  -0.034389   0.363430
     8  H   -0.005715   0.005354  -0.000258  -0.000034  -0.034389   0.363430
     9  C    0.004546   0.000010   0.000010  -0.000152  -0.039931   0.385632
    10  H   -0.000011  -0.000006   0.000003   0.000004  -0.003726  -0.042903
    11  H   -0.000011   0.000003  -0.000006   0.000004  -0.003726  -0.042902
    12  C   -0.062098   0.005861  -0.004894  -0.004776   0.386010  -0.057481
    13  H    0.005705  -0.000192  -0.000043  -0.000056  -0.028399  -0.005384
    14  H   -0.004628  -0.000064   0.003947  -0.000131  -0.029743  -0.004638
    15  H   -0.005627  -0.000019  -0.000135   0.004320  -0.029164   0.005387
    16  C   -0.062098  -0.004894   0.005862  -0.004776   0.386010  -0.057481
    17  H   -0.005627  -0.000135  -0.000019   0.004320  -0.029164   0.005387
    18  H   -0.004628   0.003947  -0.000064  -0.000131  -0.029743  -0.004638
    19  H    0.005705  -0.000043  -0.000192  -0.000056  -0.028399  -0.005384
               7          8          9         10         11         12
     1  C   -0.005715  -0.005715   0.004546  -0.000011  -0.000011  -0.062098
     2  H   -0.000258   0.005354   0.000010  -0.000006   0.000003   0.005861
     3  H    0.005354  -0.000258   0.000010   0.000003  -0.000006  -0.004894
     4  H   -0.000034  -0.000034  -0.000152   0.000004   0.000004  -0.004776
     5  C   -0.034389  -0.034389  -0.039931  -0.003726  -0.003726   0.386010
     6  C    0.363430   0.363430   0.385632  -0.042903  -0.042902  -0.057481
     7  H    0.611590  -0.037557  -0.038490   0.005302  -0.005347  -0.007150
     8  H   -0.037557   0.611589  -0.038490  -0.005346   0.005302   0.006321
     9  C   -0.038490  -0.038490   5.301553   0.362783   0.362783  -0.007196
    10  H    0.005302  -0.005346   0.362783   0.589449  -0.046974  -0.000539
    11  H   -0.005347   0.005302   0.362783  -0.046974   0.589448   0.003436
    12  C   -0.007150   0.006321  -0.007196  -0.000539   0.003436   5.154256
    13  H   -0.000060  -0.000039   0.003245   0.000177   0.002675   0.365808
    14  H    0.004666  -0.000038  -0.000199   0.000052   0.000233   0.366396
    15  H   -0.000072  -0.000177   0.000213  -0.000017  -0.000078   0.366921
    16  C    0.006321  -0.007150  -0.007196   0.003436  -0.000538  -0.064550
    17  H   -0.000177  -0.000072   0.000213  -0.000078  -0.000017  -0.004492
    18  H   -0.000038   0.004666  -0.000199   0.000233   0.000052   0.005764
    19  H   -0.000039  -0.000060   0.003245   0.002675   0.000177  -0.005025
              13         14         15         16         17         18
     1  C    0.005705  -0.004628  -0.005627  -0.062098  -0.005627  -0.004628
     2  H   -0.000192  -0.000064  -0.000019  -0.004894  -0.000135   0.003947
     3  H   -0.000043   0.003947  -0.000135   0.005862  -0.000019  -0.000064
     4  H   -0.000056  -0.000131   0.004320  -0.004776   0.004320  -0.000131
     5  C   -0.028399  -0.029743  -0.029164   0.386010  -0.029164  -0.029743
     6  C   -0.005384  -0.004638   0.005387  -0.057481   0.005387  -0.004638
     7  H   -0.000060   0.004666  -0.000072   0.006321  -0.000177  -0.000038
     8  H   -0.000039  -0.000038  -0.000177  -0.007150  -0.000072   0.004666
     9  C    0.003245  -0.000199   0.000213  -0.007196   0.000213  -0.000199
    10  H    0.000177   0.000052  -0.000017   0.003436  -0.000078   0.000233
    11  H    0.002675   0.000233  -0.000078  -0.000538  -0.000017   0.000052
    12  C    0.365808   0.366396   0.366921  -0.064550  -0.004492   0.005764
    13  H    0.578900  -0.031107  -0.030593  -0.005025  -0.000151  -0.000032
    14  H   -0.031107   0.581726  -0.030547   0.005764  -0.000064  -0.000194
    15  H   -0.030593  -0.030547   0.581594  -0.004492   0.003827  -0.000064
    16  C   -0.005025   0.005764  -0.004492   5.154256   0.366921   0.366396
    17  H   -0.000151  -0.000064   0.003827   0.366921   0.581593  -0.030547
    18  H   -0.000032  -0.000194  -0.000064   0.366396  -0.030547   0.581726
    19  H    0.004164  -0.000032  -0.000151   0.365808  -0.030593  -0.031107
              19
     1  C    0.005705
     2  H   -0.000043
     3  H   -0.000192
     4  H   -0.000056
     5  C   -0.028399
     6  C   -0.005384
     7  H   -0.000039
     8  H   -0.000060
     9  C    0.003245
    10  H    0.002675
    11  H    0.000177
    12  C   -0.005025
    13  H    0.004164
    14  H   -0.000032
    15  H   -0.000151
    16  C    0.365808
    17  H   -0.030593
    18  H   -0.031107
    19  H    0.578900
          Atomic-Atomic Spin Densities.
               1          2          3          4          5          6
     1  C    0.008837   0.000684   0.000684  -0.001393  -0.011797   0.000186
     2  H    0.000684   0.000231   0.000138  -0.000576  -0.000985   0.000059
     3  H    0.000684   0.000138   0.000231  -0.000576  -0.000985   0.000059
     4  H   -0.001393  -0.000576  -0.000576   0.005624   0.000958  -0.000167
     5  C   -0.011797  -0.000985  -0.000985   0.000958   0.108360   0.011948
     6  C    0.000186   0.000059   0.000059  -0.000167   0.011948  -0.055880
     7  H    0.000962   0.000066   0.000169  -0.000056  -0.007324   0.005453
     8  H    0.000962   0.000169   0.000066  -0.000056  -0.007324   0.005454
     9  C    0.001365   0.000045   0.000045  -0.000065  -0.024730  -0.026525
    10  H    0.000058   0.000004   0.000001  -0.000002  -0.001701   0.000569
    11  H    0.000058   0.000001   0.000004  -0.000002  -0.001701   0.000569
    12  C    0.001222   0.000029   0.000170  -0.000264  -0.003022   0.001341
    13  H    0.000207   0.000004   0.000012  -0.000044  -0.001141  -0.000540
    14  H    0.000256   0.000004   0.000035  -0.000050  -0.000785   0.000088
    15  H   -0.000135  -0.000002  -0.000008  -0.000005   0.000193  -0.000171
    16  C    0.001222   0.000170   0.000029  -0.000264  -0.003021   0.001341
    17  H   -0.000135  -0.000008  -0.000002  -0.000005   0.000193  -0.000171
    18  H    0.000256   0.000035   0.000004  -0.000050  -0.000785   0.000088
    19  H    0.000207   0.000012   0.000004  -0.000044  -0.001141  -0.000540
               7          8          9         10         11         12
     1  C    0.000962   0.000962   0.001365   0.000058   0.000058   0.001222
     2  H    0.000066   0.000169   0.000045   0.000004   0.000001   0.000029
     3  H    0.000169   0.000066   0.000045   0.000001   0.000004   0.000170
     4  H   -0.000056  -0.000056  -0.000065  -0.000002  -0.000002  -0.000264
     5  C   -0.007324  -0.007324  -0.024730  -0.001701  -0.001701  -0.003022
     6  C    0.005453   0.005454  -0.026525   0.000569   0.000569   0.001341
     7  H    0.008739   0.001423  -0.003942   0.000072   0.000990   0.000258
     8  H    0.001423   0.008740  -0.003942   0.000990   0.000072   0.000069
     9  C   -0.003942  -0.003942   1.116999  -0.010926  -0.010926  -0.001803
    10  H    0.000072   0.000990  -0.010926  -0.027458   0.005775  -0.000058
    11  H    0.000990   0.000072  -0.010926   0.005775  -0.027458  -0.000352
    12  C    0.000258   0.000069  -0.001803  -0.000058  -0.000352   0.004215
    13  H    0.000119   0.000034   0.002949   0.000165   0.000915  -0.001858
    14  H    0.000121   0.000010   0.000280   0.000006   0.000070  -0.000310
    15  H    0.000003   0.000000  -0.000027   0.000001  -0.000010   0.000970
    16  C    0.000069   0.000258  -0.001803  -0.000352  -0.000058   0.000435
    17  H    0.000000   0.000003  -0.000027  -0.000010   0.000001   0.000147
    18  H    0.000010   0.000121   0.000280   0.000070   0.000006  -0.000016
    19  H    0.000034   0.000119   0.002949   0.000915   0.000165  -0.000147
              13         14         15         16         17         18
     1  C    0.000207   0.000256  -0.000135   0.001222  -0.000135   0.000256
     2  H    0.000004   0.000004  -0.000002   0.000170  -0.000008   0.000035
     3  H    0.000012   0.000035  -0.000008   0.000029  -0.000002   0.000004
     4  H   -0.000044  -0.000050  -0.000005  -0.000264  -0.000005  -0.000050
     5  C   -0.001141  -0.000785   0.000193  -0.003021   0.000193  -0.000785
     6  C   -0.000540   0.000088  -0.000171   0.001341  -0.000171   0.000088
     7  H    0.000119   0.000121   0.000003   0.000069   0.000000   0.000010
     8  H    0.000034   0.000010   0.000000   0.000258   0.000003   0.000121
     9  C    0.002949   0.000280  -0.000027  -0.001803  -0.000027   0.000280
    10  H    0.000165   0.000006   0.000001  -0.000352  -0.000010   0.000070
    11  H    0.000915   0.000070  -0.000010  -0.000058   0.000001   0.000006
    12  C   -0.001858  -0.000310   0.000970   0.000435   0.000147  -0.000016
    13  H    0.000263   0.000356  -0.000317  -0.000147  -0.000040   0.000012
    14  H    0.000356   0.000366  -0.000006  -0.000016   0.000001   0.000001
    15  H   -0.000317  -0.000006  -0.001101   0.000147  -0.000083   0.000001
    16  C   -0.000147  -0.000016   0.000147   0.004215   0.000970  -0.000310
    17  H   -0.000040   0.000001  -0.000083   0.000970  -0.001101  -0.000006
    18  H    0.000012   0.000001   0.000001  -0.000310  -0.000006   0.000366
    19  H    0.000198   0.000012  -0.000040  -0.001858  -0.000317   0.000356
              19
     1  C    0.000207
     2  H    0.000012
     3  H    0.000004
     4  H   -0.000044
     5  C   -0.001141
     6  C   -0.000540
     7  H    0.000034
     8  H    0.000119
     9  C    0.002949
    10  H    0.000915
    11  H    0.000165
    12  C   -0.000147
    13  H    0.000198
    14  H    0.000012
    15  H   -0.000040
    16  C   -0.001858
    17  H   -0.000317
    18  H    0.000356
    19  H    0.000263
 Mulliken charges and spin densities:
               1          2
     1  C   -0.439123   0.003706
     2  H    0.139219   0.000077
     3  H    0.139220   0.000077
     4  H    0.139552   0.002963
     5  C    0.100497   0.055208
     6  C   -0.273905  -0.056841
     7  H    0.132661   0.007167
     8  H    0.132662   0.007168
     9  C   -0.292381   1.040195
    10  H    0.135486  -0.031883
    11  H    0.135487  -0.031882
    12  C   -0.442573   0.001029
    13  H    0.140408   0.001146
    14  H    0.138600   0.000438
    15  H    0.138876  -0.000590
    16  C   -0.442572   0.001029
    17  H    0.138877  -0.000590
    18  H    0.138600   0.000438
    19  H    0.140408   0.001146
 Sum of Mulliken charges =   0.00000   1.00000
 Mulliken charges and spin densities with hydrogens summed into heavy atoms:
               1          2
     1  C   -0.021132   0.006823
     5  C    0.100497   0.055208
     6  C   -0.008581  -0.042505
     9  C   -0.021408   0.976430
    12  C   -0.024688   0.002022
    16  C   -0.024688   0.002022
 Electronic spatial extent (au):  <R**2>=            670.0056
 Charge=              0.0000 electrons
 Dipole moment (field-independent basis, Debye):
    X=             -0.6989    Y=              0.0000    Z=             -0.3159  Tot=              0.7670
 Quadrupole moment (field-independent basis, Debye-Ang):
   XX=            -43.5289   YY=            -40.5680   ZZ=            -40.9586
   XY=              0.0000   XZ=             -1.0420   YZ=              0.0000
 Traceless Quadrupole moment (field-independent basis, Debye-Ang):
   XX=             -1.8437   YY=              1.1172   ZZ=              0.7265
   XY=              0.0000   XZ=             -1.0420   YZ=              0.0000
 Octapole moment (field-independent basis, Debye-Ang**2):
  XXX=            -12.1836  YYY=             -0.0001  ZZZ=             -0.5717  XYY=              0.2902
  XXY=             -0.0001  XXZ=             -5.4184  XZZ=             -0.7334  YZZ=              0.0001
  YYZ=              1.8420  XYZ=              0.0000
 Hexadecapole moment (field-independent basis, Debye-Ang**3):
 XXXX=           -493.3193 YYYY=           -237.5304 ZZZZ=           -238.7948 XXXY=             -0.0003
 XXXZ=             -6.2495 YYYX=             -0.0001 YYYZ=              0.0000 ZZZX=             -1.8539
 ZZZY=              0.0000 XXYY=           -116.2153 XXZZ=           -116.7144 YYZZ=            -78.3917
 XXYZ=              0.0000 YYXZ=             -2.2965 ZZXY=              0.0000
 N-N= 2.553303295486D+02 E-N=-1.056132388918D+03  KE= 2.339760380185D+02
                          Isotropic Fermi Contact Couplings
        Atom                 a.u.       MegaHertz       Gauss      10(-4) cm-1
     1  C(13)             -0.00021      -0.23392      -0.08347      -0.07803
     2  H(1)               0.00001       0.02237       0.00798       0.00746
     3  H(1)               0.00001       0.02238       0.00799       0.00747
     4  H(1)               0.00140       6.25936       2.23350       2.08790
     5  C(13)              0.04362      49.03836      17.49810      16.35744
     6  C(13)             -0.01368     -15.37410      -5.48586      -5.12825
     7  H(1)               0.00435      19.44609       6.93885       6.48652
     8  H(1)               0.00435      19.44816       6.93959       6.48721
     9  C(13)              0.30881     347.16018     123.87538     115.80017
    10  H(1)              -0.00484     -21.64354      -7.72295      -7.21951
    11  H(1)              -0.00484     -21.64340      -7.72290      -7.21946
    12  C(13)             -0.00053      -0.60018      -0.21416      -0.20020
    13  H(1)               0.00001       0.03310       0.01181       0.01104
    14  H(1)               0.00007       0.33114       0.11816       0.11045
    15  H(1)              -0.00011      -0.47651      -0.17003      -0.15895
    16  C(13)             -0.00053      -0.60026      -0.21419      -0.20023
    17  H(1)              -0.00011      -0.47643      -0.17000      -0.15892
    18  H(1)               0.00007       0.33116       0.11817       0.11046
    19  H(1)               0.00001       0.03302       0.01178       0.01101
 --------------------------------------------------------
       Center         ----  Spin Dipole Couplings  ----
                      3XX-RR        3YY-RR        3ZZ-RR
 --------------------------------------------------------
     1   Atom        0.009168     -0.006174     -0.002994
     2   Atom        0.002763     -0.001833     -0.000930
     3   Atom        0.002763     -0.001833     -0.000930
     4   Atom        0.003207     -0.002199     -0.001008
     5   Atom        0.057854     -0.042344     -0.015510
     6   Atom        0.040602     -0.022077     -0.018525
     7   Atom        0.006296     -0.005787     -0.000508
     8   Atom        0.006296     -0.005788     -0.000508
     9   Atom        0.265970     -0.474526      0.208556
    10   Atom       -0.028468      0.028154      0.000314
    11   Atom       -0.028468      0.028156      0.000312
    12   Atom        0.005060     -0.003729     -0.001331
    13   Atom        0.001817     -0.002342      0.000525
    14   Atom        0.001625      0.001544     -0.003169
    15   Atom        0.002158     -0.001421     -0.000737
    16   Atom        0.005060     -0.003729     -0.001331
    17   Atom        0.002158     -0.001421     -0.000737
    18   Atom        0.001625      0.001544     -0.003169
    19   Atom        0.001817     -0.002342      0.000525
 --------------------------------------------------------
                        XY            XZ            YZ
 --------------------------------------------------------
     1   Atom        0.000000     -0.006679      0.000000
     2   Atom       -0.001308     -0.002078      0.001117
     3   Atom        0.001308     -0.002078     -0.001117
     4   Atom        0.000000      0.000113      0.000000
     5   Atom        0.000000      0.048960      0.000000
     6   Atom        0.000001     -0.003547      0.000000
     7   Atom        0.009160     -0.011402     -0.007253
     8   Atom       -0.009160     -0.011402      0.007253
     9   Atom        0.000012      0.715182      0.000012
    10   Atom        0.019573      0.014403     -0.054965
    11   Atom       -0.019574      0.014403      0.054965
    12   Atom        0.003498      0.000707      0.002980
    13   Atom        0.004884      0.005443      0.005081
    14   Atom        0.004157      0.000959      0.001009
    15   Atom        0.001654      0.002116      0.001393
    16   Atom       -0.003497      0.000707     -0.002980
    17   Atom       -0.001654      0.002116     -0.001393
    18   Atom       -0.004156      0.000959     -0.001009
    19   Atom       -0.004884      0.005443     -0.005081
 --------------------------------------------------------


 ---------------------------------------------------------------------------------
              Anisotropic Spin Dipole Couplings in Principal Axis System
 ---------------------------------------------------------------------------------

       Atom             a.u.   MegaHertz   Gauss  10(-4) cm-1        Axes

              Baa    -0.0062    -0.828    -0.296    -0.276  0.0000  1.0000  0.0000
     1 C(13)  Bbb    -0.0059    -0.798    -0.285    -0.266  0.4042  0.0000  0.9147
              Bcc     0.0121     1.626     0.580     0.542  0.9147  0.0000 -0.4042
 
              Baa    -0.0026    -1.381    -0.493    -0.461 -0.0271  0.8131 -0.5816
     2 H(1)   Bbb    -0.0016    -0.836    -0.298    -0.279  0.4923  0.5172  0.7001
              Bcc     0.0042     2.217     0.791     0.739  0.8700 -0.2673 -0.4142
 
              Baa    -0.0026    -1.381    -0.493    -0.461  0.0271  0.8130  0.5816
     3 H(1)   Bbb    -0.0016    -0.836    -0.298    -0.279  0.4923 -0.5172  0.7001
              Bcc     0.0042     2.217     0.791     0.739  0.8700  0.2673 -0.4142
 
              Baa    -0.0022    -1.173    -0.419    -0.391  0.0000  1.0000  0.0000
     4 H(1)   Bbb    -0.0010    -0.539    -0.192    -0.180 -0.0268  0.0000  0.9996
              Bcc     0.0032     1.713     0.611     0.571  0.9996  0.0000  0.0268
 
              Baa    -0.0423    -5.682    -2.028    -1.895  0.0000  1.0000  0.0000
     5 C(13)  Bbb    -0.0400    -5.368    -1.916    -1.791 -0.4474  0.0000  0.8943
              Bcc     0.0823    11.051     3.943     3.686  0.8943  0.0000  0.4474
 
              Baa    -0.0221    -2.963    -1.057    -0.988  0.0000  1.0000 -0.0001
     6 C(13)  Bbb    -0.0187    -2.514    -0.897    -0.839  0.0597  0.0001  0.9982
              Bcc     0.0408     5.477     1.954     1.827  0.9982  0.0000 -0.0597
 
              Baa    -0.0111    -5.927    -2.115    -1.977 -0.2384  0.9018  0.3605
     7 H(1)   Bbb    -0.0090    -4.780    -1.706    -1.595  0.6430 -0.1317  0.7545
              Bcc     0.0201    10.707     3.821     3.572  0.7278  0.4117 -0.5484
 
              Baa    -0.0111    -5.927    -2.115    -1.977  0.2384  0.9018 -0.3605
     8 H(1)   Bbb    -0.0090    -4.780    -1.706    -1.595  0.6430  0.1317  0.7545
              Bcc     0.0201    10.707     3.821     3.572  0.7278 -0.4117 -0.5484
 
              Baa    -0.4785   -64.209   -22.912   -21.418 -0.6928  0.0000  0.7211
     9 C(13)  Bbb    -0.4745   -63.677   -22.721   -21.240  0.0000  1.0000  0.0000
              Bcc     0.9530   127.886    45.633    42.658  0.7211  0.0000  0.6928
 
              Baa    -0.0600   -32.013   -11.423   -10.678 -0.5996  0.5151  0.6126
    10 H(1)   Bbb    -0.0114    -6.079    -2.169    -2.028  0.7973  0.3182  0.5129
              Bcc     0.0714    38.092    13.592    12.706  0.0693  0.7959 -0.6014
 
              Baa    -0.0600   -32.013   -11.423   -10.678 -0.5995 -0.5151  0.6126
    11 H(1)   Bbb    -0.0114    -6.079    -2.169    -2.028  0.7973 -0.3182  0.5129
              Bcc     0.0714    38.092    13.592    12.706 -0.0693  0.7959  0.6014
 
              Baa    -0.0063    -0.851    -0.304    -0.284 -0.2315  0.8500 -0.4731
    12 C(13)  Bbb    -0.0003    -0.042    -0.015    -0.014 -0.3583  0.3776  0.8538
              Bcc     0.0066     0.892     0.318     0.298  0.9045  0.3671  0.2172
 
              Baa    -0.0063    -3.364    -1.200    -1.122 -0.1885  0.8540 -0.4850
    13 H(1)   Bbb    -0.0042    -2.239    -0.799    -0.747  0.7418 -0.1999 -0.6401
              Bcc     0.0105     5.603     1.999     1.869  0.6436  0.4804  0.5958
 
              Baa    -0.0034    -1.805    -0.644    -0.602 -0.0707 -0.1426  0.9873
    14 H(1)   Bbb    -0.0026    -1.371    -0.489    -0.457  0.7088 -0.7036 -0.0508
              Bcc     0.0060     3.177     1.133     1.060  0.7019  0.6961  0.1508
 
              Baa    -0.0025    -1.341    -0.478    -0.447  0.0023  0.7855 -0.6188
    15 H(1)   Bbb    -0.0016    -0.841    -0.300    -0.281 -0.5838  0.5034  0.6370
              Bcc     0.0041     2.182     0.779     0.728  0.8119  0.3598  0.4598
 
              Baa    -0.0063    -0.851    -0.304    -0.284  0.2314  0.8500  0.4731
    16 C(13)  Bbb    -0.0003    -0.042    -0.015    -0.014 -0.3583 -0.3777  0.8538
              Bcc     0.0066     0.892     0.318     0.298  0.9044 -0.3672  0.2172
 
              Baa    -0.0025    -1.341    -0.478    -0.447 -0.0023  0.7855  0.6188
    17 H(1)   Bbb    -0.0016    -0.841    -0.300    -0.281 -0.5838 -0.5034  0.6369
              Bcc     0.0041     2.182     0.779     0.728  0.8119 -0.3598  0.4597
 
              Baa    -0.0034    -1.805    -0.644    -0.602 -0.0707  0.1425  0.9873
    18 H(1)   Bbb    -0.0026    -1.371    -0.489    -0.457  0.7088  0.7036 -0.0508
              Bcc     0.0060     3.176     1.133     1.060  0.7019 -0.6961  0.1508
 
              Baa    -0.0063    -3.364    -1.200    -1.122  0.1884  0.8539  0.4850
    19 H(1)   Bbb    -0.0042    -2.239    -0.799    -0.747  0.7418  0.1999 -0.6401
              Bcc     0.0105     5.603     1.999     1.869  0.6436 -0.4804  0.5958
 

 ---------------------------------------------------------------------------------

 No NMR shielding tensors so no spin-rotation constants.
 Leave Link  601 at Sat Nov  7 02:13:39 2015, MaxMem=   805306368 cpu:         1.2
 (Enter /home/hetanjin/apps/g09D01/g09/l701.exe)
 Compute integral first derivatives.
 ... and contract with generalized density number  0.
 Leave Link  701 at Sat Nov  7 02:13:39 2015, MaxMem=   805306368 cpu:         0.6
 (Enter /home/hetanjin/apps/g09D01/g09/l702.exe)
 L702 exits ... SP integral derivatives will be done elsewhere.
 Leave Link  702 at Sat Nov  7 02:13:39 2015, MaxMem=   805306368 cpu:         0.0
 (Enter /home/hetanjin/apps/g09D01/g09/l703.exe)
 Compute integral first derivatives, UseDBF=F ICtDFT=           0.
 Integral derivatives from FoFJK, PRISM(SPDF).
 Calling FoFJK, ICntrl=      2127 FMM=F ISym2X=0 I1Cent= 0 IOpClX= 1 NMat=1 NMatS=1 NMatT=0.
 FoFJK:  IHMeth= 1 ICntrl=    2127 DoSepK=F KAlg= 0 I1Cent=   0 FoldK=F
 IRaf=         0 NMat=   1 IRICut=       1 DoRegI=T DoRafI=F ISym2E= 0.
 FoFCou: FMM=F IPFlag=           0 FMFlag=      100000 FMFlg1=         800
         NFxFlg=           0 DoJE=F BraDBF=F KetDBF=F FulRan=T
         wScrn=  0.000000 ICntrl=    2127 IOpCl=  1 I1Cent=           0 NGrid=           0
         NMat0=    1 NMatS0=      1 NMatT0=    0 NMatD0=    1 NMtDS0=    0 NMtDT0=    0
 Symmetry not used in FoFCou.
 Leave Link  703 at Sat Nov  7 02:13:48 2015, MaxMem=   805306368 cpu:        34.7
 (Enter /home/hetanjin/apps/g09D01/g09/l716.exe)
 Dipole        =-2.74978421D-01-2.55716910D-06-1.24277909D-01
 ***** Axes restored to original set *****
 -------------------------------------------------------------------
 Center     Atomic                   Forces (Hartrees/Bohr)
 Number     Number              X              Y              Z
 -------------------------------------------------------------------
      1        6          -0.000796328    0.001419624    0.000000303
      2        1           0.000007871   -0.000079394   -0.000083194
      3        1           0.000007873   -0.000079150    0.000082861
      4        1          -0.000386083   -0.000431003   -0.000000036
      5        6           0.004253106   -0.005558795    0.000000182
      6        6          -0.022638529    0.009373074   -0.000001118
      7        1           0.000996194   -0.000112495   -0.000379585
      8        1           0.000996239   -0.000111958    0.000380426
      9        6           0.041863358   -0.021932250    0.000000507
     10        1          -0.012109361    0.008623077    0.003881982
     11        1          -0.012109421    0.008622627   -0.003882472
     12        6           0.000006708   -0.000105319   -0.000509390
     13        1          -0.000012284    0.000070222    0.000098111
     14        1          -0.000017164   -0.000047907    0.000088413
     15        1          -0.000019732    0.000216334    0.000139897
     16        6           0.000005883   -0.000105325    0.000509448
     17        1          -0.000019163    0.000216148   -0.000139897
     18        1          -0.000017169   -0.000048041   -0.000088317
     19        1          -0.000011998    0.000070531   -0.000098119
 -------------------------------------------------------------------
 Cartesian Forces:  Max     0.041863358 RMS     0.007678942
 Leave Link  716 at Sat Nov  7 02:13:48 2015, MaxMem=   805306368 cpu:         0.1
 (Enter /home/hetanjin/apps/g09D01/g09/l103.exe)

 GradGradGradGradGradGradGradGradGradGradGradGradGradGradGradGradGradGrad
 Berny optimization.
 FormGI is forming the generalized inverse of G from B-inverse, IUseBI=4.
 Internal  Forces:  Max     0.013448415 RMS     0.003380142
 Search for a local minimum.
 Step number   1 out of a maximum of  103
 All quantities printed in internal units (Hartrees-Bohrs-Radians)
 RMS Force = .33801D-02 SwitMx=.10000D-02 MixMth= 1
 Mixed Optimization -- RFO/linear search
 Second derivative matrix not updated -- first step.
 ITU=  0
     Eigenvalues ---    0.00230   0.00230   0.00230   0.00230   0.00316
     Eigenvalues ---    0.03411   0.03500   0.04397   0.04896   0.04922
     Eigenvalues ---    0.05229   0.05319   0.05319   0.05397   0.05404
     Eigenvalues ---    0.05447   0.05447   0.09922   0.13242   0.14244
     Eigenvalues ---    0.14513   0.16000   0.16000   0.16000   0.16000
     Eigenvalues ---    0.16000   0.16000   0.16000   0.16000   0.16000
     Eigenvalues ---    0.16000   0.16000   0.22005   0.27481   0.28370
     Eigenvalues ---    0.28418   0.28418   0.29059   0.33721   0.33721
     Eigenvalues ---    0.33969   0.33969   0.33990   0.33990   0.34015
     Eigenvalues ---    0.34017   0.34017   0.34156   0.34156   0.34166
     Eigenvalues ---    0.34166
 RFO step:  Lambda=-1.46915137D-02 EMin= 2.30000000D-03
 Linear search not attempted -- first point.
 Iteration  1 RMS(Cart)=  0.05416352 RMS(Int)=  0.00948129
 Iteration  2 RMS(Cart)=  0.00736573 RMS(Int)=  0.00616214
 Iteration  3 RMS(Cart)=  0.00012591 RMS(Int)=  0.00616145
 Iteration  4 RMS(Cart)=  0.00000278 RMS(Int)=  0.00616145
 Iteration  5 RMS(Cart)=  0.00000009 RMS(Int)=  0.00616145
 ITry= 1 IFail=0 DXMaxC= 2.80D-01 DCOld= 1.00D+10 DXMaxT= 3.00D-01 DXLimC= 3.00D+00 Rises=F
 Variable       Old X    -DE/DX   Delta X   Delta X   Delta X     New X
                                 (Linear)    (Quad)   (Total)
    R1        2.07346  -0.00011   0.00000  -0.00032  -0.00032   2.07314
    R2        2.07346  -0.00011   0.00000  -0.00032  -0.00032   2.07314
    R3        2.07305  -0.00013   0.00000  -0.00036  -0.00036   2.07269
    R4        2.91336  -0.00036   0.00000  -0.00121  -0.00121   2.91215
    R5        2.93287   0.00491   0.00000   0.01697   0.01697   2.94984
    R6        2.91234   0.00007   0.00000   0.00024   0.00024   2.91258
    R7        2.91234   0.00007   0.00000   0.00024   0.00024   2.91258
    R8        2.07803   0.00025   0.00000   0.00070   0.00070   2.07873
    R9        2.07803   0.00025   0.00000   0.00070   0.00070   2.07873
   R10        2.89880  -0.01271   0.00000  -0.04164  -0.04164   2.85716
   R11        2.07051  -0.00084   0.00000  -0.00235  -0.00235   2.06816
   R12        2.07051  -0.00084   0.00000  -0.00235  -0.00235   2.06816
   R13        2.07067  -0.00004   0.00000  -0.00012  -0.00012   2.07055
   R14        2.07382  -0.00010   0.00000  -0.00028  -0.00028   2.07354
   R15        2.07301  -0.00013   0.00000  -0.00035  -0.00035   2.07265
   R16        2.07301  -0.00013   0.00000  -0.00035  -0.00035   2.07265
   R17        2.07382  -0.00010   0.00000  -0.00028  -0.00028   2.07354
   R18        2.07067  -0.00004   0.00000  -0.00012  -0.00012   2.07055
    A1        1.87988  -0.00001   0.00000   0.00095   0.00095   1.88083
    A2        1.88010   0.00030   0.00000   0.00122   0.00122   1.88132
    A3        1.94072   0.00015   0.00000   0.00111   0.00110   1.94182
    A4        1.88010   0.00030   0.00000   0.00122   0.00122   1.88132
    A5        1.94072   0.00015   0.00000   0.00111   0.00110   1.94182
    A6        1.93954  -0.00085   0.00000  -0.00541  -0.00541   1.93413
    A7        1.88414  -0.00082   0.00000  -0.00830  -0.00830   1.87584
    A8        1.89923   0.00025   0.00000   0.00132   0.00132   1.90055
    A9        1.89923   0.00025   0.00000   0.00132   0.00132   1.90055
   A10        1.93449   0.00026   0.00000   0.00185   0.00184   1.93633
   A11        1.93449   0.00026   0.00000   0.00185   0.00184   1.93633
   A12        1.91142  -0.00020   0.00000   0.00183   0.00182   1.91324
   A13        1.88615   0.00009   0.00000  -0.00346  -0.00344   1.88272
   A14        1.88616   0.00009   0.00000  -0.00347  -0.00344   1.88271
   A15        2.04055  -0.00303   0.00000  -0.01420  -0.01420   2.02635
   A16        1.84789  -0.00009   0.00000   0.00450   0.00444   1.85233
   A17        1.89691   0.00158   0.00000   0.00911   0.00905   1.90596
   A18        1.89691   0.00158   0.00000   0.00911   0.00905   1.90596
   A19        1.95529   0.01345   0.00000   0.14783   0.11704   2.07233
   A20        1.95528   0.01345   0.00000   0.14783   0.11704   2.07232
   A21        1.88042  -0.00093   0.00000   0.12247   0.08503   1.96545
   A22        1.95325  -0.00010   0.00000  -0.00052  -0.00052   1.95273
   A23        1.94002   0.00006   0.00000   0.00034   0.00034   1.94036
   A24        1.93250  -0.00028   0.00000  -0.00167  -0.00167   1.93082
   A25        1.88195   0.00005   0.00000   0.00047   0.00047   1.88242
   A26        1.87429   0.00020   0.00000   0.00109   0.00109   1.87538
   A27        1.87869   0.00010   0.00000   0.00041   0.00041   1.87909
   A28        1.93250  -0.00028   0.00000  -0.00167  -0.00168   1.93082
   A29        1.94002   0.00006   0.00000   0.00034   0.00034   1.94036
   A30        1.95325  -0.00010   0.00000  -0.00052  -0.00052   1.95273
   A31        1.87869   0.00010   0.00000   0.00041   0.00041   1.87909
   A32        1.87429   0.00020   0.00000   0.00109   0.00109   1.87538
   A33        1.88195   0.00005   0.00000   0.00047   0.00047   1.88242
    D1        1.04736   0.00009   0.00000   0.00134   0.00134   1.04871
    D2       -3.13510   0.00007   0.00000  -0.00053  -0.00052  -3.13562
    D3       -1.05336   0.00011   0.00000   0.00321   0.00321  -1.05015
    D4       -1.04737  -0.00009   0.00000  -0.00134  -0.00134  -1.04872
    D5        1.05335  -0.00011   0.00000  -0.00321  -0.00321   1.05014
    D6        3.13509  -0.00007   0.00000   0.00053   0.00053   3.13561
    D7        3.14159   0.00000   0.00000   0.00000   0.00000   3.14159
    D8       -1.04087  -0.00002   0.00000  -0.00187  -0.00187  -1.04274
    D9        1.04086   0.00002   0.00000   0.00187   0.00187   1.04273
   D10        0.99614   0.00000   0.00000   0.00088   0.00086   0.99699
   D11       -0.99615   0.00000   0.00000  -0.00088  -0.00086  -0.99701
   D12        3.14159   0.00000   0.00000   0.00000   0.00000   3.14159
   D13       -1.08232   0.00005   0.00000   0.00330   0.00328  -1.07904
   D14       -3.07460   0.00006   0.00000   0.00155   0.00157  -3.07304
   D15        1.06313   0.00005   0.00000   0.00242   0.00243   1.06555
   D16        3.07459  -0.00006   0.00000  -0.00155  -0.00157   3.07303
   D17        1.08231  -0.00005   0.00000  -0.00330  -0.00328   1.07902
   D18       -1.06314  -0.00005   0.00000  -0.00242  -0.00242  -1.06557
   D19        3.09341   0.00030   0.00000   0.00237   0.00237   3.09579
   D20       -1.08437   0.00034   0.00000   0.00285   0.00285  -1.08152
   D21        1.00293   0.00031   0.00000   0.00248   0.00248   1.00541
   D22       -1.12043  -0.00039   0.00000  -0.00588  -0.00588  -1.12631
   D23        0.98498  -0.00036   0.00000  -0.00540  -0.00540   0.97958
   D24        3.07227  -0.00038   0.00000  -0.00577  -0.00577   3.06650
   D25        1.01930  -0.00002   0.00000  -0.00108  -0.00108   1.01822
   D26        3.12471   0.00001   0.00000  -0.00060  -0.00060   3.12410
   D27       -1.07118  -0.00001   0.00000  -0.00097  -0.00097  -1.07216
   D28       -1.00294  -0.00031   0.00000  -0.00248  -0.00248  -1.00541
   D29        1.08436  -0.00034   0.00000  -0.00285  -0.00285   1.08151
   D30       -3.09342  -0.00030   0.00000  -0.00237  -0.00237  -3.09579
   D31       -3.07228   0.00038   0.00000   0.00577   0.00577  -3.06651
   D32       -0.98499   0.00036   0.00000   0.00540   0.00540  -0.97959
   D33        1.12042   0.00039   0.00000   0.00588   0.00588   1.12630
   D34        1.07117   0.00001   0.00000   0.00098   0.00098   1.07215
   D35       -3.12472  -0.00001   0.00000   0.00060   0.00060  -3.12411
   D36       -1.01931   0.00002   0.00000   0.00108   0.00108  -1.01823
   D37        1.05782   0.00906   0.00000   0.18556   0.19179   1.24961
   D38       -1.05785  -0.00906   0.00000  -0.18556  -0.19179  -1.24964
   D39       -3.08547   0.00827   0.00000   0.17809   0.18426  -2.90121
   D40        1.08205  -0.00984   0.00000  -0.19304  -0.19932   0.88273
   D41       -1.08208   0.00984   0.00000   0.19304   0.19932  -0.88276
   D42        3.08544  -0.00827   0.00000  -0.17809  -0.18426   2.90118
         Item               Value     Threshold  Converged?
 Maximum Force            0.013448     0.000015     NO 
 RMS     Force            0.003380     0.000010     NO 
 Maximum Displacement     0.280130     0.000060     NO 
 RMS     Displacement     0.051182     0.000040     NO 
 Predicted change in Energy=-1.076700D-02
 Lowest energy point so far.  Saving SCF results.
 GradGradGradGradGradGradGradGradGradGradGradGradGradGradGradGradGradGrad

 Leave Link  103 at Sat Nov  7 02:13:49 2015, MaxMem=   805306368 cpu:         2.8
 (Enter /home/hetanjin/apps/g09D01/g09/l202.exe)
                          Input orientation:                          
 ---------------------------------------------------------------------
 Center     Atomic      Atomic             Coordinates (Angstroms)
 Number     Number       Type             X           Y           Z
 ---------------------------------------------------------------------
      1          6           0        1.618708    0.996331   -0.000046
      2          1           0        1.585761    1.642198    0.886130
      3          1           0        1.585761    1.642116   -0.886282
      4          1           0        2.584406    0.476292   -0.000022
      5          6           0        0.453543   -0.012233    0.000000
      6          6           0       -0.875383    0.806693   -0.000030
      7          1           0       -0.864633    1.467578   -0.879323
      8          1           0       -0.864633    1.467644    0.879213
      9          6           0       -2.153992   -0.000235   -0.000001
     10          1           0       -2.437268   -0.537214    0.910587
     11          1           0       -2.437279   -0.537261   -0.910558
     12          6           0        0.557056   -0.894448   -1.259562
     13          1           0       -0.224216   -1.662215   -1.285724
     14          1           0        0.468463   -0.293054   -2.173059
     15          1           0        1.525112   -1.408996   -1.292435
     16          6           0        0.557064   -0.894340    1.259638
     17          1           0        1.525117   -1.408892    1.292544
     18          1           0        0.468486   -0.292866    2.173084
     19          1           0       -0.224212   -1.662100    1.285876
 ---------------------------------------------------------------------
                    Distance matrix (angstroms):
                    1          2          3          4          5
     1  C    0.000000
     2  H    1.097059   0.000000
     3  H    1.097059   1.772412   0.000000
     4  H    1.096820   1.772538   1.772539   0.000000
     5  C    1.541042   2.191868   2.191868   2.186145   0.000000
     6  C    2.501290   2.746011   2.746016   3.475529   1.560989
     7  H    2.676226   3.025186   2.456613   3.694819   2.168096
     8  H    2.676231   2.456614   3.025202   3.694821   2.168096
     9  C    3.902103   4.179542   4.179542   4.762299   2.607563
    10  H    4.430796   4.575500   4.915585   5.203230   3.075965
    11  H    4.430797   4.915586   4.575492   5.203237   3.075975
    12  C    2.507694   3.478046   2.762559   2.752366   1.541271
    13  H    3.480977   4.348806   3.788691   3.756940   2.198838
    14  H    2.776250   3.788429   2.578572   3.129089   2.191180
    15  H    2.732147   3.749614   3.078623   2.519275   2.183940
    16  C    2.507694   2.762562   3.478046   2.752361   1.541271
    17  H    2.732151   3.078636   3.749615   2.519274   2.183940
    18  H    2.776245   2.578571   3.788427   3.129075   2.191180
    19  H    3.480977   3.788691   4.348806   3.756939   2.198838
                    6          7          8          9         10
     6  C    0.000000
     7  H    1.100018   0.000000
[...]
 .11631703,0.11262406,-0.00000405,0.00000209,-0.04935729,0.02506492,-0.
 01229976,0.00088772,-0.02506629,0.01230059,0.00088691,0.00000436,-0.00
 000244,0.04811223,-0.12892494,-0.04818236,0.00000214,0.00103980,0.0025
 5578,-0.00013793,0.00103989,0.00255587,0.00013771,-0.02234064,-0.01991
 433,0.00000088,0.44942514,-0.04946229,-0.12035778,0.00000189,-0.013606
 85,-0.01367003,0.00050391,-0.01360511,-0.01366854,-0.00050279,0.012329
 35,0.00993472,-0.00000051,0.01739616,0.48586763,0.00000218,0.00000188,
 -0.07795916,-0.02093946,-0.01834481,-0.00095434,0.02094058,0.01834586,
 -0.00095592,-0.00000047,-0.00000044,-0.00171121,-0.00000066,0.00000025
 ,0.49275519,-0.03526704,0.01065816,-0.00000038,0.00123990,0.00126813,0
 .00050303,0.00123990,0.00126809,-0.00050314,-0.00324797,-0.00317624,0.
 00000014,-0.09815187,0.01232400,-0.00000046,0.39431123,-0.01579741,0.0
 0884464,-0.00000031,-0.00092579,0.00028245,0.00007109,-0.00092569,0.00
 028245,-0.00007112,-0.00495859,-0.00238108,0.00000010,0.03642585,-0.08
 744532,0.00000064,0.06329079,0.49461623,0.00000072,-0.00000036,0.00058
 201,-0.00125113,-0.00009219,-0.00019167,0.00125121,0.00009215,-0.00019
 167,0.00000021,0.00000009,-0.00039087,-0.00000145,0.00000066,-0.070764
 94,-0.00000236,0.00000389,0.59277852,0.00108277,0.00095211,-0.00131161
 ,-0.00007558,-0.00005302,0.00002811,-0.00050542,-0.00042660,0.00052537
 ,0.00047114,-0.00004377,0.00025807,-0.00356323,0.01770768,-0.02284323,
 -0.04131148,-0.00289460,0.00011003,0.05755851,-0.00142595,0.00039502,-
 0.00020418,0.00006702,0.00003901,-0.00012178,0.00029428,0.00074024,-0.
 00027408,-0.00008596,-0.00000633,-0.00036455,0.00335662,-0.01255035,0.
 01589065,-0.00231421,-0.13678320,0.11662215,0.00166600,0.14578303,0.00
 069479,-0.00009974,-0.00011511,-0.00001871,0.00011672,-0.00006602,-0.0
 0056170,-0.00036131,0.00048981,-0.00007978,-0.00027235,0.00029773,0.00
 065055,0.00065794,-0.00247418,-0.00240270,0.11500348,-0.21416960,-0.00
 023073,-0.13113623,0.23010348,0.00108279,0.00095222,0.00131152,-0.0005
 0542,-0.00042665,-0.00052533,-0.00007558,-0.00005303,-0.00002811,0.000
 47114,-0.00004379,-0.00025807,-0.00356317,0.01770956,0.02284178,-0.041
 31148,-0.00289487,-0.00011017,-0.00087808,-0.00009015,-0.00011971,0.05
 755849,-0.00142599,0.00039504,0.00020415,0.00029433,0.00074029,0.00027
 406,0.00006702,0.00003901,0.00012177,-0.00008595,-0.00000627,0.0003645
 7,0.00335654,-0.01255171,-0.01588983,-0.00231428,-0.13680205,-0.116628
 43,-0.00009011,0.01304005,0.01548019,0.00166629,0.14580439,-0.00069467
 ,0.00009970,-0.00011514,0.00056168,0.00036129,0.00048976,0.00001870,-0
 .00011673,-0.00006602,0.00007979,0.00027237,0.00029767,-0.00065083,-0.
 00065716,-0.00247288,0.00240253,-0.11500976,-0.21415071,0.00011968,-0.
 01548290,-0.02026908,0.00023097,0.13114307,0.23008209,-0.00298853,0.00
 258654,-0.00000010,0.00019231,-0.00001181,-0.00021852,0.00019231,-0.00
 001180,0.00021852,-0.00059830,-0.00088407,0.00000004,-0.03345839,-0.00
 916038,0.00000041,-0.16355235,-0.09458809,0.00000392,-0.00594923,-0.00
 308974,0.00249791,-0.00594929,-0.00308998,-0.00249765,0.38732627,0.002
 18327,-0.00154197,0.00000006,0.00017857,0.00007082,0.00023956,0.000178
 54,0.00007077,-0.00023955,0.00091302,0.00073404,0.,-0.00381790,0.01308
 520,-0.00000060,-0.08269613,-0.10926408,0.00000088,-0.01677425,-0.0093
 4224,0.00049261,-0.01677626,-0.00934359,-0.00049174,0.23152426,0.22290
 667,-0.00000008,0.00000006,-0.00000462,0.00024119,0.00038157,0.0002841
 5,-0.00024121,-0.00038156,0.00028421,-0.00000003,0.,0.00081531,0.00000
 019,-0.00000060,-0.00169883,0.00000341,0.00000089,-0.09062848,0.024718
 06,0.01613775,0.00093089,-0.02471667,-0.01613690,0.00093230,-0.0000089
 2,0.00001615,0.63380690,-0.00037429,0.00032490,-0.00014255,0.00003378,
 -0.00001953,0.00001270,0.00015539,0.00016742,-0.00011351,-0.00026537,0
 .00000169,-0.00010477,-0.00012081,-0.00101365,0.00008795,-0.00287696,-
 0.00647856,0.02285379,-0.00344219,-0.00181534,-0.00079005,0.00101553,0
 .00049733,-0.00094216,-0.08774719,-0.05960523,0.09853298,0.08677991,-0
 .00034784,0.00039210,0.00010401,-0.00000005,-0.00002456,-0.00003138,0.
 00006924,0.00005180,-0.00006151,-0.00017321,-0.00006914,-0.00008120,0.
 00025720,-0.00143631,0.00093030,-0.00447604,-0.00238155,0.01158116,-0.
 00354134,-0.00163728,0.00106064,0.00097147,0.00078682,0.00064472,-0.06
 042593,-0.05388763,0.08029888,0.06356223,0.05248849,0.00003708,-0.0000
 1712,0.00006188,0.00000510,0.00000614,-0.00000398,-0.00001700,-0.00002
 964,0.00002023,-0.00000425,0.00003120,-0.00003462,-0.00032323,-0.00002
 906,-0.00004589,-0.00318362,-0.00116385,0.00417488,-0.00037594,-0.0006
 4339,0.00134507,0.00056331,0.00024167,0.00104108,0.10092807,0.07804319
 ,-0.27274019,-0.10809701,-0.08548014,0.28174331,-0.00037429,0.00032491
 ,0.00014253,0.00015539,0.00016743,0.00011350,0.00003378,-0.00001953,-0
 .00001270,-0.00026536,0.00000169,0.00010477,-0.00012082,-0.00101366,-0
 .00008787,-0.00287702,-0.00648039,-0.02285324,0.00101553,0.00049740,0.
 00094212,-0.00344219,-0.00181527,0.00079021,-0.08774778,-0.05961337,-0
 .09852875,0.00754507,0.00359563,0.01084663,0.08678055,-0.00034784,0.00
 039209,-0.00010404,0.00006924,0.00005181,0.00006150,-0.00000005,-0.000
 02456,0.00003138,-0.00017321,-0.00006914,0.00008121,0.00025723,-0.0014
 3639,-0.00093019,-0.00447582,-0.00238238,-0.01158061,0.00097142,0.0007
 8675,-0.00064470,-0.00354131,-0.00163732,-0.00106039,-0.06043427,-0.05
 390033,-0.08031626,0.00359478,0.00577888,0.00886964,0.06357115,0.05250
 221,-0.00003705,0.00001710,0.00006188,0.00001699,0.00002963,0.00002022
 ,-0.00000510,-0.00000614,-0.00000398,0.00000427,-0.00003120,-0.0000346
 3,0.00032321,0.00002917,-0.00004582,0.00318401,0.00116440,0.00417578,-
 0.00056339,-0.00024165,0.00104115,0.00037623,0.00064364,0.00134509,-0.
 10092377,-0.07806057,-0.27272689,-0.01084699,-0.00887136,-0.01554555,0
 .10809248,0.08549834,0.28172895,0.00013461,-0.01695215,-0.02145278,-0.
 00393697,-0.00437340,-0.00100722,0.00064087,0.00080966,-0.00016066,0.0
 0047884,-0.00046643,-0.00083318,-0.07799302,0.00350888,0.00581444,-0.0
 0593582,0.01911629,0.02426003,0.00100282,-0.00088540,0.00037250,-0.005
 41779,0.00352896,0.00094995,0.00069327,0.00131803,0.00155777,-0.000148
 66,0.00010511,0.00005836,-0.00022969,0.00005496,-0.00011794,0.58111284
 ,-0.00308958,-0.01904801,-0.02189753,-0.00289327,-0.00287850,-0.000204
 71,0.00076717,0.00060183,-0.00072508,0.00139945,0.00111905,0.00049386,
 0.00184125,-0.10993967,-0.04565559,0.00660528,-0.01225033,-0.01457686,
 -0.00059011,0.00019348,-0.00076524,0.00247870,-0.00097600,0.00003200,0
 .00023450,-0.00034637,0.00061339,-0.00014428,-0.00009892,-0.00015316,-
 0.00007869,-0.00001686,-0.00070168,0.00738326,0.54359847,-0.00357477,-
 0.00562682,-0.00275235,0.00078026,0.00145553,0.00099180,0.00075260,0.0
 0152004,0.00068601,0.00058146,0.00040019,0.00010202,0.00421057,-0.0459
 2167,-0.14324011,0.00467929,-0.00407956,-0.00227349,-0.00086834,0.0014
 0868,0.00069750,-0.00092186,0.00145025,0.00097272,0.00040920,-0.000133
 86,0.00020072,-0.00013920,-0.00010447,0.00001053,-0.00016224,-0.000115
 35,-0.00004630,0.00764216,-0.05409200,0.50170990,0.00055201,0.00009129
 ,-0.00037043,0.00032915,-0.00012645,0.00016068,-0.00008458,0.00001298,
 0.00014010,0.00048063,0.00018740,0.00020937,0.00192107,0.00248157,-0.0
 0028075,0.00025297,0.00003437,-0.00037692,-0.00005071,0.00005729,-0.00
 000404,0.00008684,-0.00018518,-0.00008460,-0.00050090,0.00027024,0.000
 11590,0.00000063,0.00001542,-0.00001101,-0.00047640,0.00054463,0.00040
 530,-0.18913162,-0.13113461,-0.00302671,0.20382382,0.00168027,-0.00170
 882,-0.00408908,-0.00124309,-0.00073966,-0.00034158,0.00030665,0.00040
 268,0.00001920,-0.00015290,0.00022611,0.00002597,-0.01414462,-0.013578
 10,0.00095530,-0.00053860,-0.00015565,0.00051910,0.00000366,0.00001836
 ,-0.00007007,0.00002790,0.00023158,-0.00000549,-0.00054310,0.00036862,
 -0.00016771,0.00014523,0.00006926,0.00016870,0.00067242,0.00000247,0.0
 0030416,-0.13024426,-0.17156695,-0.00197542,0.14459664,0.18502078,0.00
 138092,-0.00258589,-0.00489274,-0.00126749,-0.00157567,0.00011074,0.00
 011956,-0.00026188,0.00021720,0.00016225,0.00026194,-0.00009443,-0.021
 60266,-0.01805606,-0.00019933,-0.00016919,0.00063299,0.00089822,0.0000
 9022,0.00000159,-0.00002975,-0.00018086,0.00022167,-0.00003000,0.00010
 117,0.00043101,0.00015615,0.00012569,-0.00011585,-0.00006348,0.0002051
 2,-0.00015153,-0.00002109,-0.00242041,-0.00125478,-0.04946047,0.002707
 67,0.00436234,0.05176583,0.00000193,0.00049576,-0.00070968,-0.00011345
 ,-0.00003770,0.00018379,0.00017388,-0.00032521,-0.00006977,-0.00001512
 ,0.00007474,-0.00011737,-0.00160617,-0.00148914,0.00216606,0.00032158,
 -0.00071893,0.00087226,0.00008630,0.00027572,-0.00003788,-0.00000139,-
 0.00001896,-0.00015064,-0.00006837,0.00018891,-0.00002727,0.00007131,-
 0.00008074,-0.00009169,-0.00010200,-0.00007683,-0.00000125,-0.05117096
 ,0.01009523,-0.01522539,0.00271468,-0.01332886,0.02127554,0.04961901,0
 .00024151,0.00113228,-0.00045795,0.00019652,0.00024731,0.00015075,0.00
 002289,-0.00003067,0.00014238,-0.00007246,-0.00009289,0.00004863,-0.00
 160987,0.01075771,-0.01570005,-0.00023010,0.00094044,-0.00027833,-0.00
 003689,-0.00000585,0.00022102,-0.00027572,0.00018191,0.00010771,-0.000
 09291,0.00017575,0.00009835,-0.00000291,-0.00007931,-0.00005463,-0.000
 06506,-0.00006220,0.00002476,0.01023274,-0.13129799,0.12025355,0.00326
 796,-0.01241825,0.01804036,-0.01175043,0.14060437,0.00053245,0.0016162
 5,0.00062009,0.00019766,-0.00018565,0.00042857,-0.00046974,-0.00102910
 ,0.00048155,-0.00000370,-0.00008420,-0.00002609,-0.00208587,0.01665209
 ,-0.02267280,-0.00076807,0.00151802,0.00043383,0.00060962,-0.00100144,
 0.00051657,-0.00022376,-0.00018286,0.00045635,0.00023313,-0.00021612,0
 .00002735,-0.00012978,0.00000130,0.00008134,0.00013149,0.00009036,-0.0
 0004734,-0.01528840,0.11944456,-0.22390500,0.00059999,-0.00072999,0.00
 130225,0.01659601,-0.13052819,0.24586416,0.00056949,-0.00074966,-0.000
 41664,0.00025282,-0.00001699,0.00014700,-0.00002647,-0.00002920,0.0000
 4853,0.00059312,0.00022068,-0.00001205,-0.00295233,0.00069650,-0.00020
 192,0.00126389,-0.00031700,0.00095924,0.00005409,-0.00009303,-0.000120
 71,-0.00016290,0.00026070,0.00007686,0.00001607,0.00037563,-0.00004090
 ,-0.00002298,-0.00000124,0.00009681,0.00020493,-0.00005261,0.00014547,
 -0.25068904,0.10830619,0.00344800,-0.02023039,0.01198287,-0.00017571,-
 0.00101097,-0.00002643,-0.00043783,0.27151056,0.00142945,0.00034654,0.
 00069804,-0.00029988,0.00033918,0.00013370,0.00003047,-0.00010780,-0.0
 0003264,-0.00089577,-0.00011612,-0.00037859,0.01679003,-0.01013052,0.0
 0063172,-0.00051469,-0.00182846,-0.00374659,-0.00040045,0.00042108,-0.
 00000749,0.00131940,-0.00052927,-0.00045855,-0.00080585,0.00000819,0.0
 0001342,0.00007716,0.00009680,0.00002856,0.00018013,0.00002713,0.00019
 085,0.10799875,-0.10726805,-0.00131701,-0.02039359,0.01265554,0.000206
 04,0.01646315,-0.00898381,-0.00086153,-0.12011541,0.11418376,0.0008577
 0,0.00074347,0.00082710,0.00004096,0.00038339,-0.00000719,-0.00018235,
 -0.00000242,-0.00002962,-0.00059481,-0.00008160,0.00013400,0.02475319,
 -0.01247910,-0.00071878,-0.00026722,-0.00251217,-0.00466929,-0.0000933
 2,-0.00024022,0.00021787,0.00149881,-0.00113846,0.00008459,-0.00072086
 ,-0.00024830,-0.00001161,0.00004867,0.00005290,0.00002820,0.00018133,0
 .00010451,0.00004194,0.00290038,-0.00096799,-0.04900986,0.00011460,0.0
 0028336,-0.00095979,-0.02520759,0.01205120,0.00128233,-0.00365244,0.00
 410308,0.05152437,0.00013471,-0.01695031,0.02145418,0.00064087,0.00080
 967,0.00016060,-0.00393697,-0.00437332,0.00100761,0.00047884,-0.000466
 36,0.00083322,-0.07799307,0.00350854,-0.00581498,-0.00593593,0.0191142
 9,-0.02426161,-0.00541779,0.00352887,-0.00095023,0.00100282,-0.0008854
 4,-0.00037243,0.00069328,0.00131789,-0.00155786,-0.00022969,0.00005497
 ,0.00011794,-0.00014866,0.00010510,-0.00005836,0.00067200,-0.00135203,
 0.00147721,-0.00007392,0.00024697,-0.00100626,0.00001153,0.00021590,0.
 00064478,-0.00001928,-0.00024560,0.00115921,0.58111276,-0.00308919,-0.
 01904570,0.02189890,0.00076711,0.00060176,0.00072508,-0.00289334,-0.00
 287861,0.00020505,0.00139940,0.00111897,-0.00049395,0.00184105,-0.1099
 3198,0.04565278,0.00660494,-0.01224877,0.01457766,0.00247878,-0.000976
 12,-0.00003185,-0.00059003,0.00019343,0.00076529,0.00023446,-0.0003464
 0,-0.00061336,-0.00007868,-0.00001680,0.00070168,-0.00014427,-0.000098
 90,0.00015317,-0.00135220,0.01120343,-0.01376117,0.00000124,0.00047924
 ,-0.00075313,0.00023982,-0.00189055,-0.00538682,-0.00006953,0.00038210
 ,-0.00051345,0.00738286,0.54360757,0.00357502,0.00562825,-0.00275476,-
 0.00075267,-0.00152003,0.00068608,-0.00078000,-0.00145518,0.00099191,-
 0.00058158,-0.00040027,0.00010209,-0.00421098,0.04591886,-0.14324775,-
 0.00467983,0.00408032,-0.00227495,0.00092167,-0.00145010,0.00097285,0.
 00086839,-0.00140864,0.00069755,-0.00040922,0.00013390,0.00020076,0.00
 016224,0.00011534,-0.00004637,0.00013921,0.00010448,0.00001051,-0.0014
 7723,0.01375738,-0.03388251,0.00024114,0.00115680,0.00152194,0.0003664
 0,-0.00283884,-0.00375889,-0.00054531,0.00104296,0.00143646,-0.0076431
 0,0.05408847,0.50170085,0.00056949,-0.00074963,0.00041670,-0.00002647,
 -0.00002921,-0.00004852,0.00025281,-0.00001701,-0.00014700,0.00059312,
 0.00022069,0.00001203,-0.00295243,0.00069657,0.00020187,0.00126389,-0.
 00031707,-0.00095923,-0.00016291,0.00026070,-0.00007688,0.00005409,-0.
 00009302,0.00012072,0.00001607,0.00037563,0.00004087,0.00020493,-0.000
 05262,-0.00014546,-0.00002298,-0.00000124,-0.00009681,-0.00001928,-0.0
 0006949,0.00054532,-0.00009965,0.00008808,-0.00000221,0.00028708,-0.00
 020564,-0.00012307,0.00046195,-0.00025398,-0.00055629,-0.25068920,0.10
 830581,-0.00345639,0.27151074,0.00142937,0.00034642,-0.00069801,0.0000
 3049,-0.00010779,0.00003265,-0.00029989,0.00033913,-0.00013373,-0.0008
 9571,-0.00011608,0.00037862,0.01678795,-0.01012952,-0.00063099,-0.0005
 1465,-0.00182794,0.00374635,0.00131927,-0.00052913,0.00045860,-0.00040
 044,0.00042111,0.00000748,-0.00080578,0.00000821,-0.00001342,0.0001801
 1,0.00002710,-0.00019085,0.00007716,0.00009679,-0.00002856,-0.00024570
 ,0.00038205,-0.00104287,-0.00011103,0.00002177,0.00001920,-0.00025228,
 -0.00007109,-0.00009147,-0.00025393,0.00055302,0.00031818,0.10799842,-
 0.10726770,0.00132153,-0.12011501,0.11418291,-0.00085782,-0.00074343,0
 .00082723,0.00018235,0.00000243,-0.00002962,-0.00004093,-0.00038342,-0
 .00000714,0.00059488,0.00008162,0.00013396,-0.02475460,0.01247987,-0.0
 0071969,0.00026724,0.00251193,-0.00466981,-0.00149892,0.00113851,0.000
 08446,0.00009336,0.00024020,0.00021785,0.00072093,0.00024829,-0.000011
 63,-0.00018135,-0.00010450,0.00004197,-0.00004867,-0.00005291,0.000028
 20,-0.00115919,0.00051354,0.00143651,-0.00001549,-0.00003956,-0.000099
 97,0.00029548,-0.00010402,0.00035215,0.00055631,-0.00031826,-0.0004228
 8,-0.00290875,0.00097250,-0.04901003,0.00366177,-0.00410792,0.05152503
 ,0.00000193,0.00049581,0.00070964,0.00017388,-0.00032520,0.00006980,-0
 .00011345,-0.00003772,-0.00018378,-0.00001512,0.00007474,0.00011737,-0
 .00160617,-0.00148938,-0.00216602,0.00032158,-0.00071901,-0.00087221,-
 0.00000139,-0.00001895,0.00015064,0.00008630,0.00027573,0.00003786,-0.
 00006837,0.00018891,0.00002725,-0.00010200,-0.00007683,0.00000125,0.00
 007131,-0.00008073,0.00009169,0.00001152,0.00023981,-0.00036644,0.0001
 5210,0.00028953,0.00024372,0.00064904,-0.00004377,-0.00012675,0.000287
 08,-0.00025231,-0.00029546,-0.05117086,0.01009614,0.01522403,-0.001010
 89,0.01646528,0.02520623,0.04961891,0.00024147,0.00113218,0.00045791,0
 .00002293,-0.00003059,-0.00014234,0.00019650,0.00024731,-0.00015073,-0
 .00007246,-0.00009289,-0.00004862,-0.00160964,0.01075763,0.01569725,-0
 .00023003,0.00094033,0.00027829,-0.00027570,0.00018192,-0.00010769,-0.
 00003694,-0.00000578,-0.00022098,-0.00009293,0.00017575,-0.00009836,-0
 .00006507,-0.00006221,-0.00002476,-0.00000290,-0.00007930,0.00005464,0
 .00021586,-0.00188986,0.00283868,0.00023464,0.00002613,0.00015187,-0.0
 0004375,0.00086675,0.00102464,-0.00020563,-0.00007108,0.00010406,0.010
 23366,-0.13131810,-0.12026135,-0.00002643,-0.00898474,-0.01205032,-0.0
 1175143,0.14062628,-0.00053246,-0.00161630,0.00062018,0.00046974,0.001
 02915,0.00048148,-0.00019767,0.00018567,0.00042856,0.00000370,0.000084
 20,-0.00002609,0.00208593,-0.01665489,-0.02267272,0.00076809,-0.001518
 07,0.00043393,0.00022379,0.00018288,0.00045635,-0.00060962,0.00100149,
 0.00051651,-0.00023312,0.00021610,0.00002734,-0.00013148,-0.00009035,-
 0.00004733,0.00012978,-0.00000129,0.00008133,-0.00064481,0.00538666,-0
 .00375958,-0.00011187,0.00004986,0.00034480,0.00012674,-0.00102486,-0.
 00178123,0.00012309,0.00009151,0.00035213,0.01528703,-0.11945236,-0.22
 388498,0.00043784,0.00086234,0.00128318,-0.01659442,0.13053705,0.24584
 235,0.00055201,0.00009133,0.00037040,-0.00008458,0.00001297,-0.0001401
 0,0.00032916,-0.00012645,-0.00016067,0.00048063,0.00018738,-0.00020939
 ,0.00192116,0.00248167,0.00028053,0.00025297,0.00003440,0.00037692,0.0
 0008684,-0.00018518,0.00008462,-0.00005071,0.00005728,0.00000403,-0.00
 050089,0.00027022,-0.00011592,-0.00047640,0.00054460,-0.00040534,0.000
 00063,0.00001542,0.00001101,-0.00007392,0.00000123,-0.00024114,0.00033
 427,0.00015522,0.00041293,0.00015210,0.00023465,0.00011185,-0.00009965
 ,-0.00011102,0.00001550,-0.18913145,-0.13113437,0.00303820,-0.02023039
 ,-0.02039362,-0.00011282,0.00271461,0.00326785,-0.00060028,0.20382361,
 0.00168017,-0.00170826,0.00408880,0.00030664,0.00040270,-0.00001921,-0
 .00124298,-0.00073949,0.00034166,-0.00015292,0.00022608,-0.00002600,-0
 .01414281,-0.01357667,-0.00095413,-0.00053859,-0.00015574,-0.00051901,
 0.00002791,0.00023156,0.00000547,0.00000365,0.00001836,0.00007007,-0.0
 0054311,0.00036860,0.00016770,0.00067240,0.00000246,-0.00030416,0.0001
 4521,0.00006926,-0.00016871,0.00024704,0.00047920,-0.00115671,0.000155
 19,0.00064489,0.00042580,0.00028951,0.00002611,-0.00004984,0.00008808,
 0.00002177,0.00003955,-0.13024407,-0.17156687,0.00198613,0.01198286,0.
 01265550,-0.00028455,-0.01333064,-0.01241971,0.00073119,0.14459643,0.1
 8502025,-0.00138109,0.00258563,-0.00489330,-0.00011958,0.00026186,0.00
 021718,0.00126759,0.00157574,0.00011058,-0.00016224,-0.00026196,-0.000
 09440,0.02160384,0.01805719,-0.00020085,0.00016924,-0.00063290,0.00089
 831,0.00018085,-0.00022169,-0.00002998,-0.00009022,-0.00000159,-0.0000
 2976,-0.00010112,-0.00043103,0.00015617,-0.00020517,0.00015152,-0.0000
 2107,-0.00012570,0.00011584,-0.00006347,0.00100624,0.00075322,0.001521
 97,-0.00041294,-0.00042589,-0.00046609,-0.00024374,-0.00015184,0.00034
 481,0.00000220,-0.00001921,-0.00009997,0.00243183,0.00126549,-0.049460
 75,0.00017477,-0.00020711,-0.00095975,-0.02127442,-0.01803923,0.001303
 78,-0.00272034,-0.00437403,0.05176657\\-0.00000019,-0.00000134,0.,0.00
 000123,-0.00000053,0.00000002,0.00000123,-0.00000053,-0.00000002,0.000
 00078,-0.00000102,0.,0.00000337,-0.00000050,0.00000001,-0.00000468,0.0
 0000177,0.,0.00000208,0.00000059,-0.00000021,0.00000207,0.00000058,0.0
 0000022,0.00000048,0.00000028,-0.00000002,-0.00000056,0.00000143,0.000
 00046,-0.00000056,0.00000143,-0.00000047,-0.00000083,-0.00000061,0.000
 00042,-0.00000097,0.00000015,-0.00000001,-0.00000020,0.00000003,0.0000
 0041,-0.00000063,-0.00000065,0.00000019,-0.00000081,-0.00000063,-0.000
 00041,-0.00000063,-0.00000064,-0.00000018,-0.00000020,0.00000003,-0.00
 000041,-0.00000096,0.00000016,0.00000001\\\@


 IT IS THE GODS' CUSTOM TO BRING LOW ALL THINGS OF SURPASSING GREATNESS.
     -- HERODOTUS
 IT IS THE LOFTY PINE THAT BY THE STORM IS OFTENER TOSSED;
 TOWERS FALL WITH HEAVIER CRASH WHICH HIGHER SOAR.
     -- HORACE
 THE BIGGER THEY COME, THE HARDER THEY FALL.
     -- BOB FITZSIMONS HEAVYWEIGHT CHAMPION, 1897-1899
 Job cpu time:       0 days  0 hours 30 minutes 57.9 seconds.
 File lengths (MBytes):  RWF=     64 Int=      0 D2E=      0 Chk=      3 Scr=      1
 Normal termination of Gaussian 09 at Sat Nov  7 02:28:14 2015.
