 Entering Gaussian System, Link 0=/share/apps/g09/g09
 Input=C6H14_3_04_1_opt_B3L.gjf
 Output=C6H14_3_04_1_opt_B3L.log
 Initial command:
 /share/apps/g09/l1.exe /state/partition1/Gau-3021.inp -scrdir=/state/partition1/
 Entering Link 1 = /share/apps/g09/l1.exe PID=      3022.
  
 Copyright (c) 1988,1990,1992,1993,1995,1998,2003,2009, Gaussian, Inc.
                  All Rights Reserved.
  
 This is part of the Gaussian(R) 09 program.  It is based on
 the Gaussian(R) 03 system (copyright 2003, Gaussian, Inc.),
 the Gaussian(R) 98 system (copyright 1998, Gaussian, Inc.),
 the Gaussian(R) 94 system (copyright 1995, Gaussian, Inc.),
 the Gaussian 92(TM) system (copyright 1992, Gaussian, Inc.),
 the Gaussian 90(TM) system (copyright 1990, Gaussian, Inc.),
 the Gaussian 88(TM) system (copyright 1988, Gaussian, Inc.),
 the Gaussian 86(TM) system (copyright 1986, Carnegie Mellon
 University), and the Gaussian 82(TM) system (copyright 1983,
 Carnegie Mellon University). Gaussian is a federally registered
 trademark of Gaussian, Inc.
  
 This software contains proprietary and confidential information,
 including trade secrets, belonging to Gaussian, Inc.
  
 This software is provided under written license and may be
 used, copied, transmitted, or stored only in accord with that
 written license.
  
 The following legend is applicable only to US Government
 contracts under FAR:
  
                    RESTRICTED RIGHTS LEGEND
  
 Use, reproduction and disclosure by the US Government is
 subject to restrictions as set forth in subparagraphs (a)
 and (c) of the Commercial Computer Software - Restricted
 Rights clause in FAR 52.227-19.
  
 Gaussian, Inc.
 340 Quinnipiac St., Bldg. 40, Wallingford CT 06492
  
  
 ---------------------------------------------------------------
 Warning -- This program may not be used in any manner that
 competes with the business of Gaussian, Inc. or will provide
 assistance to any competitor of Gaussian, Inc.  The licensee
 of this program is prohibited from giving any competitor of
 Gaussian, Inc. access to this program.  By using this program,
 the user acknowledges that Gaussian, Inc. is engaged in the
 business of creating and licensing software in the field of
 computational chemistry and represents and warrants to the
 licensee that it is not a competitor of Gaussian, Inc. and that
 it will not use this program in any manner prohibited above.
 ---------------------------------------------------------------
  

 Cite this work as:
 Gaussian 09, Revision A.01,
 M. J. Frisch, G. W. Trucks, H. B. Schlegel, G. E. Scuseria, 
 M. A. Robb, J. R. Cheeseman, G. Scalmani, V. Barone, B. Mennucci, 
 G. A. Petersson, H. Nakatsuji, M. Caricato, X. Li, H. P. Hratchian, 
 A. F. Izmaylov, J. Bloino, G. Zheng, J. L. Sonnenberg, M. Hada, 
 M. Ehara, K. Toyota, R. Fukuda, J. Hasegawa, M. Ishida, T. Nakajima, 
 Y. Honda, O. Kitao, H. Nakai, T. Vreven, J. A. Montgomery, Jr., 
 J. E. Peralta, F. Ogliaro, M. Bearpark, J. J. Heyd, E. Brothers, 
 K. N. Kudin, V. N. Staroverov, R. Kobayashi, J. Normand, 
 K. Raghavachari, A. Rendell, J. C. Burant, S. S. Iyengar, J. Tomasi, 
 M. Cossi, N. Rega, J. M. Millam, M. Klene, J. E. Knox, J. B. Cross, 
 V. Bakken, C. Adamo, J. Jaramillo, R. Gomperts, R. E. Stratmann, 
 O. Yazyev, A. J. Austin, R. Cammi, C. Pomelli, J. W. Ochterski, 
 R. L. Martin, K. Morokuma, V. G. Zakrzewski, G. A. Voth, 
 P. Salvador, J. J. Dannenberg, S. Dapprich, A. D. Daniels, 
 O. Farkas, J. B. Foresman, J. V. Ortiz, J. Cioslowski, 
 and D. J. Fox, Gaussian, Inc., Wallingford CT, 2009.
 
 ******************************************
 Gaussian 09:  EM64L-G09RevA.01  8-May-2009
                18-Sep-2015 
 ******************************************
 %mem=3GB
 %nprocshared=2
 Will use up to    2 processors via shared memory.
 -----------------------------------------
 #p B3LYP/6-31G(d) opt=tight int=ultrafine
 -----------------------------------------
 1/7=10,14=-1,18=20,19=15,26=3,38=1/1,3;
 2/9=110,12=2,17=6,18=5,40=1/2;
 3/5=1,6=6,7=1,11=2,16=1,25=1,30=1,71=1,74=-5,75=-5/1,2,3;
 4//1;
 5/5=2,38=5/2;
 6/7=2,8=2,9=2,10=2,28=1/1;
 7//1,2,3,16;
 1/7=10,14=-1,18=20,19=15/3(2);
 2/9=110/2;
 99//99;
 2/9=110/2;
 3/5=1,6=6,7=1,11=2,16=1,25=1,30=1,71=1,74=-5,75=-5/1,2,3;
 4/5=5,16=3/1;
 5/5=2,38=5/2;
 7//1,2,3,16;
 1/7=10,14=-1,18=20,19=15/3(-5);
 2/9=110/2;
 6/7=2,8=2,9=2,10=2,19=2,28=1/1;
 99/9=1/99;
 Leave Link    1 at Fri Sep 18 13:23:31 2015, MaxMem=  402653184 cpu:       0.1
 (Enter /share/apps/g09/l101.exe)
 ---------------------------------------------
 using B3LYP/6-31G(d) to do opt and freq calc.
 ---------------------------------------------
 Symbolic Z-matrix:
 Charge =  0 Multiplicity = 1
 C                    -2.22676  -0.8717   -0.21616 
 H                    -1.74674  -1.79957   0.11772 
 H                    -2.28627  -0.91101  -1.30973 
 H                    -3.25194  -0.87419   0.16985 
 C                    -1.461     0.36017   0.26053 
 H                    -1.98469   1.27245  -0.0866 
 H                    -1.47774   0.41086   1.36581 
 C                    -0.00067   0.38427  -0.2443 
 H                    -0.00047   0.14174  -1.33529 
 C                     0.85025  -0.67235   0.49267 
 H                     0.27796  -1.61909   0.56413 
 H                     1.02717  -0.35044   1.53643 
 C                     2.1838   -0.94046  -0.20088 
 H                     2.79917  -0.03505  -0.25562 
 H                     2.76309  -1.69899   0.33687 
 H                     2.04017  -1.30081  -1.22569 
 C                     0.58844   1.78981  -0.06278 
 H                     0.02992   2.53564  -0.63732 
 H                     0.57624   2.1023    0.98655 
 H                     1.62972   1.82767  -0.40157 
 
 NAtoms=     20 NQM=     20 NQMF=      0 NMic=      0 NMicF=      0 NTot=     20.
                    Isotopes and Nuclear Properties:
 (Nuclear quadrupole moments (NQMom) in fm**2, nuclear magnetic moments (NMagM)
  in nuclear magnetons)

  Atom         1           2           3           4           5           6           7           8           9          10
 IAtWgt=          12           1           1           1          12           1           1          12           1          12
 AtmWgt=  12.0000000   1.0078250   1.0078250   1.0078250  12.0000000   1.0078250   1.0078250  12.0000000   1.0078250  12.0000000
 NucSpn=           0           1           1           1           0           1           1           0           1           0
 AtZEff=   0.0000000   0.0000000   0.0000000   0.0000000   0.0000000   0.0000000   0.0000000   0.0000000   0.0000000   0.0000000
 NQMom=    0.0000000   0.0000000   0.0000000   0.0000000   0.0000000   0.0000000   0.0000000   0.0000000   0.0000000   0.0000000
 NMagM=    0.0000000   2.7928460   2.7928460   2.7928460   0.0000000   2.7928460   2.7928460   0.0000000   2.7928460   0.0000000

  Atom        11          12          13          14          15          16          17          18          19          20
 IAtWgt=           1           1          12           1           1           1          12           1           1           1
 AtmWgt=   1.0078250   1.0078250  12.0000000   1.0078250   1.0078250   1.0078250  12.0000000   1.0078250   1.0078250   1.0078250
 NucSpn=           1           1           0           1           1           1           0           1           1           1
 AtZEff=   0.0000000   0.0000000   0.0000000   0.0000000   0.0000000   0.0000000   0.0000000   0.0000000   0.0000000   0.0000000
 NQMom=    0.0000000   0.0000000   0.0000000   0.0000000   0.0000000   0.0000000   0.0000000   0.0000000   0.0000000   0.0000000
 NMagM=    2.7928460   2.7928460   0.0000000   2.7928460   2.7928460   2.7928460   0.0000000   2.7928460   2.7928460   2.7928460
 Leave Link  101 at Fri Sep 18 13:23:31 2015, MaxMem=  402653184 cpu:       0.1
 (Enter /share/apps/g09/l103.exe)

 GradGradGradGradGradGradGradGradGradGradGradGradGradGradGradGradGradGrad
 Berny optimization.
 Initialization pass.
                           ----------------------------
                           !    Initial Parameters    !
                           ! (Angstroms and Degrees)  !
 --------------------------                            --------------------------
 ! Name  Definition              Value          Derivative Info.                !
 --------------------------------------------------------------------------------
 ! R1    R(1,2)                  1.0967         estimate D2E/DX2                !
 ! R2    R(1,3)                  1.0959         estimate D2E/DX2                !
 ! R3    R(1,4)                  1.0955         estimate D2E/DX2                !
 ! R4    R(1,5)                  1.5268         estimate D2E/DX2                !
 ! R5    R(5,6)                  1.1077         estimate D2E/DX2                !
 ! R6    R(5,7)                  1.1066         estimate D2E/DX2                !
 ! R7    R(5,8)                  1.5453         estimate D2E/DX2                !
 ! R8    R(8,9)                  1.1176         estimate D2E/DX2                !
 ! R9    R(8,10)                 1.5439         estimate D2E/DX2                !
 ! R10   R(8,17)                 1.5348         estimate D2E/DX2                !
 ! R11   R(10,11)                1.1086         estimate D2E/DX2                !
 ! R12   R(10,12)                1.1065         estimate D2E/DX2                !
 ! R13   R(10,13)                1.5268         estimate D2E/DX2                !
 ! R14   R(13,14)                1.0961         estimate D2E/DX2                !
 ! R15   R(13,15)                1.0955         estimate D2E/DX2                !
 ! R16   R(13,16)                1.0958         estimate D2E/DX2                !
 ! R17   R(17,18)                1.0947         estimate D2E/DX2                !
 ! R18   R(17,19)                1.0949         estimate D2E/DX2                !
 ! R19   R(17,20)                1.0957         estimate D2E/DX2                !
 ! A1    A(2,1,3)              107.2901         estimate D2E/DX2                !
 ! A2    A(2,1,4)              107.4816         estimate D2E/DX2                !
 ! A3    A(2,1,5)              111.5945         estimate D2E/DX2                !
 ! A4    A(3,1,4)              107.5012         estimate D2E/DX2                !
 ! A5    A(3,1,5)              111.5763         estimate D2E/DX2                !
 ! A6    A(4,1,5)              111.173          estimate D2E/DX2                !
 ! A7    A(1,5,6)              109.24           estimate D2E/DX2                !
 ! A8    A(1,5,7)              109.9516         estimate D2E/DX2                !
 ! A9    A(1,5,8)              112.6157         estimate D2E/DX2                !
 ! A10   A(6,5,7)              105.5529         estimate D2E/DX2                !
 ! A11   A(6,5,8)              109.3632         estimate D2E/DX2                !
 ! A12   A(7,5,8)              109.8703         estimate D2E/DX2                !
 ! A13   A(5,8,9)              108.4021         estimate D2E/DX2                !
 ! A14   A(5,8,10)             110.7463         estimate D2E/DX2                !
 ! A15   A(5,8,17)             109.7779         estimate D2E/DX2                !
 ! A16   A(9,8,10)             108.5029         estimate D2E/DX2                !
 ! A17   A(9,8,17)             108.3071         estimate D2E/DX2                !
 ! A18   A(10,8,17)            111.0233         estimate D2E/DX2                !
 ! A19   A(8,10,11)            109.3122         estimate D2E/DX2                !
 ! A20   A(8,10,12)            109.8337         estimate D2E/DX2                !
 ! A21   A(8,10,13)            112.627          estimate D2E/DX2                !
 ! A22   A(11,10,12)           105.675          estimate D2E/DX2                !
 ! A23   A(11,10,13)           109.2812         estimate D2E/DX2                !
 ! A24   A(12,10,13)           109.872          estimate D2E/DX2                !
 ! A25   A(10,13,14)           111.5908         estimate D2E/DX2                !
 ! A26   A(10,13,15)           111.1285         estimate D2E/DX2                !
 ! A27   A(10,13,16)           111.5976         estimate D2E/DX2                !
 ! A28   A(14,13,15)           107.4326         estimate D2E/DX2                !
 ! A29   A(14,13,16)           107.3695         estimate D2E/DX2                !
 ! A30   A(15,13,16)           107.4991         estimate D2E/DX2                !
 ! A31   A(8,17,18)            111.4718         estimate D2E/DX2                !
 ! A32   A(8,17,19)            111.7416         estimate D2E/DX2                !
 ! A33   A(8,17,20)            111.0916         estimate D2E/DX2                !
 ! A34   A(18,17,19)           107.6297         estimate D2E/DX2                !
 ! A35   A(18,17,20)           107.4014         estimate D2E/DX2                !
 ! A36   A(19,17,20)           107.2809         estimate D2E/DX2                !
 ! D1    D(2,1,5,6)           -179.3093         estimate D2E/DX2                !
 ! D2    D(2,1,5,7)            -63.9166         estimate D2E/DX2                !
 ! D3    D(2,1,5,8)             58.9674         estimate D2E/DX2                !
 ! D4    D(3,1,5,6)             60.6738         estimate D2E/DX2                !
 ! D5    D(3,1,5,7)            176.0665         estimate D2E/DX2                !
 ! D6    D(3,1,5,8)            -61.0495         estimate D2E/DX2                !
 ! D7    D(4,1,5,6)            -59.3241         estimate D2E/DX2                !
 ! D8    D(4,1,5,7)             56.0687         estimate D2E/DX2                !
 ! D9    D(4,1,5,8)            178.9527         estimate D2E/DX2                !
 ! D10   D(1,5,8,9)             46.6586         estimate D2E/DX2                !
 ! D11   D(1,5,8,10)           -72.2667         estimate D2E/DX2                !
 ! D12   D(1,5,8,17)           164.7852         estimate D2E/DX2                !
 ! D13   D(6,5,8,9)            -74.9947         estimate D2E/DX2                !
 ! D14   D(6,5,8,10)           166.08           estimate D2E/DX2                !
 ! D15   D(6,5,8,17)            43.1319         estimate D2E/DX2                !
 ! D16   D(7,5,8,9)            169.5881         estimate D2E/DX2                !
 ! D17   D(7,5,8,10)            50.6628         estimate D2E/DX2                !
 ! D18   D(7,5,8,17)           -72.2853         estimate D2E/DX2                !
 ! D19   D(5,8,10,11)           43.5746         estimate D2E/DX2                !
 ! D20   D(5,8,10,12)          -71.9399         estimate D2E/DX2                !
 ! D21   D(5,8,10,13)          165.252          estimate D2E/DX2                !
 ! D22   D(9,8,10,11)          -75.2897         estimate D2E/DX2                !
 ! D23   D(9,8,10,12)          169.1958         estimate D2E/DX2                !
 ! D24   D(9,8,10,13)           46.3877         estimate D2E/DX2                !
 ! D25   D(17,8,10,11)         165.798          estimate D2E/DX2                !
 ! D26   D(17,8,10,12)          50.2835         estimate D2E/DX2                !
 ! D27   D(17,8,10,13)         -72.5246         estimate D2E/DX2                !
 ! D28   D(5,8,17,18)          -61.046          estimate D2E/DX2                !
 ! D29   D(5,8,17,19)           59.4339         estimate D2E/DX2                !
 ! D30   D(5,8,17,20)          179.2081         estimate D2E/DX2                !
 ! D31   D(9,8,17,18)           57.1395         estimate D2E/DX2                !
 ! D32   D(9,8,17,19)          177.6194         estimate D2E/DX2                !
 ! D33   D(9,8,17,20)          -62.6064         estimate D2E/DX2                !
 ! D34   D(10,8,17,18)         176.1695         estimate D2E/DX2                !
 ! D35   D(10,8,17,19)         -63.3506         estimate D2E/DX2                !
 ! D36   D(10,8,17,20)          56.4236         estimate D2E/DX2                !
 ! D37   D(8,10,13,14)          60.6022         estimate D2E/DX2                !
 ! D38   D(8,10,13,15)        -179.5076         estimate D2E/DX2                !
 ! D39   D(8,10,13,16)         -59.5282         estimate D2E/DX2                !
 ! D40   D(11,10,13,14)       -177.7029         estimate D2E/DX2                !
 ! D41   D(11,10,13,15)        -57.8126         estimate D2E/DX2                !
 ! D42   D(11,10,13,16)         62.1667         estimate D2E/DX2                !
 ! D43   D(12,10,13,14)        -62.1845         estimate D2E/DX2                !
 ! D44   D(12,10,13,15)         57.7058         estimate D2E/DX2                !
 ! D45   D(12,10,13,16)        177.6851         estimate D2E/DX2                !
 --------------------------------------------------------------------------------
 Trust Radius=3.00D-01 FncErr=1.00D-07 GrdErr=1.00D-06
 Number of steps in this run= 110 maximum allowed number of steps= 120.
 GradGradGradGradGradGradGradGradGradGradGradGradGradGradGradGradGradGrad

 Leave Link  103 at Fri Sep 18 13:23:31 2015, MaxMem=  402653184 cpu:       0.0
 (Enter /share/apps/g09/l202.exe)
                          Input orientation:                          
 ---------------------------------------------------------------------
 Center     Atomic      Atomic             Coordinates (Angstroms)
 Number     Number       Type             X           Y           Z
 ---------------------------------------------------------------------
      1          6           0       -2.226757   -0.871700   -0.216164
      2          1           0       -1.746743   -1.799572    0.117723
      3          1           0       -2.286274   -0.911014   -1.309726
      4          1           0       -3.251939   -0.874187    0.169852
      5          6           0       -1.460995    0.360169    0.260533
      6          1           0       -1.984689    1.272449   -0.086596
      7          1           0       -1.477743    0.410862    1.365811
      8          6           0       -0.000668    0.384268   -0.244295
      9          1           0       -0.000469    0.141740   -1.335285
     10          6           0        0.850254   -0.672345    0.492667
     11          1           0        0.277956   -1.619091    0.564133
     12          1           0        1.027170   -0.350439    1.536425
     13          6           0        2.183799   -0.940458   -0.200882
     14          1           0        2.799168   -0.035051   -0.255617
     15          1           0        2.763089   -1.698985    0.336867
     16          1           0        2.040169   -1.300812   -1.225687
     17          6           0        0.588439    1.789814   -0.062784
     18          1           0        0.029916    2.535642   -0.637324
     19          1           0        0.576242    2.102297    0.986549
     20          1           0        1.629715    1.827672   -0.401573
 ---------------------------------------------------------------------
                    Distance matrix (angstroms):
                    1          2          3          4          5
     1  C    0.000000
     2  H    1.096741   0.000000
     3  H    1.095886   1.765854   0.000000
     4  H    1.095451   1.767674   1.767206   0.000000
     5  C    1.526805   2.183238   2.182362   2.177002   0.000000
     6  H    2.161657   3.087989   2.520816   2.505940   1.107704
     7  H    2.169938   2.552666   3.091857   2.495885   1.106567
     8  C    2.556114   2.819396   2.834942   3.510839   1.545311
     9  H    2.689954   2.988210   2.516714   3.724191   2.174277
    10  C    3.163887   2.855804   3.625382   4.119822   2.542016
    11  H    2.727828   2.081168   3.253920   3.629118   2.652092
    12  H    3.732469   3.436174   4.403831   4.522456   2.885105
    13  C    4.411118   4.035932   4.605644   5.448769   3.897314
    14  H    5.095239   4.890626   5.266894   6.123812   4.309478
    15  H    5.088104   4.516274   5.369193   6.073611   4.699875
    16  H    4.405670   4.048977   4.344780   5.489622   4.150404
    17  C    3.877178   4.285948   4.136824   4.679693   2.519643
    18  H    4.108519   4.745597   4.206697   4.800941   2.785973
    19  H    4.260045   4.623386   4.748360   4.917461   2.777129
    20  H    4.710983   4.982674   4.864166   5.608664   3.484887
                    6          7          8          9         10
     6  H    0.000000
     7  H    1.763182   0.000000
     8  C    2.179466   2.185154   0.000000
     9  H    2.602855   3.090418   1.117622   0.000000
    10  C    3.486355   2.712063   1.543895   2.174367   0.000000
    11  H    3.728809   2.801049   2.178218   2.604964   1.108585
    12  H    3.786721   2.623600   2.183394   3.089498   1.106505
    13  C    4.720838   4.205649   2.555128   2.688689   1.526839
    14  H    4.962198   4.595632   2.831084   3.005812   2.182736
    15  H    5.616951   4.847147   3.509422   3.717743   2.176511
    16  H    4.911078   4.692696   2.822701   2.501434   2.182569
    17  C    2.624733   2.865572   1.534781   2.163844   2.537578
    18  H    2.440818   3.286377   2.187194   2.493760   3.498716
    19  H    2.898043   2.687684   2.190759   3.093104   2.831544
    20  H    3.670340   3.845425   2.183186   2.524220   2.767184
                   11         12         13         14         15
    11  H    0.000000
    12  H    1.765262   0.000000
    13  C    2.162875   2.168905   0.000000
    14  H    3.088314   2.539855   1.096101   0.000000
    15  H    2.496782   2.504183   1.095497   1.766640   0.000000
    16  H    2.531828   3.091705   1.095769   1.766144   1.767125
    17  C    3.479951   2.707515   3.165222   2.873089   4.130441
    18  H    4.332070   3.748221   4.112538   3.797752   5.133356
    19  H    3.757145   2.553745   3.640411   3.324550   4.433298
    20  H    3.826227   2.977090   2.830164   2.204237   3.777187
                   16         17         18         19         20
    16  H    0.000000
    17  C    3.607192   0.000000
    18  H    4.371003   1.094671   0.000000
    19  H    4.314884   1.094940   1.767264   0.000000
    20  H    3.261142   1.095658   1.765264   1.764116   0.000000
 Stoichiometry    C6H14
 Framework group  C1[X(C6H14)]
 Deg. of freedom    54
 Full point group                 C1      NOp   1
 Largest Abelian subgroup         C1      NOp   1
 Largest concise Abelian subgroup C1      NOp   1
                         Standard orientation:                         
 ---------------------------------------------------------------------
 Center     Atomic      Atomic             Coordinates (Angstroms)
 Number     Number       Type             X           Y           Z
 ---------------------------------------------------------------------
      1          6           0       -2.226757   -0.871700   -0.216164
      2          1           0       -1.746743   -1.799572    0.117723
      3          1           0       -2.286274   -0.911014   -1.309726
      4          1           0       -3.251939   -0.874187    0.169852
      5          6           0       -1.460995    0.360169    0.260533
      6          1           0       -1.984689    1.272449   -0.086596
      7          1           0       -1.477743    0.410862    1.365811
      8          6           0       -0.000668    0.384268   -0.244295
      9          1           0       -0.000469    0.141740   -1.335285
     10          6           0        0.850254   -0.672345    0.492667
     11          1           0        0.277956   -1.619091    0.564133
     12          1           0        1.027170   -0.350439    1.536425
     13          6           0        2.183799   -0.940458   -0.200882
     14          1           0        2.799168   -0.035051   -0.255617
     15          1           0        2.763089   -1.698985    0.336867
     16          1           0        2.040169   -1.300812   -1.225687
     17          6           0        0.588439    1.789814   -0.062784
     18          1           0        0.029916    2.535642   -0.637324
     19          1           0        0.576242    2.102297    0.986549
     20          1           0        1.629715    1.827672   -0.401573
 ---------------------------------------------------------------------
 Rotational constants (GHZ):      4.5030684      2.2844350      1.6869317
 Leave Link  202 at Fri Sep 18 13:23:31 2015, MaxMem=  402653184 cpu:       0.0
 (Enter /share/apps/g09/l301.exe)
 Standard basis: 6-31G(d) (6D, 7F)
 Ernie: Thresh=  0.10000D-02 Tol=  0.10000D-05 Strict=F.
 There are   118 symmetry adapted basis functions of A   symmetry.
 Integral buffers will be    131072 words long.
 Raffenetti 2 integral format.
 Two-electron integral symmetry is turned on.
   118 basis functions,   224 primitive gaussians,   118 cartesian basis functions
    25 alpha electrons       25 beta electrons
       nuclear repulsion energy       256.8850026721 Hartrees.
 IExCor=  402 DFT=T Ex+Corr=B3LYP ExCW=0 ScaHFX=  0.200000
 ScaDFX=  0.800000  0.720000  1.000000  0.810000 ScalE2=  1.000000  1.000000
 IRadAn=      5 IRanWt=     -1 IRanGd=            0 ICorTp=0
 NAtoms=   20 NActive=   20 NUniq=   20 SFac= 7.50D-01 NAtFMM=   80 NAOKFM=F Big=F
 Leave Link  301 at Fri Sep 18 13:23:31 2015, MaxMem=  402653184 cpu:       0.1
 (Enter /share/apps/g09/l302.exe)
 NPDir=0 NMtPBC=     1 NCelOv=     1 NCel=       1 NClECP=     1 NCelD=      1
         NCelK=      1 NCelE2=     1 NClLst=     1 CellRange=     0.0.
 One-electron integrals computed using PRISM.
 NBasis=   118 RedAO= T  NBF=   118
 NBsUse=   118 1.00D-06 NBFU=   118
 Precomputing XC quadrature grid using
 IXCGrd= 2 IRadAn=           5 IRanWt=          -1 IRanGd=           0 AccXCQ= 1.00D-10.
 NRdTot=    1644 NPtTot=      440330 NUsed=      452111 NTot=      452143
 NSgBfM=   118   118   118   118   118 NAtAll=    20    20.
 Leave Link  302 at Fri Sep 18 13:23:32 2015, MaxMem=  402653184 cpu:       1.2
 (Enter /share/apps/g09/l303.exe)
 DipDrv:  MaxL=1.
 Leave Link  303 at Fri Sep 18 13:23:32 2015, MaxMem=  402653184 cpu:       0.1
 (Enter /share/apps/g09/l401.exe)
 Harris functional with IExCor=  402 diagonalized for initial guess.
 ExpMin= 1.61D-01 ExpMax= 3.05D+03 ExpMxC= 4.57D+02 IAcc=3 IRadAn=         5 AccDes= 0.00D+00
 HarFok:  IExCor=  402 AccDes= 0.00D+00 IRadAn=         5 IDoV= 1
 ScaDFX=  1.000000  1.000000  1.000000  1.000000
 FoFCou: FMM=F IPFlag=           0 FMFlag=      100000 FMFlg1=           0
         NFxFlg=           0 DoJE=T BraDBF=F KetDBF=T FulRan=T
         Omega=  0.000000  0.000000  1.000000  0.000000  0.000000 ICntrl=     500 IOpCl=  0
         NMat0=    1 NMatS0=    1 NMatT0=    0 NMatD0=    1 NMtDS0=    0 NMtDT0=    0
         I1Cent=           4 NGrid=           0.
 Petite list used in FoFCou.
 Harris En= -237.177248207917    
 Initial guess orbital symmetries:
       Occupied  (A) (A) (A) (A) (A) (A) (A) (A) (A) (A) (A) (A)
                 (A) (A) (A) (A) (A) (A) (A) (A) (A) (A) (A) (A)
                 (A)
       Virtual   (A) (A) (A) (A) (A) (A) (A) (A) (A) (A) (A) (A)
                 (A) (A) (A) (A) (A) (A) (A) (A) (A) (A) (A) (A)
                 (A) (A) (A) (A) (A) (A) (A) (A) (A) (A) (A) (A)
                 (A) (A) (A) (A) (A) (A) (A) (A) (A) (A) (A) (A)
                 (A) (A) (A) (A) (A) (A) (A) (A) (A) (A) (A) (A)
                 (A) (A) (A) (A) (A) (A) (A) (A) (A) (A) (A) (A)
                 (A) (A) (A) (A) (A) (A) (A) (A) (A) (A) (A) (A)
                 (A) (A) (A) (A) (A) (A) (A) (A) (A)
 The electronic state of the initial guess is 1-A.
 Leave Link  401 at Fri Sep 18 13:23:37 2015, MaxMem=  402653184 cpu:      10.4
 (Enter /share/apps/g09/l502.exe)
 Closed shell SCF:
 Requested convergence on RMS density matrix=1.00D-08 within 128 cycles.
 Requested convergence on MAX density matrix=1.00D-06.
 Requested convergence on             energy=1.00D-06.
 No special actions if energy rises.
 Using DIIS extrapolation, IDIIS=  1040.
 Integral symmetry usage will be decided dynamically.
       451918 words used for storage of precomputed grid.
 Keep R1 ints in memory in canonical form, NReq=26105973.
 IEnd=      513462 IEndB=      513462 NGot=   402653184 MDV=   377519646
 LenX=   377519646 LenY=   377505281
 Symmetry not used in FoFDir.
 MinBra= 0 MaxBra= 2 Meth= 1.
 IRaf=       0 NMat=   1 IRICut=       1 DoRegI=T DoRafI=F ISym2E= 0 JSym2E=0.
 Integral accuracy reduced to 1.0D-05 until final iterations.

 Cycle   1  Pass 0  IDiag  1:
 E= -236.790476285116    
 DIIS: error= 4.97D-02 at cycle   1 NSaved=   1.
 NSaved= 1 IEnMin= 1 EnMin= -236.790476285116     IErMin= 1 ErrMin= 4.97D-02
 ErrMax= 4.97D-02 EMaxC= 1.00D-01 BMatC= 2.58D-01 BMatP= 2.58D-01
 IDIUse=3 WtCom= 5.03D-01 WtEn= 4.97D-01
 Coeff-Com:  0.100D+01
 Coeff-En:   0.100D+01
 Coeff:      0.100D+01
 Gap=     0.349 Goal=   None    Shift=    0.000
 GapD=    0.349 DampG=1.000 DampE=0.500 DampFc=0.5000 IDamp=-1.
 Damping current iteration by 5.00D-01
 RMSDP=1.02D-02 MaxDP=1.46D-01              OVMax= 1.86D-01

 Cycle   2  Pass 0  IDiag  1:
 E= -236.918436539810     Delta-E=       -0.127960254694 Rises=F Damp=T
 DIIS: error= 9.02D-03 at cycle   2 NSaved=   2.
 NSaved= 2 IEnMin= 2 EnMin= -236.918436539810     IErMin= 2 ErrMin= 9.02D-03
 ErrMax= 9.02D-03 EMaxC= 1.00D-01 BMatC= 9.88D-03 BMatP= 2.58D-01
 IDIUse=3 WtCom= 9.10D-01 WtEn= 9.02D-02
 Coeff-Com:  0.858D-01 0.914D+00
 Coeff-En:   0.142D+00 0.858D+00
 Coeff:      0.909D-01 0.909D+00
 Gap=     0.400 Goal=   None    Shift=    0.000
 RMSDP=1.67D-03 MaxDP=2.42D-02 DE=-1.28D-01 OVMax= 1.02D-01

 Cycle   3  Pass 0  IDiag  1:
 E= -237.080578987995     Delta-E=       -0.162142448184 Rises=F Damp=F
 DIIS: error= 2.24D-03 at cycle   3 NSaved=   3.
 NSaved= 3 IEnMin= 3 EnMin= -237.080578987995     IErMin= 3 ErrMin= 2.24D-03
 ErrMax= 2.24D-03 EMaxC= 1.00D-01 BMatC= 1.05D-03 BMatP= 9.88D-03
 IDIUse=3 WtCom= 9.78D-01 WtEn= 2.24D-02
 Coeff-Com:  0.924D-02 0.187D+00 0.804D+00
 Coeff-En:   0.000D+00 0.000D+00 0.100D+01
 Coeff:      0.903D-02 0.183D+00 0.808D+00
 Gap=     0.388 Goal=   None    Shift=    0.000
 RMSDP=5.22D-04 MaxDP=1.12D-02 DE=-1.62D-01 OVMax= 9.22D-03

 Cycle   4  Pass 0  IDiag  1:
 E= -237.081104123971     Delta-E=       -0.000525135976 Rises=F Damp=F
 DIIS: error= 1.71D-03 at cycle   4 NSaved=   4.
 NSaved= 4 IEnMin= 4 EnMin= -237.081104123971     IErMin= 4 ErrMin= 1.71D-03
 ErrMax= 1.71D-03 EMaxC= 1.00D-01 BMatC= 5.49D-04 BMatP= 1.05D-03
 IDIUse=3 WtCom= 9.83D-01 WtEn= 1.71D-02
 Coeff-Com:  0.191D-03 0.306D-01 0.421D+00 0.548D+00
 Coeff-En:   0.000D+00 0.000D+00 0.332D+00 0.668D+00
 Coeff:      0.187D-03 0.301D-01 0.420D+00 0.550D+00
 Gap=     0.391 Goal=   None    Shift=    0.000
 RMSDP=2.12D-04 MaxDP=4.42D-03 DE=-5.25D-04 OVMax= 4.53D-03

 Cycle   5  Pass 0  IDiag  1:
 E= -237.081630510994     Delta-E=       -0.000526387024 Rises=F Damp=F
 DIIS: error= 1.81D-04 at cycle   5 NSaved=   5.
 NSaved= 5 IEnMin= 5 EnMin= -237.081630510994     IErMin= 5 ErrMin= 1.81D-04
 ErrMax= 1.81D-04 EMaxC= 1.00D-01 BMatC= 1.20D-05 BMatP= 5.49D-04
 IDIUse=3 WtCom= 9.98D-01 WtEn= 1.81D-03
 Coeff-Com:  0.180D-03-0.183D-02 0.969D-01 0.196D+00 0.709D+00
 Coeff-En:   0.000D+00 0.000D+00 0.000D+00 0.000D+00 0.100D+01
 Coeff:      0.180D-03-0.183D-02 0.967D-01 0.196D+00 0.709D+00
 Gap=     0.391 Goal=   None    Shift=    0.000
 RMSDP=2.75D-05 MaxDP=6.79D-04 DE=-5.26D-04 OVMax= 6.58D-04

 Cycle   6  Pass 0  IDiag  1:
 E= -237.081641705071     Delta-E=       -0.000011194077 Rises=F Damp=F
 DIIS: error= 1.91D-05 at cycle   6 NSaved=   6.
 NSaved= 6 IEnMin= 6 EnMin= -237.081641705071     IErMin= 6 ErrMin= 1.91D-05
 ErrMax= 1.91D-05 EMaxC= 1.00D-01 BMatC= 1.27D-07 BMatP= 1.20D-05
 IDIUse=1 WtCom= 1.00D+00 WtEn= 0.00D+00
 Coeff-Com:  0.150D-03-0.101D-02 0.249D-01 0.536D-01 0.219D+00 0.703D+00
 Coeff:      0.150D-03-0.101D-02 0.249D-01 0.536D-01 0.219D+00 0.703D+00
 Gap=     0.391 Goal=   None    Shift=    0.000
 RMSDP=4.51D-06 MaxDP=7.93D-05 DE=-1.12D-05 OVMax= 8.98D-05

 Initial convergence to 1.0D-05 achieved.  Increase integral accuracy.
 Cycle   7  Pass 1  IDiag  1:
 E= -237.081632250337     Delta-E=        0.000009454735 Rises=F Damp=F
 DIIS: error= 1.06D-05 at cycle   1 NSaved=   1.
 NSaved= 1 IEnMin= 1 EnMin= -237.081632250337     IErMin= 1 ErrMin= 1.06D-05
 ErrMax= 1.06D-05 EMaxC= 1.00D-01 BMatC= 2.39D-08 BMatP= 2.39D-08
 IDIUse=1 WtCom= 1.00D+00 WtEn= 0.00D+00
 Coeff-Com:  0.100D+01
 Coeff:      0.100D+01
 Gap=     0.391 Goal=   None    Shift=    0.000
 RMSDP=4.51D-06 MaxDP=7.93D-05 DE= 9.45D-06 OVMax= 6.12D-05

 Cycle   8  Pass 1  IDiag  1:
 E= -237.081632242097     Delta-E=        0.000000008239 Rises=F Damp=F
 DIIS: error= 1.41D-05 at cycle   2 NSaved=   2.
 NSaved= 2 IEnMin= 1 EnMin= -237.081632250337     IErMin= 1 ErrMin= 1.06D-05
 ErrMax= 1.41D-05 EMaxC= 1.00D-01 BMatC= 3.35D-08 BMatP= 2.39D-08
 IDIUse=1 WtCom= 1.00D+00 WtEn= 0.00D+00
 Coeff-Com:  0.544D+00 0.456D+00
 Coeff:      0.544D+00 0.456D+00
 Gap=     0.391 Goal=   None    Shift=    0.000
 RMSDP=1.45D-06 MaxDP=2.85D-05 DE= 8.24D-09 OVMax= 3.38D-05

 Cycle   9  Pass 1  IDiag  1:
 E= -237.081632275342     Delta-E=       -0.000000033244 Rises=F Damp=F
 DIIS: error= 5.41D-07 at cycle   3 NSaved=   3.
 NSaved= 3 IEnMin= 3 EnMin= -237.081632275342     IErMin= 3 ErrMin= 5.41D-07
 ErrMax= 5.41D-07 EMaxC= 1.00D-01 BMatC= 7.59D-11 BMatP= 2.39D-08
 IDIUse=1 WtCom= 1.00D+00 WtEn= 0.00D+00
 Coeff-Com:  0.156D-01 0.470D-01 0.937D+00
 Coeff:      0.156D-01 0.470D-01 0.937D+00
 Gap=     0.391 Goal=   None    Shift=    0.000
 RMSDP=1.19D-07 MaxDP=1.65D-06 DE=-3.32D-08 OVMax= 2.53D-06

 Cycle  10  Pass 1  IDiag  1:
 E= -237.081632275407     Delta-E=       -0.000000000065 Rises=F Damp=F
 DIIS: error= 2.35D-07 at cycle   4 NSaved=   4.
 NSaved= 4 IEnMin= 4 EnMin= -237.081632275407     IErMin= 4 ErrMin= 2.35D-07
 ErrMax= 2.35D-07 EMaxC= 1.00D-01 BMatC= 1.68D-11 BMatP= 7.59D-11
 IDIUse=1 WtCom= 1.00D+00 WtEn= 0.00D+00
 Coeff-Com: -0.107D-01 0.598D-02 0.408D+00 0.597D+00
 Coeff:     -0.107D-01 0.598D-02 0.408D+00 0.597D+00
 Gap=     0.391 Goal=   None    Shift=    0.000
 RMSDP=4.00D-08 MaxDP=8.55D-07 DE=-6.51D-11 OVMax= 8.42D-07

 Cycle  11  Pass 1  IDiag  1:
 E= -237.081632275423     Delta-E=       -0.000000000016 Rises=F Damp=F
 DIIS: error= 6.60D-08 at cycle   5 NSaved=   5.
 NSaved= 5 IEnMin= 5 EnMin= -237.081632275423     IErMin= 5 ErrMin= 6.60D-08
 ErrMax= 6.60D-08 EMaxC= 1.00D-01 BMatC= 9.90D-13 BMatP= 1.68D-11
 IDIUse=1 WtCom= 1.00D+00 WtEn= 0.00D+00
 Coeff-Com: -0.556D-02 0.721D-03 0.144D+00 0.279D+00 0.583D+00
 Coeff:     -0.556D-02 0.721D-03 0.144D+00 0.279D+00 0.583D+00
 Gap=     0.391 Goal=   None    Shift=    0.000
 RMSDP=1.03D-08 MaxDP=1.65D-07 DE=-1.63D-11 OVMax= 2.02D-07

 Cycle  12  Pass 1  IDiag  1:
 E= -237.081632275424     Delta-E=       -0.000000000001 Rises=F Damp=F
 DIIS: error= 9.68D-09 at cycle   6 NSaved=   6.
 NSaved= 6 IEnMin= 6 EnMin= -237.081632275424     IErMin= 6 ErrMin= 9.68D-09
 ErrMax= 9.68D-09 EMaxC= 1.00D-01 BMatC= 1.93D-14 BMatP= 9.90D-13
 IDIUse=1 WtCom= 1.00D+00 WtEn= 0.00D+00
 Coeff-Com: -0.134D-02-0.542D-04 0.267D-01 0.581D-01 0.174D+00 0.743D+00
 Coeff:     -0.134D-02-0.542D-04 0.267D-01 0.581D-01 0.174D+00 0.743D+00
 Gap=     0.391 Goal=   None    Shift=    0.000
 RMSDP=1.83D-09 MaxDP=3.64D-08 DE=-9.66D-13 OVMax= 5.09D-08

 SCF Done:  E(RB3LYP) =  -237.081632275     A.U. after   12 cycles
             Convg  =    0.1826D-08             -V/T =  2.0105
 KE= 2.346121547861D+02 PE=-1.060680385997D+03 EE= 3.321015962635D+02
 Leave Link  502 at Fri Sep 18 13:24:31 2015, MaxMem=  402653184 cpu:     106.9
 (Enter /share/apps/g09/l601.exe)
 Copying SCF densities to generalized density rwf, IOpCl= 0 IROHF=0.

 **********************************************************************

            Population analysis using the SCF density.

 **********************************************************************

 Orbital symmetries:
       Occupied  (A) (A) (A) (A) (A) (A) (A) (A) (A) (A) (A) (A)
                 (A) (A) (A) (A) (A) (A) (A) (A) (A) (A) (A) (A)
                 (A)
       Virtual   (A) (A) (A) (A) (A) (A) (A) (A) (A) (A) (A) (A)
                 (A) (A) (A) (A) (A) (A) (A) (A) (A) (A) (A) (A)
                 (A) (A) (A) (A) (A) (A) (A) (A) (A) (A) (A) (A)
                 (A) (A) (A) (A) (A) (A) (A) (A) (A) (A) (A) (A)
                 (A) (A) (A) (A) (A) (A) (A) (A) (A) (A) (A) (A)
                 (A) (A) (A) (A) (A) (A) (A) (A) (A) (A) (A) (A)
                 (A) (A) (A) (A) (A) (A) (A) (A) (A) (A) (A) (A)
                 (A) (A) (A) (A) (A) (A) (A) (A) (A)
 The electronic state is 1-A.
 Alpha  occ. eigenvalues --  -10.18245 -10.17582 -10.17543 -10.16898 -10.16867
 Alpha  occ. eigenvalues --  -10.16687  -0.80801  -0.74258  -0.70913  -0.63467
 Alpha  occ. eigenvalues --   -0.60168  -0.54941  -0.45579  -0.44389  -0.43434
 Alpha  occ. eigenvalues --   -0.41022  -0.40381  -0.37819  -0.36158  -0.36086
 Alpha  occ. eigenvalues --   -0.34267  -0.33871  -0.31719  -0.30347  -0.30107
 Alpha virt. eigenvalues --    0.08955   0.11029   0.11847   0.12535   0.15090
 Alpha virt. eigenvalues --    0.15855   0.16651   0.17127   0.17800   0.18415
 Alpha virt. eigenvalues --    0.18944   0.19392   0.22852   0.24201   0.24637
 Alpha virt. eigenvalues --    0.25532   0.26737   0.27986   0.29500   0.50259
 Alpha virt. eigenvalues --    0.50956   0.51045   0.52843   0.54014   0.58215
 Alpha virt. eigenvalues --    0.59725   0.62729   0.65252   0.66508   0.68139
 Alpha virt. eigenvalues --    0.69995   0.75813   0.76325   0.79847   0.83021
 Alpha virt. eigenvalues --    0.85598   0.87673   0.88374   0.89238   0.90646
 Alpha virt. eigenvalues --    0.91962   0.92347   0.92875   0.94775   0.95873
 Alpha virt. eigenvalues --    0.97396   0.97625   0.98931   1.01207   1.02689
 Alpha virt. eigenvalues --    1.03392   1.07617   1.25558   1.35431   1.41885
 Alpha virt. eigenvalues --    1.42705   1.56592   1.59221   1.61252   1.70611
 Alpha virt. eigenvalues --    1.73391   1.77351   1.83321   1.87232   1.89534
 Alpha virt. eigenvalues --    1.91817   1.94979   1.97708   2.01266   2.02353
 Alpha virt. eigenvalues --    2.02759   2.11603   2.14457   2.18917   2.27059
 Alpha virt. eigenvalues --    2.28510   2.31251   2.32724   2.34475   2.37848
 Alpha virt. eigenvalues --    2.43730   2.45333   2.52649   2.65271   2.67215
 Alpha virt. eigenvalues --    2.76811   2.79923   4.12700   4.21453   4.27275
 Alpha virt. eigenvalues --    4.39678   4.44760   4.60828
          Condensed to atoms (all electrons):
              1          2          3          4          5          6
     1  C    5.077098   0.375960   0.377816   0.369964   0.371656  -0.038562
     2  H    0.375960   0.574221  -0.033091  -0.030291  -0.036023   0.005283
     3  H    0.377816  -0.033091   0.578757  -0.031368  -0.034854  -0.004718
     4  H    0.369964  -0.030291  -0.031368   0.581140  -0.028299  -0.002716
     5  C    0.371656  -0.036023  -0.034854  -0.028299   4.999637   0.370041
     6  H   -0.038562   0.005283  -0.004718  -0.002716   0.370041   0.619669
     7  H   -0.038121  -0.004125   0.005246  -0.002905   0.368703  -0.039698
     8  C   -0.040624  -0.005150  -0.005365   0.004250   0.384897  -0.037470
     9  H   -0.004981  -0.000153   0.005780   0.000065  -0.049065  -0.001838
    10  C   -0.007161   0.000834  -0.000070   0.000155  -0.041213   0.005125
    11  H    0.000778   0.007293   0.000163  -0.000224  -0.005778   0.000087
    12  H    0.000145   0.000080   0.000016  -0.000010  -0.003775  -0.000073
    13  C    0.000130  -0.000308  -0.000018   0.000001   0.004378  -0.000179
    14  H   -0.000010   0.000002   0.000001   0.000000   0.000061   0.000000
    15  H    0.000001   0.000015   0.000000   0.000000  -0.000157   0.000003
    16  H    0.000011   0.000027  -0.000007   0.000000   0.000072  -0.000001
    17  C    0.004487   0.000068   0.000095  -0.000165  -0.047506  -0.005371
    18  H    0.000014   0.000003  -0.000003  -0.000005  -0.004899   0.005329
    19  H    0.000067  -0.000001   0.000008   0.000003  -0.005818  -0.000214
    20  H   -0.000182   0.000003  -0.000003   0.000003   0.005107   0.000068
              7          8          9         10         11         12
     1  C   -0.038121  -0.040624  -0.004981  -0.007161   0.000778   0.000145
     2  H   -0.004125  -0.005150  -0.000153   0.000834   0.007293   0.000080
     3  H    0.005246  -0.005365   0.005780  -0.000070   0.000163   0.000016
     4  H   -0.002905   0.004250   0.000065   0.000155  -0.000224  -0.000010
     5  C    0.368703   0.384897  -0.049065  -0.041213  -0.005778  -0.003775
     6  H   -0.039698  -0.037470  -0.001838   0.005125   0.000087  -0.000073
     7  H    0.617088  -0.036058   0.005952  -0.008339  -0.000024   0.004598
     8  C   -0.036058   4.863011   0.377461   0.387782  -0.040881  -0.036181
     9  H    0.005952   0.377461   0.646491  -0.050639  -0.001712   0.005966
    10  C   -0.008339   0.387782  -0.050639   5.007354   0.371947   0.368968
    11  H   -0.000024  -0.040881  -0.001712   0.371947   0.611134  -0.038720
    12  H    0.004598  -0.036181   0.005966   0.368968  -0.038720   0.615046
    13  C    0.000118  -0.041361  -0.005195   0.369280  -0.037478  -0.038455
    14  H   -0.000001  -0.005118  -0.000210  -0.035414   0.005088  -0.004436
    15  H    0.000000   0.004280   0.000070  -0.028294  -0.002960  -0.002523
    16  H    0.000011  -0.005237   0.005997  -0.035179  -0.004382   0.005208
    17  C   -0.002712   0.374621  -0.046117  -0.048896   0.005614  -0.008662
    18  H   -0.000199  -0.028565  -0.003395   0.005108  -0.000185   0.000057
    19  H    0.003972  -0.032338   0.005583  -0.006120   0.000012   0.005674
    20  H   -0.000143  -0.031269  -0.002904  -0.004794  -0.000027   0.000015
             13         14         15         16         17         18
     1  C    0.000130  -0.000010   0.000001   0.000011   0.004487   0.000014
     2  H   -0.000308   0.000002   0.000015   0.000027   0.000068   0.000003
     3  H   -0.000018   0.000001   0.000000  -0.000007   0.000095  -0.000003
     4  H    0.000001   0.000000   0.000000   0.000000  -0.000165  -0.000005
     5  C    0.004378   0.000061  -0.000157   0.000072  -0.047506  -0.004899
     6  H   -0.000179   0.000000   0.000003  -0.000001  -0.005371   0.005329
     7  H    0.000118  -0.000001   0.000000   0.000011  -0.002712  -0.000199
     8  C   -0.041361  -0.005118   0.004280  -0.005237   0.374621  -0.028565
     9  H   -0.005195  -0.000210   0.000070   0.005997  -0.046117  -0.003395
    10  C    0.369280  -0.035414  -0.028294  -0.035179  -0.048896   0.005108
    11  H   -0.037478   0.005088  -0.002960  -0.004382   0.005614  -0.000185
    12  H   -0.038455  -0.004436  -0.002523   0.005208  -0.008662   0.000057
    13  C    5.073594   0.377887   0.370195   0.378205  -0.005050   0.000036
    14  H    0.377887   0.575057  -0.030946  -0.033328   0.001639  -0.000186
    15  H    0.370195  -0.030946   0.581531  -0.031269   0.000073   0.000002
    16  H    0.378205  -0.033328  -0.031269   0.578021  -0.000197  -0.000016
    17  C   -0.005050   0.001639   0.000073  -0.000197   5.120522   0.369149
    18  H    0.000036  -0.000186   0.000002  -0.000016   0.369149   0.580537
    19  H   -0.000008   0.000154  -0.000012   0.000037   0.372332  -0.031900
    20  H    0.001513   0.004709  -0.000147   0.000227   0.367999  -0.030225
             19         20
     1  C    0.000067  -0.000182
     2  H   -0.000001   0.000003
     3  H    0.000008  -0.000003
     4  H    0.000003   0.000003
     5  C   -0.005818   0.005107
     6  H   -0.000214   0.000068
     7  H    0.003972  -0.000143
     8  C   -0.032338  -0.031269
     9  H    0.005583  -0.002904
    10  C   -0.006120  -0.004794
    11  H    0.000012  -0.000027
    12  H    0.005674   0.000015
    13  C   -0.000008   0.001513
    14  H    0.000154   0.004709
    15  H   -0.000012  -0.000147
    16  H    0.000037   0.000227
    17  C    0.372332   0.367999
    18  H   -0.031900  -0.030225
    19  H    0.581873  -0.032556
    20  H   -0.032556   0.581611
 Mulliken atomic charges:
              1
     1  C   -0.448487
     2  H    0.145352
     3  H    0.141616
     4  H    0.140402
     5  C   -0.247164
     6  H    0.125234
     7  H    0.126637
     8  C   -0.050687
     9  H    0.112844
    10  C   -0.250433
    11  H    0.130254
    12  H    0.127063
    13  C   -0.447286
    14  H    0.145050
    15  H    0.140138
    16  H    0.141800
    17  C   -0.451924
    18  H    0.139343
    19  H    0.139251
    20  H    0.140995
 Sum of Mulliken atomic charges =   0.00000
 Mulliken charges with hydrogens summed into heavy atoms:
              1
     1  C   -0.021116
     5  C    0.004708
     8  C    0.062158
    10  C    0.006883
    13  C   -0.020298
    17  C   -0.032335
 Sum of Mulliken charges with hydrogens summed into heavy atoms =   0.00000
 Electronic spatial extent (au):  <R**2>=            814.3961
 Charge=              0.0000 electrons
 Dipole moment (field-independent basis, Debye):
    X=             -0.0192    Y=             -0.0118    Z=              0.0090  Tot=              0.0243
 Quadrupole moment (field-independent basis, Debye-Ang):
   XX=            -42.0337   YY=            -41.8733   ZZ=            -41.1584
   XY=             -0.1814   XZ=              0.1213   YZ=             -0.1103
 Traceless Quadrupole moment (field-independent basis, Debye-Ang):
   XX=             -0.3453   YY=             -0.1848   ZZ=              0.5301
   XY=             -0.1814   XZ=              0.1213   YZ=             -0.1103
 Octapole moment (field-independent basis, Debye-Ang**2):
  XXX=             -0.6422  YYY=             -1.1566  ZZZ=             -0.1293  XYY=             -0.0390
  XXY=              1.2211  XXZ=              0.6778  XZZ=             -0.1810  YZZ=              0.1602
  YYZ=              0.0219  XYZ=              0.1553
 Hexadecapole moment (field-independent basis, Debye-Ang**3):
 XXXX=           -672.7306 YYYY=           -350.7548 ZZZZ=           -106.5956 XXXY=              0.8108
 XXXZ=             -0.7177 YYYX=             -4.6078 YYYZ=             -2.7489 ZZZX=              1.1071
 ZZZY=              2.4324 XXYY=           -171.3763 XXZZ=           -130.4398 YYZZ=            -75.7798
 XXYZ=             -2.7887 YYXZ=              1.1243 ZZXY=             -0.5351
 N-N= 2.568850026721D+02 E-N=-1.060680387613D+03  KE= 2.346121547861D+02
 No NMR shielding tensors so no spin-rotation constants.
 Leave Link  601 at Fri Sep 18 13:24:31 2015, MaxMem=  402653184 cpu:       0.3
 (Enter /share/apps/g09/l701.exe)
 Compute integral first derivatives.
 ... and contract with generalized density number  0.
 Leave Link  701 at Fri Sep 18 13:24:31 2015, MaxMem=  402653184 cpu:       0.3
 (Enter /share/apps/g09/l702.exe)
 L702 exits ... SP integral derivatives will be done elsewhere.
 Leave Link  702 at Fri Sep 18 13:24:31 2015, MaxMem=  402653184 cpu:       0.0
 (Enter /share/apps/g09/l703.exe)
 Compute integral first derivatives, UseDBF=F ICtDFT=           0.
 Integral derivatives from FoFDir, PRISM(SPDF).
 Calling FoFJK, ICntrl=      2127 FMM=F ISym2X=0 I1Cent= 0 IOpClX= 0 NMat=1 NMatS=1 NMatT=0.
 FoFCou: FMM=F IPFlag=           0 FMFlag=      100000 FMFlg1=         800
         NFxFlg=           0 DoJE=F BraDBF=F KetDBF=F FulRan=T
         Omega=  0.000000  0.000000  1.000000  0.000000  0.000000 ICntrl=    2127 IOpCl=  0
         NMat0=    1 NMatS0=    1 NMatT0=    0 NMatD0=    1 NMtDS0=    0 NMtDT0=    0
         I1Cent=           0 NGrid=           0.
 Symmetry not used in FoFCou.
 Leave Link  703 at Fri Sep 18 13:24:43 2015, MaxMem=  402653184 cpu:      23.3
 (Enter /share/apps/g09/l716.exe)
 Dipole        =-7.54664695D-03-4.65994954D-03 3.52802356D-03
 ***** Axes restored to original set *****
 -------------------------------------------------------------------
 Center     Atomic                   Forces (Hartrees/Bohr)
 Number     Number              X              Y              Z
 -------------------------------------------------------------------
      1        6          -0.004342284   -0.002578960    0.001900891
      2        1          -0.001572665    0.000235831   -0.000132351
      3        1           0.000380528    0.000865560   -0.000759136
      4        1          -0.000718693   -0.000666165    0.000084802
      5        6          -0.001440245    0.003837396   -0.002980764
      6        1           0.002515760   -0.004640702    0.000943185
      7        1           0.001663280   -0.000515455   -0.004250015
      8        6          -0.003609739    0.002831654    0.003581706
      9        1          -0.000525113    0.001620296    0.009813549
     10        6          -0.003565186   -0.004542687   -0.001201761
     11        1           0.005178359    0.005331233   -0.000860307
     12        1          -0.001347204    0.000352452   -0.004477200
     13        6           0.004459324   -0.002006171    0.001947299
     14        1           0.000470449   -0.000685761    0.000145229
     15        1           0.000930447   -0.000316078   -0.000007027
     16        1          -0.001003376   -0.000321664   -0.000561127
     17        6           0.004466986   -0.000141209   -0.004524741
     18        1          -0.000981728    0.000521539   -0.000649612
     19        1          -0.001089245   -0.000875677    0.002065809
     20        1           0.000130345    0.001694568   -0.000078426
 -------------------------------------------------------------------
 Cartesian Forces:  Max     0.009813549 RMS     0.002700313
 Leave Link  716 at Fri Sep 18 13:24:43 2015, MaxMem=  402653184 cpu:       0.1
 (Enter /share/apps/g09/l103.exe)

 GradGradGradGradGradGradGradGradGradGradGradGradGradGradGradGradGradGrad
 Berny optimization.
 Internal  Forces:  Max     0.009955838 RMS     0.002426507
 Search for a local minimum.
 Step number   1 out of a maximum of  110
 All quantities printed in internal units (Hartrees-Bohrs-Radians)
 RMS Force = .24265D-02 SwitMx=.10000D-02 MixMth= 1
 Mixed Optimization -- RFO/linear search
 Second derivative matrix not updated -- first step.
     Eigenvalues ---    0.00230   0.00230   0.00306   0.00411   0.00411
     Eigenvalues ---    0.03456   0.03460   0.03597   0.04625   0.04775
     Eigenvalues ---    0.04777   0.04779   0.05364   0.05442   0.05449
     Eigenvalues ---    0.05454   0.05490   0.05497   0.08347   0.08351
     Eigenvalues ---    0.12219   0.12222   0.16000   0.16000   0.16000
     Eigenvalues ---    0.16000   0.16000   0.16000   0.16000   0.16000
     Eigenvalues ---    0.16000   0.16435   0.16655   0.21866   0.21871
     Eigenvalues ---    0.28054   0.28177   0.28986   0.29717   0.29720
     Eigenvalues ---    0.31806   0.32750   0.32844   0.32966   0.32973
     Eigenvalues ---    0.34045   0.34117   0.34141   0.34154   0.34167
     Eigenvalues ---    0.34185   0.34190   0.34248   0.342781000.00000
     Eigenvalues --- 1000.000001000.000001000.000001000.000001000.00000
     Eigenvalues --- 1000.000001000.000001000.000001000.000001000.00000
     Eigenvalues --- 1000.000001000.000001000.000001000.000001000.00000
     Eigenvalues --- 1000.000001000.000001000.000001000.000001000.00000
     Eigenvalues --- 1000.000001000.000001000.000001000.000001000.00000
     Eigenvalues --- 1000.000001000.000001000.000001000.000001000.00000
     Eigenvalues --- 1000.000001000.000001000.000001000.000001000.00000
     Eigenvalues --- 1000.000001000.000001000.000001000.000001000.00000
     Eigenvalues --- 1000.000001000.000001000.000001000.000001000.00000
 RFO step:  Lambda=-2.87978717D-03 EMin= 2.30000000D-03
 Linear search not attempted -- first point.
 Iteration  1 RMS(Cart)=  0.04939445 RMS(Int)=  0.00067224
 Iteration  2 RMS(Cart)=  0.00101696 RMS(Int)=  0.00013372
 Iteration  3 RMS(Cart)=  0.00000034 RMS(Int)=  0.00013372
 Variable       Old X    -DE/DX   Delta X   Delta X   Delta X     New X
                                 (Linear)    (Quad)   (Total)
    R1        2.07254  -0.00093   0.00000  -0.00270  -0.00270   2.06984
    R2        2.07092   0.00071   0.00000   0.00205   0.00205   2.07298
    R3        2.07010   0.00070   0.00000   0.00204   0.00204   2.07214
    R4        2.88524   0.00453   0.00000   0.01508   0.01508   2.90033
    R5        2.09326  -0.00531   0.00000  -0.01602  -0.01602   2.07724
    R6        2.09111  -0.00429   0.00000  -0.01291  -0.01291   2.07820
    R7        2.92022   0.00168   0.00000   0.00592   0.00592   2.92613
    R8        2.11200  -0.00993   0.00000  -0.03095  -0.03095   2.08105
    R9        2.91754   0.00193   0.00000   0.00676   0.00676   2.92430
   R10        2.90032   0.00169   0.00000   0.00578   0.00578   2.90609
   R11        2.09492  -0.00728   0.00000  -0.02204  -0.02204   2.07288
   R12        2.09099  -0.00434   0.00000  -0.01304  -0.01304   2.07795
   R13        2.88531   0.00414   0.00000   0.01378   0.01378   2.89909
   R14        2.07133  -0.00031   0.00000  -0.00090  -0.00090   2.07043
   R15        2.07019   0.00071   0.00000   0.00205   0.00205   2.07224
   R16        2.07070   0.00076   0.00000   0.00221   0.00221   2.07292
   R17        2.06863   0.00120   0.00000   0.00346   0.00346   2.07209
   R18        2.06914   0.00174   0.00000   0.00505   0.00505   2.07418
   R19        2.07049   0.00021   0.00000   0.00060   0.00060   2.07109
    A1        1.87256   0.00021   0.00000   0.00256   0.00260   1.87516
    A2        1.87591  -0.00122   0.00000  -0.00642  -0.00646   1.86945
    A3        1.94769   0.00166   0.00000   0.01140   0.01139   1.95908
    A4        1.87625   0.00024   0.00000  -0.00085  -0.00085   1.87540
    A5        1.94737  -0.00179   0.00000  -0.01154  -0.01152   1.93585
    A6        1.94033   0.00085   0.00000   0.00453   0.00451   1.94484
    A7        1.90660  -0.00351   0.00000  -0.01676  -0.01664   1.88996
    A8        1.91902  -0.00209   0.00000  -0.00116  -0.00110   1.91791
    A9        1.96552   0.00996   0.00000   0.04739   0.04743   2.01295
   A10        1.84225   0.00204   0.00000   0.00095   0.00070   1.84295
   A11        1.90875  -0.00287   0.00000  -0.01410  -0.01406   1.89468
   A12        1.91760  -0.00408   0.00000  -0.01958  -0.01989   1.89771
   A13        1.89197  -0.00132   0.00000  -0.02107  -0.02087   1.87110
   A14        1.93289   0.00300   0.00000   0.03065   0.03042   1.96331
   A15        1.91599  -0.00045   0.00000   0.00911   0.00854   1.92453
   A16        1.89373  -0.00093   0.00000  -0.01578  -0.01554   1.87819
   A17        1.89031   0.00029   0.00000  -0.01319  -0.01316   1.87716
   A18        1.93772  -0.00068   0.00000   0.00820   0.00762   1.94535
   A19        1.90786  -0.00090   0.00000   0.00596   0.00596   1.91382
   A20        1.91696  -0.00393   0.00000  -0.02467  -0.02460   1.89236
   A21        1.96571   0.00792   0.00000   0.03756   0.03757   2.00328
   A22        1.84438   0.00164   0.00000   0.00124   0.00115   1.84552
   A23        1.90732  -0.00365   0.00000  -0.01657  -0.01688   1.89044
   A24        1.91763  -0.00150   0.00000  -0.00584  -0.00565   1.91198
   A25        1.94763   0.00100   0.00000   0.00688   0.00687   1.95450
   A26        1.93956   0.00098   0.00000   0.00593   0.00592   1.94548
   A27        1.94775  -0.00161   0.00000  -0.01057  -0.01055   1.93720
   A28        1.87505  -0.00090   0.00000  -0.00423  -0.00426   1.87080
   A29        1.87395   0.00034   0.00000   0.00224   0.00226   1.87621
   A30        1.87621   0.00017   0.00000  -0.00041  -0.00040   1.87582
   A31        1.94555  -0.00073   0.00000  -0.00635  -0.00647   1.93908
   A32        1.95026  -0.00288   0.00000  -0.01987  -0.01992   1.93034
   A33        1.93891   0.00309   0.00000   0.02298   0.02304   1.96195
   A34        1.87849   0.00112   0.00000  -0.00060  -0.00081   1.87768
   A35        1.87451  -0.00079   0.00000  -0.00070  -0.00072   1.87379
   A36        1.87240   0.00025   0.00000   0.00497   0.00508   1.87749
    D1       -3.12954   0.00052   0.00000   0.01810   0.01805  -3.11148
    D2       -1.11555  -0.00019   0.00000   0.00909   0.00898  -1.10657
    D3        1.02918   0.00000   0.00000   0.01622   0.01632   1.04549
    D4        1.05896   0.00034   0.00000   0.01494   0.01491   1.07387
    D5        3.07294  -0.00037   0.00000   0.00592   0.00584   3.07878
    D6       -1.06551  -0.00018   0.00000   0.01305   0.01318  -1.05233
    D7       -1.03540   0.00067   0.00000   0.02073   0.02071  -1.01469
    D8        0.97858  -0.00004   0.00000   0.01172   0.01164   0.99022
    D9        3.12331   0.00015   0.00000   0.01884   0.01898  -3.14090
   D10        0.81435  -0.00039   0.00000  -0.03706  -0.03705   0.77730
   D11       -1.26129  -0.00021   0.00000  -0.02286  -0.02265  -1.28394
   D12        2.87604  -0.00107   0.00000  -0.06012  -0.06017   2.81588
   D13       -1.30891  -0.00056   0.00000  -0.03750  -0.03746  -1.34636
   D14        2.89864  -0.00038   0.00000  -0.02330  -0.02307   2.87558
   D15        0.75279  -0.00123   0.00000  -0.06056  -0.06058   0.69221
   D16        2.95987   0.00091   0.00000  -0.01966  -0.01985   2.94002
   D17        0.88423   0.00109   0.00000  -0.00547  -0.00546   0.87878
   D18       -1.26162   0.00024   0.00000  -0.04272  -0.04297  -1.30459
   D19        0.76052  -0.00065   0.00000  -0.00690  -0.00713   0.75339
   D20       -1.25559   0.00010   0.00000   0.00206   0.00186  -1.25373
   D21        2.88419  -0.00064   0.00000   0.00134   0.00139   2.88558
   D22       -1.31405  -0.00023   0.00000   0.01047   0.01038  -1.30367
   D23        2.95302   0.00052   0.00000   0.01943   0.01938   2.97240
   D24        0.80962  -0.00022   0.00000   0.01871   0.01890   0.82852
   D25        2.89372   0.00039   0.00000   0.03160   0.03160   2.92532
   D26        0.87761   0.00114   0.00000   0.04056   0.04060   0.91821
   D27       -1.26579   0.00040   0.00000   0.03985   0.04013  -1.22567
   D28       -1.06545   0.00217   0.00000   0.04463   0.04455  -1.02090
   D29        1.03732   0.00110   0.00000   0.02572   0.02578   1.06310
   D30        3.12777   0.00158   0.00000   0.03429   0.03423  -3.12119
   D31        0.99727   0.00050   0.00000   0.01669   0.01663   1.01391
   D32        3.10004  -0.00057   0.00000  -0.00222  -0.00214   3.09790
   D33       -1.09269  -0.00009   0.00000   0.00635   0.00631  -1.08638
   D34        3.07474  -0.00086   0.00000  -0.00599  -0.00602   3.06872
   D35       -1.10568  -0.00193   0.00000  -0.02491  -0.02479  -1.13047
   D36        0.98478  -0.00145   0.00000  -0.01633  -0.01634   0.96843
   D37        1.05771  -0.00075   0.00000  -0.00584  -0.00577   1.05194
   D38       -3.13300  -0.00056   0.00000  -0.00255  -0.00245  -3.13545
   D39       -1.03896  -0.00077   0.00000  -0.00617  -0.00608  -1.04504
   D40       -3.10150   0.00082   0.00000   0.01516   0.01506  -3.08644
   D41       -1.00902   0.00101   0.00000   0.01846   0.01838  -0.99064
   D42        1.08501   0.00080   0.00000   0.01484   0.01475   1.09977
   D43       -1.08532  -0.00013   0.00000   0.00398   0.00397  -1.08136
   D44        1.00716   0.00006   0.00000   0.00727   0.00728   1.01444
   D45        3.10119  -0.00015   0.00000   0.00366   0.00366   3.10485
         Item               Value     Threshold  Converged?
 Maximum Force            0.009956     0.000015     NO 
 RMS     Force            0.002427     0.000010     NO 
 Maximum Displacement     0.230181     0.000060     NO 
 RMS     Displacement     0.049261     0.000040     NO 
 Predicted change in Energy=-1.497995D-03
 GradGradGradGradGradGradGradGradGradGradGradGradGradGradGradGradGradGrad

 Leave Link  103 at Fri Sep 18 13:24:43 2015, MaxMem=  402653184 cpu:       0.1
 (Enter /share/apps/g09/l202.exe)
                          Input orientation:                          
 ---------------------------------------------------------------------
 Center     Atomic      Atomic             Coordinates (Angstroms)
 Number     Number       Type             X           Y           Z
 ---------------------------------------------------------------------
      1          6           0       -2.294419   -0.857244   -0.223574
      2          1           0       -1.868549   -1.814819    0.094847
      3          1           0       -2.352987   -0.871476   -1.318888
      4          1           0       -3.320831   -0.817086    0.160151
      5          6           0       -1.465758    0.338525    0.265331
      6          1           0       -1.965332    1.261299   -0.062106
      7          1           0       -1.471521    0.373294    1.364499
      8          6           0        0.002437    0.372169   -0.225532
      9          1           0       -0.007289    0.126858   -1.299064
     10          6           0        0.888855   -0.677496    0.486609
     11          1           0        0.348834   -1.629683    0.556996
     12          1           0        1.051224   -0.349287    1.523454
     13          6           0        2.242174   -0.939450   -0.186792
     14          1           0        2.856968   -0.034014   -0.237879
     15          1           0        2.821865   -1.694477    0.357621
     16          1           0        2.106720   -1.304458   -1.212316
     17          6           0        0.580812    1.789534   -0.078883
     18          1           0       -0.010402    2.517839   -0.646650
     19          1           0        0.572168    2.103256    0.972902
     20          1           0        1.614674    1.857976   -0.436101
 ---------------------------------------------------------------------
                    Distance matrix (angstroms):
                    1          2          3          4          5
     1  C    0.000000
     2  H    1.095311   0.000000
     3  H    1.096971   1.767264   0.000000
     4  H    1.096531   1.763195   1.768400   0.000000
     5  C    1.534787   2.197316   2.181978   2.188104   0.000000
     6  H    2.150022   3.081640   2.505695   2.491278   1.099228
     7  H    2.171028   2.560759   3.086584   2.507470   1.099734
     8  C    2.605189   2.895885   2.879255   3.550661   1.548443
     9  H    2.712213   3.029420   2.549385   3.741644   2.149248
    10  C    3.266482   3.008365   3.715776   4.224633   2.573998
    11  H    2.862296   2.272586   3.375449   3.779450   2.692890
    12  H    3.808341   3.565639   4.465451   4.603510   2.896750
    13  C    4.537487   4.212319   4.733050   5.575156   3.947961
    14  H    5.216771   5.060878   5.386423   6.239938   4.367833
    15  H    5.216810   4.699310   5.501555   6.208182   4.746085
    16  H    4.532950   4.215674   4.481944   5.619565   4.200646
    17  C    3.910668   4.361297   4.150393   4.698343   2.532264
    18  H    4.097183   4.772258   4.174573   4.767766   2.774739
    19  H    4.291088   4.698871   4.760028   4.934005   2.787127
    20  H    4.764304   5.089614   4.896076   5.645413   3.505681
                    6          7          8          9         10
     6  H    0.000000
     7  H    1.751458   0.000000
     8  C    2.165497   2.168122   0.000000
     9  H    2.578944   3.049472   1.101247   0.000000
    10  C    3.493766   2.728778   1.547475   2.153762   0.000000
    11  H    3.754521   2.824477   2.177097   2.580159   1.096921
    12  H    3.769297   2.628999   2.163193   3.051848   1.099606
    13  C    4.749942   4.233360   2.595817   2.726581   1.534132
    14  H    4.996329   4.633501   2.883311   3.058751   2.193723
    15  H    5.641811   4.870590   3.544046   3.750464   2.188016
    16  H    4.948504   4.717906   2.865803   2.554452   2.182343
    17  C    2.600416   2.881174   1.537838   2.144574   2.549689
    18  H    2.396316   3.283087   2.186642   2.478395   3.507578
    19  H    2.866886   2.706064   2.181169   3.066553   2.840661
    20  H    3.648608   3.869243   2.202559   2.524329   2.794070
                   11         12         13         14         15
    11  H    0.000000
    12  H    1.751230   0.000000
    13  C    2.148110   2.166010   0.000000
    14  H    3.077129   2.542125   1.095626   0.000000
    15  H    2.481900   2.510751   1.096582   1.764367   0.000000
    16  H    2.515234   3.083968   1.096940   1.768170   1.768686
    17  C    3.485571   2.713546   3.196737   2.920872   4.165476
    18  H    4.333561   3.749241   4.151917   3.860163   5.174350
    19  H    3.762670   2.558821   3.659490   3.354731   4.456734
    20  H    3.840880   3.004886   2.877760   2.272050   3.835000
                   16         17         18         19         20
    16  H    0.000000
    17  C    3.631233   0.000000
    18  H    4.405920   1.096504   0.000000
    19  H    4.329265   1.097610   1.770372   0.000000
    20  H    3.293266   1.095974   1.766528   1.769822   0.000000
 Stoichiometry    C6H14
 Framework group  C1[X(C6H14)]
 Deg. of freedom    54
 Full point group                 C1      NOp   1
 Largest Abelian subgroup         C1      NOp   1
 Largest concise Abelian subgroup C1      NOp   1
                         Standard orientation:                         
 ---------------------------------------------------------------------
 Center     Atomic      Atomic             Coordinates (Angstroms)
 Number     Number       Type             X           Y           Z
 ---------------------------------------------------------------------
      1          6           0       -2.291928   -0.867824   -0.220585
      2          1           0       -1.858709   -1.824817    0.089564
      3          1           0       -2.355021   -0.875036   -1.315716
      4          1           0       -3.316946   -0.836738    0.167682
      5          6           0       -1.468747    0.329829    0.272946
      6          1           0       -1.975487    1.251618   -0.046147
      7          1           0       -1.470096    0.357145    1.372339
      8          6           0       -0.002874    0.376054   -0.223798
      9          1           0       -0.015582    0.137934   -1.298917
     10          6           0        0.893118   -0.672774    0.477513
     11          1           0        0.359395   -1.628804    0.543702
     12          1           0        1.057789   -0.350547    1.515871
     13          6           0        2.245207   -0.921628   -0.203287
     14          1           0        2.854076   -0.012004   -0.250804
     15          1           0        2.831922   -1.676635    0.333578
     16          1           0        2.107729   -1.280557   -1.230685
     17          6           0        0.567192    1.796021   -0.069968
     18          1           0       -0.030976    2.524392   -0.630318
     19          1           0        0.561009    2.102579    0.983945
     20          1           0        1.599089    1.873398   -0.431024
 ---------------------------------------------------------------------
 Rotational constants (GHZ):      4.5425904      2.1908925      1.6372800
 Leave Link  202 at Fri Sep 18 13:24:43 2015, MaxMem=  402653184 cpu:       0.0
 (Enter /share/apps/g09/l301.exe)
 Standard basis: 6-31G(d) (6D, 7F)
 Ernie: Thresh=  0.10000D-02 Tol=  0.10000D-05 Strict=F.
 There are   118 symmetry adapted basis functions of A   symmetry.
 Integral buffers will be    131072 words long.
 Raffenetti 2 integral format.
 Two-electron integral symmetry is turned on.
   118 basis functions,   224 primitive gaussians,   118 cartesian basis functions
    25 alpha electrons       25 beta electrons
       nuclear repulsion energy       255.2762774943 Hartrees.
 IExCor=  402 DFT=T Ex+Corr=B3LYP ExCW=0 ScaHFX=  0.200000
 ScaDFX=  0.800000  0.720000  1.000000  0.810000 ScalE2=  1.000000  1.000000
 IRadAn=      5 IRanWt=     -1 IRanGd=            0 ICorTp=0
 NAtoms=   20 NActive=   20 NUniq=   20 SFac= 7.50D-01 NAtFMM=   80 NAOKFM=F Big=F
 Leave Link  301 at Fri Sep 18 13:24:43 2015, MaxMem=  402653184 cpu:       0.1
 (Enter /share/apps/g09/l302.exe)
 NPDir=0 NMtPBC=     1 NCelOv=     1 NCel=       1 NClECP=     1 NCelD=      1
         NCelK=      1 NCelE2=     1 NClLst=     1 CellRange=     0.0.
 One-electron integrals computed using PRISM.
 NBasis=   118 RedAO= T  NBF=   118
 NBsUse=   118 1.00D-06 NBFU=   118
 Precomputing XC quadrature grid using
 IXCGrd= 2 IRadAn=           5 IRanWt=          -1 IRanGd=           0 AccXCQ= 1.00D-10.
 NRdTot=    1645 NPtTot=      440330 NUsed=      452118 NTot=      452150
 NSgBfM=   118   118   118   118   118 NAtAll=    20    20.
 Leave Link  302 at Fri Sep 18 13:24:44 2015, MaxMem=  402653184 cpu:       1.2
 (Enter /share/apps/g09/l303.exe)
 DipDrv:  MaxL=1.
 Leave Link  303 at Fri Sep 18 13:24:44 2015, MaxMem=  402653184 cpu:       0.1
 (Enter /share/apps/g09/l401.exe)
 Initial guess read from the read-write file.
 B after Tr=     0.000000    0.000000    0.000000
         Rot=    1.000000    0.000000    0.000000    0.000000 Ang=   0.00 deg.
 Guess basis will be translated and rotated to current coordinates.
 Initial guess orbital symmetries:
       Occupied  (A) (A) (A) (A) (A) (A) (A) (A) (A) (A) (A) (A)
                 (A) (A) (A) (A) (A) (A) (A) (A) (A) (A) (A) (A)
                 (A)
       Virtual   (A) (A) (A) (A) (A) (A) (A) (A) (A) (A) (A) (A)
                 (A) (A) (A) (A) (A) (A) (A) (A) (A) (A) (A) (A)
                 (A) (A) (A) (A) (A) (A) (A) (A) (A) (A) (A) (A)
                 (A) (A) (A) (A) (A) (A) (A) (A) (A) (A) (A) (A)
                 (A) (A) (A) (A) (A) (A) (A) (A) (A) (A) (A) (A)
                 (A) (A) (A) (A) (A) (A) (A) (A) (A) (A) (A) (A)
                 (A) (A) (A) (A) (A) (A) (A) (A) (A) (A) (A) (A)
                 (A) (A) (A) (A) (A) (A) (A) (A) (A)
 The electronic state of the initial guess is 1-A.
 Generating alternative initial guess.
 Harris functional with IExCor=  402 diagonalized for initial guess.
 ExpMin= 1.61D-01 ExpMax= 3.05D+03 ExpMxC= 4.57D+02 IAcc=3 IRadAn=         5 AccDes= 0.00D+00
 HarFok:  IExCor=  402 AccDes= 0.00D+00 IRadAn=         5 IDoV= 1
 ScaDFX=  1.000000  1.000000  1.000000  1.000000
 FoFCou: FMM=F IPFlag=           0 FMFlag=      100000 FMFlg1=           0
         NFxFlg=           0 DoJE=T BraDBF=F KetDBF=T FulRan=T
         Omega=  0.000000  0.000000  1.000000  0.000000  0.000000 ICntrl=     500 IOpCl=  0
         NMat0=    1 NMatS0=    1 NMatT0=    0 NMatD0=    1 NMtDS0=    0 NMtDT0=    0
         I1Cent=           4 NGrid=           0.
 Petite list used in FoFCou.
 Harris En= -237.180122944970    
 Leave Link  401 at Fri Sep 18 13:24:49 2015, MaxMem=  402653184 cpu:      10.4
 (Enter /share/apps/g09/l502.exe)
 Closed shell SCF:
 Requested convergence on RMS density matrix=1.00D-08 within 128 cycles.
 Requested convergence on MAX density matrix=1.00D-06.
 Requested convergence on             energy=1.00D-06.
 No special actions if energy rises.
 Using DIIS extrapolation, IDIIS=  1040.
 Integral symmetry usage will be decided dynamically.
       451925 words used for storage of precomputed grid.
 Keep R1 ints in memory in canonical form, NReq=26105980.
 IEnd=      513469 IEndB=      513469 NGot=   402653184 MDV=   377519639
 LenX=   377519639 LenY=   377505274
 Symmetry not used in FoFDir.
 MinBra= 0 MaxBra= 2 Meth= 1.
 IRaf=       0 NMat=   1 IRICut=       1 DoRegI=T DoRafI=F ISym2E= 0 JSym2E=0.
 Integral accuracy reduced to 1.0D-05 until final iterations.

 Cycle   1  Pass 0  IDiag  1:
 E= -237.080814412685    
 DIIS: error= 1.97D-03 at cycle   1 NSaved=   1.
 NSaved= 1 IEnMin= 1 EnMin= -237.080814412685     IErMin= 1 ErrMin= 1.97D-03
 ErrMax= 1.97D-03 EMaxC= 1.00D-01 BMatC= 9.84D-04 BMatP= 9.84D-04
 IDIUse=3 WtCom= 9.80D-01 WtEn= 1.97D-02
 Coeff-Com:  0.100D+01
 Coeff-En:   0.100D+01
 Coeff:      0.100D+01
 Gap=     0.395 Goal=   None    Shift=    0.000
 GapD=    0.395 DampG=1.000 DampE=1.000 DampFc=1.0000 IDamp=-1.
 RMSDP=3.94D-04 MaxDP=5.80D-03              OVMax= 1.16D-02

 Cycle   2  Pass 0  IDiag  1:
 E= -237.082658598153     Delta-E=       -0.001844185468 Rises=F Damp=F
 DIIS: error= 2.61D-04 at cycle   2 NSaved=   2.
 NSaved= 2 IEnMin= 2 EnMin= -237.082658598153     IErMin= 2 ErrMin= 2.61D-04
 ErrMax= 2.61D-04 EMaxC= 1.00D-01 BMatC= 2.54D-05 BMatP= 9.84D-04
 IDIUse=3 WtCom= 9.97D-01 WtEn= 2.61D-03
 Coeff-Com: -0.241D-01 0.102D+01
 Coeff-En:   0.000D+00 0.100D+01
 Coeff:     -0.241D-01 0.102D+01
 Gap=     0.392 Goal=   None    Shift=    0.000
 RMSDP=9.72D-05 MaxDP=1.42D-03 DE=-1.84D-03 OVMax= 1.96D-03

 Cycle   3  Pass 0  IDiag  1:
 E= -237.082667166260     Delta-E=       -0.000008568108 Rises=F Damp=F
 DIIS: error= 3.15D-04 at cycle   3 NSaved=   3.
 NSaved= 3 IEnMin= 3 EnMin= -237.082667166260     IErMin= 2 ErrMin= 2.61D-04
 ErrMax= 3.15D-04 EMaxC= 1.00D-01 BMatC= 2.63D-05 BMatP= 2.54D-05
 IDIUse=3 WtCom= 9.97D-01 WtEn= 3.15D-03
 Coeff-Com: -0.353D-01 0.532D+00 0.503D+00
 Coeff-En:   0.000D+00 0.405D+00 0.595D+00
 Coeff:     -0.352D-01 0.532D+00 0.503D+00
 Gap=     0.393 Goal=   None    Shift=    0.000
 RMSDP=4.89D-05 MaxDP=7.87D-04 DE=-8.57D-06 OVMax= 1.00D-03

 Cycle   4  Pass 0  IDiag  1:
 E= -237.082693155737     Delta-E=       -0.000025989477 Rises=F Damp=F
 DIIS: error= 4.37D-05 at cycle   4 NSaved=   4.
 NSaved= 4 IEnMin= 4 EnMin= -237.082693155737     IErMin= 4 ErrMin= 4.37D-05
 ErrMax= 4.37D-05 EMaxC= 1.00D-01 BMatC= 5.42D-07 BMatP= 2.54D-05
 IDIUse=1 WtCom= 1.00D+00 WtEn= 0.00D+00
 Coeff-Com: -0.124D-01 0.136D+00 0.186D+00 0.690D+00
 Coeff:     -0.124D-01 0.136D+00 0.186D+00 0.690D+00
 Gap=     0.393 Goal=   None    Shift=    0.000
 RMSDP=7.71D-06 MaxDP=1.05D-04 DE=-2.60D-05 OVMax= 1.53D-04

 Initial convergence to 1.0D-05 achieved.  Increase integral accuracy.
 Cycle   5  Pass 1  IDiag  1:
 E= -237.082679151028     Delta-E=        0.000014004710 Rises=F Damp=F
 DIIS: error= 7.70D-06 at cycle   1 NSaved=   1.
 NSaved= 1 IEnMin= 1 EnMin= -237.082679151028     IErMin= 1 ErrMin= 7.70D-06
 ErrMax= 7.70D-06 EMaxC= 1.00D-01 BMatC= 1.80D-08 BMatP= 1.80D-08
 IDIUse=1 WtCom= 1.00D+00 WtEn= 0.00D+00
 Coeff-Com:  0.100D+01
 Coeff:      0.100D+01
 Gap=     0.393 Goal=   None    Shift=    0.000
 RMSDP=7.71D-06 MaxDP=1.05D-04 DE= 1.40D-05 OVMax= 5.41D-05

 Cycle   6  Pass 1  IDiag  1:
 E= -237.082679154185     Delta-E=       -0.000000003157 Rises=F Damp=F
 DIIS: error= 9.71D-06 at cycle   2 NSaved=   2.
 NSaved= 2 IEnMin= 2 EnMin= -237.082679154185     IErMin= 1 ErrMin= 7.70D-06
 ErrMax= 9.71D-06 EMaxC= 1.00D-01 BMatC= 1.71D-08 BMatP= 1.80D-08
 IDIUse=1 WtCom= 1.00D+00 WtEn= 0.00D+00
 Coeff-Com:  0.493D+00 0.507D+00
 Coeff:      0.493D+00 0.507D+00
 Gap=     0.393 Goal=   None    Shift=    0.000
 RMSDP=1.29D-06 MaxDP=2.83D-05 DE=-3.16D-09 OVMax= 3.14D-05

 Cycle   7  Pass 1  IDiag  1:
 E= -237.082679170811     Delta-E=       -0.000000016625 Rises=F Damp=F
 DIIS: error= 1.70D-06 at cycle   3 NSaved=   3.
 NSaved= 3 IEnMin= 3 EnMin= -237.082679170811     IErMin= 3 ErrMin= 1.70D-06
 ErrMax= 1.70D-06 EMaxC= 1.00D-01 BMatC= 5.17D-10 BMatP= 1.71D-08
 IDIUse=1 WtCom= 1.00D+00 WtEn= 0.00D+00
 Coeff-Com:  0.116D+00 0.193D+00 0.692D+00
 Coeff:      0.116D+00 0.193D+00 0.692D+00
 Gap=     0.393 Goal=   None    Shift=    0.000
 RMSDP=2.69D-07 MaxDP=5.70D-06 DE=-1.66D-08 OVMax= 5.90D-06

 Cycle   8  Pass 1  IDiag  1:
 E= -237.082679171309     Delta-E=       -0.000000000498 Rises=F Damp=F
 DIIS: error= 3.48D-07 at cycle   4 NSaved=   4.
 NSaved= 4 IEnMin= 4 EnMin= -237.082679171309     IErMin= 4 ErrMin= 3.48D-07
 ErrMax= 3.48D-07 EMaxC= 1.00D-01 BMatC= 2.65D-11 BMatP= 5.17D-10
 IDIUse=1 WtCom= 1.00D+00 WtEn= 0.00D+00
 Coeff-Com: -0.666D-02 0.168D-01 0.218D+00 0.772D+00
 Coeff:     -0.666D-02 0.168D-01 0.218D+00 0.772D+00
 Gap=     0.393 Goal=   None    Shift=    0.000
 RMSDP=6.13D-08 MaxDP=8.26D-07 DE=-4.98D-10 OVMax= 1.16D-06

 Cycle   9  Pass 1  IDiag  1:
 E= -237.082679171334     Delta-E=       -0.000000000026 Rises=F Damp=F
 DIIS: error= 9.64D-08 at cycle   5 NSaved=   5.
 NSaved= 5 IEnMin= 5 EnMin= -237.082679171334     IErMin= 5 ErrMin= 9.64D-08
 ErrMax= 9.64D-08 EMaxC= 1.00D-01 BMatC= 2.56D-12 BMatP= 2.65D-11
 IDIUse=1 WtCom= 1.00D+00 WtEn= 0.00D+00
 Coeff-Com: -0.644D-02 0.377D-02 0.964D-01 0.396D+00 0.510D+00
 Coeff:     -0.644D-02 0.377D-02 0.964D-01 0.396D+00 0.510D+00
 Gap=     0.393 Goal=   None    Shift=    0.000
 RMSDP=1.25D-08 MaxDP=3.50D-07 DE=-2.59D-11 OVMax= 2.85D-07

 Cycle  10  Pass 1  IDiag  1:
 E= -237.082679171337     Delta-E=       -0.000000000003 Rises=F Damp=F
 DIIS: error= 7.11D-09 at cycle   6 NSaved=   6.
 NSaved= 6 IEnMin= 6 EnMin= -237.082679171337     IErMin= 6 ErrMin= 7.11D-09
 ErrMax= 7.11D-09 EMaxC= 1.00D-01 BMatC= 2.10D-14 BMatP= 2.56D-12
 IDIUse=1 WtCom= 1.00D+00 WtEn= 0.00D+00
 Coeff-Com: -0.926D-03-0.887D-04 0.902D-02 0.401D-01 0.107D+00 0.845D+00
 Coeff:     -0.926D-03-0.887D-04 0.902D-02 0.401D-01 0.107D+00 0.845D+00
 Gap=     0.393 Goal=   None    Shift=    0.000
 RMSDP=1.75D-09 MaxDP=2.61D-08 DE=-2.56D-12 OVMax= 3.19D-08

 SCF Done:  E(RB3LYP) =  -237.082679171     A.U. after   10 cycles
             Convg  =    0.1748D-08             -V/T =  2.0106
 KE= 2.346070903195D+02 PE=-1.057456259964D+03 EE= 3.304902129785D+02
 Leave Link  502 at Fri Sep 18 13:25:41 2015, MaxMem=  402653184 cpu:     104.6
 (Enter /share/apps/g09/l701.exe)
 Compute integral first derivatives.
 ... and contract with generalized density number  0.
 Leave Link  701 at Fri Sep 18 13:25:41 2015, MaxMem=  402653184 cpu:       0.3
 (Enter /share/apps/g09/l702.exe)
 L702 exits ... SP integral derivatives will be done elsewhere.
 Leave Link  702 at Fri Sep 18 13:25:41 2015, MaxMem=  402653184 cpu:       0.0
 (Enter /share/apps/g09/l703.exe)
 Compute integral first derivatives, UseDBF=F ICtDFT=           0.
 Integral derivatives from FoFDir, PRISM(SPDF).
 Calling FoFJK, ICntrl=      2127 FMM=F ISym2X=0 I1Cent= 0 IOpClX= 0 NMat=1 NMatS=1 NMatT=0.
 FoFCou: FMM=F IPFlag=           0 FMFlag=      100000 FMFlg1=         800
         NFxFlg=           0 DoJE=F BraDBF=F KetDBF=F FulRan=T
         Omega=  0.000000  0.000000  1.000000  0.000000  0.000000 ICntrl=    2127 IOpCl=  0
         NMat0=    1 NMatS0=    1 NMatT0=    0 NMatD0=    1 NMtDS0=    0 NMtDT0=    0
         I1Cent=           0 NGrid=           0.
 Symmetry not used in FoFCou.
 Leave Link  703 at Fri Sep 18 13:25:54 2015, MaxMem=  402653184 cpu:      24.9
 (Enter /share/apps/g09/l716.exe)
 Dipole        =-1.45474806D-02-8.83831358D-03-2.46555000D-03
 ***** Axes restored to original set *****
 -------------------------------------------------------------------
 Center     Atomic                   Forces (Hartrees/Bohr)
 Number     Number              X              Y              Z
 -------------------------------------------------------------------
      1        6           0.001234355   -0.000289017   -0.000003569
      2        1           0.000583435   -0.000416844    0.000250159
      3        1           0.000172136    0.000031553   -0.000142561
      4        1           0.000468260    0.000845329    0.000279445
      5        6           0.000856796    0.000719973    0.000697677
      6        1           0.000350192   -0.000200405   -0.000248370
      7        1          -0.000261776   -0.000405696    0.000445080
      8        6           0.000000790   -0.000929381   -0.001481632
      9        1           0.000071522   -0.000378725   -0.000753355
     10        6          -0.001399645    0.000630160    0.000414749
     11        1          -0.000887653   -0.000359859   -0.000554650
     12        1           0.000153006    0.000122673    0.000495078
     13        6           0.000065149    0.000840379   -0.000435250
     14        1           0.000103014    0.000096303   -0.000038315
     15        1          -0.000866983    0.000079384    0.000357516
     16        1          -0.000084374    0.000009259   -0.000207321
     17        6          -0.000100556   -0.000036697    0.000350735
     18        1          -0.000155681   -0.000118417    0.000071065
     19        1           0.000071961    0.000340678    0.000395351
     20        1          -0.000373947   -0.000580649    0.000108168
 -------------------------------------------------------------------
 Cartesian Forces:  Max     0.001481632 RMS     0.000520493
 Leave Link  716 at Fri Sep 18 13:25:54 2015, MaxMem=  402653184 cpu:       0.0
 (Enter /share/apps/g09/l103.exe)

 GradGradGradGradGradGradGradGradGradGradGradGradGradGradGradGradGradGrad
 Berny optimization.
 Using GEDIIS/GDIIS optimizer.
[...]
 GradGradGradGradGradGradGradGradGradGradGradGradGradGradGradGradGradGrad

 Largest change from initial coordinates is atom   14       0.025 Angstoms.
 Leave Link  103 at Fri Sep 18 13:33:31 2015, MaxMem=  402653184 cpu:       0.1
 (Enter /share/apps/g09/l202.exe)
                          Input orientation:                          
 ---------------------------------------------------------------------
 Center     Atomic      Atomic             Coordinates (Angstroms)
 Number     Number       Type             X           Y           Z
 ---------------------------------------------------------------------
      1          6           0       -2.281909   -0.877702   -0.132698
      2          1           0       -1.884674   -1.784092    0.336901
      3          1           0       -2.290482   -1.042408   -1.217568
      4          1           0       -3.322866   -0.771639    0.193853
      5          6           0       -1.467801    0.370452    0.229172
      6          1           0       -1.977476    1.251182   -0.185699
      7          1           0       -1.470809    0.508041    1.320936
      8          6           0       -0.007440    0.375451   -0.271928
      9          1           0       -0.027929    0.159322   -1.352906
     10          6           0        0.839791   -0.720503    0.407199
     11          1           0        0.317681   -1.681926    0.324454
     12          1           0        0.903663   -0.500954    1.483784
     13          6           0        2.252914   -0.890838   -0.164398
     14          1           0        2.870472    0.001239   -0.014043
     15          1           0        2.769340   -1.730273    0.315329
     16          1           0        2.220842   -1.094691   -1.242220
     17          6           0        0.606304    1.772037   -0.083129
     18          1           0       -0.000346    2.537902   -0.580917
     19          1           0        0.661047    2.033554    0.982189
     20          1           0        1.619315    1.837105   -0.493683
 ---------------------------------------------------------------------
                    Distance matrix (angstroms):
                    1          2          3          4          5
     1  C    0.000000
     2  H    1.095382   0.000000
     3  H    1.097335   1.769505   0.000000
     4  H    1.096119   1.764630   1.769532   0.000000
     5  C    1.533496   2.197146   2.183125   2.178735   0.000000
     6  H    2.151195   3.081333   2.534420   2.458849   1.098896
     7  H    2.165922   2.528534   3.085411   2.517540   1.100404
     8  C    2.600575   2.925459   2.849007   3.539042   1.543950
     9  H    2.764914   3.174871   2.565466   3.757094   2.149599
    10  C    3.171941   2.925556   3.541483   4.168434   2.558683
    11  H    2.759281   2.204759   3.096664   3.754898   2.721999
    12  H    3.592050   3.276676   4.218179   4.427272   2.820858
    13  C    4.534952   4.262492   4.666325   5.588548   3.948350
    14  H    5.228159   5.091364   5.401215   6.244837   4.360744
    15  H    5.142248   4.654375   5.331485   6.168363   4.730099
    16  H    4.642508   4.452433   4.511694   5.735796   4.232933
    17  C    3.919866   4.362047   4.195166   4.688857   2.522674
    18  H    4.131923   4.803407   4.297519   4.753154   2.739983
    19  H    4.287117   4.633737   4.797082   4.935802   2.804449
    20  H    4.766554   5.106944   4.909391   5.630577   3.493404
                    6          7          8          9         10
     6  H    0.000000
     7  H    1.754685   0.000000
     8  C    2.157633   2.167082   0.000000
     9  H    2.520964   3.058257   1.102563   0.000000
    10  C    3.489421   2.771842   1.542766   2.150581   0.000000
    11  H    3.759139   2.997937   2.166605   2.514592   1.097169
    12  H    3.762727   2.585094   2.163497   3.057881   1.100598
    13  C    4.741825   4.246080   2.593116   2.778062   1.533836
    14  H    5.009433   4.570092   2.913575   3.196604   2.195910
    15  H    5.627821   4.898996   3.534042   3.765407   2.179733
    16  H    4.923944   4.771457   2.840427   2.577163   2.183552
    17  C    2.637750   2.807754   1.537133   2.148356   2.551017
    18  H    2.391838   3.146371   2.184427   2.500874   3.507051
    19  H    2.989627   2.643246   2.183801   3.072475   2.819112
    20  H    3.657193   3.822057   2.198167   2.503324   2.821454
                   11         12         13         14         15
    11  H    0.000000
    12  H    1.755595   0.000000
    13  C    2.147073   2.165408   0.000000
    14  H    3.076421   2.522701   1.095348   0.000000
    15  H    2.452153   2.521361   1.096123   1.765459   0.000000
    16  H    2.534035   3.085219   1.097399   1.769605   1.769399
    17  C    3.489883   2.776711   3.131905   2.875231   4.135658
    18  H    4.327562   3.783500   4.123946   3.872674   5.166405
    19  H    3.788840   2.595033   3.521473   3.162964   4.365318
    20  H    3.840205   3.144686   2.819849   2.272852   3.834481
                   16         17         18         19         20
    16  H    0.000000
    17  C    3.488316   0.000000
    18  H    4.308913   1.096525   0.000000
    19  H    4.143293   1.098312   1.770623   0.000000
    20  H    3.085056   1.094979   1.766926   1.770612   0.000000
 Stoichiometry    C6H14
 Framework group  C1[X(C6H14)]
 Deg. of freedom    54
 Full point group                 C1      NOp   1
 Largest Abelian subgroup         C1      NOp   1
 Largest concise Abelian subgroup C1      NOp   1
                         Standard orientation:                         
 ---------------------------------------------------------------------
 Center     Atomic      Atomic             Coordinates (Angstroms)
 Number     Number       Type             X           Y           Z
 ---------------------------------------------------------------------
      1          6           0       -2.289961   -0.847807   -0.176374
      2          1           0       -1.907330   -1.770427    0.273324
      3          1           0       -2.288052   -0.983691   -1.265262
      4          1           0       -3.333374   -0.739440    0.141467
      5          6           0       -1.467213    0.381697    0.227378
      6          1           0       -1.963147    1.278406   -0.169527
      7          1           0       -1.481057    0.490414    1.322311
      8          6           0       -0.001348    0.384537   -0.257403
      9          1           0       -0.011924    0.197273   -1.343895
     10          6           0        0.826934   -0.737851    0.401630
     11          1           0        0.295957   -1.691194    0.287692
     12          1           0        0.880972   -0.547511    1.484297
     13          6           0        2.244559   -0.907914   -0.158789
     14          1           0        2.869503   -0.026682    0.021936
     15          1           0        2.746940   -1.765129    0.304115
     16          1           0        2.222492   -1.082867   -1.241927
     17          6           0        0.624523    1.769097   -0.024904
     18          1           0        0.031377    2.554202   -0.508801
     19          1           0        0.669989    2.001784    1.047514
     20          1           0        1.642689    1.834306   -0.422477
 ---------------------------------------------------------------------
 Rotational constants (GHZ):      4.6322796      2.2154012      1.6434173
 Leave Link  202 at Fri Sep 18 13:33:31 2015, MaxMem=  402653184 cpu:       0.0
 (Enter /share/apps/g09/l601.exe)
 Copying SCF densities to generalized density rwf, IOpCl= 0 IROHF=0.

 **********************************************************************

            Population analysis using the SCF density.

 **********************************************************************

 Orbital symmetries:
       Occupied  (A) (A) (A) (A) (A) (A) (A) (A) (A) (A) (A) (A)
                 (A) (A) (A) (A) (A) (A) (A) (A) (A) (A) (A) (A)
                 (A)
       Virtual   (A) (A) (A) (A) (A) (A) (A) (A) (A) (A) (A) (A)
                 (A) (A) (A) (A) (A) (A) (A) (A) (A) (A) (A) (A)
                 (A) (A) (A) (A) (A) (A) (A) (A) (A) (A) (A) (A)
                 (A) (A) (A) (A) (A) (A) (A) (A) (A) (A) (A) (A)
                 (A) (A) (A) (A) (A) (A) (A) (A) (A) (A) (A) (A)
                 (A) (A) (A) (A) (A) (A) (A) (A) (A) (A) (A) (A)
                 (A) (A) (A) (A) (A) (A) (A) (A) (A) (A) (A) (A)
                 (A) (A) (A) (A) (A) (A) (A) (A) (A)
 The electronic state is 1-A.
 Alpha  occ. eigenvalues --  -10.18105 -10.17463 -10.17418 -10.16987 -10.16967
 Alpha  occ. eigenvalues --  -10.16749  -0.80679  -0.74192  -0.70881  -0.63652
 Alpha  occ. eigenvalues --   -0.60384  -0.54788  -0.45844  -0.44059  -0.43415
 Alpha  occ. eigenvalues --   -0.41129  -0.40313  -0.37848  -0.36334  -0.35832
 Alpha  occ. eigenvalues --   -0.34531  -0.33710  -0.31325  -0.30583  -0.30356
 Alpha virt. eigenvalues --    0.08878   0.11000   0.12144   0.12861   0.15602
 Alpha virt. eigenvalues --    0.15686   0.16775   0.17332   0.17770   0.18353
 Alpha virt. eigenvalues --    0.18930   0.19581   0.22133   0.23115   0.25224
 Alpha virt. eigenvalues --    0.25517   0.26501   0.27831   0.28235   0.49850
 Alpha virt. eigenvalues --    0.50191   0.51379   0.52792   0.53883   0.58163
 Alpha virt. eigenvalues --    0.59718   0.62526   0.65096   0.66081   0.67776
 Alpha virt. eigenvalues --    0.69911   0.75227   0.76631   0.80224   0.83874
 Alpha virt. eigenvalues --    0.86642   0.88074   0.88340   0.89122   0.91011
 Alpha virt. eigenvalues --    0.92068   0.92351   0.92796   0.94253   0.96098
 Alpha virt. eigenvalues --    0.96720   0.97336   0.98692   1.00468   1.02617
 Alpha virt. eigenvalues --    1.03542   1.07267   1.25841   1.36144   1.41881
 Alpha virt. eigenvalues --    1.42534   1.55593   1.59010   1.61444   1.68041
 Alpha virt. eigenvalues --    1.72896   1.76654   1.83335   1.87476   1.89466
 Alpha virt. eigenvalues --    1.92120   1.95012   1.98249   2.01467   2.02031
 Alpha virt. eigenvalues --    2.02820   2.11795   2.14170   2.18571   2.27015
 Alpha virt. eigenvalues --    2.28556   2.30793   2.32069   2.34619   2.37625
 Alpha virt. eigenvalues --    2.42202   2.46384   2.52798   2.65189   2.68470
 Alpha virt. eigenvalues --    2.76740   2.78892   4.12034   4.21302   4.27226
 Alpha virt. eigenvalues --    4.39309   4.44482   4.59973
          Condensed to atoms (all electrons):
              1          2          3          4          5          6
     1  C    5.073618   0.376723   0.376721   0.371032   0.370979  -0.039498
     2  H    0.376723   0.572639  -0.032968  -0.031151  -0.033131   0.005168
     3  H    0.376721  -0.032968   0.580300  -0.031302  -0.035783  -0.003910
     4  H    0.371032  -0.031151  -0.031302   0.579717  -0.027517  -0.003805
     5  C    0.370979  -0.033131  -0.035783  -0.027517   4.992415   0.371197
     6  H   -0.039498   0.005168  -0.003910  -0.003805   0.371197   0.617650
     7  H   -0.039162  -0.004597   0.005345  -0.002274   0.368806  -0.039071
     8  C   -0.037882  -0.004724  -0.004940   0.003951   0.390244  -0.037130
     9  H   -0.005188  -0.000155   0.005924  -0.000007  -0.048315  -0.003124
    10  C   -0.004674   0.001383  -0.000447   0.000152  -0.042973   0.005218
    11  H    0.002254   0.004547   0.000321  -0.000126  -0.006008   0.000030
    12  H   -0.000205   0.000225   0.000055  -0.000020  -0.004373  -0.000051
    13  C    0.000098  -0.000147  -0.000028   0.000000   0.004252  -0.000161
    14  H   -0.000003   0.000001   0.000000   0.000000  -0.000008   0.000000
    15  H    0.000002   0.000008   0.000000   0.000000  -0.000136   0.000002
    16  H   -0.000017   0.000012   0.000001   0.000000   0.000076   0.000001
    17  C    0.004394   0.000019   0.000076  -0.000143  -0.047907  -0.005395
    18  H    0.000036   0.000002  -0.000003  -0.000006  -0.005127   0.005876
    19  H    0.000012   0.000001   0.000008   0.000002  -0.005537  -0.000271
    20  H   -0.000158   0.000003  -0.000001   0.000002   0.004731   0.000037
              7          8          9         10         11         12
     1  C   -0.039162  -0.037882  -0.005188  -0.004674   0.002254  -0.000205
     2  H   -0.004597  -0.004724  -0.000155   0.001383   0.004547   0.000225
     3  H    0.005345  -0.004940   0.005924  -0.000447   0.000321   0.000055
     4  H   -0.002274   0.003951  -0.000007   0.000152  -0.000126  -0.000020
     5  C    0.368806   0.390244  -0.048315  -0.042973  -0.006008  -0.004373
     6  H   -0.039071  -0.037130  -0.003124   0.005218   0.000030  -0.000051
     7  H    0.618753  -0.038258   0.006595  -0.008582  -0.000146   0.005748
     8  C   -0.038258   4.856075   0.373780   0.393097  -0.037588  -0.038934
     9  H    0.006595   0.373780   0.651458  -0.050277  -0.003428   0.006680
    10  C   -0.008582   0.393097  -0.050277   4.995565   0.373670   0.368978
    11  H   -0.000146  -0.037588  -0.003428   0.373670   0.608346  -0.038951
    12  H    0.005748  -0.038934   0.006680   0.368978  -0.038951   0.619280
    13  C    0.000028  -0.038982  -0.005105   0.370252  -0.038966  -0.039601
    14  H   -0.000001  -0.005105  -0.000209  -0.032955   0.005058  -0.004709
    15  H    0.000000   0.004001  -0.000015  -0.027797  -0.003599  -0.002202
    16  H    0.000011  -0.004620   0.005840  -0.036034  -0.003855   0.005347
    17  C   -0.003568   0.376360  -0.047303  -0.050293   0.005639  -0.008110
    18  H   -0.000244  -0.029649  -0.003184   0.005101  -0.000175  -0.000027
    19  H    0.004579  -0.034513   0.005936  -0.005816  -0.000013   0.005788
    20  H   -0.000105  -0.027858  -0.003388  -0.004763  -0.000038  -0.000053
             13         14         15         16         17         18
     1  C    0.000098  -0.000003   0.000002  -0.000017   0.004394   0.000036
     2  H   -0.000147   0.000001   0.000008   0.000012   0.000019   0.000002
     3  H   -0.000028   0.000000   0.000000   0.000001   0.000076  -0.000003
     4  H    0.000000   0.000000   0.000000   0.000000  -0.000143  -0.000006
     5  C    0.004252  -0.000008  -0.000136   0.000076  -0.047907  -0.005127
     6  H   -0.000161   0.000000   0.000002   0.000001  -0.005395   0.005876
     7  H    0.000028  -0.000001   0.000000   0.000011  -0.003568  -0.000244
     8  C   -0.038982  -0.005105   0.004001  -0.004620   0.376360  -0.029649
     9  H   -0.005105  -0.000209  -0.000015   0.005840  -0.047303  -0.003184
    10  C    0.370252  -0.032955  -0.027797  -0.036034  -0.050293   0.005101
    11  H   -0.038966   0.005058  -0.003599  -0.003855   0.005639  -0.000175
    12  H   -0.039601  -0.004709  -0.002202   0.005347  -0.008110  -0.000027
    13  C    5.072728   0.377838   0.371570   0.376640  -0.004259   0.000070
    14  H    0.377838   0.573670  -0.031500  -0.033013   0.002339  -0.000120
    15  H    0.371570  -0.031500   0.580132  -0.031380   0.000117   0.000001
    16  H    0.376640  -0.033013  -0.031380   0.580644  -0.000562  -0.000027
    17  C   -0.004259   0.002339   0.000117  -0.000562   5.119306   0.369458
    18  H    0.000070  -0.000120   0.000001  -0.000027   0.369458   0.581562
    19  H   -0.000301   0.000281  -0.000023   0.000079   0.371198  -0.031761
    20  H    0.002146   0.002877  -0.000083   0.000394   0.369183  -0.030436
             19         20
     1  C    0.000012  -0.000158
     2  H    0.000001   0.000003
     3  H    0.000008  -0.000001
     4  H    0.000002   0.000002
     5  C   -0.005537   0.004731
     6  H   -0.000271   0.000037
     7  H    0.004579  -0.000105
     8  C   -0.034513  -0.027858
     9  H    0.005936  -0.003388
    10  C   -0.005816  -0.004763
    11  H   -0.000013  -0.000038
    12  H    0.005788  -0.000053
    13  C   -0.000301   0.002146
    14  H    0.000281   0.002877
    15  H   -0.000023  -0.000083
    16  H    0.000079   0.000394
    17  C    0.371198   0.369183
    18  H   -0.031761  -0.030436
    19  H    0.585335  -0.032165
    20  H   -0.032165   0.576018
 Mulliken atomic charges:
              1
     1  C   -0.449082
     2  H    0.146143
     3  H    0.140629
     4  H    0.141495
     5  C   -0.245886
     6  H    0.127238
     7  H    0.126143
     8  C   -0.057325
     9  H    0.113488
    10  C   -0.248804
    11  H    0.133028
    12  H    0.125133
    13  C   -0.448070
    14  H    0.145559
    15  H    0.140903
    16  H    0.140465
    17  C   -0.450549
    18  H    0.138655
    19  H    0.137180
    20  H    0.143660
 Sum of Mulliken atomic charges =   0.00000
 Mulliken charges with hydrogens summed into heavy atoms:
              1
     1  C   -0.020816
     5  C    0.007495
     8  C    0.056163
    10  C    0.009356
    13  C   -0.021144
    17  C   -0.031055
 Sum of Mulliken charges with hydrogens summed into heavy atoms =   0.00000
 Electronic spatial extent (au):  <R**2>=            826.7902
 Charge=              0.0000 electrons
 Dipole moment (field-independent basis, Debye):
    X=             -0.0401    Y=             -0.0259    Z=             -0.0122  Tot=              0.0492
 Quadrupole moment (field-independent basis, Debye-Ang):
   XX=            -41.8608   YY=            -41.7599   ZZ=            -41.1974
   XY=             -0.1979   XZ=              0.1090   YZ=             -0.1492
 Traceless Quadrupole moment (field-independent basis, Debye-Ang):
   XX=             -0.2548   YY=             -0.1539   ZZ=              0.4087
   XY=             -0.1979   XZ=              0.1090   YZ=             -0.1492
 Octapole moment (field-independent basis, Debye-Ang**2):
  XXX=             -1.0351  YYY=             -1.4830  ZZZ=             -0.1919  XYY=              0.0499
  XXY=              1.2561  XXZ=              0.5388  XZZ=             -0.0559  YZZ=              0.0763
  YYZ=             -0.0765  XYZ=              0.1813
 Hexadecapole moment (field-independent basis, Debye-Ang**3):
 XXXX=           -698.6515 YYYY=           -346.1766 ZZZZ=            -99.8407 XXXY=              0.3935
 XXXZ=             -0.4887 YYYX=             -4.8293 YYYZ=             -3.4856 ZZZX=              0.4575
 ZZZY=              2.2492 XXYY=           -174.6965 XXZZ=           -134.1048 YYZZ=            -74.5758
 XXYZ=             -2.3884 YYXZ=              1.1461 ZZXY=             -0.2555
 N-N= 2.560315176305D+02 E-N=-1.058985800925D+03  KE= 2.346250592491D+02
 No NMR shielding tensors so no spin-rotation constants.
 Leave Link  601 at Fri Sep 18 13:33:31 2015, MaxMem=  402653184 cpu:       0.3
 (Enter /share/apps/g09/l9999.exe)
 1\1\GINC-COMPUTE-0-5\FOpt\RB3LYP\6-31G(d)\C6H14\HETANJIN\18-Sep-2015\0
 \\#p B3LYP/6-31G(d) opt=tight int=ultrafine\\using B3LYP/6-31G(d) to d
 o opt and freq calc.\\0,1\C,-2.2819086326,-0.8777022906,-0.1326978551\
 H,-1.8846738639,-1.78409243,0.3369006117\H,-2.2904818985,-1.0424080972
 ,-1.2175682092\H,-3.3228655996,-0.771638627,0.1938532197\C,-1.46780080
 51,0.3704523084,0.2291720986\H,-1.9774755076,1.251182312,-0.1856991576
 \H,-1.4708090027,0.5080406158,1.3209363676\C,-0.0074397127,0.375451336
 8,-0.2719279904\H,-0.0279289953,0.1593219095,-1.3529057012\C,0.8397913
 342,-0.7205025744,0.4071986599\H,0.3176811068,-1.6819260196,0.32445366
 84\H,0.903663362,-0.5009542993,1.4837836834\C,2.2529139042,-0.89083831
 44,-0.1643981753\H,2.8704723273,0.0012388536,-0.0140425155\H,2.7693401
 655,-1.7302732377,0.3153286699\H,2.2208418008,-1.0946909375,-1.2422200
 194\C,0.606304193,1.7720366181,-0.0831288354\H,-0.0003459189,2.5379024
 877,-0.580917223\H,0.661046846,2.0335544741,0.9821885697\H,1.619314897
 3,1.8371049115,-0.4936828669\\Version=EM64L-G09RevA.01\State=1-A\HF=-2
 37.0829911\RMSD=9.038e-09\RMSF=6.020e-07\Dipole=-0.0157028,-0.0104678,
 -0.004333\Quadrupole=-0.1844595,-0.1229764,0.3074359,-0.1467421,0.0914
 548,-0.0971803\PG=C01 [X(C6H14)]\\@


 DESK:  A WASTEBASKET WITH DRAWERS.
 Job cpu time:  0 days  0 hours 19 minutes 57.3 seconds.
 File lengths (MBytes):  RWF=     15 Int=      0 D2E=      0 Chk=      2 Scr=      1
 Normal termination of Gaussian 09 at Fri Sep 18 13:33:31 2015.
