using PM6 to do opt and freq calc.                                      
FOpt      RPM6                                                        ZDO                 
Number of atoms                            I               20
Info1-9                                    I   N=           9
          33          29           0           0           0         110
           2           8         302
Charge                                     I                0
Multiplicity                               I                1
Number of electrons                        I               38
Number of alpha electrons                  I               19
Number of beta electrons                   I               19
Number of basis functions                  I               38
Number of independent functions            I               38
Number of point charges in /Mol/           I                0
Number of translation vectors              I                0
Atomic numbers                             I   N=          20
           6           1           1           1           6           1
           1           6           1           6           1           1
           6           1           1           1           6           1
           1           1
Nuclear charges                            R   N=          20
  4.00000000E+00  1.00000000E+00  1.00000000E+00  1.00000000E+00  4.00000000E+00
  1.00000000E+00  1.00000000E+00  4.00000000E+00  1.00000000E+00  4.00000000E+00
  1.00000000E+00  1.00000000E+00  4.00000000E+00  1.00000000E+00  1.00000000E+00
  1.00000000E+00  4.00000000E+00  1.00000000E+00  1.00000000E+00  1.00000000E+00
Current cartesian coordinates              R   N=          60
 -4.12678339E+00 -1.77720550E+00 -3.79589745E-01 -3.85542529E+00 -2.45798675E+00
 -2.31626783E+00 -5.28972974E+00 -6.62662058E-02 -4.82825439E-01 -5.22139562E+00
 -3.21074429E+00  6.36515508E-01 -1.60670633E+00 -1.27057734E+00  9.30973459E-01
 -1.94095497E+00 -6.62308235E-01  2.90341539E+00 -5.25197948E-01 -3.05965933E+00
  1.06595839E+00  1.25536253E-03  7.26162313E-01 -4.61675479E-01  8.74825886E-04
  2.67874737E-01 -2.52335042E+00  2.76088038E+00  6.80659836E-01  4.92285932E-01
  2.79254193E+00  7.76556222E-01  2.58094995E+00  3.75049925E+00  2.40459776E+00
 -1.63786663E-01  4.20795398E+00 -1.64727479E+00 -4.08453185E-01  4.32041664E+00
 -1.72165763E+00 -2.47498290E+00  6.14526961E+00 -1.65195564E+00  3.21003821E-01
  3.30086017E+00 -3.40067585E+00  2.22572310E-01 -1.11201328E+00  3.38224355E+00
 -1.18612890E-01 -3.07977280E+00  3.45376444E+00 -7.58725361E-01 -1.08887950E+00
  3.97274631E+00  1.86433865E+00 -5.66269354E-02  4.79166600E+00 -1.20438396E+00
Force Field                                I                0
Int Atom Types                             I   N=          20
           0           0           0           0           0           0
           0           0           0           0           0           0
           0           0           0           0           0           0
           0           0
MM charges                                 R   N=          20
  0.00000000E+00  0.00000000E+00  0.00000000E+00  0.00000000E+00  0.00000000E+00
  0.00000000E+00  0.00000000E+00  0.00000000E+00  0.00000000E+00  0.00000000E+00
  0.00000000E+00  0.00000000E+00  0.00000000E+00  0.00000000E+00  0.00000000E+00
  0.00000000E+00  0.00000000E+00  0.00000000E+00  0.00000000E+00  0.00000000E+00
Integer atomic weights                     I   N=          20
          12           1           1           1          12           1
           1          12           1          12           1           1
          12           1           1           1          12           1
           1           1
Real atomic weights                        R   N=          20
  1.20000000E+01  1.00782504E+00  1.00782504E+00  1.00782504E+00  1.20000000E+01
  1.00782504E+00  1.00782504E+00  1.20000000E+01  1.00782504E+00  1.20000000E+01
  1.00782504E+00  1.00782504E+00  1.20000000E+01  1.00782504E+00  1.00782504E+00
  1.00782504E+00  1.20000000E+01  1.00782504E+00  1.00782504E+00  1.00782504E+00
Atom fragment info                         I   N=          20
           0           0           0           0           0           0
           0           0           0           0           0           0
           0           0           0           0           0           0
           0           0
Atom residue num                           I   N=          20
           0           0           0           0           0           0
           0           0           0           0           0           0
           0           0           0           0           0           0
           0           0
Nuclear spins                              I   N=          20
           0           1           1           1           0           1
           1           0           1           0           1           1
           0           1           1           1           0           1
           1           1
Nuclear ZEff                               R   N=          20
 -3.90000000E+00 -1.00000000E+00 -1.00000000E+00 -1.00000000E+00 -3.90000000E+00
 -1.00000000E+00 -1.00000000E+00 -3.90000000E+00 -1.00000000E+00 -3.90000000E+00
 -1.00000000E+00 -1.00000000E+00 -3.90000000E+00 -1.00000000E+00 -1.00000000E+00
 -1.00000000E+00 -3.90000000E+00 -1.00000000E+00 -1.00000000E+00 -1.00000000E+00
Nuclear QMom                               R   N=          20
  0.00000000E+00  0.00000000E+00  0.00000000E+00  0.00000000E+00  0.00000000E+00
  0.00000000E+00  0.00000000E+00  0.00000000E+00  0.00000000E+00  0.00000000E+00
  0.00000000E+00  0.00000000E+00  0.00000000E+00  0.00000000E+00  0.00000000E+00
  0.00000000E+00  0.00000000E+00  0.00000000E+00  0.00000000E+00  0.00000000E+00
Nuclear GFac                               R   N=          20
  0.00000000E+00  2.79284600E+00  2.79284600E+00  2.79284600E+00  0.00000000E+00
  2.79284600E+00  2.79284600E+00  0.00000000E+00  2.79284600E+00  0.00000000E+00
  2.79284600E+00  2.79284600E+00  0.00000000E+00  2.79284600E+00  2.79284600E+00
  2.79284600E+00  0.00000000E+00  2.79284600E+00  2.79284600E+00  2.79284600E+00
MicOpt                                     I   N=          20
          -1          -1          -1          -1          -1          -1
          -1          -1          -1          -1          -1          -1
          -1          -1          -1          -1          -1          -1
          -1          -1
Number of contracted shells                I               20
Number of primitive shells                 I              120
Pure/Cartesian d shells                    I                0
Pure/Cartesian f shells                    I                0
Highest angular momentum                   I                1
Largest degree of contraction              I                6
Shell types                                I   N=          20
          -1           0           0           0          -1           0
           0          -1           0          -1           0           0
          -1           0           0           0          -1           0
           0           0
Number of primitives per shell             I   N=          20
           6           6           6           6           6           6
           6           6           6           6           6           6
           6           6           6           6           6           6
           6           6
Shell to atom map                          I   N=          20
           1           2           3           4           5           6
           7           8           9          10          11          12
          13          14          15          16          17          18
          19          20
Primitive exponents                        R   N=         120
  1.14476344E+01  3.29633588E+00  1.29653143E+00  5.92558930E-01  2.94896438E-01
  1.51447622E-01  4.39461478E+00  1.26542531E+00  4.97723458E-01  2.27476537E-01
  1.13207340E-01  5.81389949E-02  4.39461478E+00  1.26542531E+00  4.97723458E-01
  2.27476537E-01  1.13207340E-01  5.81389949E-02  4.39461478E+00  1.26542531E+00
  4.97723458E-01  2.27476537E-01  1.13207340E-01  5.81389949E-02  1.14476344E+01
  3.29633588E+00  1.29653143E+00  5.92558930E-01  2.94896438E-01  1.51447622E-01
  4.39461478E+00  1.26542531E+00  4.97723458E-01  2.27476537E-01  1.13207340E-01
  5.81389949E-02  4.39461478E+00  1.26542531E+00  4.97723458E-01  2.27476537E-01
  1.13207340E-01  5.81389949E-02  1.14476344E+01  3.29633588E+00  1.29653143E+00
  5.92558930E-01  2.94896438E-01  1.51447622E-01  4.39461478E+00  1.26542531E+00
  4.97723458E-01  2.27476537E-01  1.13207340E-01  5.81389949E-02  1.14476344E+01
  3.29633588E+00  1.29653143E+00  5.92558930E-01  2.94896438E-01  1.51447622E-01
  4.39461478E+00  1.26542531E+00  4.97723458E-01  2.27476537E-01  1.13207340E-01
  5.81389949E-02  4.39461478E+00  1.26542531E+00  4.97723458E-01  2.27476537E-01
  1.13207340E-01  5.81389949E-02  1.14476344E+01  3.29633588E+00  1.29653143E+00
  5.92558930E-01  2.94896438E-01  1.51447622E-01  4.39461478E+00  1.26542531E+00
  4.97723458E-01  2.27476537E-01  1.13207340E-01  5.81389949E-02  4.39461478E+00
  1.26542531E+00  4.97723458E-01  2.27476537E-01  1.13207340E-01  5.81389949E-02
  4.39461478E+00  1.26542531E+00  4.97723458E-01  2.27476537E-01  1.13207340E-01
  5.81389949E-02  1.14476344E+01  3.29633588E+00  1.29653143E+00  5.92558930E-01
  2.94896438E-01  1.51447622E-01  4.39461478E+00  1.26542531E+00  4.97723458E-01
  2.27476537E-01  1.13207340E-01  5.81389949E-02  4.39461478E+00  1.26542531E+00
  4.97723458E-01  2.27476537E-01  1.13207340E-01  5.81389949E-02  4.39461478E+00
  1.26542531E+00  4.97723458E-01  2.27476537E-01  1.13207340E-01  5.81389949E-02
Contraction coefficients                   R   N=         120
 -9.73739553E-03 -7.26587678E-02 -1.71615520E-01  1.28977624E-01  7.28861451E-01
  3.01331742E-01 -9.73739553E-03 -7.26587678E-02 -1.71615520E-01  1.28977624E-01
  7.28861451E-01  3.01331742E-01 -9.73739553E-03 -7.26587678E-02 -1.71615520E-01
  1.28977624E-01  7.28861451E-01  3.01331742E-01 -9.73739553E-03 -7.26587678E-02
 -1.71615520E-01  1.28977624E-01  7.28861451E-01  3.01331742E-01 -9.73739553E-03
 -7.26587678E-02 -1.71615520E-01  1.28977624E-01  7.28861451E-01  3.01331742E-01
 -9.73739553E-03 -7.26587678E-02 -1.71615520E-01  1.28977624E-01  7.28861451E-01
  3.01331742E-01 -9.73739553E-03 -7.26587678E-02 -1.71615520E-01  1.28977624E-01
  7.28861451E-01  3.01331742E-01 -9.73739553E-03 -7.26587678E-02 -1.71615520E-01
  1.28977624E-01  7.28861451E-01  3.01331742E-01 -9.73739553E-03 -7.26587678E-02
 -1.71615520E-01  1.28977624E-01  7.28861451E-01  3.01331742E-01 -9.73739553E-03
 -7.26587678E-02 -1.71615520E-01  1.28977624E-01  7.28861451E-01  3.01331742E-01
 -9.73739553E-03 -7.26587678E-02 -1.71615520E-01  1.28977624E-01  7.28861451E-01
  3.01331742E-01 -9.73739553E-03 -7.26587678E-02 -1.71615520E-01  1.28977624E-01
  7.28861451E-01  3.01331742E-01 -9.73739553E-03 -7.26587678E-02 -1.71615520E-01
  1.28977624E-01  7.28861451E-01  3.01331742E-01 -9.73739553E-03 -7.26587678E-02
 -1.71615520E-01  1.28977624E-01  7.28861451E-01  3.01331742E-01 -9.73739553E-03
 -7.26587678E-02 -1.71615520E-01  1.28977624E-01  7.28861451E-01  3.01331742E-01
 -9.73739553E-03 -7.26587678E-02 -1.71615520E-01  1.28977624E-01  7.28861451E-01
  3.01331742E-01 -9.73739553E-03 -7.26587678E-02 -1.71615520E-01  1.28977624E-01
  7.28861451E-01  3.01331742E-01 -9.73739553E-03 -7.26587678E-02 -1.71615520E-01
  1.28977624E-01  7.28861451E-01  3.01331742E-01 -9.73739553E-03 -7.26587678E-02
 -1.71615520E-01  1.28977624E-01  7.28861451E-01  3.01331742E-01 -9.73739553E-03
 -7.26587678E-02 -1.71615520E-01  1.28977624E-01  7.28861451E-01  3.01331742E-01
P(S=P) Contraction coefficients            R   N=         120
 -8.10494336E-03 -1.71547892E-02  7.36978576E-02  3.96514999E-01  4.97808488E-01
  1.17482582E-01  0.00000000E+00  0.00000000E+00  0.00000000E+00  0.00000000E+00
  0.00000000E+00  0.00000000E+00  0.00000000E+00  0.00000000E+00  0.00000000E+00
  0.00000000E+00  0.00000000E+00  0.00000000E+00  0.00000000E+00  0.00000000E+00
  0.00000000E+00  0.00000000E+00  0.00000000E+00  0.00000000E+00 -8.10494336E-03
 -1.71547892E-02  7.36978576E-02  3.96514999E-01  4.97808488E-01  1.17482582E-01
  0.00000000E+00  0.00000000E+00  0.00000000E+00  0.00000000E+00  0.00000000E+00
  0.00000000E+00  0.00000000E+00  0.00000000E+00  0.00000000E+00  0.00000000E+00
  0.00000000E+00  0.00000000E+00 -8.10494336E-03 -1.71547892E-02  7.36978576E-02
  3.96514999E-01  4.97808488E-01  1.17482582E-01  0.00000000E+00  0.00000000E+00
  0.00000000E+00  0.00000000E+00  0.00000000E+00  0.00000000E+00 -8.10494336E-03
 -1.71547892E-02  7.36978576E-02  3.96514999E-01  4.97808488E-01  1.17482582E-01
  0.00000000E+00  0.00000000E+00  0.00000000E+00  0.00000000E+00  0.00000000E+00
  0.00000000E+00  0.00000000E+00  0.00000000E+00  0.00000000E+00  0.00000000E+00
  0.00000000E+00  0.00000000E+00 -8.10494336E-03 -1.71547892E-02  7.36978576E-02
  3.96514999E-01  4.97808488E-01  1.17482582E-01  0.00000000E+00  0.00000000E+00
  0.00000000E+00  0.00000000E+00  0.00000000E+00  0.00000000E+00  0.00000000E+00
  0.00000000E+00  0.00000000E+00  0.00000000E+00  0.00000000E+00  0.00000000E+00
  0.00000000E+00  0.00000000E+00  0.00000000E+00  0.00000000E+00  0.00000000E+00
  0.00000000E+00 -8.10494336E-03 -1.71547892E-02  7.36978576E-02  3.96514999E-01
  4.97808488E-01  1.17482582E-01  0.00000000E+00  0.00000000E+00  0.00000000E+00
  0.00000000E+00  0.00000000E+00  0.00000000E+00  0.00000000E+00  0.00000000E+00
  0.00000000E+00  0.00000000E+00  0.00000000E+00  0.00000000E+00  0.00000000E+00
  0.00000000E+00  0.00000000E+00  0.00000000E+00  0.00000000E+00  0.00000000E+00
Coordinates of each shell                  R   N=          60
 -4.12678339E+00 -1.77720550E+00 -3.79589745E-01 -3.85542529E+00 -2.45798675E+00
 -2.31626783E+00 -5.28972974E+00 -6.62662058E-02 -4.82825439E-01 -5.22139562E+00
 -3.21074429E+00  6.36515508E-01 -1.60670633E+00 -1.27057734E+00  9.30973459E-01
 -1.94095497E+00 -6.62308235E-01  2.90341539E+00 -5.25197948E-01 -3.05965933E+00
  1.06595839E+00  1.25536253E-03  7.26162313E-01 -4.61675479E-01  8.74825886E-04
  2.67874737E-01 -2.52335042E+00  2.76088038E+00  6.80659836E-01  4.92285932E-01
  2.79254193E+00  7.76556222E-01  2.58094995E+00  3.75049925E+00  2.40459776E+00
 -1.63786663E-01  4.20795398E+00 -1.64727479E+00 -4.08453185E-01  4.32041664E+00
 -1.72165763E+00 -2.47498290E+00  6.14526961E+00 -1.65195564E+00  3.21003821E-01
  3.30086017E+00 -3.40067585E+00  2.22572310E-01 -1.11201328E+00  3.38224355E+00
 -1.18612890E-01 -3.07977280E+00  3.45376444E+00 -7.58725361E-01 -1.08887950E+00
  3.97274631E+00  1.86433865E+00 -5.66269354E-02  4.79166600E+00 -1.20438396E+00
Constraint Structure                       R   N=          60
 -4.27371312E+00 -1.65554004E+00 -2.70317736E-01 -4.30922195E+00 -1.71226259E+00
 -2.37380126E+00 -5.43261744E+00 -3.55571598E-02  4.04271336E-01 -5.14179091E+00
 -3.42638597E+00  4.64382320E-01 -1.55440970E+00 -1.44585646E+00  6.89405907E-01
 -1.59055055E+00 -1.22801084E+00  2.78461052E+00 -6.36276746E-01 -3.28659652E+00
  2.48817160E-01  1.04481658E-02  7.17846512E-01 -5.07331403E-01  4.13850751E-02
  4.34008298E-01 -2.59662751E+00  2.78061385E+00  7.27695753E-01  4.33510006E-01
  2.82306729E+00  9.23109838E-01  2.53118126E+00  3.77321270E+00  2.39854266E+00
 -3.82755738E-01  4.33285866E+00 -1.59390481E+00 -3.14969500E-01  4.18794380E+00
 -1.94258989E+00 -2.38517753E+00  6.35481644E+00 -1.26843116E+00  1.70619435E-01
  3.68484768E+00 -3.30108100E+00  7.27619353E-01 -1.18064726E+00  3.32587972E+00
 -1.30020828E-02 -3.06956015E+00  3.47012461E+00 -9.25928624E-01 -1.39346881E+00
  3.66371254E+00  2.05428705E+00  1.73099772E-02  4.85469312E+00 -8.25268913E-01
Num ILSW                                   I              100
ILSW                                       I   N=         100
           0           0           0           0           2           0
           0           0           0           0           0          -1
           0           0           0           0           0           0
           0           0           0           0           1           0
           1           0           0           0           0           0
           0           0      100000           0          -1           0
           0           0           0           0           0           0
           0           0           0          40           0           0
           0           0           1           0           0           0
           0           0           4          40           0           0
           0           0           0           0           0           0
           0           0           0           0           0           0
           0           0           0           0           0           0
           0           0           0           0           0           0
           0           0           0           0           0           0
           0           0           0           0           0           0
           0           0           0           0
Num RLSW                                   I               40
RLSW                                       R   N=          40
  1.00000000E+00  1.00000000E+00  1.00000000E+00  1.00000000E+00  1.00000000E+00
  0.00000000E+00  0.00000000E+00  1.00000000E+00  0.00000000E+00  0.00000000E+00
  0.00000000E+00  0.00000000E+00  1.00000000E+00  0.00000000E+00  0.00000000E+00
  0.00000000E+00  0.00000000E+00  1.00000000E+00  0.00000000E+00  0.00000000E+00
  0.00000000E+00  0.00000000E+00  1.00000000E+00  0.00000000E+00  0.00000000E+00
  0.00000000E+00  0.00000000E+00  1.00000000E+00  0.00000000E+00  0.00000000E+00
  0.00000000E+00  0.00000000E+00  0.00000000E+00  0.00000000E+00  0.00000000E+00
  0.00000000E+00  0.00000000E+00  0.00000000E+00  1.00000000E+00  1.00000000E+00
MxBond                                     I                4
NBond                                      I   N=          20
           4           1           1           1           4           1
           1           4           1           4           1           1
           4           1           1           1           4           1
           1           1
IBond                                      I   N=          80
           2           3           4           5           1           0
           0           0           1           0           0           0
           1           0           0           0           1           6
           7           8           5           0           0           0
           5           0           0           0           5           9
          10          17           8           0           0           0
           8          11          12          13          10           0
           0           0          10           0           0           0
          10          14          15          16          13           0
           0           0          13           0           0           0
          13           0           0           0           8          18
          19          20          17           0           0           0
          17           0           0           0          17           0
           0           0
RBond                                      R   N=          80
  1.00000000E+00  1.00000000E+00  1.00000000E+00  1.00000000E+00  1.00000000E+00
  0.00000000E+00  0.00000000E+00  0.00000000E+00  1.00000000E+00  0.00000000E+00
  0.00000000E+00  0.00000000E+00  1.00000000E+00  0.00000000E+00  0.00000000E+00
  0.00000000E+00  1.00000000E+00  1.00000000E+00  1.00000000E+00  1.00000000E+00
  1.00000000E+00  0.00000000E+00  0.00000000E+00  0.00000000E+00  1.00000000E+00
  0.00000000E+00  0.00000000E+00  0.00000000E+00  1.00000000E+00  1.00000000E+00
  1.00000000E+00  1.00000000E+00  1.00000000E+00  0.00000000E+00  0.00000000E+00
  0.00000000E+00  1.00000000E+00  1.00000000E+00  1.00000000E+00  1.00000000E+00
  1.00000000E+00  0.00000000E+00  0.00000000E+00  0.00000000E+00  1.00000000E+00
  0.00000000E+00  0.00000000E+00  0.00000000E+00  1.00000000E+00  1.00000000E+00
  1.00000000E+00  1.00000000E+00  1.00000000E+00  0.00000000E+00  0.00000000E+00
  0.00000000E+00  1.00000000E+00  0.00000000E+00  0.00000000E+00  0.00000000E+00
  1.00000000E+00  0.00000000E+00  0.00000000E+00  0.00000000E+00  1.00000000E+00
  1.00000000E+00  1.00000000E+00  1.00000000E+00  1.00000000E+00  0.00000000E+00
  0.00000000E+00  0.00000000E+00  1.00000000E+00  0.00000000E+00  0.00000000E+00
  0.00000000E+00  1.00000000E+00  0.00000000E+00  0.00000000E+00  0.00000000E+00
Virial Ratio                               R      9.989853022614035E-01
SCF Energy                                 R     -5.707663547556763E-02
Total Energy                               R     -5.707663547556763E-02
RMS Force                                  R      7.324559182441273E-06
RMS Density                                R      2.949014075414457E-09
External E-field                           R   N=          35
  0.00000000E+00  0.00000000E+00  0.00000000E+00  0.00000000E+00  0.00000000E+00
  0.00000000E+00  0.00000000E+00  0.00000000E+00  0.00000000E+00  0.00000000E+00
  0.00000000E+00  0.00000000E+00  0.00000000E+00  0.00000000E+00  0.00000000E+00
  0.00000000E+00  0.00000000E+00  0.00000000E+00  0.00000000E+00  0.00000000E+00
  0.00000000E+00  0.00000000E+00  0.00000000E+00  0.00000000E+00  0.00000000E+00
  0.00000000E+00  0.00000000E+00  0.00000000E+00  0.00000000E+00  0.00000000E+00
  0.00000000E+00  0.00000000E+00  0.00000000E+00  0.00000000E+00  0.00000000E+00
IOpCl                                      I                0
IROHF                                      I                0
Alpha Orbital Energies                     R   N=          38
 -1.06456662E+00 -9.72588732E-01 -9.26660831E-01 -8.18820508E-01 -7.72861019E-01
 -7.06194453E-01 -5.75728018E-01 -5.60680144E-01 -5.49880459E-01 -5.20073914E-01
 -5.12200196E-01 -4.82319266E-01 -4.67139130E-01 -4.66096905E-01 -4.43706424E-01
 -4.38117762E-01 -4.08569305E-01 -4.06934434E-01 -4.01613386E-01  1.53225923E-01
  1.57625696E-01  1.69778606E-01  1.80509562E-01  1.81679968E-01  2.10994569E-01
  2.13247221E-01  2.19851303E-01  2.20698711E-01  2.22987265E-01  2.25318130E-01
  2.29825716E-01  2.33685882E-01  2.37505601E-01  2.47327547E-01  2.48357613E-01
  2.55125592E-01  2.58708181E-01  2.62725126E-01
Alpha MO coefficients                      R   N=        1444
  2.39080956E-01  7.34677333E-02  2.83554534E-02  2.41168297E-02  1.03280017E-01
  1.07520201E-01  8.99115056E-02  3.77503684E-01  3.13306904E-02  6.02452280E-02
 -5.37168130E-02  1.58752485E-01  1.62431712E-01  4.69169229E-01  4.79594018E-03
 -9.50335972E-03  5.06899830E-02  1.94270487E-01  3.71907124E-01 -7.68092957E-02
 -2.84791720E-02 -3.35258574E-02  1.57467479E-01  1.50513923E-01  2.45771582E-01
 -5.85581034E-02  5.47811393E-02  1.87075748E-02  1.05230214E-01  9.20160556E-02
  1.14386818E-01  3.02385521E-01  3.78341597E-02 -9.56683174E-02 -1.73099145E-03
  1.27572967E-01  1.30446535E-01  1.22010809E-01 -4.30113390E-01 -5.14258564E-02
 -1.50012861E-02 -3.09620167E-02 -1.83861081E-01 -1.90870899E-01 -1.87208428E-01
 -3.21581539E-01  1.28178015E-01  1.67800751E-02  4.07575407E-02 -1.34864921E-01
 -1.07501248E-01 -6.22722522E-03  1.83550771E-01  2.86964468E-02 -6.55801566E-03
 -2.98098443E-03  3.83136696E-01  7.99666722E-02 -6.60425592E-02 -3.20336004E-02
  1.55013820E-01  1.70617390E-01  4.33603888E-01 -2.54937252E-02  6.60691896E-02
  2.24127916E-02  1.86347810E-01  1.92358758E-01  1.75513190E-01 -6.95314636E-02
  4.52627021E-02  2.03238997E-02 -4.61160547E-04 -6.12741259E-02 -2.84451983E-02
 -1.07430556E-02 -3.32147101E-01 -2.14008566E-02  2.90131596E-02 -2.30788279E-02
 -1.47018567E-01 -1.23914958E-01 -1.63477745E-01 -1.98995168E-01  8.68854589E-02
  1.12432965E-01  7.21048178E-03 -7.27616321E-02 -1.25262680E-01  2.24241465E-01
 -3.78418200E-02  2.06976886E-01 -1.04524038E-02  7.63954203E-02 -5.91943712E-02
 -1.19530385E-01  1.24823848E-01  7.56526234E-04 -2.46062077E-02  2.55831124E-03
 -3.21068865E-01 -3.81006716E-03  6.87856405E-03 -1.01987481E-02 -1.40546074E-01
 -1.50630357E-01 -1.55277061E-01  5.23574764E-01  2.64040290E-02 -1.30793582E-02
 -1.05168590E-02  2.22634887E-01  2.32231877E-01  2.45818944E-01  3.02041790E-01
 -1.35400103E-01 -1.40141011E-02 -5.43230987E-02  1.57458615E-01  1.82912762E-01
  1.68021055E-01 -2.88397912E-01 -1.91190387E-01 -4.22582951E-02 -3.52424065E-02
 -1.35859954E-01 -1.59053811E-01 -2.69417817E-01 -6.34459263E-02  1.83558227E-01
 -7.38736130E-02 -9.41658243E-02 -1.37644827E-01  1.69354088E-01 -4.56513513E-02
 -2.73078776E-02 -7.82695896E-02 -2.82860548E-02  3.08910843E-01  9.56249881E-02
 -6.27398455E-02 -3.02932267E-02  1.61697428E-01  1.85700322E-01  1.33695931E-01
  3.53557915E-01 -7.08567360E-02  1.40816364E-01 -1.28373610E-02  2.10948325E-01
  1.74304738E-01  1.98637678E-01  2.84946049E-01 -1.62980279E-01 -3.97898428E-02
 -8.51234458E-02  1.71636310E-01  1.62912613E-01  1.72589844E-01 -3.00172836E-01
 -9.97608891E-02 -9.55128668E-03 -6.71522629E-02 -1.63229580E-01 -1.72076714E-01
 -8.95799308E-04  2.17948659E-01  8.98757274E-02 -1.79657664E-02 -1.99327505E-03
  4.18333068E-01 -8.32604718E-04  1.77513097E-01  4.44312854E-02  2.15648759E-01
  2.64802357E-01 -2.79502579E-01 -7.71093946E-02  2.03811056E-01  6.43181672E-02
 -1.70870803E-01 -1.56700218E-01 -2.04903455E-01 -1.08897032E-01  8.42206638E-02
 -5.63316370E-03 -9.13198051E-03 -8.74385565E-02 -5.49451994E-02 -2.20145514E-02
  7.24777487E-02 -6.18491579E-02  2.44346798E-02 -1.55785699E-01  1.16572186E-01
  6.82491893E-02 -2.41531967E-03 -2.34356330E-01  5.34708553E-02  1.16443711E-01
 -2.61677394E-01 -2.47654621E-01 -1.59413066E-01  4.05113801E-01 -1.37168329E-02
 -3.87192790E-02 -2.70038646E-01  3.53885582E-01 -1.94878155E-01 -1.54958295E-01
 -6.90453274E-02 -2.11950830E-01 -2.27673245E-01 -1.30955816E-01  7.14283611E-02
 -1.09289738E-02 -8.83271675E-02 -1.21926194E-01  1.12836585E-01  1.98358611E-03
  5.11763081E-02 -1.40807441E-01  5.90335612E-02 -2.06066173E-01 -1.38365916E-01
 -7.51284388E-02 -1.85960184E-01 -9.06991954E-02  1.65178574E-02 -1.55637096E-01
  3.05528956E-01 -2.24039375E-02 -6.20882319E-02  2.37930268E-01 -8.61726553E-02
 -6.13224829E-02 -3.65668736E-02  4.36559669E-01  2.85301656E-02  8.28921176E-02
 -2.90517595E-01  9.36165096E-02 -2.09648307E-01  4.22899738E-02  2.56112858E-01
 -1.36129585E-01 -1.56741310E-02 -2.97548123E-02 -4.22700331E-02  2.58227527E-01
  1.66040039E-01 -1.04571525E-01  3.83593699E-02  1.18313145E-01 -8.09287703E-02
  1.52846941E-01 -7.94760203E-02  1.30141166E-01  4.40451991E-02 -4.95672426E-02
 -1.16789786E-01 -2.93529706E-01  1.84209540E-01  1.78677712E-02  4.01537515E-02
 -2.65643157E-01 -2.95409121E-02  1.12599144E-01  1.84596655E-01  2.11689820E-01
 -1.77749623E-01  4.05454606E-02 -7.15750296E-02  1.07668477E-01 -2.65075718E-01
  1.06327366E-01  8.49539424E-02  1.53743192E-01 -1.23839042E-01 -1.68268472E-02
 -1.38540643E-01  1.19617436E-01 -1.61948595E-01  8.17425837E-02  2.48209773E-03
  2.84902814E-01  2.58842844E-01 -2.18935479E-01 -1.37918325E-01  2.86445796E-01
  5.70430845E-03  2.79976416E-01  2.55951051E-01 -2.09188810E-01  1.50162108E-01
  1.31094415E-01 -2.78021339E-01 -4.17687332E-02 -1.24043674E-02 -1.27637210E-01
 -1.49636129E-01  2.03994023E-02 -1.40451974E-01 -2.29331047E-02  2.86196643E-02
 -2.80825488E-01 -1.03153172E-01  2.42716466E-01 -1.45311515E-01  4.31526240E-02
  2.48719200E-01 -5.19005391E-02 -3.57409230E-02  4.22029863E-02  3.28926463E-01
  2.00792113E-01 -4.67492158E-02  8.09924569E-02  2.25350234E-01  2.16475669E-01
  1.56024110E-01 -1.01000159E-01 -6.42677531E-02 -2.78781607E-01  1.03414329E-01
 -1.58113664E-01 -1.35456192E-01 -2.73326844E-02  2.82082783E-02 -3.03847787E-02
 -1.74837608E-01 -2.48435401E-01  1.84281145E-01 -6.56898545E-02  6.77407714E-02
 -1.48409441E-02  3.14210426E-01 -7.54425937E-02  1.56461559E-01 -2.46763322E-01
  8.42857532E-02  1.02002338E-02  9.67012656E-03  1.52999285E-01 -2.66381663E-01
 -7.44999960E-02  1.29824817E-01 -2.19567410E-01  5.30481520E-02  8.07062278E-03
 -3.15465426E-03 -1.09755593E-01 -7.80333435E-02 -7.04771602E-02  6.12245471E-02
  8.12728868E-02 -1.08082422E-01  2.17383068E-01  5.85600440E-03 -1.04041508E-03
 -9.72986564E-02  2.54258289E-03  2.58111524E-01  2.31779004E-01  1.22831642E-01
  5.62756571E-02 -6.42811408E-03  4.33522928E-01 -2.00023258E-01  2.06938816E-01
 -1.27682475E-01  3.39427402E-01  3.04326647E-02  8.08010670E-03  3.26033426E-01
 -1.59691317E-01 -3.00686280E-02 -2.24284918E-01 -4.38447087E-02  5.73047625E-02
  1.45014941E-02  1.79200381E-01 -2.91455388E-02 -3.36494035E-01  2.52241750E-01
 -7.48168356E-02 -1.65765987E-01  3.39151617E-02  1.05743252E-01  3.70729331E-02
 -1.80164231E-01 -1.02950059E-01  9.86956958E-03 -2.37768595E-02 -1.49203397E-02
 -8.89626555E-02  2.20722070E-01 -1.41292229E-01 -9.77344588E-03 -3.45228509E-03
  1.34881815E-01 -1.36836738E-01 -9.70814632E-02  1.03200369E-01  2.60562193E-04
  1.02978124E-01  1.09422348E-01 -3.38445318E-01  2.39464056E-01 -1.65828142E-02
 -1.69372270E-01  3.27425564E-03  1.55074169E-02  2.19540759E-02  4.56548539E-01
 -1.10963628E-01  3.12881552E-01 -1.50818719E-01  3.43519282E-02  1.85852699E-01
  4.75081879E-01 -1.54180378E-01  2.71849469E-02  2.21552329E-01 -3.58540365E-01
  6.78822965E-02 -1.47312505E-01  4.89224226E-02 -6.23967753E-02  1.62274004E-02
 -4.53016949E-02 -7.93342689E-02  7.39312192E-02 -1.92228872E-03  2.01712805E-02
 -5.00378746E-02 -4.54081327E-03 -6.74464703E-02  1.02976060E-01  4.25903125E-02
  3.03634162E-02  4.10602049E-02 -6.31770878E-03 -1.02235146E-01 -2.16746978E-01
 -2.52783398E-02  1.62496554E-02 -8.14943794E-02  1.56143927E-01 -3.06226970E-02
  3.76767580E-01  2.53526957E-01 -1.41883561E-01 -2.23154951E-01 -5.97750925E-02