 Entering Gaussian System, Link 0=/share/apps/g09/g09
 Input=C6H14_3_03_1_opt_PM6.gjf
 Output=C6H14_3_03_1_opt_PM6.log
 Initial command:
 /share/apps/g09/l1.exe /state/partition1/Gau-19955.inp -scrdir=/state/partition1/
 Entering Link 1 = /share/apps/g09/l1.exe PID=     19958.
  
 Copyright (c) 1988,1990,1992,1993,1995,1998,2003,2009, Gaussian, Inc.
                  All Rights Reserved.
  
 This is part of the Gaussian(R) 09 program.  It is based on
 the Gaussian(R) 03 system (copyright 2003, Gaussian, Inc.),
 the Gaussian(R) 98 system (copyright 1998, Gaussian, Inc.),
 the Gaussian(R) 94 system (copyright 1995, Gaussian, Inc.),
 the Gaussian 92(TM) system (copyright 1992, Gaussian, Inc.),
 the Gaussian 90(TM) system (copyright 1990, Gaussian, Inc.),
 the Gaussian 88(TM) system (copyright 1988, Gaussian, Inc.),
 the Gaussian 86(TM) system (copyright 1986, Carnegie Mellon
 University), and the Gaussian 82(TM) system (copyright 1983,
 Carnegie Mellon University). Gaussian is a federally registered
 trademark of Gaussian, Inc.
  
 This software contains proprietary and confidential information,
 including trade secrets, belonging to Gaussian, Inc.
  
 This software is provided under written license and may be
 used, copied, transmitted, or stored only in accord with that
 written license.
  
 The following legend is applicable only to US Government
 contracts under FAR:
  
                    RESTRICTED RIGHTS LEGEND
  
 Use, reproduction and disclosure by the US Government is
 subject to restrictions as set forth in subparagraphs (a)
 and (c) of the Commercial Computer Software - Restricted
 Rights clause in FAR 52.227-19.
  
 Gaussian, Inc.
 340 Quinnipiac St., Bldg. 40, Wallingford CT 06492
  
  
 ---------------------------------------------------------------
 Warning -- This program may not be used in any manner that
 competes with the business of Gaussian, Inc. or will provide
 assistance to any competitor of Gaussian, Inc.  The licensee
 of this program is prohibited from giving any competitor of
 Gaussian, Inc. access to this program.  By using this program,
 the user acknowledges that Gaussian, Inc. is engaged in the
 business of creating and licensing software in the field of
 computational chemistry and represents and warrants to the
 licensee that it is not a competitor of Gaussian, Inc. and that
 it will not use this program in any manner prohibited above.
 ---------------------------------------------------------------
  

 Cite this work as:
 Gaussian 09, Revision A.01,
 M. J. Frisch, G. W. Trucks, H. B. Schlegel, G. E. Scuseria, 
 M. A. Robb, J. R. Cheeseman, G. Scalmani, V. Barone, B. Mennucci, 
 G. A. Petersson, H. Nakatsuji, M. Caricato, X. Li, H. P. Hratchian, 
 A. F. Izmaylov, J. Bloino, G. Zheng, J. L. Sonnenberg, M. Hada, 
 M. Ehara, K. Toyota, R. Fukuda, J. Hasegawa, M. Ishida, T. Nakajima, 
 Y. Honda, O. Kitao, H. Nakai, T. Vreven, J. A. Montgomery, Jr., 
 J. E. Peralta, F. Ogliaro, M. Bearpark, J. J. Heyd, E. Brothers, 
 K. N. Kudin, V. N. Staroverov, R. Kobayashi, J. Normand, 
 K. Raghavachari, A. Rendell, J. C. Burant, S. S. Iyengar, J. Tomasi, 
 M. Cossi, N. Rega, J. M. Millam, M. Klene, J. E. Knox, J. B. Cross, 
 V. Bakken, C. Adamo, J. Jaramillo, R. Gomperts, R. E. Stratmann, 
 O. Yazyev, A. J. Austin, R. Cammi, C. Pomelli, J. W. Ochterski, 
 R. L. Martin, K. Morokuma, V. G. Zakrzewski, G. A. Voth, 
 P. Salvador, J. J. Dannenberg, S. Dapprich, A. D. Daniels, 
 O. Farkas, J. B. Foresman, J. V. Ortiz, J. Cioslowski, 
 and D. J. Fox, Gaussian, Inc., Wallingford CT, 2009.
 
 ******************************************
 Gaussian 09:  EM64L-G09RevA.01  8-May-2009
                14-Sep-2015 
 ******************************************
 %mem=3GB
 %nprocshared=2
 Will use up to    2 processors via shared memory.
 %chk=C6H14_3_03_1_opt_PM6.chk
 ----------
 #p PM6 opt
 ----------
 1/14=-1,18=20,19=15,26=1,38=1/1,3;
 2/9=110,12=2,17=6,18=5,40=1/2;
 3/5=2,16=1,25=1,41=3900000,71=1/1,2,3;
 4/35=1/1;
 5/5=2,35=1,38=5/2;
 6/7=2,8=2,9=2,10=2,28=1/1;
 7//1,2,3,16;
 1/14=-1,18=20,19=15/3(2);
 2/9=110/2;
 99//99;
 2/9=110/2;
 3/5=2,16=1,25=1,41=3900000,71=1,135=20/1,2,3;
 4/5=5,16=3,35=1/1;
 5/5=2,35=1,38=5/2;
 7//1,2,3,16;
 1/14=-1,18=20,19=15/3(-5);
 2/9=110/2;
 6/7=2,8=2,9=2,10=2,19=2,28=1/1;
 99/9=1/99;
 Leave Link    1 at Mon Sep 14 19:12:20 2015, MaxMem=  402653184 cpu:       1.6
 (Enter /share/apps/g09/l101.exe)
 ----------------------------------
 using PM6 to do opt and freq calc.
 ----------------------------------
 Symbolic Z-matrix:
 Charge =  0 Multiplicity = 1
 C                    -2.6543   -0.0563   -0.258 
 H                    -2.5538   -0.2738   -1.3456 
 H                    -2.801     1.0371   -0.1118 
 H                    -3.559    -0.5793    0.1271 
 C                    -1.4201   -0.5466    0.5018 
 H                    -1.5106   -0.2384    1.5694 
 H                    -1.4555   -1.6586    0.4638 
 C                    -0.0662   -0.0617   -0.0723 
 H                     0.0043   -0.3982   -1.1339 
 C                     1.1401   -0.6578    0.6934 
 H                     1.0794   -0.3792    1.7714 
 H                     2.0805   -0.2193    0.284 
 C                     1.2872   -2.1769    0.5857 
 H                     1.2594   -2.4974   -0.4804 
 H                     2.2635   -2.4857    1.0239 
 H                     0.4802   -2.6963    1.1488 
 C                     0.0421    1.4741   -0.0745 
 H                    -0.724     1.9237   -0.7448 
 H                    -0.0958    1.8785    0.9545 
 H                     1.0387    1.7969   -0.4536 
 
 NAtoms=     20 NQM=     20 NQMF=      0 NMic=      0 NMicF=      0 NTot=     20.
                    Isotopes and Nuclear Properties:
 (Nuclear quadrupole moments (NQMom) in fm**2, nuclear magnetic moments (NMagM)
  in nuclear magnetons)

  Atom         1           2           3           4           5           6           7           8           9          10
 IAtWgt=          12           1           1           1          12           1           1          12           1          12
 AtmWgt=  12.0000000   1.0078250   1.0078250   1.0078250  12.0000000   1.0078250   1.0078250  12.0000000   1.0078250  12.0000000
 NucSpn=           0           1           1           1           0           1           1           0           1           0
 AtZEff=   0.0000000   0.0000000   0.0000000   0.0000000   0.0000000   0.0000000   0.0000000   0.0000000   0.0000000   0.0000000
 NQMom=    0.0000000   0.0000000   0.0000000   0.0000000   0.0000000   0.0000000   0.0000000   0.0000000   0.0000000   0.0000000
 NMagM=    0.0000000   2.7928460   2.7928460   2.7928460   0.0000000   2.7928460   2.7928460   0.0000000   2.7928460   0.0000000

  Atom        11          12          13          14          15          16          17          18          19          20
 IAtWgt=           1           1          12           1           1           1          12           1           1           1
 AtmWgt=   1.0078250   1.0078250  12.0000000   1.0078250   1.0078250   1.0078250  12.0000000   1.0078250   1.0078250   1.0078250
 NucSpn=           1           1           0           1           1           1           0           1           1           1
 AtZEff=   0.0000000   0.0000000   0.0000000   0.0000000   0.0000000   0.0000000   0.0000000   0.0000000   0.0000000   0.0000000
 NQMom=    0.0000000   0.0000000   0.0000000   0.0000000   0.0000000   0.0000000   0.0000000   0.0000000   0.0000000   0.0000000
 NMagM=    2.7928460   2.7928460   0.0000000   2.7928460   2.7928460   2.7928460   0.0000000   2.7928460   2.7928460   2.7928460
 Leave Link  101 at Mon Sep 14 19:12:20 2015, MaxMem=  402653184 cpu:       0.2
 (Enter /share/apps/g09/l103.exe)

 GradGradGradGradGradGradGradGradGradGradGradGradGradGradGradGradGradGrad
 Berny optimization.
 Initialization pass.
                           ----------------------------
                           !    Initial Parameters    !
                           ! (Angstroms and Degrees)  !
 --------------------------                            --------------------------
 ! Name  Definition              Value          Derivative Info.                !
 --------------------------------------------------------------------------------
 ! R1    R(1,2)                  1.1137         estimate D2E/DX2                !
 ! R2    R(1,3)                  1.1128         estimate D2E/DX2                !
 ! R3    R(1,4)                  1.1137         estimate D2E/DX2                !
 ! R4    R(1,5)                  1.53           estimate D2E/DX2                !
 ! R5    R(5,6)                  1.1149         estimate D2E/DX2                !
 ! R6    R(5,7)                  1.1132         estimate D2E/DX2                !
 ! R7    R(5,8)                  1.5485         estimate D2E/DX2                !
 ! R8    R(8,9)                  1.1159         estimate D2E/DX2                !
 ! R9    R(8,10)                 1.5482         estimate D2E/DX2                !
 ! R10   R(8,17)                 1.5396         estimate D2E/DX2                !
 ! R11   R(10,11)                1.1151         estimate D2E/DX2                !
 ! R12   R(10,12)                1.1155         estimate D2E/DX2                !
 ! R13   R(10,13)                1.53           estimate D2E/DX2                !
 ! R14   R(13,14)                1.1136         estimate D2E/DX2                !
 ! R15   R(13,15)                1.1138         estimate D2E/DX2                !
 ! R16   R(13,16)                1.1127         estimate D2E/DX2                !
 ! R17   R(17,18)                1.1128         estimate D2E/DX2                !
 ! R18   R(17,19)                1.1142         estimate D2E/DX2                !
 ! R19   R(17,20)                1.1141         estimate D2E/DX2                !
 ! A1    A(2,1,3)              109.3952         estimate D2E/DX2                !
 ! A2    A(2,1,4)              108.6195         estimate D2E/DX2                !
 ! A3    A(2,1,5)              110.4622         estimate D2E/DX2                !
 ! A4    A(3,1,4)              107.9923         estimate D2E/DX2                !
 ! A5    A(3,1,5)              110.8519         estimate D2E/DX2                !
 ! A6    A(4,1,5)              109.4558         estimate D2E/DX2                !
 ! A7    A(1,5,6)              108.7519         estimate D2E/DX2                !
 ! A8    A(1,5,7)              106.1112         estimate D2E/DX2                !
 ! A9    A(1,5,8)              114.8873         estimate D2E/DX2                !
 ! A10   A(6,5,7)              107.8333         estimate D2E/DX2                !
 ! A11   A(6,5,8)              109.8427         estimate D2E/DX2                !
 ! A12   A(7,5,8)              109.1447         estimate D2E/DX2                !
 ! A13   A(5,8,9)              108.2718         estimate D2E/DX2                !
 ! A14   A(5,8,10)             112.1686         estimate D2E/DX2                !
 ! A15   A(5,8,17)             111.9875         estimate D2E/DX2                !
 ! A16   A(9,8,10)             107.7696         estimate D2E/DX2                !
 ! A17   A(9,8,17)             107.1578         estimate D2E/DX2                !
 ! A18   A(10,8,17)            109.2676         estimate D2E/DX2                !
 ! A19   A(8,10,11)            109.8481         estimate D2E/DX2                !
 ! A20   A(8,10,12)            108.9057         estimate D2E/DX2                !
 ! A21   A(8,10,13)            114.9858         estimate D2E/DX2                !
 ! A22   A(11,10,12)           107.6076         estimate D2E/DX2                !
 ! A23   A(11,10,13)           108.7449         estimate D2E/DX2                !
 ! A24   A(12,10,13)           106.4645         estimate D2E/DX2                !
 ! A25   A(10,13,14)           110.5332         estimate D2E/DX2                !
 ! A26   A(10,13,15)           109.3815         estimate D2E/DX2                !
 ! A27   A(10,13,16)           110.9844         estimate D2E/DX2                !
 ! A28   A(14,13,15)           108.5869         estimate D2E/DX2                !
 ! A29   A(14,13,16)           109.3923         estimate D2E/DX2                !
 ! A30   A(15,13,16)           107.8912         estimate D2E/DX2                !
 ! A31   A(8,17,18)            110.8213         estimate D2E/DX2                !
 ! A32   A(8,17,19)            110.6117         estimate D2E/DX2                !
 ! A33   A(8,17,20)            110.6369         estimate D2E/DX2                !
 ! A34   A(18,17,19)           108.9322         estimate D2E/DX2                !
 ! A35   A(18,17,20)           107.0865         estimate D2E/DX2                !
 ! A36   A(19,17,20)           108.6522         estimate D2E/DX2                !
 ! D1    D(2,1,5,6)            175.2336         estimate D2E/DX2                !
 ! D2    D(2,1,5,7)            -69.0003         estimate D2E/DX2                !
 ! D3    D(2,1,5,8)             51.684          estimate D2E/DX2                !
 ! D4    D(3,1,5,6)             53.8064         estimate D2E/DX2                !
 ! D5    D(3,1,5,7)            169.5725         estimate D2E/DX2                !
 ! D6    D(3,1,5,8)            -69.7432         estimate D2E/DX2                !
 ! D7    D(4,1,5,6)            -65.2132         estimate D2E/DX2                !
 ! D8    D(4,1,5,7)             50.5529         estimate D2E/DX2                !
 ! D9    D(4,1,5,8)            171.2372         estimate D2E/DX2                !
 ! D10   D(1,5,8,9)            -57.9755         estimate D2E/DX2                !
 ! D11   D(1,5,8,10)          -176.7642         estimate D2E/DX2                !
 ! D12   D(1,5,8,17)            59.9518         estimate D2E/DX2                !
 ! D13   D(6,5,8,9)            179.0573         estimate D2E/DX2                !
 ! D14   D(6,5,8,10)            60.2687         estimate D2E/DX2                !
 ! D15   D(6,5,8,17)           -63.0154         estimate D2E/DX2                !
 ! D16   D(7,5,8,9)             61.0285         estimate D2E/DX2                !
 ! D17   D(7,5,8,10)           -57.7602         estimate D2E/DX2                !
 ! D18   D(7,5,8,17)           178.9558         estimate D2E/DX2                !
 ! D19   D(5,8,10,11)          -58.4408         estimate D2E/DX2                !
 ! D20   D(5,8,10,12)         -176.0583         estimate D2E/DX2                !
 ! D21   D(5,8,10,13)           64.5934         estimate D2E/DX2                !
 ! D22   D(9,8,10,11)         -177.5249         estimate D2E/DX2                !
 ! D23   D(9,8,10,12)           64.8575         estimate D2E/DX2                !
 ! D24   D(9,8,10,13)          -54.4907         estimate D2E/DX2                !
 ! D25   D(17,8,10,11)          66.3589         estimate D2E/DX2                !
 ! D26   D(17,8,10,12)         -51.2586         estimate D2E/DX2                !
 ! D27   D(17,8,10,13)        -170.6068         estimate D2E/DX2                !
 ! D28   D(5,8,17,18)          -63.6143         estimate D2E/DX2                !
 ! D29   D(5,8,17,19)           57.3088         estimate D2E/DX2                !
 ! D30   D(5,8,17,20)          177.7578         estimate D2E/DX2                !
 ! D31   D(9,8,17,18)           54.9751         estimate D2E/DX2                !
 ! D32   D(9,8,17,19)          175.8982         estimate D2E/DX2                !
 ! D33   D(9,8,17,20)          -63.6528         estimate D2E/DX2                !
 ! D34   D(10,8,17,18)         171.4805         estimate D2E/DX2                !
 ! D35   D(10,8,17,19)         -67.5964         estimate D2E/DX2                !
 ! D36   D(10,8,17,20)          52.8526         estimate D2E/DX2                !
 ! D37   D(8,10,13,14)          51.3376         estimate D2E/DX2                !
 ! D38   D(8,10,13,15)         170.8475         estimate D2E/DX2                !
 ! D39   D(8,10,13,16)         -70.2232         estimate D2E/DX2                !
 ! D40   D(11,10,13,14)        174.9592         estimate D2E/DX2                !
 ! D41   D(11,10,13,15)        -65.5308         estimate D2E/DX2                !
 ! D42   D(11,10,13,16)         53.3984         estimate D2E/DX2                !
 ! D43   D(12,10,13,14)        -69.3578         estimate D2E/DX2                !
 ! D44   D(12,10,13,15)         50.1521         estimate D2E/DX2                !
 ! D45   D(12,10,13,16)        169.0814         estimate D2E/DX2                !
 --------------------------------------------------------------------------------
 Trust Radius=3.00D-01 FncErr=1.00D-07 GrdErr=1.00D-07
 Number of steps in this run= 110 maximum allowed number of steps= 120.
 GradGradGradGradGradGradGradGradGradGradGradGradGradGradGradGradGradGrad

 Leave Link  103 at Mon Sep 14 19:12:21 2015, MaxMem=  402653184 cpu:       0.0
 (Enter /share/apps/g09/l202.exe)
                          Input orientation:                          
 ---------------------------------------------------------------------
 Center     Atomic      Atomic             Coordinates (Angstroms)
 Number     Number       Type             X           Y           Z
 ---------------------------------------------------------------------
      1          6           0       -2.654300   -0.056300   -0.258000
      2          1           0       -2.553800   -0.273800   -1.345600
      3          1           0       -2.801000    1.037100   -0.111800
      4          1           0       -3.559000   -0.579300    0.127100
      5          6           0       -1.420100   -0.546600    0.501800
      6          1           0       -1.510600   -0.238400    1.569400
      7          1           0       -1.455500   -1.658600    0.463800
      8          6           0       -0.066200   -0.061700   -0.072300
      9          1           0        0.004300   -0.398200   -1.133900
     10          6           0        1.140100   -0.657800    0.693400
     11          1           0        1.079400   -0.379200    1.771400
     12          1           0        2.080500   -0.219300    0.284000
     13          6           0        1.287200   -2.176900    0.585700
     14          1           0        1.259400   -2.497400   -0.480400
     15          1           0        2.263500   -2.485700    1.023900
     16          1           0        0.480200   -2.696300    1.148800
     17          6           0        0.042100    1.474100   -0.074500
     18          1           0       -0.724000    1.923700   -0.744800
     19          1           0       -0.095800    1.878500    0.954500
     20          1           0        1.038700    1.796900   -0.453600
 ---------------------------------------------------------------------
                    Distance matrix (angstroms):
                    1          2          3          4          5
     1  C    0.000000
     2  H    1.113679   0.000000
     3  H    1.112843   1.817094   0.000000
     4  H    1.113693   1.809034   1.801218   0.000000
     5  C    1.530013   2.184624   2.188948   2.171719   0.000000
     6  H    2.163470   3.096247   2.473553   2.528317   1.114875
     7  H    2.127318   2.529400   3.067325   2.388089   1.113212
     8  C    2.594759   2.802576   2.947550   3.536569   1.548472
     9  H    2.819973   2.569858   3.312776   3.784181   2.174041
    10  C    3.957832   4.236729   4.365009   4.733751   2.569767
    11  H    4.261836   4.788208   4.539807   4.925294   2.808453
    12  H    4.768508   4.912769   5.056109   5.653156   3.522607
    13  C    4.554580   4.701594   5.246873   5.123309   3.161391
    14  H    4.617952   4.498162   5.395869   5.221603   3.456886
    15  H    5.632940   5.806325   6.272886   6.191940   4.195427
    16  H    4.332872   4.614726   5.127735   4.673403   2.941251
    17  C    3.105860   3.377802   2.876730   4.150303   2.559957
    18  H    2.807745   2.922009   2.345352   3.881036   2.853235
    19  H    3.429217   3.995575   3.027054   4.326561   2.799967
    20  H    4.136527   4.241405   3.929048   5.207916   3.528524
                    6          7          8          9         10
     6  H    0.000000
     7  H    1.800654   0.000000
     8  C    2.193785   2.183494   0.000000
     9  H    3.102948   2.504450   1.115884   0.000000
    10  C    2.823027   2.791318   1.548157   2.167132   0.000000
    11  H    2.601678   3.126084   2.193726   3.097898   1.115072
    12  H    3.814265   3.821938   2.181767   2.520526   1.115456
    13  C    3.543040   2.793904   2.595906   2.786867   1.530001
    14  H    4.120396   2.994291   2.802926   2.531596   2.185444
    15  H    4.426258   3.850814   3.536231   3.757358   2.170824
    16  H    3.190840   2.300648   2.954785   3.273906   2.190511
    17  C    2.836537   3.513742   1.539615   2.151573   2.517990
    18  H    3.263271   3.850802   2.196991   2.464354   3.493913
    19  H    2.619356   3.821079   2.195352   3.091084   2.833450
    20  H    3.838477   4.359259   2.195584   2.520170   2.711354
                   11         12         13         14         15
    11  H    0.000000
    12  H    1.800036   0.000000
    13  C    2.163513   2.133670   0.000000
    14  H    3.096736   2.539341   1.113581   0.000000
    15  H    2.529465   2.391132   1.113795   1.808666   0.000000
    16  H    2.472979   3.073169   1.112703   1.816867   1.800031
    17  C    2.813905   2.674173   3.913558   4.173654   4.671308
    18  H    3.858350   3.676425   4.757108   4.852825   5.612153
    19  H    2.673131   3.096226   4.300578   4.800417   4.961588
    20  H    3.112506   2.386307   4.114971   4.300051   4.692953
                   16         17         18         19         20
    16  H    0.000000
    17  C    4.368138   0.000000
    18  H    5.136168   1.112812   0.000000
    19  H    4.615011   1.114180   1.812263   0.000000
    20  H    4.802963   1.114059   1.791085   1.810109   0.000000
 Stoichiometry    C6H14
 Framework group  C1[X(C6H14)]
 Deg. of freedom    54
 Full point group                 C1      NOp   1
 Largest Abelian subgroup         C1      NOp   1
 Largest concise Abelian subgroup C1      NOp   1
                         Standard orientation:                         
 ---------------------------------------------------------------------
 Center     Atomic      Atomic             Coordinates (Angstroms)
 Number     Number       Type             X           Y           Z
 ---------------------------------------------------------------------
      1          6           0       -2.261552   -0.876074   -0.143046
      2          1           0       -2.280342   -0.906090   -1.256162
      3          1           0       -2.874817   -0.018816    0.213931
      4          1           0       -2.720919   -1.813165    0.245741
      5          6           0       -0.822558   -0.765114    0.364818
      6          1           0       -0.841683   -0.649835    1.473552
      7          1           0       -0.336703   -1.739192    0.131668
      8          6           0        0.005529    0.379868   -0.268468
      9          1           0        0.021900    0.229667   -1.374076
     10          6           0        1.471437    0.385080    0.229404
     11          1           0        1.493903    0.488489    1.339443
     12          1           0        1.996698    1.269254   -0.202546
     13          6           0        2.292850   -0.843458   -0.166675
     14          1           0        2.216164   -1.027974   -1.262182
     15          1           0        3.362824   -0.671225    0.090288
     16          1           0        1.949937   -1.746857    0.385040
     17          6           0       -0.624772    1.759980   -0.006880
     18          1           0       -1.624341    1.836311   -0.489980
     19          1           0       -0.737392    1.938753    1.087082
     20          1           0        0.009160    2.568993   -0.436713
 ---------------------------------------------------------------------
 Rotational constants (GHZ):      4.6738974      2.2022737      1.6399014
 Leave Link  202 at Mon Sep 14 19:12:23 2015, MaxMem=  402653184 cpu:       0.0
 (Enter /share/apps/g09/l301.exe)
 Standard basis: VSTO-6G (5D, 7F)
 Ernie: Thresh=  0.10000D-02 Tol=  0.10000D-05 Strict=F.
  NNHCO=     0 NNPyr=     0 NCTC=     0               EPep=         0.000000000
    EC=       129.268942476  ECS=         3.132233274   EG=         0.305204142
   EHC=         0.000407537  EAt=       -31.187935768  AtH=         2.796400831
 EPDDG=         0.000000000  ECC=       132.706787429 EAtT=        33.984336599
 There are    38 symmetry adapted basis functions of A   symmetry.
 Integral buffers will be    131072 words long.
 Regular integral format.
 Two-electron integral symmetry is turned off.
    38 basis functions,   228 primitive gaussians,    38 cartesian basis functions
    19 alpha electrons       19 beta electrons
       nuclear repulsion energy       166.6911240282 Hartrees.
 IExCor=    0 DFT=F Ex=HF Corr=None ExCW=0 ScaHFX=  1.000000
 ScaDFX=  1.000000  1.000000  1.000000  1.000000 ScalE2=  1.000000  1.000000
 IRadAn=      0 IRanWt=     -1 IRanGd=            0 ICorTp=0
 Leave Link  301 at Mon Sep 14 19:12:23 2015, MaxMem=  402653184 cpu:       0.1
 (Enter /share/apps/g09/l302.exe)
 Do NDO integrals.
 NPDir=0 NMtPBC=     1 NCelOv=     1 NCel=       1 NClECP=     1 NCelD=      1
         NCelK=      1 NCelE2=     1 NClLst=     1 CellRange=     0.0.
 One-electron integrals computed using PRISM.
 NBasis=    38 RedAO= F  NBF=    38
 NBsUse=    38 1.00D-04 NBFU=    38
 Leave Link  302 at Mon Sep 14 19:12:23 2015, MaxMem=  402653184 cpu:       0.1
 (Enter /share/apps/g09/l303.exe)
 DipDrv:  MaxL=1.
 Leave Link  303 at Mon Sep 14 19:12:25 2015, MaxMem=  402653184 cpu:       0.0
 (Enter /share/apps/g09/l401.exe)
 Simple Huckel Guess.
 Initial guess orbital symmetries:
       Occupied  (A) (A) (A) (A) (A) (A) (A) (A) (A) (A) (A) (A)
                 (A) (A) (A) (A) (A) (A) (A)
       Virtual   (A) (A) (A) (A) (A) (A) (A) (A) (A) (A) (A) (A)
                 (A) (A) (A) (A) (A) (A) (A)
 The electronic state of the initial guess is 1-A.
 Leave Link  401 at Mon Sep 14 19:12:25 2015, MaxMem=  402653184 cpu:       0.1
 (Enter /share/apps/g09/l502.exe)
 Closed shell SCF:
 Requested convergence on RMS density matrix=1.00D-08 within 128 cycles.
 Requested convergence on MAX density matrix=1.00D-06.
 Requested convergence on             energy=1.00D-06.
 No special actions if energy rises.
 Using DIIS extrapolation, IDIIS=  1040.
 Overlap will be assumed to be unity.
 Two-electron integral symmetry not used.
 Keep J ints in memory in canonical form, NReq=884654.
 IEnd=       81865 IEndB=       81865 NGot=   402653184 MDV=   402586639
 LenX=   402586639 LenY=   402584754
 Symmetry not used in FoFDir.
 MinBra= 0 MaxBra= 1 Meth=40.
 IRaf=       0 NMat=   1 IRICut=       1 DoRegI=T DoRafI=F ISym2E= 0 JSym2E=0.

 Cycle   1  Pass 1  IDiag  1:
 E= 0.733843379396717E-01
 DIIS: error= 2.20D-02 at cycle   1 NSaved=   1.
 NSaved= 1 IEnMin= 1 EnMin= 0.733843379396717E-01 IErMin= 1 ErrMin= 2.20D-02
 ErrMax= 2.20D-02 EMaxC= 1.00D-01 BMatC= 4.37D-02 BMatP= 4.37D-02
 IDIUse=3 WtCom= 7.80D-01 WtEn= 2.20D-01
 Coeff-Com:  0.100D+01
 Coeff-En:   0.100D+01
 Coeff:      0.100D+01
 GapD=    2.000 DampG=2.000 DampE=0.500 DampFc=1.0000 IDamp=-1.
 RMSDP=8.38D-03 MaxDP=6.93D-02              OVMax= 0.00D+00

 Cycle   2  Pass 1  IDiag  1:
 E=-0.424699866748313E-01 Delta-E=       -0.115854324615 Rises=F Damp=F
 DIIS: error= 5.32D-03 at cycle   2 NSaved=   2.
 NSaved= 2 IEnMin= 2 EnMin=-0.424699866748313E-01 IErMin= 2 ErrMin= 5.32D-03
 ErrMax= 5.32D-03 EMaxC= 1.00D-01 BMatC= 3.00D-03 BMatP= 4.37D-02
 IDIUse=3 WtCom= 9.47D-01 WtEn= 5.32D-02
 Coeff-Com: -0.318D+00 0.132D+01
 Coeff-En:   0.000D+00 0.100D+01
 Coeff:     -0.301D+00 0.130D+01
 RMSDP=3.08D-03 MaxDP=2.13D-02 DE=-1.16D-01 OVMax= 0.00D+00

 Cycle   3  Pass 1  IDiag  3:
 E=-0.525352434107447E-01 Delta-E=       -0.010065256736 Rises=F Damp=F
 DIIS: error= 1.51D-03 at cycle   3 NSaved=   3.
 NSaved= 3 IEnMin= 3 EnMin=-0.525352434107447E-01 IErMin= 3 ErrMin= 1.51D-03
 ErrMax= 1.51D-03 EMaxC= 1.00D-01 BMatC= 1.30D-04 BMatP= 3.00D-03
 IDIUse=3 WtCom= 9.85D-01 WtEn= 1.51D-02
 Coeff-Com:  0.231D+00-0.102D+01 0.179D+01
 Coeff-En:   0.000D+00 0.000D+00 0.100D+01
 Coeff:      0.228D+00-0.100D+01 0.178D+01
 Gap=     0.553 Goal=   None    Shift=    0.000
 RMSDP=1.12D-03 MaxDP=1.12D-02 DE=-1.01D-02 OVMax= 0.00D+00

 Cycle   4  Pass 1  IDiag  3:
 E=-0.533723348955562E-01 Delta-E=       -0.000837091485 Rises=F Damp=F
 DIIS: error= 4.59D-04 at cycle   4 NSaved=   4.
 NSaved= 4 IEnMin= 4 EnMin=-0.533723348955562E-01 IErMin= 4 ErrMin= 4.59D-04
 ErrMax= 4.59D-04 EMaxC= 1.00D-01 BMatC= 1.00D-05 BMatP= 1.30D-04
 IDIUse=3 WtCom= 9.95D-01 WtEn= 4.59D-03
 Coeff-Com: -0.113D+00 0.508D+00-0.112D+01 0.173D+01
 Coeff-En:   0.000D+00 0.000D+00 0.000D+00 0.100D+01
 Coeff:     -0.112D+00 0.506D+00-0.112D+01 0.172D+01
 Gap=     0.553 Goal=   None    Shift=    0.000
 RMSDP=3.90D-04 MaxDP=4.16D-03 DE=-8.37D-04 OVMax= 0.00D+00

 Cycle   5  Pass 1  IDiag  3:
 E=-0.534435499994004E-01 Delta-E=       -0.000071215104 Rises=F Damp=F
 DIIS: error= 1.35D-04 at cycle   5 NSaved=   5.
 NSaved= 5 IEnMin= 5 EnMin=-0.534435499994004E-01 IErMin= 5 ErrMin= 1.35D-04
 ErrMax= 1.35D-04 EMaxC= 1.00D-01 BMatC= 3.89D-07 BMatP= 1.00D-05
 IDIUse=3 WtCom= 9.99D-01 WtEn= 1.35D-03
 Coeff-Com:  0.589D-01-0.267D+00 0.620D+00-0.108D+01 0.166D+01
 Coeff-En:   0.000D+00 0.000D+00 0.000D+00 0.000D+00 0.100D+01
 Coeff:      0.588D-01-0.267D+00 0.619D+00-0.108D+01 0.166D+01
 Gap=     0.553 Goal=   None    Shift=    0.000
 RMSDP=6.61D-05 MaxDP=8.06D-04 DE=-7.12D-05 OVMax= 0.00D+00

 Cycle   6  Pass 1  IDiag  3:
 E=-0.534461611120776E-01 Delta-E=       -0.000002611113 Rises=F Damp=F
 DIIS: error= 3.36D-05 at cycle   6 NSaved=   6.
 NSaved= 6 IEnMin= 6 EnMin=-0.534461611120776E-01 IErMin= 6 ErrMin= 3.36D-05
 ErrMax= 3.36D-05 EMaxC= 1.00D-01 BMatC= 3.10D-08 BMatP= 3.89D-07
 IDIUse=1 WtCom= 1.00D+00 WtEn= 0.00D+00
 Coeff-Com: -0.571D-02 0.264D-01-0.680D-01 0.136D+00-0.411D+00 0.132D+01
 Coeff:     -0.571D-02 0.264D-01-0.680D-01 0.136D+00-0.411D+00 0.132D+01
 Gap=     0.553 Goal=   None    Shift=    0.000
 RMSDP=1.74D-05 MaxDP=2.16D-04 DE=-2.61D-06 OVMax= 0.00D+00

 Cycle   7  Pass 1  IDiag  3:
 E=-0.534463747290772E-01 Delta-E=       -0.000000213617 Rises=F Damp=F
 DIIS: error= 9.96D-06 at cycle   7 NSaved=   7.
 NSaved= 7 IEnMin= 7 EnMin=-0.534463747290772E-01 IErMin= 7 ErrMin= 9.96D-06
 ErrMax= 9.96D-06 EMaxC= 1.00D-01 BMatC= 5.65D-09 BMatP= 3.10D-08
 IDIUse=1 WtCom= 1.00D+00 WtEn= 0.00D+00
 Coeff-Com:  0.179D-02-0.854D-02 0.242D-01-0.524D-01 0.198D+00-0.102D+01
 Coeff-Com:  0.186D+01
 Coeff:      0.179D-02-0.854D-02 0.242D-01-0.524D-01 0.198D+00-0.102D+01
 Coeff:      0.186D+01
 Gap=     0.553 Goal=   None    Shift=    0.000
 RMSDP=9.71D-06 MaxDP=1.05D-04 DE=-2.14D-07 OVMax= 0.00D+00

 Cycle   8  Pass 1  IDiag  3:
 E=-0.534464217615778E-01 Delta-E=       -0.000000047033 Rises=F Damp=F
 DIIS: error= 3.92D-06 at cycle   8 NSaved=   8.
 NSaved= 8 IEnMin= 8 EnMin=-0.534464217615778E-01 IErMin= 8 ErrMin= 3.92D-06
 ErrMax= 3.92D-06 EMaxC= 1.00D-01 BMatC= 6.03D-10 BMatP= 5.65D-09
 IDIUse=1 WtCom= 1.00D+00 WtEn= 0.00D+00
 Coeff-Com: -0.660D-03 0.339D-02-0.117D-01 0.295D-01-0.137D+00 0.839D+00
 Coeff-Com: -0.180D+01 0.208D+01
 Coeff:     -0.660D-03 0.339D-02-0.117D-01 0.295D-01-0.137D+00 0.839D+00
 Coeff:     -0.180D+01 0.208D+01
 Gap=     0.553 Goal=   None    Shift=    0.000
 RMSDP=3.67D-06 MaxDP=3.51D-05 DE=-4.70D-08 OVMax= 0.00D+00

 Cycle   9  Pass 1  IDiag  3:
 E=-0.534464269142632E-01 Delta-E=       -0.000000005153 Rises=F Damp=F
 DIIS: error= 5.57D-07 at cycle   9 NSaved=   9.
 NSaved= 9 IEnMin= 9 EnMin=-0.534464269142632E-01 IErMin= 9 ErrMin= 5.57D-07
 ErrMax= 5.57D-07 EMaxC= 1.00D-01 BMatC= 1.61D-11 BMatP= 6.03D-10
 IDIUse=1 WtCom= 1.00D+00 WtEn= 0.00D+00
 Coeff-Com: -0.109D-03 0.362D-03 0.507D-03-0.404D-02 0.351D-01-0.261D+00
 Coeff-Com:  0.593D+00-0.806D+00 0.144D+01
 Coeff:     -0.109D-03 0.362D-03 0.507D-03-0.404D-02 0.351D-01-0.261D+00
 Coeff:      0.593D+00-0.806D+00 0.144D+01
 Gap=     0.553 Goal=   None    Shift=    0.000
 RMSDP=4.68D-07 MaxDP=4.92D-06 DE=-5.15D-09 OVMax= 0.00D+00

 Cycle  10  Pass 1  IDiag  3:
 E=-0.534464270173771E-01 Delta-E=       -0.000000000103 Rises=F Damp=F
 DIIS: error= 1.64D-07 at cycle  10 NSaved=  10.
 NSaved=10 IEnMin=10 EnMin=-0.534464270173771E-01 IErMin=10 ErrMin= 1.64D-07
 ErrMax= 1.64D-07 EMaxC= 1.00D-01 BMatC= 8.34D-13 BMatP= 1.61D-11
 IDIUse=1 WtCom= 1.00D+00 WtEn= 0.00D+00
 Coeff-Com:  0.730D-05 0.314D-04-0.718D-03 0.274D-02-0.183D-01 0.129D+00
 Coeff-Com: -0.290D+00 0.399D+00-0.827D+00 0.161D+01
 Coeff:      0.730D-05 0.314D-04-0.718D-03 0.274D-02-0.183D-01 0.129D+00
 Coeff:     -0.290D+00 0.399D+00-0.827D+00 0.161D+01
 Gap=     0.553 Goal=   None    Shift=    0.000
 RMSDP=8.91D-08 MaxDP=9.54D-07 DE=-1.03D-10 OVMax= 0.00D+00

 Cycle  11  Pass 1  IDiag  3:
 E=-0.534464270222941E-01 Delta-E=       -0.000000000005 Rises=F Damp=F
 DIIS: error= 3.76D-08 at cycle  11 NSaved=  11.
 NSaved=11 IEnMin=11 EnMin=-0.534464270222941E-01 IErMin=11 ErrMin= 3.76D-08
 ErrMax= 3.76D-08 EMaxC= 1.00D-01 BMatC= 4.29D-14 BMatP= 8.34D-13
 IDIUse=1 WtCom= 1.00D+00 WtEn= 0.00D+00
 Coeff-Com:  0.880D-05-0.674D-04 0.430D-03-0.138D-02 0.815D-02-0.554D-01
 Coeff-Com:  0.124D+00-0.170D+00 0.362D+00-0.870D+00 0.160D+01
 Coeff:      0.880D-05-0.674D-04 0.430D-03-0.138D-02 0.815D-02-0.554D-01
 Coeff:      0.124D+00-0.170D+00 0.362D+00-0.870D+00 0.160D+01
 Gap=     0.553 Goal=   None    Shift=    0.000
 RMSDP=2.16D-08 MaxDP=2.30D-07 DE=-4.92D-12 OVMax= 0.00D+00

 Cycle  12  Pass 1  IDiag  3:
 E=-0.534464270226920E-01 Delta-E=        0.000000000000 Rises=F Damp=F
 DIIS: error= 4.68D-09 at cycle  12 NSaved=  12.
 NSaved=12 IEnMin=12 EnMin=-0.534464270226920E-01 IErMin=12 ErrMin= 4.68D-09
 ErrMax= 4.68D-09 EMaxC= 1.00D-01 BMatC= 9.40D-16 BMatP= 4.29D-14
 IDIUse=1 WtCom= 1.00D+00 WtEn= 0.00D+00
 Coeff-Com: -0.651D-06 0.125D-04-0.124D-03 0.433D-03-0.272D-02 0.189D-01
 Coeff-Com: -0.424D-01 0.584D-01-0.126D+00 0.316D+00-0.663D+00 0.144D+01
 Coeff:     -0.651D-06 0.125D-04-0.124D-03 0.433D-03-0.272D-02 0.189D-01
 Coeff:     -0.424D-01 0.584D-01-0.126D+00 0.316D+00-0.663D+00 0.144D+01
 Gap=     0.553 Goal=   None    Shift=    0.000
 RMSDP=2.57D-09 MaxDP=2.62D-08 DE=-3.98D-13 OVMax= 0.00D+00

 Cycle  13  Pass 2  IDiag  1:
 RMSDP=2.57D-09 MaxDP=2.62D-08 DE=-3.98D-13 OVMax= 0.00D+00

 SCF Done:  E(RPM6) = -0.534464270227E-01 A.U. after   13 cycles
             Convg  =    0.2565D-08             -V/T =  0.9990
 KE=-5.615182492762D+01 PE=-2.545183944566D+02 EE= 1.439256489290D+02
 Leave Link  502 at Mon Sep 14 19:12:30 2015, MaxMem=  402653184 cpu:       2.3
 (Enter /share/apps/g09/l601.exe)
 Copying SCF densities to generalized density rwf, IOpCl= 0 IROHF=0.

 **********************************************************************

            Population analysis using the SCF density.

 **********************************************************************

 Orbital symmetries:
       Occupied  (A) (A) (A) (A) (A) (A) (A) (A) (A) (A) (A) (A)
                 (A) (A) (A) (A) (A) (A) (A)
       Virtual   (A) (A) (A) (A) (A) (A) (A) (A) (A) (A) (A) (A)
                 (A) (A) (A) (A) (A) (A) (A)
 The electronic state is 1-A.
 Alpha  occ. eigenvalues --   -1.05408  -0.96595  -0.91659  -0.80949  -0.76301
 Alpha  occ. eigenvalues --   -0.69649  -0.57966  -0.55315  -0.54851  -0.51848
 Alpha  occ. eigenvalues --   -0.50982  -0.47922  -0.46569  -0.45933  -0.44260
 Alpha  occ. eigenvalues --   -0.43403  -0.40840  -0.40454  -0.40044
 Alpha virt. eigenvalues --    0.15226   0.15777   0.16896   0.17988   0.18125
 Alpha virt. eigenvalues --    0.21067   0.21252   0.21770   0.21848   0.22153
 Alpha virt. eigenvalues --    0.22229   0.22833   0.23175   0.23812   0.24414
 Alpha virt. eigenvalues --    0.24589   0.24889   0.25291   0.25658
          Condensed to atoms (all electrons):
              1          2          3          4          5          6
     1  C    4.456630   0.000000   0.000000   0.000000   0.000000   0.000000
     2  H    0.000000   0.853832   0.000000   0.000000   0.000000   0.000000
     3  H    0.000000   0.000000   0.853572   0.000000   0.000000   0.000000
     4  H    0.000000   0.000000   0.000000   0.858356   0.000000   0.000000
     5  C    0.000000   0.000000   0.000000   0.000000   4.256944   0.000000
     6  H    0.000000   0.000000   0.000000   0.000000   0.000000   0.869703
     7  H    0.000000   0.000000   0.000000   0.000000   0.000000   0.000000
     8  C    0.000000   0.000000   0.000000   0.000000   0.000000   0.000000
     9  H    0.000000   0.000000   0.000000   0.000000   0.000000   0.000000
    10  C    0.000000   0.000000   0.000000   0.000000   0.000000   0.000000
    11  H    0.000000   0.000000   0.000000   0.000000   0.000000   0.000000
    12  H    0.000000   0.000000   0.000000   0.000000   0.000000   0.000000
    13  C    0.000000   0.000000   0.000000   0.000000   0.000000   0.000000
    14  H    0.000000   0.000000   0.000000   0.000000   0.000000   0.000000
    15  H    0.000000   0.000000   0.000000   0.000000   0.000000   0.000000
    16  H    0.000000   0.000000   0.000000   0.000000   0.000000   0.000000
    17  C    0.000000   0.000000   0.000000   0.000000   0.000000   0.000000
    18  H    0.000000   0.000000   0.000000   0.000000   0.000000   0.000000
    19  H    0.000000   0.000000   0.000000   0.000000   0.000000   0.000000
    20  H    0.000000   0.000000   0.000000   0.000000   0.000000   0.000000
              7          8          9         10         11         12
     1  C    0.000000   0.000000   0.000000   0.000000   0.000000   0.000000
     2  H    0.000000   0.000000   0.000000   0.000000   0.000000   0.000000
     3  H    0.000000   0.000000   0.000000   0.000000   0.000000   0.000000
     4  H    0.000000   0.000000   0.000000   0.000000   0.000000   0.000000
     5  C    0.000000   0.000000   0.000000   0.000000   0.000000   0.000000
     6  H    0.000000   0.000000   0.000000   0.000000   0.000000   0.000000
     7  H    0.870621   0.000000   0.000000   0.000000   0.000000   0.000000
     8  C    0.000000   4.021709   0.000000   0.000000   0.000000   0.000000
     9  H    0.000000   0.000000   0.887214   0.000000   0.000000   0.000000
    10  C    0.000000   0.000000   0.000000   4.265469   0.000000   0.000000
    11  H    0.000000   0.000000   0.000000   0.000000   0.868376   0.000000
    12  H    0.000000   0.000000   0.000000   0.000000   0.000000   0.870481
    13  C    0.000000   0.000000   0.000000   0.000000   0.000000   0.000000
    14  H    0.000000   0.000000   0.000000   0.000000   0.000000   0.000000
    15  H    0.000000   0.000000   0.000000   0.000000   0.000000   0.000000
    16  H    0.000000   0.000000   0.000000   0.000000   0.000000   0.000000
    17  C    0.000000   0.000000   0.000000   0.000000   0.000000   0.000000
    18  H    0.000000   0.000000   0.000000   0.000000   0.000000   0.000000
    19  H    0.000000   0.000000   0.000000   0.000000   0.000000   0.000000
    20  H    0.000000   0.000000   0.000000   0.000000   0.000000   0.000000
             13         14         15         16         17         18
     1  C    0.000000   0.000000   0.000000   0.000000   0.000000   0.000000
     2  H    0.000000   0.000000   0.000000   0.000000   0.000000   0.000000
     3  H    0.000000   0.000000   0.000000   0.000000   0.000000   0.000000
     4  H    0.000000   0.000000   0.000000   0.000000   0.000000   0.000000
     5  C    0.000000   0.000000   0.000000   0.000000   0.000000   0.000000
     6  H    0.000000   0.000000   0.000000   0.000000   0.000000   0.000000
     7  H    0.000000   0.000000   0.000000   0.000000   0.000000   0.000000
     8  C    0.000000   0.000000   0.000000   0.000000   0.000000   0.000000
     9  H    0.000000   0.000000   0.000000   0.000000   0.000000   0.000000
    10  C    0.000000   0.000000   0.000000   0.000000   0.000000   0.000000
    11  H    0.000000   0.000000   0.000000   0.000000   0.000000   0.000000
    12  H    0.000000   0.000000   0.000000   0.000000   0.000000   0.000000
    13  C    4.457325   0.000000   0.000000   0.000000   0.000000   0.000000
    14  H    0.000000   0.852804   0.000000   0.000000   0.000000   0.000000
    15  H    0.000000   0.000000   0.857309   0.000000   0.000000   0.000000
    16  H    0.000000   0.000000   0.000000   0.853908   0.000000   0.000000
    17  C    0.000000   0.000000   0.000000   0.000000   4.491837   0.000000
    18  H    0.000000   0.000000   0.000000   0.000000   0.000000   0.849746
    19  H    0.000000   0.000000   0.000000   0.000000   0.000000   0.000000
    20  H    0.000000   0.000000   0.000000   0.000000   0.000000   0.000000
             19         20
     1  C    0.000000   0.000000
     2  H    0.000000   0.000000
     3  H    0.000000   0.000000
     4  H    0.000000   0.000000
     5  C    0.000000   0.000000
     6  H    0.000000   0.000000
     7  H    0.000000   0.000000
     8  C    0.000000   0.000000
     9  H    0.000000   0.000000
    10  C    0.000000   0.000000
    11  H    0.000000   0.000000
    12  H    0.000000   0.000000
    13  C    0.000000   0.000000
    14  H    0.000000   0.000000
    15  H    0.000000   0.000000
    16  H    0.000000   0.000000
    17  C    0.000000   0.000000
    18  H    0.000000   0.000000
    19  H    0.849419   0.000000
    20  H    0.000000   0.854742
 Mulliken atomic charges:
              1
     1  C   -0.456630
     2  H    0.146168
     3  H    0.146428
     4  H    0.141644
     5  C   -0.256944
     6  H    0.130297
     7  H    0.129379
     8  C   -0.021709
     9  H    0.112786
    10  C   -0.265469
    11  H    0.131624
    12  H    0.129519
    13  C   -0.457325
    14  H    0.147196
    15  H    0.142691
    16  H    0.146092
    17  C   -0.491837
    18  H    0.150254
    19  H    0.150581
    20  H    0.145258
 Sum of Mulliken atomic charges =   0.00000
 Mulliken charges with hydrogens summed into heavy atoms:
              1
     1  C   -0.022391
     5  C    0.002732
     8  C    0.091076
    10  C   -0.004326
    13  C   -0.021346
    17  C   -0.045745
 Sum of Mulliken charges with hydrogens summed into heavy atoms =   0.00000
 Charge=              0.0000 electrons
 Dipole moment (field-independent basis, Debye):
    X=              0.0305    Y=              0.0102    Z=              0.0021  Tot=              0.0322
 N-N= 1.666911240282D+02 E-N=-2.545183944167D+02  KE=-5.615182492762D+01
 Leave Link  601 at Mon Sep 14 19:12:30 2015, MaxMem=  402653184 cpu:       0.0
 (Enter /share/apps/g09/l701.exe)
 Compute integral first derivatives.
 ... and contract with generalized density number  0.
 Leave Link  701 at Mon Sep 14 19:12:32 2015, MaxMem=  402653184 cpu:       0.1
 (Enter /share/apps/g09/l702.exe)
 L702 exits ... SP integral derivatives will be done elsewhere.
 Leave Link  702 at Mon Sep 14 19:12:33 2015, MaxMem=  402653184 cpu:       0.0
 (Enter /share/apps/g09/l703.exe)
 Compute integral first derivatives, UseDBF=F ICtDFT=           0.
 Integral derivatives from FoFDir, PRISM(SPDF).
 Calling FoFJK, ICntrl=      2127 FMM=F ISym2X=0 I1Cent= 0 IOpClX= 0 NMat=1 NMatS=1 NMatT=0.
 FoFCou: FMM=F IPFlag=           0 FMFlag=      100000 FMFlg1=         800
         NFxFlg=           0 DoJE=F BraDBF=F KetDBF=F FulRan=T
         Omega=  0.000000  0.000000  1.000000  0.000000  0.000000 ICntrl=    2127 IOpCl=  0
         NMat0=    1 NMatS0=    1 NMatT0=    0 NMatD0=    1 NMtDS0=    0 NMtDT0=    0
         I1Cent=           0 NGrid=           0.
 Symmetry not used in FoFCou.
 Leave Link  703 at Mon Sep 14 19:12:35 2015, MaxMem=  402653184 cpu:       0.1
 (Enter /share/apps/g09/l716.exe)
 Dipole        = 1.19923622D-02 4.01893799D-03 8.33913217D-04
 ***** Axes restored to original set *****
 -------------------------------------------------------------------
 Center     Atomic                   Forces (Hartrees/Bohr)
 Number     Number              X              Y              Z
 -------------------------------------------------------------------
      1        6          -0.000724411    0.002828910   -0.001954270
      2        1          -0.003105666    0.003734089    0.009322509
      3        1           0.000087301   -0.009333814   -0.003575982
      4        1           0.006279996    0.005687456   -0.005153881
      5        6           0.000765608   -0.000580766    0.001651715
      6        1           0.001951019   -0.002771414   -0.004042438
      7        1           0.004086739    0.001846452    0.003702179
      8        6          -0.001609607    0.000881404   -0.000772369
      9        1          -0.000953054   -0.001655370   -0.001007992
     10        6           0.000770073   -0.000966105    0.002419132
     11        1           0.000876868    0.000820549   -0.005033567
     12        1          -0.003734442    0.002588012    0.003053861
     13        6          -0.001806254   -0.002239006   -0.000320173
     14        1          -0.000127130    0.000222528    0.010421155
     15        1          -0.008764880    0.000026113   -0.004515106
     16        1           0.007043579    0.002577710   -0.006542601
     17        6           0.000783758    0.002799141    0.001427281
     18        1           0.006213059   -0.003124575    0.007300420
     19        1           0.001244119   -0.001826039   -0.010767050
     20        1          -0.009276674   -0.001515276    0.004387175
 -------------------------------------------------------------------
 Cartesian Forces:  Max     0.010767050 RMS     0.004307043
 Leave Link  716 at Mon Sep 14 19:12:35 2015, MaxMem=  402653184 cpu:       0.1
 (Enter /share/apps/g09/l103.exe)

 GradGradGradGradGradGradGradGradGradGradGradGradGradGradGradGradGradGrad
 Berny optimization.
 Internal  Forces:  Max     0.010760658 RMS     0.003759494
 Search for a local minimum.
 Step number   1 out of a maximum of  110
 All quantities printed in internal units (Hartrees-Bohrs-Radians)
 RMS Force = .37595D-02 SwitMx=.10000D-02 MixMth= 1
 Mixed Optimization -- RFO/linear search
 Second derivative matrix not updated -- first step.
     Eigenvalues ---    0.00230   0.00230   0.00242   0.00369   0.00369
     Eigenvalues ---    0.03305   0.03321   0.03375   0.04544   0.04769
     Eigenvalues ---    0.04774   0.04937   0.05457   0.05536   0.05544
     Eigenvalues ---    0.05565   0.05755   0.05759   0.08626   0.08649
     Eigenvalues ---    0.12419   0.12437   0.16000   0.16000   0.16000
     Eigenvalues ---    0.16000   0.16000   0.16000   0.16000   0.16000
     Eigenvalues ---    0.16000   0.16562   0.17113   0.22003   0.22010
     Eigenvalues ---    0.27781   0.27808   0.28553   0.29422   0.29423
     Eigenvalues ---    0.31985   0.32029   0.32069   0.32089   0.32161
     Eigenvalues ---    0.32174   0.32202   0.32212   0.32214   0.32224
     Eigenvalues ---    0.32262   0.32301   0.32304   0.323161000.00000
     Eigenvalues --- 1000.000001000.000001000.000001000.000001000.00000
     Eigenvalues --- 1000.000001000.000001000.000001000.000001000.00000
     Eigenvalues --- 1000.000001000.000001000.000001000.000001000.00000
     Eigenvalues --- 1000.000001000.000001000.000001000.000001000.00000
     Eigenvalues --- 1000.000001000.000001000.000001000.000001000.00000
     Eigenvalues --- 1000.000001000.000001000.000001000.000001000.00000
     Eigenvalues --- 1000.000001000.000001000.000001000.000001000.00000
     Eigenvalues --- 1000.000001000.000001000.000001000.000001000.00000
     Eigenvalues --- 1000.000001000.000001000.000001000.000001000.00000
 RFO step:  Lambda=-5.81977226D-03 EMin= 2.30000000D-03
 Linear search not attempted -- first point.
 Iteration  1 RMS(Cart)=  0.04281950 RMS(Int)=  0.00062917
 Iteration  2 RMS(Cart)=  0.00080172 RMS(Int)=  0.00015767
 Iteration  3 RMS(Cart)=  0.00000042 RMS(Int)=  0.00015767
 Variable       Old X    -DE/DX   Delta X   Delta X   Delta X     New X
                                 (Linear)    (Quad)   (Total)
    R1        2.10455  -0.01011   0.00000  -0.03084  -0.03084   2.07371
    R2        2.10297  -0.00965   0.00000  -0.02935  -0.02935   2.07362
    R3        2.10458  -0.00955   0.00000  -0.02913  -0.02913   2.07544
    R4        2.89131  -0.00044   0.00000  -0.00145  -0.00145   2.88985
    R5        2.10681  -0.00480   0.00000  -0.01468  -0.01468   2.09213
    R6        2.10367  -0.00210   0.00000  -0.00640  -0.00640   2.09727
    R7        2.92619  -0.00863   0.00000  -0.03042  -0.03042   2.89577
    R8        2.10872   0.00140   0.00000   0.00429   0.00429   2.11301
    R9        2.92559  -0.00590   0.00000  -0.02077  -0.02077   2.90482
   R10        2.90945  -0.00373   0.00000  -0.01282  -0.01282   2.89664
   R11        2.10718  -0.00471   0.00000  -0.01442  -0.01442   2.09276
   R12        2.10791  -0.00325   0.00000  -0.00997  -0.00997   2.09794
   R13        2.89128  -0.00087   0.00000  -0.00289  -0.00289   2.88839
   R14        2.10436  -0.01004   0.00000  -0.03060  -0.03060   2.07377
   R15        2.10477  -0.00947   0.00000  -0.02888  -0.02888   2.07589
   R16        2.10270  -0.00962   0.00000  -0.02925  -0.02925   2.07345
   R17        2.10291  -0.00994   0.00000  -0.03022  -0.03022   2.07269
   R18        2.10549  -0.01076   0.00000  -0.03286  -0.03286   2.07263
   R19        2.10527  -0.01023   0.00000  -0.03123  -0.03123   2.07403
    A1        1.90931  -0.00324   0.00000  -0.02484  -0.02484   1.88446
    A2        1.89577  -0.00270   0.00000  -0.01404  -0.01425   1.88152
    A3        1.92793   0.00278   0.00000   0.01503   0.01492   1.94285
    A4        1.88482  -0.00218   0.00000  -0.00979  -0.00997   1.87485
    A5        1.93473   0.00204   0.00000   0.01112   0.01102   1.94575
    A6        1.91036   0.00309   0.00000   0.02146   0.02125   1.93161
    A7        1.89808   0.00288   0.00000   0.01510   0.01470   1.91278
    A8        1.85199   0.00553   0.00000   0.04911   0.04900   1.90099
    A9        2.00516  -0.00671   0.00000  -0.02678  -0.02665   1.97852
   A10        1.88205  -0.00221   0.00000  -0.01854  -0.01916   1.86288
   A11        1.91712   0.00117   0.00000  -0.00916  -0.00914   1.90798
   A12        1.90493  -0.00040   0.00000  -0.00817  -0.00785   1.89708
   A13        1.88970   0.00052   0.00000   0.00171   0.00187   1.89157
   A14        1.95771  -0.00262   0.00000  -0.02669  -0.02677   1.93094
   A15        1.95455  -0.00054   0.00000  -0.01132  -0.01147   1.94308
   A16        1.88093   0.00055   0.00000   0.01242   0.01226   1.89319
   A17        1.87026   0.00048   0.00000   0.02300   0.02291   1.89317
   A18        1.90708   0.00177   0.00000   0.00414   0.00365   1.91073
   A19        1.91721   0.00128   0.00000  -0.00722  -0.00720   1.91001
   A20        1.90076   0.00037   0.00000  -0.00145  -0.00113   1.89963
   A21        2.00688  -0.00692   0.00000  -0.02822  -0.02812   1.97877
   A22        1.87811  -0.00221   0.00000  -0.01742  -0.01783   1.86028
   A23        1.89796   0.00289   0.00000   0.01370   0.01334   1.91129
   A24        1.85816   0.00484   0.00000   0.04197   0.04192   1.90007
   A25        1.92917   0.00268   0.00000   0.01412   0.01401   1.94318
   A26        1.90907   0.00330   0.00000   0.02318   0.02296   1.93203
   A27        1.93704   0.00182   0.00000   0.00967   0.00958   1.94662
   A28        1.89520  -0.00273   0.00000  -0.01398  -0.01419   1.88100
   A29        1.90926  -0.00317   0.00000  -0.02515  -0.02513   1.88412
   A30        1.88306  -0.00212   0.00000  -0.00887  -0.00906   1.87399
   A31        1.93420   0.00045   0.00000   0.00222   0.00219   1.93639
   A32        1.93054   0.00241   0.00000   0.01232   0.01228   1.94281
   A33        1.93098   0.00180   0.00000   0.01356   0.01348   1.94446
   A34        1.90123  -0.00214   0.00000  -0.01799  -0.01797   1.88326
   A35        1.86901  -0.00062   0.00000   0.00059   0.00052   1.86953
   A36        1.89634  -0.00211   0.00000  -0.01185  -0.01195   1.88439
    D1        3.05840  -0.00122   0.00000  -0.00897  -0.00923   3.04917
    D2       -1.20428   0.00047   0.00000   0.00216   0.00236  -1.20192
    D3        0.90206  -0.00021   0.00000   0.01041   0.01031   0.91236
    D4        0.93910  -0.00037   0.00000   0.00481   0.00465   0.94375
    D5        2.95960   0.00131   0.00000   0.01594   0.01625   2.97584
    D6       -1.21725   0.00064   0.00000   0.02419   0.02419  -1.19306
    D7       -1.13819  -0.00089   0.00000  -0.00350  -0.00370  -1.14189
    D8        0.88231   0.00080   0.00000   0.00763   0.00789   0.89021
    D9        2.98865   0.00012   0.00000   0.01588   0.01584   3.00449
   D10       -1.01186  -0.00108   0.00000  -0.00225  -0.00219  -1.01405
   D11       -3.08512  -0.00052   0.00000  -0.00268  -0.00252  -3.08764
   D12        1.04636  -0.00047   0.00000   0.02042   0.02034   1.06670
   D13        3.12514  -0.00090   0.00000   0.00456   0.00452   3.12966
   D14        1.05189  -0.00035   0.00000   0.00413   0.00419   1.05608
   D15       -1.09983  -0.00030   0.00000   0.02723   0.02705  -1.07277
   D16        1.06515   0.00133   0.00000   0.03727   0.03728   1.10243
   D17       -1.00811   0.00188   0.00000   0.03684   0.03695  -0.97116
   D18        3.12337   0.00193   0.00000   0.05994   0.05981  -3.10001
   D19       -1.01998  -0.00021   0.00000   0.00827   0.00817  -1.01182
   D20       -3.07280   0.00150   0.00000   0.03434   0.03431  -3.03848
   D21        1.12737  -0.00045   0.00000   0.00002   0.00004   1.12741
   D22       -3.09839   0.00034   0.00000   0.01400   0.01398  -3.08442
   D23        1.13198   0.00206   0.00000   0.04006   0.04012   1.17210
   D24       -0.95104   0.00011   0.00000   0.00575   0.00585  -0.94520
   D25        1.15818  -0.00147   0.00000  -0.02220  -0.02228   1.13590
   D26       -0.89463   0.00025   0.00000   0.00386   0.00387  -0.89076
   D27       -2.97765  -0.00170   0.00000  -0.03045  -0.03041  -3.00806
   D28       -1.11028  -0.00048   0.00000  -0.00003  -0.00003  -1.11031
   D29        1.00023  -0.00126   0.00000  -0.01299  -0.01304   0.98719
   D30        3.10246  -0.00114   0.00000  -0.01083  -0.01085   3.09161
   D31        0.95950   0.00015   0.00000   0.01003   0.00999   0.96948
   D32        3.07000  -0.00063   0.00000  -0.00293  -0.00302   3.06698
   D33       -1.11095  -0.00051   0.00000  -0.00078  -0.00083  -1.11178
   D34        2.99290   0.00198   0.00000   0.03936   0.03946   3.03236
   D35       -1.17978   0.00120   0.00000   0.02640   0.02645  -1.15333
   D36        0.92245   0.00132   0.00000   0.02855   0.02864   0.95110
   D37        0.89601  -0.00013   0.00000   0.01197   0.01186   0.90787
   D38        2.98185   0.00023   0.00000   0.01803   0.01799   2.99984
   D39       -1.22563   0.00083   0.00000   0.02768   0.02768  -1.19794
   D40        3.05361  -0.00114   0.00000  -0.00701  -0.00723   3.04638
   D41       -1.14373  -0.00078   0.00000  -0.00096  -0.00111  -1.14484
   D42        0.93198  -0.00018   0.00000   0.00869   0.00859   0.94057
   D43       -1.21052   0.00021   0.00000   0.00120   0.00134  -1.20918
   D44        0.87532   0.00058   0.00000   0.00726   0.00747   0.88279
   D45        2.95103   0.00118   0.00000   0.01691   0.01717   2.96819
         Item               Value     Threshold  Converged?
 Maximum Force            0.010761     0.000450     NO 
 RMS     Force            0.003759     0.000300     NO 
 Maximum Displacement     0.151191     0.001800     NO 
 RMS     Displacement     0.042741     0.001200     NO 
 Predicted change in Energy=-3.033675D-03
 GradGradGradGradGradGradGradGradGradGradGradGradGradGradGradGradGradGrad

 Leave Link  103 at Mon Sep 14 19:12:38 2015, MaxMem=  402653184 cpu:       3.0
 (Enter /share/apps/g09/l202.exe)
                          Input orientation:                          
 ---------------------------------------------------------------------
 Center     Atomic      Atomic             Coordinates (Angstroms)
 Number     Number       Type             X           Y           Z
 ---------------------------------------------------------------------
      1          6           0       -2.610424   -0.070594   -0.256747
      2          1           0       -2.526263   -0.297056   -1.327181
      3          1           0       -2.750207    1.012508   -0.149789
      4          1           0       -3.519897   -0.558213    0.119148
      5          6           0       -1.380728   -0.555244    0.512375
      6          1           0       -1.450894   -0.229372    1.568108
      7          1           0       -1.375493   -1.665032    0.520152
      8          6           0       -0.057958   -0.062000   -0.083583
      9          1           0        0.002194   -0.409910   -1.144532
     10          6           0        1.135576   -0.646348    0.689006
     11          1           0        1.059592   -0.360049    1.756097
     12          1           0        2.070767   -0.188535    0.303877
     13          6           0        1.246100   -2.166550    0.574999
     14          1           0        1.226157   -2.490829   -0.473194
     15          1           0        2.186444   -2.521765    1.018066
     16          1           0        0.425356   -2.670554    1.100603
     17          6           0        0.023761    1.468585   -0.069047
     18          1           0       -0.753256    1.908809   -0.705809
     19          1           0       -0.106764    1.865185    0.945161
     20          1           0        0.991036    1.821764   -0.448808
 ---------------------------------------------------------------------
                    Distance matrix (angstroms):
                    1          2          3          4          5
     1  C    0.000000
     2  H    1.097360   0.000000
     3  H    1.097310   1.775208   0.000000
     4  H    1.098276   1.774086   1.769722   0.000000
     5  C    1.529244   2.182402   2.184441   2.175013   0.000000
     6  H    2.167906   3.089287   2.486292   2.547232   1.107108
     7  H    2.161217   2.570655   3.083485   2.446287   1.109827
     8  C    2.558348   2.773863   2.899509   3.503191   1.532375
     9  H    2.780121   2.537555   3.253996   3.744864   2.163084
    10  C    3.906208   4.194768   4.307516   4.691049   2.524140
    11  H    4.195754   4.729580   4.475588   4.867298   2.745926
    12  H    4.716117   4.879017   4.988999   5.605918   3.477177
    13  C    4.467394   4.619958   5.157732   5.050671   3.082280
    14  H    4.541337   4.429738   5.309372   5.158575   3.393182
    15  H    5.535642   5.714816   6.182677   6.101305   4.104588
    16  H    4.221156   4.498853   5.021218   4.581513   2.842972
    17  C    3.056670   3.347090   2.812369   4.086666   2.531111
    18  H    2.751139   2.897498   2.258390   3.797506   2.819441
    19  H    3.385283   3.961414   2.985593   4.266689   2.769254
    20  H    4.072889   4.199087   3.839428   5.131801   3.492750
                    6          7          8          9         10
     6  H    0.000000
     7  H    1.779049   0.000000
     8  C    2.167110   2.161043   0.000000
     9  H    3.082608   2.498905   1.118155   0.000000
    10  C    2.763426   2.715087   1.537166   2.168483   0.000000
    11  H    2.520905   3.026579   2.173056   3.087754   1.107441
    12  H    3.741931   3.755466   2.167396   2.534934   1.110180
    13  C    3.465935   2.669697   2.561919   2.754972   1.528471
    14  H    4.055577   2.904696   2.774880   2.505794   2.181977
    15  H    4.334495   3.697203   3.507337   3.729305   2.174808
    16  H    3.114201   2.142675   2.905244   3.214064   2.184315
    17  C    2.781715   3.482042   1.532834   2.164688   2.506735
    18  H    3.198314   3.829164   2.180526   2.477830   3.470163
    19  H    2.565525   3.775280   2.185118   3.091075   2.813685
    20  H    3.773345   4.324013   2.186857   2.538151   2.721597
                   11         12         13         14         15
    11  H    0.000000
    12  H    1.777874   0.000000
    13  C    2.166384   2.160121   0.000000
    14  H    3.088318   2.572502   1.097389   0.000000
    15  H    2.547057   2.442828   1.098514   1.773969   0.000000
    16  H    2.484021   3.082623   1.097224   1.774942   1.769288
    17  C    2.783523   2.659954   3.888844   4.157650   4.667109
    18  H    3.807246   3.659703   4.716614   4.830011   5.589595
    19  H    2.640014   3.061152   4.268741   4.771087   4.950702
    20  H    3.102679   2.402843   4.125516   4.319067   4.737823
                   16         17         18         19         20
    16  H    0.000000
    17  C    4.319934   0.000000
    18  H    5.061899   1.096822   0.000000
    19  H    4.569491   1.096789   1.773572   0.000000
    20  H    4.785560   1.097532   1.765272   1.774880   0.000000
 Stoichiometry    C6H14
 Framework group  C1[X(C6H14)]
 Deg. of freedom    54
 Full point group                 C1      NOp   1
 Largest Abelian subgroup         C1      NOp   1
 Largest concise Abelian subgroup C1      NOp   1
                         Standard orientation:                         
 ---------------------------------------------------------------------
 Center     Atomic      Atomic             Coordinates (Angstroms)
 Number     Number       Type             X           Y           Z
 ---------------------------------------------------------------------
      1          6           0       -2.205553   -0.903505   -0.139571
      2          1           0       -2.231492   -0.958716   -1.235234
      3          1           0       -2.828527   -0.055447    0.171542
      4          1           0       -2.672619   -1.816368    0.253800
      5          6           0       -0.772643   -0.764812    0.376300
      6          1           0       -0.785745   -0.615962    1.473278
      7          1           0       -0.229320   -1.714271    0.189095
      8          6           0        0.001702    0.382171   -0.281722
      9          1           0        0.015919    0.209820   -1.386424
     10          6           0        1.452702    0.416749    0.224524
     11          1           0        1.455998    0.527704    1.326388
     12          1           0        1.954354    1.317927   -0.186233
     13          6           0        2.260985   -0.820228   -0.166361
     14          1           0        2.197891   -1.014069   -1.244650
     15          1           0        3.321162   -0.687925    0.089089
     16          1           0        1.906566   -1.715624    0.359522
     17          6           0       -0.666852    1.734446   -0.009756
     18          1           0       -1.666362    1.775233   -0.459574
     19          1           0       -0.773745    1.917069    1.066426
     20          1           0       -0.086121    2.561703   -0.437508
 ---------------------------------------------------------------------
 Rotational constants (GHZ):      4.7170964      2.2741826      1.6845238
 Leave Link  202 at Mon Sep 14 19:12:38 2015, MaxMem=  402653184 cpu:       0.0
 (Enter /share/apps/g09/l301.exe)
 Standard basis: VSTO-6G (5D, 7F)
 Ernie: Thresh=  0.10000D-02 Tol=  0.10000D-05 Strict=F.
  NNHCO=     0 NNPyr=     0 NCTC=     0               EPep=         0.000000000
    EC=       130.314645286  ECS=         3.233583022   EG=         0.308569760
   EHC=         0.000459971  EAt=       -31.187935768  AtH=         2.796400831
 EPDDG=         0.000000000  ECC=       133.857258039 EAtT=        33.984336599
 There are    38 symmetry adapted basis functions of A   symmetry.
 Integral buffers will be    131072 words long.
 Regular integral format.
 Two-electron integral symmetry is turned off.
    38 basis functions,   228 primitive gaussians,    38 cartesian basis functions
    19 alpha electrons       19 beta electrons
       nuclear repulsion energy       167.8415946381 Hartrees.
 IExCor=    0 DFT=F Ex=HF Corr=None ExCW=0 ScaHFX=  1.000000
 ScaDFX=  1.000000  1.000000  1.000000  1.000000 ScalE2=  1.000000  1.000000
 IRadAn=      0 IRanWt=     -1 IRanGd=            0 ICorTp=0
 Leave Link  301 at Mon Sep 14 19:12:38 2015, MaxMem=  402653184 cpu:       0.1
 (Enter /share/apps/g09/l302.exe)
 Do NDO integrals.
 NPDir=0 NMtPBC=     1 NCelOv=     1 NCel=       1 NClECP=     1 NCelD=      1
         NCelK=      1 NCelE2=     1 NClLst=     1 CellRange=     0.0.
 One-electron integrals computed using PRISM.
 NBasis=    38 RedAO= F  NBF=    38
 NBsUse=    38 1.00D-04 NBFU=    38
 Leave Link  302 at Mon Sep 14 19:12:39 2015, MaxMem=  402653184 cpu:       0.2
 (Enter /share/apps/g09/l303.exe)
 DipDrv:  MaxL=1.
 Leave Link  303 at Mon Sep 14 19:12:39 2015, MaxMem=  402653184 cpu:       0.1
 (Enter /share/apps/g09/l401.exe)
 Initial guess read from the read-write file.
 B after Tr=     0.000000    0.000000    0.000000
         Rot=    1.000000    0.000000    0.000000    0.000000 Ang=   0.00 deg.
 Guess basis will be translated and rotated to current coordinates.
 Initial guess orbital symmetries:
       Occupied  (A) (A) (A) (A) (A) (A) (A) (A) (A) (A) (A) (A)
                 (A) (A) (A) (A) (A) (A) (A)
       Virtual   (A) (A) (A) (A) (A) (A) (A) (A) (A) (A) (A) (A)
                 (A) (A) (A) (A) (A) (A) (A)
 The electronic state of the initial guess is 1-A.
 Leave Link  401 at Mon Sep 14 19:12:40 2015, MaxMem=  402653184 cpu:       0.2
 (Enter /share/apps/g09/l502.exe)
 Closed shell SCF:
 Requested convergence on RMS density matrix=1.00D-08 within 128 cycles.
 Requested convergence on MAX density matrix=1.00D-06.
 Requested convergence on             energy=1.00D-06.
 No special actions if energy rises.
 Using DIIS extrapolation, IDIIS=  1040.
 Overlap will be assumed to be unity.
 Two-electron integral symmetry not used.
 Keep J ints in memory in canonical form, NReq=884654.
 IEnd=       81865 IEndB=       81865 NGot=   402653184 MDV=   402586639
 LenX=   402586639 LenY=   402584754
 Symmetry not used in FoFDir.
 MinBra= 0 MaxBra= 1 Meth=40.
 IRaf=       0 NMat=   1 IRICut=       1 DoRegI=T DoRafI=F ISym2E= 0 JSym2E=0.

 Cycle   1  Pass 1  IDiag  1:
 E=-0.532161272303142E-01
 DIIS: error= 4.02D-03 at cycle   1 NSaved=   1.
 NSaved= 1 IEnMin= 1 EnMin=-0.532161272303142E-01 IErMin= 1 ErrMin= 4.02D-03
 ErrMax= 4.02D-03 EMaxC= 1.00D-01 BMatC= 7.31D-04 BMatP= 7.31D-04
 IDIUse=3 WtCom= 9.60D-01 WtEn= 4.02D-02
 Coeff-Com:  0.100D+01
 Coeff-En:   0.100D+01
 Coeff:      0.100D+01
 GapD=    2.000 DampG=2.000 DampE=1.000 DampFc=2.0000 IDamp=-1.
 RMSDP=1.29D-03 MaxDP=8.78D-03              OVMax= 0.00D+00

 Cycle   2  Pass 1  IDiag  3:
 E=-0.558079913762413E-01 Delta-E=       -0.002591864146 Rises=F Damp=F
 DIIS: error= 1.75D-03 at cycle   2 NSaved=   2.
 NSaved= 2 IEnMin= 2 EnMin=-0.558079913762413E-01 IErMin= 2 ErrMin= 1.75D-03
 ErrMax= 1.75D-03 EMaxC= 1.00D-01 BMatC= 1.17D-04 BMatP= 7.31D-04
 IDIUse=3 WtCom= 9.83D-01 WtEn= 1.75D-02
 Coeff-Com: -0.599D+00 0.160D+01
 Coeff-En:   0.000D+00 0.100D+01
 Coeff:     -0.588D+00 0.159D+01
 Gap=     0.554 Goal=   None    Shift=    0.000
 RMSDP=8.82D-04 MaxDP=6.41D-03 DE=-2.59D-03 OVMax= 0.00D+00

 Cycle   3  Pass 1  IDiag  3:
 E=-0.563678533832785E-01 Delta-E=       -0.000559862007 Rises=F Damp=F
 DIIS: error= 2.01D-04 at cycle   3 NSaved=   3.
 NSaved= 3 IEnMin= 3 EnMin=-0.563678533832785E-01 IErMin= 3 ErrMin= 2.01D-04
 ErrMax= 2.01D-04 EMaxC= 1.00D-01 BMatC= 2.09D-06 BMatP= 1.17D-04
 IDIUse=3 WtCom= 9.98D-01 WtEn= 2.01D-03
 Coeff-Com:  0.219D+00-0.666D+00 0.145D+01
 Coeff-En:   0.000D+00 0.000D+00 0.100D+01
 Coeff:      0.219D+00-0.664D+00 0.145D+01
 Gap=     0.554 Goal=   None    Shift=    0.000
 RMSDP=1.35D-04 MaxDP=9.64D-04 DE=-5.60D-04 OVMax= 0.00D+00

 Cycle   4  Pass 1  IDiag  3:
 E=-0.563786324628381E-01 Delta-E=       -0.000010779080 Rises=F Damp=F
 DIIS: error= 2.13D-05 at cycle   4 NSaved=   4.
 NSaved= 4 IEnMin= 4 EnMin=-0.563786324628381E-01 IErMin= 4 ErrMin= 2.13D-05
 ErrMax= 2.13D-05 EMaxC= 1.00D-01 BMatC= 2.85D-08 BMatP= 2.09D-06
 IDIUse=1 WtCom= 1.00D+00 WtEn= 0.00D+00
 Coeff-Com: -0.909D-01 0.278D+00-0.645D+00 0.146D+01
 Coeff:     -0.909D-01 0.278D+00-0.645D+00 0.146D+01
 Gap=     0.554 Goal=   None    Shift=    0.000
 RMSDP=1.46D-05 MaxDP=9.23D-05 DE=-1.08D-05 OVMax= 0.00D+00

 Cycle   5  Pass 1  IDiag  3:
 E=-0.563787873301465E-01 Delta-E=       -0.000000154867 Rises=F Damp=F
 DIIS: error= 5.09D-06 at cycle   5 NSaved=   5.
 NSaved= 5 IEnMin= 5 EnMin=-0.563787873301465E-01 IErMin= 5 ErrMin= 5.09D-06
 ErrMax= 5.09D-06 EMaxC= 1.00D-01 BMatC= 1.93D-09 BMatP= 2.85D-08
 IDIUse=1 WtCom= 1.00D+00 WtEn= 0.00D+00
 Coeff-Com:  0.434D-01-0.133D+00 0.313D+00-0.857D+00 0.163D+01
 Coeff:      0.434D-01-0.133D+00 0.313D+00-0.857D+00 0.163D+01
 Gap=     0.554 Goal=   None    Shift=    0.000
 RMSDP=4.54D-06 MaxDP=3.29D-05 DE=-1.55D-07 OVMax= 0.00D+00

 Cycle   6  Pass 1  IDiag  3:
 E=-0.563787995081100E-01 Delta-E=       -0.000000012178 Rises=F Damp=F
 DIIS: error= 1.47D-06 at cycle   6 NSaved=   6.
 NSaved= 6 IEnMin= 6 EnMin=-0.563787995081100E-01 IErMin= 6 ErrMin= 1.47D-06
 ErrMax= 1.47D-06 EMaxC= 1.00D-01 BMatC= 1.22D-10 BMatP= 1.93D-09
 IDIUse=1 WtCom= 1.00D+00 WtEn= 0.00D+00
 Coeff-Com: -0.231D-01 0.707D-01-0.167D+00 0.474D+00-0.105D+01 0.169D+01
 Coeff:     -0.231D-01 0.707D-01-0.167D+00 0.474D+00-0.105D+01 0.169D+01
 Gap=     0.554 Goal=   None    Shift=    0.000
 RMSDP=1.17D-06 MaxDP=9.82D-06 DE=-1.22D-08 OVMax= 0.00D+00

 Cycle   7  Pass 1  IDiag  3:
 E=-0.563788003279058E-01 Delta-E=       -0.000000000820 Rises=F Damp=F
 DIIS: error= 3.74D-07 at cycle   7 NSaved=   7.
 NSaved= 7 IEnMin= 7 EnMin=-0.563788003279058E-01 IErMin= 7 ErrMin= 3.74D-07
 ErrMax= 3.74D-07 EMaxC= 1.00D-01 BMatC= 9.36D-12 BMatP= 1.22D-10
 IDIUse=1 WtCom= 1.00D+00 WtEn= 0.00D+00
 Coeff-Com:  0.773D-02-0.237D-01 0.558D-01-0.162D+00 0.379D+00-0.826D+00
 Coeff-Com:  0.157D+01
 Coeff:      0.773D-02-0.237D-01 0.558D-01-0.162D+00 0.379D+00-0.826D+00
 Coeff:      0.157D+01
 Gap=     0.554 Goal=   None    Shift=    0.000
 RMSDP=3.42D-07 MaxDP=3.17D-06 DE=-8.20D-10 OVMax= 0.00D+00

 Cycle   8  Pass 1  IDiag  3:
 E=-0.563788003938441E-01 Delta-E=       -0.000000000066 Rises=F Damp=F
 DIIS: error= 1.24D-07 at cycle   8 NSaved=   8.
 NSaved= 8 IEnMin= 8 EnMin=-0.563788003938441E-01 IErMin= 8 ErrMin= 1.24D-07
 ErrMax= 1.24D-07 EMaxC= 1.00D-01 BMatC= 6.73D-13 BMatP= 9.36D-12
 IDIUse=1 WtCom= 1.00D+00 WtEn= 0.00D+00
 Coeff-Com: -0.130D-02 0.396D-02-0.933D-02 0.280D-01-0.690D-01 0.186D+00
 Coeff-Com: -0.594D+00 0.146D+01
 Coeff:     -0.130D-02 0.396D-02-0.933D-02 0.280D-01-0.690D-01 0.186D+00
 Coeff:     -0.594D+00 0.146D+01
 Gap=     0.554 Goal=   None    Shift=    0.000
 RMSDP=9.11D-08 MaxDP=8.47D-07 DE=-6.59D-11 OVMax= 0.00D+00

 Cycle   9  Pass 1  IDiag  3:
 E=-0.563788003985053E-01 Delta-E=       -0.000000000005 Rises=F Damp=F
 DIIS: error= 5.06D-08 at cycle   9 NSaved=   9.
 NSaved= 9 IEnMin= 9 EnMin=-0.563788003985053E-01 IErMin= 9 ErrMin= 5.06D-08
 ErrMax= 5.06D-08 EMaxC= 1.00D-01 BMatC= 8.54D-14 BMatP= 6.73D-13
 IDIUse=1 WtCom= 1.00D+00 WtEn= 0.00D+00
 Coeff-Com:  0.175D-03-0.530D-03 0.124D-02-0.439D-02 0.133D-01-0.568D-01
 Coeff-Com:  0.288D+00-0.104D+01 0.180D+01
 Coeff:      0.175D-03-0.530D-03 0.124D-02-0.439D-02 0.133D-01-0.568D-01
 Coeff:      0.288D+00-0.104D+01 0.180D+01
 Gap=     0.554 Goal=   None    Shift=    0.000
 RMSDP=3.60D-08 MaxDP=3.88D-07 DE=-4.66D-12 OVMax= 0.00D+00

 Cycle  10  Pass 1  IDiag  3:
 E=-0.563788003991590E-01 Delta-E=       -0.000000000001 Rises=F Damp=F
 DIIS: error= 1.56D-08 at cycle  10 NSaved=  10.
 NSaved=10 IEnMin=10 EnMin=-0.563788003991590E-01 IErMin=10 ErrMin= 1.56D-08
 ErrMax= 1.56D-08 EMaxC= 1.00D-01 BMatC= 9.98D-15 BMatP= 8.54D-14
 IDIUse=1 WtCom= 1.00D+00 WtEn= 0.00D+00
 Coeff-Com: -0.251D-04 0.719D-04-0.164D-03 0.991D-03-0.419D-02 0.256D-01
 Coeff-Com: -0.157D+00 0.627D+00-0.137D+01 0.188D+01
 Coeff:     -0.251D-04 0.719D-04-0.164D-03 0.991D-03-0.419D-02 0.256D-01
 Coeff:     -0.157D+00 0.627D+00-0.137D+01 0.188D+01
 Gap=     0.554 Goal=   None    Shift=    0.000
 RMSDP=1.43D-08 MaxDP=1.67D-07 DE=-6.54D-13 OVMax= 0.00D+00

 Cycle  11  Pass 1  IDiag  3:
 E=-0.563788003995001E-01 Delta-E=        0.000000000000 Rises=F Damp=F
 DIIS: error= 3.16D-09 at cycle  11 NSaved=  11.
 NSaved=11 IEnMin=11 EnMin=-0.563788003995001E-01 IErMin=11 ErrMin= 3.16D-09
 ErrMax= 3.16D-09 EMaxC= 1.00D-01 BMatC= 6.11D-16 BMatP= 9.98D-15
 IDIUse=1 WtCom= 1.00D+00 WtEn= 0.00D+00
 Coeff-Com:  0.369D-05-0.915D-05 0.194D-04-0.288D-03 0.150D-02-0.105D-01
 Coeff-Com:  0.677D-01-0.280D+00 0.649D+00-0.110D+01 0.167D+01
 Coeff:      0.369D-05-0.915D-05 0.194D-04-0.288D-03 0.150D-02-0.105D-01
 Coeff:      0.677D-01-0.280D+00 0.649D+00-0.110D+01 0.167D+01
 Gap=     0.554 Goal=   None    Shift=    0.000
 RMSDP=3.35D-09 MaxDP=3.71D-08 DE=-3.41D-13 OVMax= 0.00D+00

 Cycle  12  Pass 2  IDiag  1:
 RMSDP=3.35D-09 MaxDP=3.71D-08 DE=-3.41D-13 OVMax= 0.00D+00

 SCF Done:  E(RPM6) = -0.563788003995E-01 A.U. after   12 cycles
             Convg  =    0.3352D-08             -V/T =  0.9990
 KE=-5.625510550792D+01 PE=-2.565551074717D+02 EE= 1.449122395411D+02
 Leave Link  502 at Mon Sep 14 19:12:44 2015, MaxMem=  402653184 cpu:       3.7
 (Enter /share/apps/g09/l701.exe)
 Compute integral first derivatives.
 ... and contract with generalized density number  0.
 Leave Link  701 at Mon Sep 14 19:12:46 2015, MaxMem=  402653184 cpu:       0.2
 (Enter /share/apps/g09/l702.exe)
 L702 exits ... SP integral derivatives will be done elsewhere.
 Leave Link  702 at Mon Sep 14 19:12:46 2015, MaxMem=  402653184 cpu:       0.0
 (Enter /share/apps/g09/l703.exe)
 Compute integral first derivatives, UseDBF=F ICtDFT=           0.
 Integral derivatives from FoFDir, PRISM(SPDF).
 Calling FoFJK, ICntrl=      2127 FMM=F ISym2X=0 I1Cent= 0 IOpClX= 0 NMat=1 NMatS=1 NMatT=0.
 FoFCou: FMM=F IPFlag=           0 FMFlag=      100000 FMFlg1=         800
         NFxFlg=           0 DoJE=F BraDBF=F KetDBF=F FulRan=T
         Omega=  0.000000  0.000000  1.000000  0.000000  0.000000 ICntrl=    2127 IOpCl=  0
         NMat0=    1 NMatS0=    1 NMatT0=    0 NMatD0=    1 NMtDS0=    0 NMtDT0=    0
         I1Cent=           0 NGrid=           0.
 Symmetry not used in FoFCou.
 Leave Link  703 at Mon Sep 14 19:12:48 2015, MaxMem=  402653184 cpu:       0.1
 (Enter /share/apps/g09/l716.exe)
 Dipole        =-1.14932569D-03 2.44912557D-03 6.37515886D-03
 ***** Axes restored to original set *****
 -------------------------------------------------------------------
 Center     Atomic                   Forces (Hartrees/Bohr)
 Number     Number              X              Y              Z
 -------------------------------------------------------------------
      1        6           0.000005036   -0.001129294    0.000734281
      2        1          -0.000665196    0.000607376    0.000973366
      3        1           0.000006092   -0.000986300   -0.000696384
      4        1           0.000880654    0.000830104   -0.000941879
      5        6          -0.006225891   -0.001333696    0.001548312
      6        1          -0.000982670   -0.001149050    0.000441430
      7        1          -0.000740828    0.000391601    0.001366991
      8        6           0.001154765    0.001730006   -0.005219024
      9        1           0.000158851    0.000311598   -0.000647707
     10        6           0.004369708   -0.002386989    0.001859391
     11        1           0.001451967    0.000273473   -0.000031666
     12        1          -0.000425081   -0.000070613    0.001462269
     13        6           0.001141745    0.000557128    0.000178459
     14        1           0.000039941   -0.000409822    0.001179676
     15        1          -0.001315349   -0.000055708   -0.000830380
     16        1           0.000517128   -0.000052901   -0.000960422
     17        6           0.001231913    0.002142157   -0.000899124
     18        1           0.000408486    0.000264725    0.000980293
     19        1           0.000176162    0.000480493   -0.001294666
     20        1          -0.001187435   -0.000014288    0.000796785
 -------------------------------------------------------------------
 Cartesian Forces:  Max     0.006225891 RMS     0.001522905
 Leave Link  716 at Mon Sep 14 19:12:48 2015, MaxMem=  402653184 cpu:       0.0
 (Enter /share/apps/g09/l103.exe)

 GradGradGradGradGradGradGradGradGradGradGradGradGradGradGradGradGradGrad
 Berny optimization.
 Using GEDIIS/GDIIS optimizer.
 Internal  Forces:  Max     0.008890269 RMS     0.001282047
 Search for a local minimum.
 Step number   2 out of a maximum of  110
 All quantities printed in internal units (Hartrees-Bohrs-Radians)
 RMS Force = .12820D-02 SwitMx=.10000D-02 MixMth= 1
 Mixed Optimization -- RFO/linear search
 Update second derivatives using D2CorX and points    1    2
 DE= -2.93D-03 DEPred=-3.03D-03 R= 9.67D-01
 SS=  1.41D+00  RLast= 2.04D-01 DXNew= 5.0454D-01 6.1276D-01
 Trust test= 9.67D-01 RLast= 2.04D-01 DXMaxT set to 5.05D-01
 Use linear search instead of GDIIS.
     Eigenvalues ---    0.00228   0.00230   0.00242   0.00369   0.00369
     Eigenvalues ---    0.03418   0.03443   0.03676   0.04600   0.04659
     Eigenvalues ---    0.04778   0.04843   0.05362   0.05411   0.05438
     Eigenvalues ---    0.05443   0.05542   0.05547   0.08414   0.08731
     Eigenvalues ---    0.12250   0.12275   0.14748   0.16000   0.16000
     Eigenvalues ---    0.16000   0.16000   0.16000   0.16000   0.16000
     Eigenvalues ---    0.16016   0.16371   0.16763   0.20899   0.21928
     Eigenvalues ---    0.27042   0.27802   0.28524   0.29421   0.29428
     Eigenvalues ---    0.31975   0.32015   0.32066   0.32081   0.32164
     Eigenvalues ---    0.32183   0.32203   0.32210   0.32219   0.32261
     Eigenvalues ---    0.32269   0.32301   0.32312   0.376811000.00000
     Eigenvalues --- 1000.000001000.000001000.000001000.000001000.00000
     Eigenvalues --- 1000.000001000.000001000.000001000.000001000.00000
     Eigenvalues --- 1000.000001000.000001000.000001000.000001000.00000
     Eigenvalues --- 1000.000001000.000001000.000001000.000001000.00000
     Eigenvalues --- 1000.000001000.000001000.000001000.000001000.00000
     Eigenvalues --- 1000.000001000.000001000.000001000.000001000.00000
     Eigenvalues --- 1000.000001000.000001000.000001000.000001000.00000
     Eigenvalues --- 1000.000001000.000001000.000001000.000001000.00000
     Eigenvalues --- 1000.000001000.000001000.000001000.000001000.00000
 RFO step:  Lambda=-9.28800415D-04 EMin= 2.27702639D-03
 Quartic linear search produced a step of -0.00054.
 Iteration  1 RMS(Cart)=  0.05391700 RMS(Int)=  0.00131232
 Iteration  2 RMS(Cart)=  0.00174480 RMS(Int)=  0.00000898
 Iteration  3 RMS(Cart)=  0.00000122 RMS(Int)=  0.00000895
 Iteration  4 RMS(Cart)=  0.00000000 RMS(Int)=  0.00000895
 Variable       Old X    -DE/DX   Delta X   Delta X   Delta X     New X
                                 (Linear)    (Quad)   (Total)
    R1        2.07371  -0.00113   0.00002  -0.00793  -0.00792   2.06579
    R2        2.07362  -0.00104   0.00002  -0.00745  -0.00744   2.06618
    R3        2.07544  -0.00142   0.00002  -0.00859  -0.00858   2.06686
    R4        2.88985  -0.00043   0.00000  -0.00167  -0.00167   2.88819
    R5        2.09213   0.00015   0.00001  -0.00168  -0.00167   2.09046
    R6        2.09727  -0.00039   0.00000  -0.00211  -0.00211   2.09516
    R7        2.89577   0.00889   0.00002   0.02735   0.02737   2.92314
    R8        2.11301   0.00053   0.00000   0.00225   0.00225   2.11526
    R9        2.90482   0.00674   0.00001   0.02105   0.02106   2.92588
   R10        2.89664   0.00290   0.00001   0.00822   0.00823   2.90486
   R11        2.09276  -0.00006   0.00001  -0.00227  -0.00226   2.09050
   R12        2.09794  -0.00089   0.00001  -0.00422  -0.00421   2.09372
   R13        2.88839   0.00002   0.00000  -0.00035  -0.00034   2.88805
   R14        2.07377  -0.00101   0.00002  -0.00753  -0.00751   2.06625
   R15        2.07589  -0.00144   0.00002  -0.00863  -0.00861   2.06728
   R16        2.07345  -0.00082   0.00002  -0.00676  -0.00675   2.06671
[...]
 ! D10   D(1,5,8,9)            -46.3894         -DE/DX =    0.0                 !
 ! D11   D(1,5,8,10)          -165.2537         -DE/DX =    0.0                 !
 ! D12   D(1,5,8,17)            72.5236         -DE/DX =    0.0                 !
 ! D13   D(6,5,8,9)           -169.1979         -DE/DX =    0.0                 !
 ! D14   D(6,5,8,10)            71.9378         -DE/DX =    0.0                 !
 ! D15   D(6,5,8,17)           -50.2849         -DE/DX =    0.0                 !
 ! D16   D(7,5,8,9)             75.2885         -DE/DX =    0.0                 !
 ! D17   D(7,5,8,10)           -43.5758         -DE/DX =    0.0                 !
 ! D18   D(7,5,8,17)          -165.7985         -DE/DX =    0.0                 !
 ! D19   D(5,8,10,11)          -50.6662         -DE/DX =    0.0                 !
 ! D20   D(5,8,10,12)         -166.0831         -DE/DX =    0.0                 !
 ! D21   D(5,8,10,13)           72.2636         -DE/DX =    0.0                 !
 ! D22   D(9,8,10,11)         -169.5917         -DE/DX =    0.0                 !
 ! D23   D(9,8,10,12)           74.9914         -DE/DX =    0.0                 !
 ! D24   D(9,8,10,13)          -46.6619         -DE/DX =    0.0                 !
 ! D25   D(17,8,10,11)          72.2816         -DE/DX =    0.0                 !
 ! D26   D(17,8,10,12)         -43.1353         -DE/DX =    0.0                 !
 ! D27   D(17,8,10,13)        -164.7886         -DE/DX =    0.0                 !
 ! D28   D(5,8,17,18)          -56.4213         -DE/DX =    0.0                 !
 ! D29   D(5,8,17,19)           63.3525         -DE/DX =    0.0                 !
 ! D30   D(5,8,17,20)         -176.1676         -DE/DX =    0.0                 !
 ! D31   D(9,8,17,18)           62.6093         -DE/DX =    0.0                 !
 ! D32   D(9,8,17,19)         -177.6169         -DE/DX =    0.0                 !
 ! D33   D(9,8,17,20)          -57.137          -DE/DX =    0.0                 !
 ! D34   D(10,8,17,18)        -179.2055         -DE/DX =    0.0                 !
 ! D35   D(10,8,17,19)         -59.4317         -DE/DX =    0.0                 !
 ! D36   D(10,8,17,20)          61.0482         -DE/DX =    0.0                 !
 ! D37   D(8,10,13,14)          61.0497         -DE/DX =    0.0                 !
 ! D38   D(8,10,13,15)        -178.9522         -DE/DX =    0.0                 !
 ! D39   D(8,10,13,16)         -58.967          -DE/DX =    0.0                 !
 ! D40   D(11,10,13,14)       -176.0663         -DE/DX =    0.0                 !
 ! D41   D(11,10,13,15)        -56.0682         -DE/DX =    0.0                 !
 ! D42   D(11,10,13,16)         63.917          -DE/DX =    0.0                 !
 ! D43   D(12,10,13,14)        -60.6731         -DE/DX =    0.0                 !
 ! D44   D(12,10,13,15)         59.325          -DE/DX =    0.0                 !
 ! D45   D(12,10,13,16)        179.3102         -DE/DX =    0.0                 !
 --------------------------------------------------------------------------------
 GradGradGradGradGradGradGradGradGradGradGradGradGradGradGradGradGradGrad

 Largest change from initial coordinates is atom    3       0.207 Angstoms.
 Leave Link  103 at Mon Sep 14 19:14:54 2015, MaxMem=  402653184 cpu:       0.0
 (Enter /share/apps/g09/l202.exe)
                          Input orientation:                          
 ---------------------------------------------------------------------
 Center     Atomic      Atomic             Coordinates (Angstroms)
 Number     Number       Type             X           Y           Z
 ---------------------------------------------------------------------
      1          6           0       -2.610965   -0.171420   -0.292117
      2          1           0       -2.530321   -0.689848   -1.254115
      3          1           0       -2.703648    0.899904   -0.504515
      4          1           0       -3.545696   -0.494677    0.178939
      5          6           0       -1.411794   -0.464368    0.606447
      6          1           0       -1.542133    0.038459    1.583446
      7          1           0       -1.378490   -1.549623    0.830220
      8          6           0       -0.073069   -0.033008   -0.030217
      9          1           0       -0.052409   -0.390331   -1.088976
     10          6           0        1.119614   -0.665738    0.721543
     11          1           0        1.019456   -0.482073    1.808153
     12          1           0        2.055922   -0.156792    0.419360
     13          6           0        1.252912   -2.163427    0.456415
     14          1           0        1.423273   -2.371019   -0.606058
     15          1           0        2.093149   -2.590782    1.014431
     16          1           0        0.348698   -2.708082    0.754056
     17          6           0        0.067485    1.495318   -0.034371
     18          1           0       -0.775705    1.967412   -0.550727
     19          1           0        0.096112    1.902747    0.981540
     20          1           0        0.982708    1.812149   -0.544554
 ---------------------------------------------------------------------
                    Distance matrix (angstroms):
                    1          2          3          4          5
     1  C    0.000000
     2  H    1.095770   0.000000
     3  H    1.096102   1.766142   0.000000
     4  H    1.095496   1.767123   1.766639   0.000000
     5  C    1.526842   2.182576   2.182742   2.176516   0.000000
     6  H    2.168914   3.091715   2.539840   2.504225   1.106504
     7  H    2.162886   2.531873   3.088324   2.496770   1.108585
     8  C    2.555126   2.822668   2.831119   3.509420   1.543890
     9  H    2.688701   2.501405   3.005889   3.717735   2.174365
    10  C    3.897317   4.150402   4.309500   4.699873   2.542011
    11  H    4.205663   4.692715   4.595629   4.847176   2.712082
    12  H    4.720831   4.911038   4.962224   5.616947   3.486353
    13  C    4.411115   4.405701   5.095268   5.088061   3.163853
    14  H    4.605634   4.344792   5.266946   5.369128   3.625339
    15  H    5.448768   5.489657   6.123835   6.073572   4.119795
    16  H    4.035931   4.049046   4.890643   4.516219   2.855761
    17  C    3.165208   3.607121   2.873105   4.130455   2.537574
    18  H    2.830135   3.261053   2.204240   3.777188   2.767167
    19  H    3.640417   4.314841   3.324562   4.433349   2.831556
    20  H    4.112512   4.370908   3.797764   5.133355   3.498710
                    6          7          8          9         10
     6  H    0.000000
     7  H    1.765257   0.000000
     8  C    2.183385   2.178210   0.000000
     9  H    3.089495   2.604948   1.117621   0.000000
    10  C    2.885077   2.652091   1.545310   2.174273   0.000000
    11  H    2.623583   2.801100   2.185149   3.090415   1.106565
    12  H    3.786717   3.728802   2.179459   2.602821   1.107706
    13  C    3.732396   2.727776   2.556115   2.689975   1.526805
    14  H    4.403764   3.253837   2.834947   2.516738   2.182365
    15  H    4.522384   3.629080   3.510840   3.724208   2.177005
    16  H    3.436076   2.081108   2.819396   2.988247   2.183241
    17  C    2.707516   3.479946   1.534781   2.163848   2.519631
    18  H    2.977074   3.826212   2.183187   2.524247   3.484879
    19  H    2.553764   3.757154   2.190758   3.093105   2.777097
    20  H    3.748224   4.332062   2.187192   2.493748   2.785976
                   11         12         13         14         15
    11  H    0.000000
    12  H    1.763183   0.000000
    13  C    2.169941   2.161661   0.000000
    14  H    3.091859   2.520818   1.095886   0.000000
    15  H    2.495889   2.505953   1.095451   1.767205   0.000000
    16  H    2.552675   3.087995   1.096742   1.765851   1.767672
    17  C    2.865523   2.624733   3.877180   4.136852   4.679691
    18  H    3.845373   3.670343   4.710993   4.864211   5.608669
    19  H    2.687605   2.898035   4.260013   4.748357   4.917422
    20  H    3.286341   2.440829   4.108546   4.206753   4.800970
                   16         17         18         19         20
    16  H    0.000000
    17  C    4.285939   0.000000
    18  H    4.982668   1.095657   0.000000
    19  H    4.623342   1.094940   1.764111   0.000000
    20  H    4.745613   1.094669   1.765264   1.767264   0.000000
 Stoichiometry    C6H14
 Framework group  C1[X(C6H14)]
 Deg. of freedom    54
 Full point group                 C1      NOp   1
 Largest Abelian subgroup         C1      NOp   1
 Largest concise Abelian subgroup C1      NOp   1
                         Standard orientation:                         
 ---------------------------------------------------------------------
 Center     Atomic      Atomic             Coordinates (Angstroms)
 Number     Number       Type             X           Y           Z
 ---------------------------------------------------------------------
      1          6           0       -2.183800   -0.940457   -0.200870
      2          1           0       -2.040203   -1.300711   -1.225716
      3          1           0       -2.799204   -0.035067   -0.255500
      4          1           0       -2.763044   -1.699053    0.336829
      5          6           0       -0.850232   -0.672361    0.492650
      6          1           0       -1.027109   -0.350478    1.536421
      7          1           0       -0.277923   -1.619102    0.564081
      8          6           0        0.000664    0.384269   -0.244308
      9          1           0        0.000463    0.141753   -1.335300
     10          6           0        1.460995    0.360190    0.260506
     11          1           0        1.477750    0.410936    1.365780
     12          1           0        1.984679    1.272458   -0.086672
     13          6           0        2.226753   -0.871700   -0.216144
     14          1           0        2.286266   -0.911062   -1.309705
     15          1           0        3.251937   -0.874177    0.169868
     16          1           0        1.746740   -1.799560    0.117780
     17          6           0       -0.588452    1.789806   -0.062767
     18          1           0       -1.629746    1.827653   -0.401500
     19          1           0       -0.576210    2.102287    0.986566
     20          1           0       -0.029966    2.535640   -0.637333
 ---------------------------------------------------------------------
 Rotational constants (GHZ):      4.5030902      2.2844466      1.6869339
 Leave Link  202 at Mon Sep 14 19:14:56 2015, MaxMem=  402653184 cpu:       0.0
 (Enter /share/apps/g09/l601.exe)
 Copying SCF densities to generalized density rwf, IOpCl= 0 IROHF=0.

 **********************************************************************

            Population analysis using the SCF density.

 **********************************************************************

 Orbital symmetries:
       Occupied  (A) (A) (A) (A) (A) (A) (A) (A) (A) (A) (A) (A)
                 (A) (A) (A) (A) (A) (A) (A)
       Virtual   (A) (A) (A) (A) (A) (A) (A) (A) (A) (A) (A) (A)
                 (A) (A) (A) (A) (A) (A) (A)
 The electronic state is 1-A.
 Alpha  occ. eigenvalues --   -1.06457  -0.97259  -0.92666  -0.81882  -0.77286
 Alpha  occ. eigenvalues --   -0.70619  -0.57573  -0.56068  -0.54988  -0.52007
 Alpha  occ. eigenvalues --   -0.51220  -0.48232  -0.46714  -0.46610  -0.44371
 Alpha  occ. eigenvalues --   -0.43812  -0.40857  -0.40693  -0.40161
 Alpha virt. eigenvalues --    0.15323   0.15763   0.16978   0.18051   0.18168
 Alpha virt. eigenvalues --    0.21099   0.21325   0.21985   0.22070   0.22299
 Alpha virt. eigenvalues --    0.22532   0.22983   0.23369   0.23751   0.24733
 Alpha virt. eigenvalues --    0.24836   0.25513   0.25871   0.26273
          Condensed to atoms (all electrons):
              1          2          3          4          5          6
     1  C    4.457154   0.000000   0.000000   0.000000   0.000000   0.000000
     2  H    0.000000   0.855457   0.000000   0.000000   0.000000   0.000000
     3  H    0.000000   0.000000   0.854483   0.000000   0.000000   0.000000
     4  H    0.000000   0.000000   0.000000   0.858432   0.000000   0.000000
     5  C    0.000000   0.000000   0.000000   0.000000   4.256027   0.000000
     6  H    0.000000   0.000000   0.000000   0.000000   0.000000   0.870327
     7  H    0.000000   0.000000   0.000000   0.000000   0.000000   0.000000
     8  C    0.000000   0.000000   0.000000   0.000000   0.000000   0.000000
     9  H    0.000000   0.000000   0.000000   0.000000   0.000000   0.000000
    10  C    0.000000   0.000000   0.000000   0.000000   0.000000   0.000000
    11  H    0.000000   0.000000   0.000000   0.000000   0.000000   0.000000
    12  H    0.000000   0.000000   0.000000   0.000000   0.000000   0.000000
    13  C    0.000000   0.000000   0.000000   0.000000   0.000000   0.000000
    14  H    0.000000   0.000000   0.000000   0.000000   0.000000   0.000000
    15  H    0.000000   0.000000   0.000000   0.000000   0.000000   0.000000
    16  H    0.000000   0.000000   0.000000   0.000000   0.000000   0.000000
    17  C    0.000000   0.000000   0.000000   0.000000   0.000000   0.000000
    18  H    0.000000   0.000000   0.000000   0.000000   0.000000   0.000000
    19  H    0.000000   0.000000   0.000000   0.000000   0.000000   0.000000
    20  H    0.000000   0.000000   0.000000   0.000000   0.000000   0.000000
              7          8          9         10         11         12
     1  C    0.000000   0.000000   0.000000   0.000000   0.000000   0.000000
     2  H    0.000000   0.000000   0.000000   0.000000   0.000000   0.000000
     3  H    0.000000   0.000000   0.000000   0.000000   0.000000   0.000000
     4  H    0.000000   0.000000   0.000000   0.000000   0.000000   0.000000
     5  C    0.000000   0.000000   0.000000   0.000000   0.000000   0.000000
     6  H    0.000000   0.000000   0.000000   0.000000   0.000000   0.000000
     7  H    0.869727   0.000000   0.000000   0.000000   0.000000   0.000000
     8  C    0.000000   4.018359   0.000000   0.000000   0.000000   0.000000
     9  H    0.000000   0.000000   0.882863   0.000000   0.000000   0.000000
    10  C    0.000000   0.000000   0.000000   4.263458   0.000000   0.000000
    11  H    0.000000   0.000000   0.000000   0.000000   0.869458   0.000000
    12  H    0.000000   0.000000   0.000000   0.000000   0.000000   0.869521
    13  C    0.000000   0.000000   0.000000   0.000000   0.000000   0.000000
    14  H    0.000000   0.000000   0.000000   0.000000   0.000000   0.000000
    15  H    0.000000   0.000000   0.000000   0.000000   0.000000   0.000000
    16  H    0.000000   0.000000   0.000000   0.000000   0.000000   0.000000
    17  C    0.000000   0.000000   0.000000   0.000000   0.000000   0.000000
    18  H    0.000000   0.000000   0.000000   0.000000   0.000000   0.000000
    19  H    0.000000   0.000000   0.000000   0.000000   0.000000   0.000000
    20  H    0.000000   0.000000   0.000000   0.000000   0.000000   0.000000
             13         14         15         16         17         18
     1  C    0.000000   0.000000   0.000000   0.000000   0.000000   0.000000
     2  H    0.000000   0.000000   0.000000   0.000000   0.000000   0.000000
     3  H    0.000000   0.000000   0.000000   0.000000   0.000000   0.000000
     4  H    0.000000   0.000000   0.000000   0.000000   0.000000   0.000000
     5  C    0.000000   0.000000   0.000000   0.000000   0.000000   0.000000
     6  H    0.000000   0.000000   0.000000   0.000000   0.000000   0.000000
     7  H    0.000000   0.000000   0.000000   0.000000   0.000000   0.000000
     8  C    0.000000   0.000000   0.000000   0.000000   0.000000   0.000000
     9  H    0.000000   0.000000   0.000000   0.000000   0.000000   0.000000
    10  C    0.000000   0.000000   0.000000   0.000000   0.000000   0.000000
    11  H    0.000000   0.000000   0.000000   0.000000   0.000000   0.000000
    12  H    0.000000   0.000000   0.000000   0.000000   0.000000   0.000000
    13  C    4.457610   0.000000   0.000000   0.000000   0.000000   0.000000
    14  H    0.000000   0.854592   0.000000   0.000000   0.000000   0.000000
    15  H    0.000000   0.000000   0.857594   0.000000   0.000000   0.000000
    16  H    0.000000   0.000000   0.000000   0.853896   0.000000   0.000000
    17  C    0.000000   0.000000   0.000000   0.000000   4.496435   0.000000
    18  H    0.000000   0.000000   0.000000   0.000000   0.000000   0.849591
    19  H    0.000000   0.000000   0.000000   0.000000   0.000000   0.000000
    20  H    0.000000   0.000000   0.000000   0.000000   0.000000   0.000000
             19         20
     1  C    0.000000   0.000000
     2  H    0.000000   0.000000
     3  H    0.000000   0.000000
     4  H    0.000000   0.000000
     5  C    0.000000   0.000000
     6  H    0.000000   0.000000
     7  H    0.000000   0.000000
     8  C    0.000000   0.000000
     9  H    0.000000   0.000000
    10  C    0.000000   0.000000
    11  H    0.000000   0.000000
    12  H    0.000000   0.000000
    13  C    0.000000   0.000000
    14  H    0.000000   0.000000
    15  H    0.000000   0.000000
    16  H    0.000000   0.000000
    17  C    0.000000   0.000000
    18  H    0.000000   0.000000
    19  H    0.850880   0.000000
    20  H    0.000000   0.854135
 Mulliken atomic charges:
              1
     1  C   -0.457154
     2  H    0.144543
     3  H    0.145517
     4  H    0.141568
     5  C   -0.256027
     6  H    0.129673
     7  H    0.130273
     8  C   -0.018359
     9  H    0.117137
    10  C   -0.263458
    11  H    0.130542
    12  H    0.130479
    13  C   -0.457610
    14  H    0.145408
    15  H    0.142406
    16  H    0.146104
    17  C   -0.496435
    18  H    0.150409
    19  H    0.149120
    20  H    0.145865
 Sum of Mulliken atomic charges =   0.00000
 Mulliken charges with hydrogens summed into heavy atoms:
              1
     1  C   -0.025527
     5  C    0.003920
     8  C    0.098777
    10  C   -0.002438
    13  C   -0.023692
    17  C   -0.051041
 Sum of Mulliken charges with hydrogens summed into heavy atoms =   0.00000
 Charge=              0.0000 electrons
 Dipole moment (field-independent basis, Debye):
    X=             -0.0208    Y=              0.0020    Z=              0.0007  Tot=              0.0209
 N-N= 1.674985877945D+02 E-N=-2.558719365396D+02  KE=-5.624988930646D+01
 Leave Link  601 at Mon Sep 14 19:14:57 2015, MaxMem=  402653184 cpu:       0.0
 (Enter /share/apps/g09/l9999.exe)
 1\1\GINC-COMPUTE-0-7\FOpt\RPM6\ZDO\C6H14\HETANJIN\14-Sep-2015\0\\#p PM
 6 opt\\using PM6 to do opt and freq calc.\\0,1\C,-2.6109648195,-0.1714
 200202,-0.2921172314\H,-2.5303210963,-0.6898484876,-1.2541154054\H,-2.
 7036482889,0.8999041713,-0.5045150431\H,-3.5456964753,-0.4946773191,0.
 1789388867\C,-1.4117935014,-0.4643684305,0.606446613\H,-1.5421331509,0
 .0384586135,1.5834464101\H,-1.3784898166,-1.5496225529,0.830219501\C,-
 0.0730686116,-0.0330075414,-0.0302172765\H,-0.0524093427,-0.3903311121
 ,-1.0889755142\C,1.1196143592,-0.6657375146,0.7215429062\H,1.019456310
 4,-0.4820734496,1.8081527921\H,2.0559220441,-0.1567924979,0.4193597049
 \C,1.252912364,-2.1634268842,0.4564151753\H,1.4232726455,-2.3710187755
 ,-0.6060576426\H,2.0931492209,-2.5907817583,1.0144313045\H,0.348698383
 8,-2.7080821948,0.7540557516\C,0.0674849398,1.4953179377,-0.0343708301
 \H,-0.7757045198,1.9674120365,-0.5507265694\H,0.0961116832,1.902747011
 3,0.9815402324\H,0.982707672,1.8121487684,-0.5445537649\\Version=EM64L
 -G09RevA.01\State=1-A\HF=-0.0570766\RMSD=2.949e-09\RMSF=7.325e-06\Dipo
 le=-0.0067824,0.0045276,-0.0011915\PG=C01 [X(C6H14)]\\@


 I CLAIM NOT TO HAVE CONTROLLED EVENTS,
 BUT CONFESS PLAINLY THAT EVENTS HAVE CONTROLLED ME.

                                         A. LINCOLN
 Job cpu time:  0 days  0 hours  0 minutes 24.9 seconds.
 File lengths (MBytes):  RWF=      5 Int=      0 D2E=      0 Chk=      3 Scr=      1
 Normal termination of Gaussian 09 at Mon Sep 14 19:15:02 2015.
